Membrane in water
40344
    1TMC1    C1    1   4.689   0.277  10.940 -0.6038 -1.1059 -0.0097
    1TMC1    C2    2   0.085   0.319  10.953  0.8276  0.4841  0.1020
    1TMC1    C3    3   0.108   0.450  10.997  0.1840 -0.2334  0.2685
    1TMC1    C4    4   4.586   0.364  10.958 -0.0734 -0.8319 -0.1995
    1TMC1    C5    5   4.611   0.491  11.007 -0.2216  0.4427  0.7431
    1TMC1    C6    6   0.003   0.533  11.037 -0.1734 -0.1625 -0.0223
    1TMC1     C    7   4.667   0.136  10.934 -0.0339 -0.1474  0.3288
    1TMC1     O    8   4.548   0.107  10.916  0.3132 -0.2259  0.3898
    1TMC1     H    9   0.174   0.265  10.924  0.9311  0.5514  0.2954
    1TMC1    H1   10   4.487   0.336  10.923  0.8777 -4.6569  0.1828
    1TMC1    H2   11   0.031   0.618  11.097  1.7554 -0.2313 -0.8458
    1TMC1    C7   12   4.500   0.584  11.021 -0.5125 -0.5120 -0.0033
    1TMC1    C8   13   0.239   0.484  11.034 -0.3943  0.2086 -0.4354
    1TMC1    O1   14   4.386   0.545  10.990 -0.3368  0.5620 -0.4986
    1TMC1    O2   15   0.326   0.397  11.045 -0.0317 -0.6152 -0.0421
    1TMC1    O3   16   4.539   0.715  11.021  0.2769 -0.0984  0.1579
    1TMC1    H3   17   4.636   0.726  11.012  0.1055 -0.7590 -2.3793
    1TMC1    O5   18   0.265   0.595  10.963  0.2304 -0.1466 -0.2168
    1TMC1    H5   19   0.199   0.620  10.894 -0.8590 -1.2637  0.4262
    2MPD2     C   20   0.075   4.373  10.948 -0.6177  0.0667 -0.7709
    2MPD2    C1   21   4.686   4.435  10.941  0.0157  0.2859  0.2424
    2MPD2    C2   22   4.680   4.570  10.934 -0.2019 -0.3828  0.5110
    2MPD2    C3   23   0.054   4.653  10.940 -0.0330  0.1908  0.4527
    2MPD2    C4   24   0.175   4.593  10.956  0.2244  0.2088 -0.4544
    2MPD2    C5   25   0.185   4.457  10.949 -0.0761 -0.4742  0.7378
    2MPD2     H   26   4.584   4.619  10.949  0.6092  1.6014 -0.8382
    2MPD2    H1   27   0.265   4.653  10.961  0.4685 -0.2161  0.2631
    2MPD2    H2   28   0.096   4.267  10.949 -2.1971 -0.2455 -0.4170
    2MPD2    H3   29   0.286   4.419  10.948 -0.5757 -1.8034 -0.0187
    2MPD2     N   30   0.040   0.057  10.951 -0.2967  0.1103 -0.3296
    2MPD2    H5   31   0.127   0.105  10.968  0.4226 -1.1045 -0.5849
    2MPD2    N1   32   4.566   4.359  10.966  0.6962  1.0779 -0.1019
    2MPD2    H7   33   4.478   4.411  10.970  0.1769 -0.0369  2.7838
    3TMC1    C1   34   3.441   0.126  11.127  0.2243 -0.3145  0.6558
    3TMC1    C2   35   3.406   0.216  11.031  0.1371 -0.4101 -0.3738
    3TMC1    C3   36   3.442   0.194  10.905 -0.0011  0.3267 -0.6839
    3TMC1    C4   37   3.500   0.009  11.088  0.7239 -0.3800 -0.0228
    3TMC1    C5   38   3.529   4.728  10.960 -0.0377  0.1527 -0.9735
    3TMC1    C6   39   3.503   0.076  10.860 -1.1034  0.0592  0.2309
    3TMC1     C   40   3.435   0.157  11.266  0.2782 -1.3467 -0.1328
    3TMC1     O   41   3.510   0.090  11.338  0.8799  0.7991  0.4397
    3TMC1     H   42   3.368   0.316  11.053 -0.2031 -0.6490  0.1356
    3TMC1    H1   43   3.521   4.673  11.166  0.1450 -0.4242  0.0970
    3TMC1    H2   44   3.521   0.063  10.754  0.9602 -0.3092  0.6238
    3TMC1    C7   45   3.585   4.608  10.915  0.4456 -0.0300  0.1078
    3TMC1    C8   46   3.438   0.314  10.826 -0.6287  0.3640  0.4590
    3TMC1    O1   47   3.559   4.561  10.807 -0.4832  0.1580 -0.2957
    3TMC1    O2   48   3.367   0.413  10.848 -0.2865  0.3332  0.3339
    3TMC1    O3   49   3.711   4.615  10.965  0.1360  0.2263  0.0013
    3TMC1    H3   50   3.731   4.681  11.035 -1.8277  0.8084  0.0274
    3TMC1    O5   51   3.517   0.303  10.713  0.0132  0.0190  0.6695
    3TMC1    H5   52   3.589   0.237  10.726  0.0587  0.1514  1.0808
    4MPD2     C   53   3.316   0.452  11.664 -0.2733  0.6602  0.0037
    4MPD2    C1   54   3.293   0.525  11.548 -0.0318  0.1637  0.2356
    4MPD2    C2   55   3.308   0.461  11.427  0.6450  0.8197 -0.2255
    4MPD2    C3   56   3.356   0.330  11.419  0.4897  0.3856 -1.2860
    4MPD2    C4   57   3.388   0.259  11.540 -0.1050 -0.2684 -0.3506
    4MPD2    C5   58   3.361   0.324  11.660  0.6259  0.4042  0.9132
    4MPD2     H   59   3.285   0.510  11.333 -0.1701 -1.9139 -1.4320
    4MPD2    H1   60   3.424   0.156  11.540 -1.1194 -0.6280  0.2006
    4MPD2    H2   61   3.311   0.497  11.762  0.7763  1.1952 -0.1884
    4MPD2    H3   62   3.373   0.278  11.757  2.2967  0.0417  0.5443
    4MPD2     N   63   3.360   0.266  11.296  0.1187  0.2602  0.0637
    4MPD2    H5   64   3.298   0.302  11.224  0.6129 -0.1307 -0.5574
    4MPD2    N1   65   3.278   0.663  11.542  0.1764 -0.0446 -0.0675
    4MPD2    H7   66   3.268   0.709  11.451  0.6307  0.9980  0.4114
    5TCq1    O1   67   3.305   2.546  10.775 -0.2331 -0.2765  0.4296
    5TCq1    C1   68   3.438   2.552  10.806 -0.9445  0.1625  0.4822
    5TCq1    O2   69   3.525   2.631  10.772 -0.4829 -0.1532  0.0799
    5TCq1    C2   70   3.470   2.438  10.888 -0.0739  0.0614 -0.2946
    5TCq1    C3   71   3.376   2.388  10.972  0.2878  0.3076 -0.4219
    5TCq1    C4   72   3.401   2.282  11.049 -1.0305 -0.3933 -0.3413
    5TCq1    C5   73   3.527   2.221  11.032  0.0191 -0.2790 -0.0398
    5TCq1    C6   74   3.622   2.281  10.958  0.0274 -0.2173 -0.2257
    5TCq1    C7   75   3.595   2.393  10.882 -0.2829 -0.0740 -0.2383
    5TCq1    C8   76   3.739   2.215  10.923 -0.1712 -0.2278 -0.3001
    5TCq1    O4   77   3.727   2.093  10.915 -0.0236  0.0661  0.0046
    5TCq1    C9   78   3.314   2.229  11.154  0.3766  0.1103 -0.3607
    5TCq1    O5   79   3.362   2.164  11.253 -0.2148 -0.4713  0.2311
    5TCq1    O6   80   3.195   2.259  11.141 -0.0866  0.7293  0.3037
    5TCq1    H1   81   3.258   2.466  10.806 -0.1666 -0.1996  0.7258
    5TCq1    H2   82   3.280   2.436  10.987 -0.0231 -0.3335 -0.3431
    5TCq1    H3   83   3.554   2.139  11.098 -1.0243 -1.0255 -0.5458
    5TCq1    H4   84   3.675   2.440  10.824 -0.1976  1.1077  0.8174
    6MPD2     C   85   4.058   2.359  10.773  0.5052 -0.0108 -0.4768
    6MPD2    C1   86   3.964   2.258  10.820  0.2606  0.0994 -0.5108
    6MPD2    C2   87   3.995   2.123  10.798 -0.2014 -0.0506  0.5964
    6MPD2    C3   88   4.108   2.091  10.721 -0.0282  0.4824 -0.7221
    6MPD2    C4   89   4.197   2.188  10.677 -0.6265  1.0569  0.3351
    6MPD2    C5   90   4.176   2.321  10.710  0.2898 -0.6391 -0.4908
    6MPD2     H   91   3.941   2.042  10.845 -0.2774 -0.0255  0.5524
    6MPD2    H1   92   4.285   2.163  10.620  0.1571  0.9018  1.6222
    6MPD2    H2   93   4.048   2.467  10.773 -0.5364 -0.1173  3.6151
    6MPD2    H3   94   4.255   2.391  10.683 -1.1027  0.8618 -0.6210
    6MPD2     N   95   4.143   1.954  10.702 -0.4179  0.2562  0.0628
    6MPD2    H5   96   4.074   1.883  10.725 -0.9995  1.6482  2.5794
    6MPD2    N1   97   3.851   2.302  10.890 -0.3986  0.3290 -0.0745
    6MPD2    H7   98   3.839   2.398  10.920 -2.4153  0.8067 -2.3317
    7TCq1    O1   99   2.035   2.612  13.427  0.1740 -0.3210  0.4894
    7TCq1    C1  100   1.916   2.585  13.491  0.1985 -0.5508 -1.3818
    7TCq1    O2  101   1.851   2.678  13.535  0.2191  0.4412  0.3145
    7TCq1    C2  102   1.856   2.473  13.424  0.5309 -0.1384 -0.8543
    7TCq1    C3  103   1.732   2.474  13.372 -0.2105 -0.1013 -0.1482
    7TCq1    C4  104   1.688   2.364  13.305 -0.5533 -0.0067 -0.2297
    7TCq1    C5  105   1.770   2.255  13.283  0.2318 -1.0275 -0.1247
    7TCq1    C6  106   1.899   2.266  13.330  0.2020 -0.3326  0.4662
    7TCq1    C7  107   1.944   2.368  13.407  0.0901  0.5838 -0.3948
    7TCq1    C8  108   1.996   2.160  13.290 -0.2530  0.2462 -0.6447
    7TCq1    O4  109   1.946   2.062  13.241  0.6961  0.1841 -0.3489
    7TCq1    C9  110   1.542   2.349  13.279 -0.5720 -0.2258 -0.0287
    7TCq1    O5  111   1.463   2.425  13.338 -0.4033  0.7104  0.5798
    7TCq1    O6  112   1.499   2.233  13.243  0.5367  0.2484 -0.5655
    7TCq1    H1  113   2.077   2.544  13.371  1.5258  2.2604 -1.5827
    7TCq1    H2  114   1.669   2.561  13.384  1.3238  0.9642  0.0408
    7TCq1    H3  115   1.721   2.176  13.226 -2.7320  0.2492  0.6464
    7TCq1    H4  116   2.043   2.377  13.450 -0.1193  1.6893 -0.1369
    8MPD2     C  117   2.457   1.944  13.382 -0.7319 -1.3650  0.5154
    8MPD2    C1  118   2.331   1.888  13.346 -0.5451 -0.2821  0.6361
    8MPD2    C2  119   2.217   1.970  13.331 -0.3529  0.2404  0.2696
    8MPD2    C3  120   2.228   2.109  13.337  0.3699 -0.7133  0.2307
    8MPD2    C4  121   2.352   2.157  13.360  0.7238 -0.1552 -0.2910
    8MPD2    C5  122   2.468   2.080  13.379  0.4451  0.4825  0.5232
    8MPD2     H  123   2.124   1.921  13.307 -1.8494  3.2118  0.0167
    8MPD2    H1  124   2.379   2.262  13.360  0.6639 -0.1367  0.2956
    8MPD2    H2  125   2.550   1.890  13.391  1.0685  1.9999  2.0594
    8MPD2    H3  126   2.567   2.122  13.392  0.4188 -0.2545  3.0460
    8MPD2     N  127   2.127   2.195  13.315  0.0004  0.4490 -0.0890
    8MPD2    H5  128   2.147   2.292  13.337 -1.4438  0.2905  1.9431
    8MPD2    N1  129   2.331   1.750  13.327 -0.0099 -0.2206 -0.0524
    8MPD2    H7  130   2.418   1.702  13.347  0.9115  1.1924 -0.6546
    9TMC1    C1  131   3.859   0.773  11.182  0.3467  0.2035  0.2855
    9TMC1    C2  132   3.832   0.823  11.058  0.1203  0.1173 -0.1994
    9TMC1    C3  133   3.715   0.889  11.034  0.0076 -0.1541 -0.4550
    9TMC1    C4  134   3.773   0.776  11.284  0.7022  0.4665 -0.5819
    9TMC1    C5  135   3.655   0.843  11.259 -0.4135 -0.1406 -0.4893
    9TMC1    C6  136   3.625   0.896  11.136  0.1133  0.3968 -0.3466
    9TMC1     C  137   3.998   0.750  11.212  0.1103  0.4825 -0.3487
    9TMC1     O  138   4.069   0.811  11.138  0.3774 -1.0580 -0.5389
    9TMC1     H  139   3.906   0.806  10.980  1.2279  1.1188  0.6319
    9TMC1    H1  140   3.792   0.738  11.384 -1.0639 -0.1837 -0.4938
    9TMC1    H2  141   3.528   0.935  11.107 -0.2393  0.8167  1.4090
    9TMC1    C7  142   3.573   0.874  11.374  0.4068 -0.8961 -0.1378
    9TMC1    C8  143   3.650   0.893  10.900  0.5565  0.1945 -0.4747
    9TMC1    O1  144   3.529   0.983  11.403  0.7837  0.1202 -0.4763
    9TMC1    O2  145   3.539   0.856  10.869  0.5421 -0.4783  0.3584
    9TMC1    O3  146   3.581   0.770  11.464  0.4522  0.0343  0.2226
    9TMC1    H3  147   3.594   0.685  11.416 -1.7301  1.0577 -2.1568
    9TMC1    O5  148   3.761   0.900  10.815 -0.4738  0.5647 -0.1365
    9TMC1    H5  149   3.833   0.951  10.860 -1.1467  1.4025 -0.0146
   10MPD2     C  150   4.261   0.674  11.332  0.9563  0.3210  0.3020
   10MPD2    C1  151   4.138   0.616  11.366  0.2238  0.1398 -0.5494
   10MPD2    C2  152   4.131   0.521  11.467 -0.2183 -0.3032  0.0619
   10MPD2    C3  153   4.242   0.476  11.530 -0.4437  0.7563 -0.3485
   10MPD2    C4  154   4.358   0.539  11.492 -0.5680 -0.3233 -0.3525
   10MPD2    C5  155   4.375   0.634  11.394 -0.7069  1.0962  0.3306
   10MPD2     H  156   4.037   0.478  11.502 -0.3220  0.3223  0.5647
   10MPD2    H1  157   4.443   0.504  11.548 -0.6234  1.1624  0.6809
   10MPD2    H2  158   4.267   0.744  11.249 -2.0155 -0.7724 -0.8661
   10MPD2    H3  159   4.468   0.682  11.368 -0.9101  1.1614 -0.2717
   10MPD2     N  160   4.249   0.373  11.626  0.4381  0.6241  0.0953
   10MPD2    H5  161   4.335   0.370  11.680  0.5425  1.0334 -0.0405
   10MPD2    N1  162   4.022   0.647  11.306 -0.1427 -0.7850 -0.2102
   10MPD2    H7  163   3.935   0.601  11.332  0.7926 -2.2577  0.3388
   11TCq1    O1  164   0.240   0.717  13.891  0.2787 -0.0858 -0.0691
   11TCq1    C1  165   0.149   0.628  13.943 -0.1214  0.5980  0.2338
   11TCq1    O2  166   0.035   0.612  13.897  0.3050  0.4222  0.7374
   11TCq1    C2  167   0.228   0.511  13.983  0.2851  0.4176  0.0438
   11TCq1    C3  168   0.361   0.489  13.950 -0.2122 -0.8856 -0.0911
   11TCq1    C4  169   0.426   0.368  13.976 -0.4121 -0.2262 -0.0512
   11TCq1    C5  170   0.365   0.279  14.055  0.1050  1.1131 -0.4703
   11TCq1    C6  171   0.236   0.303  14.094 -0.7217  0.0067  0.0426
   11TCq1    C7  172   0.165   0.409  14.059 -0.0476  0.0588 -0.0061
   11TCq1    C8  173   0.166   0.192  14.160  0.1212  0.0464  0.3444
   11TCq1    O4  174   0.084   0.214  14.249 -0.7195  0.3403  0.2378
   11TCq1    C9  175   0.549   0.327  13.910  0.1244 -0.2661  0.0289
   11TCq1    O5  176   0.624   0.413  13.865 -0.3738 -0.0842  0.0261
   11TCq1    O6  177   0.565   0.206  13.918  0.1436  0.6918  0.6811
   11TCq1    H1  178   0.312   0.721  13.956 -0.2059 -0.3119  0.4786
   11TCq1    H2  179   0.407   0.549  13.872 -2.2623 -0.6403 -1.1239
   11TCq1    H3  180   0.399   0.176  14.065 -0.5025  0.9312 -0.2494
   11TCq1    H4  181   0.063   0.427  14.092 -0.2446  0.8207 -1.0368
   12MPD2     C  182   0.066   4.660  14.241 -0.4306  0.0247 -0.5867
   12MPD2    C1  183   0.124   4.690  14.120  1.2521 -0.0505  0.0011
   12MPD2    C2  184   0.123   4.589  14.024  0.0192 -1.1653  0.0349
   12MPD2    C3  185   0.062   4.470  14.034 -0.8913 -0.1647 -0.4226
   12MPD2    C4  186   4.733   4.445  14.151 -0.0608  0.8373 -0.2808
   12MPD2    C5  187   0.001   4.536  14.250  0.8824  0.7040 -0.0619
   12MPD2     H  188   0.172   4.609  13.929  2.7232 -3.3041  0.9937
   12MPD2    H1  189   4.684   4.353  14.181  1.9658 -0.3837 -0.7407
   12MPD2    H2  190   0.054   4.730  14.322  2.4857  0.2194 -0.3394
   12MPD2    H3  191   4.688   4.507  14.342  0.0984 -0.8939 -0.9838
   12MPD2     N  192   0.074   4.378  13.928 -0.1750  0.1572 -0.7867
   12MPD2    H5  193   0.115   4.415  13.843 -2.7262  0.7690 -1.7533
   12MPD2    N1  194   0.181   0.076  14.087  0.1184  0.6314  0.6657
   12MPD2    H7  195   0.232   0.085  14.000  2.7632  1.3369  2.2883
   13TCq1    O1  196   3.057   4.276  10.953  0.0750 -0.0292  0.7073
   13TCq1    C1  197   3.126   4.183  10.883  0.1542 -0.3372 -0.3546
   13TCq1    O2  198   3.089   4.119  10.789 -0.7665 -0.6736  0.0162
   13TCq1    C2  199   3.247   4.152  10.956  0.2421  0.0457  0.3608
   13TCq1    C3  200   3.304   4.029  10.929  0.8984  0.2494 -0.0607
   13TCq1    C4  201   3.433   4.010  10.960  0.0329 -0.6881  0.2431
   13TCq1    C5  202   3.504   4.107  11.027  0.2479  0.6014 -0.9662
   13TCq1    C6  203   3.443   4.226  11.052  0.1941 -0.7001 -0.3251
   13TCq1    C7  204   3.318   4.257  11.003  0.4783  0.1539 -0.6368
   13TCq1    C8  205   3.500   4.330  11.149  0.0723  0.3375  0.2650
   13TCq1    O4  206   3.432   4.427  11.178 -0.6374  0.0110  0.8361
   13TCq1    C9  207   3.496   3.881  10.933  0.3107  0.3285 -0.4008
   13TCq1    O5  208   3.424   3.785  10.906  0.4001 -0.8251  0.6657
   13TCq1    O6  209   3.618   3.876  10.948 -0.4461 -0.3177  0.0460
   13TCq1    H1  210   3.087   4.288  11.046  4.1151  0.0134 -0.6154
   13TCq1    H2  211   3.246   3.948  10.887  1.6759 -0.7517  0.7917
   13TCq1    H3  212   3.599   4.085  11.072 -0.4445 -1.1692 -0.3900
   13TCq1    H4  213   3.275   4.357  11.002  0.8815  0.2995 -3.3800
   14MPD2     C  214   3.828   4.285  11.325 -0.0974 -0.3615  0.0663
   14MPD2    C1  215   3.711   4.354  11.293 -0.0856  0.2472 -0.5610
   14MPD2    C2  216   3.692   4.474  11.348 -0.2233  0.0862  0.2034
   14MPD2    C3  217   3.786   4.528  11.437 -0.1844  0.1583 -0.6945
   14MPD2    C4  218   3.899   4.458  11.471 -0.4436  0.7727 -0.5964
   14MPD2    C5  219   3.918   4.333  11.414  0.1513  0.5344 -0.1497
   14MPD2     H  220   3.596   4.524  11.340 -1.3830 -2.2981 -0.9730
   14MPD2    H1  221   3.976   4.502  11.533  0.5643  0.7111 -1.8135
   14MPD2    H2  222   3.847   4.186  11.285 -0.4448  0.0460 -1.1201
   14MPD2    H3  223   4.012   4.287  11.442  0.7987  0.5259 -2.3273
   14MPD2     N  224   3.766   4.661  11.479 -0.3915  0.0914 -0.1262
   14MPD2    H5  225   3.689   4.706  11.430 -1.0607 -0.4968  0.3860
   14MPD2    N1  226   3.630   4.294  11.193 -0.4520  0.0163  0.3346
   14MPD2    H7  227   3.671   4.211  11.151  0.2122  1.1730 -1.3126
   15TCq1    O1  228   2.639   0.330   1.487 -0.4352 -0.6488  0.6486
   15TCq1    C1  229   2.659   0.285   1.611 -0.1055 -0.4029 -0.8689
   15TCq1    O2  230   2.743   0.340   1.683 -0.3812  0.3663 -0.2431
   15TCq1    C2  231   2.543   0.224   1.661 -0.6770  0.2897  0.0813
   15TCq1    C3  232   2.515   0.254   1.793  0.1075  0.7613 -0.2285
   15TCq1    C4  233   2.408   0.189   1.848 -0.2144 -0.8368 -0.2179
   15TCq1    C5  234   2.335   0.096   1.772  0.2775  0.4101 -0.3323
   15TCq1    C6  235   2.381   0.067   1.646 -0.5382  0.7046 -0.1745
   15TCq1    C7  236   2.489   0.125   1.593 -0.2461  0.4672  0.1070
   15TCq1    C8  237   2.319   4.702   1.563 -0.7979 -0.1034 -0.1438
   15TCq1    O4  238   2.373   4.672   1.457 -0.0876 -0.7029  0.1347
   15TCq1    C9  239   2.345   0.236   1.969  0.3602 -0.1209  0.3235
   15TCq1    O5  240   2.398   0.333   2.029 -0.0588 -0.3649 -0.0487
   15TCq1    O6  241   2.221   0.216   1.980  0.3524 -0.0613  0.1747
   15TCq1    H1  242   2.558   0.291   1.448 -0.7806  1.0272 -0.2705
   15TCq1    H2  243   2.578   0.318   1.853  0.8288 -0.7888  0.6813
   15TCq1    H3  244   2.242   0.063   1.816  0.3231  0.6148 -0.0776
   15TCq1    H4  245   2.533   0.094   1.499  1.3615  0.5714  0.8227
   16MPD2     C  246   1.972   4.613   1.482 -0.8279  0.1374 -0.7839
   16MPD2    C1  247   2.108   4.594   1.506 -0.7596 -0.7004 -0.3270
   16MPD2    C2  248   2.167   4.479   1.457  0.4427 -0.5951  0.0250
   16MPD2    C3  249   2.100   4.392   1.372 -0.1306  0.2748  0.0237
   16MPD2    C4  250   1.963   4.421   1.352  0.3482  0.3753 -0.4122
   16MPD2    C5  251   1.895   4.521   1.416 -0.1872  0.3132  0.4109
   16MPD2     H  252   2.273   4.463   1.474  0.3734  0.2244  1.1674
   16MPD2    H1  253   1.899   4.359   1.290  0.1602 -0.3976  0.5398
   16MPD2    H2  254   1.937   4.709   1.519  2.0503 -0.0697  2.4208
   16MPD2    H3  255   1.795   4.550   1.386 -0.6872  0.6295  2.3441
   16MPD2     N  256   2.167   4.282   1.312  0.1302  0.3583  0.5207
   16MPD2    H5  257   2.268   4.274   1.318  0.0505 -1.7307 -0.9134
   16MPD2    N1  258   2.180   4.689   1.574 -0.1101 -0.1626 -0.0573
   16MPD2    H7  259   2.123   0.016   1.630 -0.7060 -1.8375  1.2461
   17TMC1    C1  260   4.080   3.922  10.956 -0.1811  0.1990 -0.4475
   17TMC1    C2  261   4.039   3.934  11.084  0.1029 -0.2212  0.3200
   17TMC1    C3  262   3.933   3.854  11.130 -0.8152 -0.5552  0.0310
   17TMC1    C4  263   4.030   3.841  10.866 -0.4555  0.4571 -0.1151
   17TMC1    C5  264   3.925   3.765  10.912 -0.6571 -0.2972  0.3647
   17TMC1    C6  265   3.871   3.777  11.042 -0.3091  0.1140 -0.2447
   17TMC1     C  266   4.138   4.043  10.897  0.0566  0.3419  0.1988
   17TMC1     O  267   4.114   4.143  10.964  0.1599  0.0397 -0.0639
   17TMC1     H  268   4.084   3.999  11.158 -1.7532 -0.0788  1.3309
   17TMC1    H1  269   4.077   3.837  10.769  0.0859 -2.2378  0.2369
   17TMC1    H2  270   3.803   3.699  11.073 -0.3924  0.9389  1.5977
   17TMC1    C7  271   3.879   3.651  10.828 -0.1276  0.5793 -0.9602
   17TMC1    C8  272   3.847   3.895  11.234  1.1206  0.0808 -0.5393
   17TMC1    O1  273   3.941   3.593  10.741 -0.7188  0.0792  0.5292
   17TMC1    O2  274   3.892   3.961  11.327  0.0867  0.0854 -0.2988
   17TMC1    O3  275   3.745   3.671  10.833 -0.1992  1.0822 -0.0741
   17TMC1    H3  276   3.722   3.750  10.886  1.5462  1.0446  0.7600
   17TMC1    O5  277   3.729   3.918  11.182 -0.4602  0.5214 -0.1741
   17TMC1    H5  278   3.702   3.880  11.096  2.3614  0.7423 -1.1383
   18MPD2     C  279   4.278   4.247  10.746 -0.2023 -0.6205  0.8059
   18MPD2    C1  280   4.304   4.110  10.734  0.6518  0.2317  0.1703
   18MPD2    C2  281   4.426   4.074  10.669  0.3288 -0.4035  0.2703
   18MPD2    C3  282   4.507   4.165  10.605  0.4491 -0.5835 -0.0421
   18MPD2    C4  283   4.470   4.300  10.613  0.0490  0.0406  0.5068
   18MPD2    C5  284   4.360   4.342  10.685  0.7267 -0.2924 -0.1612
   18MPD2     H  285   4.453   3.969  10.662 -2.5922 -1.0309 -1.3876
   18MPD2    H1  286   4.528   4.379  10.568  0.8849 -1.1731 -0.5285
   18MPD2    H2  287   4.186   4.286  10.789 -0.1535 -0.5251  0.8239
   18MPD2    H3  288   4.332   4.446  10.681  0.4636 -0.3885 -0.7468
   18MPD2     N  289   4.623   4.136  10.532  0.0070 -0.1859 -0.1223
   18MPD2    H5  290   4.681   4.212  10.499  1.1391 -0.3738  1.4596
   18MPD2    N1  291   4.233   4.013  10.800 -0.4947 -0.4626  0.2339
   18MPD2    H7  292   4.266   3.918  10.790  1.4208  0.0490  1.6903
   19TMC2    C1  293   1.096   0.405  13.845  0.1251 -0.8941  0.2548
   19TMC2    C2  294   1.015   0.445  13.736  0.0245 -0.0346  0.0598
   19TMC2    C3  295   0.910   0.365  13.700 -0.1977 -0.0507 -0.0735
   19TMC2    C4  296   1.061   0.298  13.921  0.8521  0.0810  0.3347
   19TMC2    C5  297   0.945   0.232  13.893 -0.0647 -0.1034 -1.1194
   19TMC2    C6  298   0.873   0.263  13.776  0.2415  0.0702 -0.0104
   19TMC2     C  299   1.204   0.490  13.885 -0.3906  0.0670  0.4248
   19TMC2     O  300   1.186   0.603  13.840  0.4360  0.0190 -0.1136
   19TMC2     H  301   1.025   0.542  13.689 -0.7482  0.1295  0.2284
   19TMC2    H1  302   1.117   0.272  14.010  2.6907 -0.3142 -0.9218
   19TMC2    H2  303   0.782   0.208  13.754 -0.0915 -0.3129  2.2678
   19TMC2    C7  304   0.927   0.096  13.946  0.2174 -0.3775  0.3645
   19TMC2    C8  305   0.841   0.399  13.583 -0.6231 -0.0925 -0.1644
   19TMC2    O1  306   1.016   0.051  14.012  0.3676  0.0133  0.3741
   19TMC2    O2  307   0.897   0.459  13.493 -0.1540 -0.7060 -0.5734
   19TMC2    O5  308   0.707   0.381  13.599  0.3136 -0.5044  0.4593
   19TMC2    H5  309   0.681   0.357  13.691 -0.7337  1.3588  0.6579
   20MPD2     C  310   1.407   0.647  14.027  0.3518  0.1318 -0.1595
   20MPD2    C1  311   1.407   0.511  14.034 -1.0876  0.3651 -0.1908
   20MPD2    C2  312   1.504   0.444  14.105 -0.6112 -0.0777  0.1094
   20MPD2    C3  313   1.603   0.516  14.178 -0.5846 -0.0173 -1.2467
   20MPD2    C4  314   1.597   0.652  14.180 -0.8885 -0.0118 -0.2629
   20MPD2    C5  315   1.499   0.716  14.105  0.6869 -0.2023  0.2395
   20MPD2     H  316   1.503   0.336  14.096 -1.0761 -0.1470  0.9682
   20MPD2    H1  317   1.669   0.703  14.243  1.1341 -2.0350 -0.9129
   20MPD2    H2  318   1.337   0.708  13.971 -0.4454 -0.2147  0.4639
   20MPD2    H3  319   1.499   0.824  14.107  0.1834 -0.1645 -1.3781
   20MPD2     N  320   1.706   0.454  14.260 -0.1384 -0.3567  0.2651
   20MPD2    H5  321   1.774   0.516  14.303 -0.6462  1.6871 -1.8489
   20MPD2    N1  322   1.299   0.440  13.968 -0.0319 -0.0335  1.0141
   20MPD2    H7  323   1.305   0.339  13.960 -0.2263  0.0284  0.0894
   21TMC2    C1  324   4.031   0.361  14.269  0.6747 -0.6529  0.7443
   21TMC2    C2  325   4.129   0.261  14.288  0.3791  0.4612  0.2095
   21TMC2    C3  326   4.116   0.179  14.396  0.3215  0.3088 -0.2085
   21TMC2    C4  327   3.927   0.369  14.355  0.1189  0.2267 -1.1650
   21TMC2    C5  328   3.929   0.293  14.470 -0.9894  0.2217 -0.0739
   21TMC2    C6  329   4.028   0.208  14.496  1.0650 -0.4241 -0.3415
   21TMC2     C  330   4.094   0.481  14.242 -0.0154 -0.6799  0.1759
   21TMC2     O  331   4.210   0.501  14.279 -0.1815 -0.1894  0.1111
   21TMC2     H  332   4.218   0.258  14.226  0.7231 -0.7760  0.7801
   21TMC2    H1  333   3.855   0.448  14.340 -0.6730 -0.5563 -1.4611
   21TMC2    H2  334   4.029   0.151  14.588 -3.6245  2.1583  1.3053
   21TMC2    C7  335   3.900   0.375  14.592 -1.0206 -0.5675 -0.0713
   21TMC2    C8  336   4.202   0.064  14.420 -0.7194  0.5401  0.0112
   21TMC2    O1  337   3.965   0.341  14.690  0.1308 -0.0969  0.1765
   21TMC2    O2  338   4.215   4.735  14.527  0.3823  0.4240  0.0854
   21TMC2    O5  339   4.242   0.018  14.298 -0.3868  0.3087  0.2379
   21TMC2    H5  340   4.190   0.049  14.221  1.1847  0.8359 -0.6052
   22MPD2     C  341   3.881   0.916  14.399 -0.3936 -0.8524  0.1724
   22MPD2    C1  342   3.998   0.849  14.431 -0.0903 -0.5266 -0.7741
   22MPD2    C2  343   4.048   0.753  14.353 -0.0409  0.5130 -0.0876
   22MPD2    C3  344   3.977   0.704  14.247 -0.1804  0.7344  0.2913
   22MPD2    C4  345   3.856   0.758  14.216 -0.0594  0.4025 -0.2353
   22MPD2    C5  346   3.811   0.862  14.293 -0.2249  0.2374 -0.0118
   22MPD2     H  347   4.140   0.705  14.386  0.1559  0.0805 -1.2750
   22MPD2    H1  348   3.790   0.722  14.138 -1.2218  0.2073  0.8409
   22MPD2    H2  349   3.837   0.990  14.465  1.0707 -0.3167  0.5469
   22MPD2    H3  350   3.710   0.898  14.273 -0.7793 -0.6785  1.0748
   22MPD2     N  351   3.993   0.573  14.206 -0.1314 -0.0165  0.1997
   22MPD2    H5  352   3.915   0.528  14.157 -0.5488 -0.3687  1.1907
   22MPD2    N1  353   4.074   0.873  14.551  0.1952 -0.1852  0.2268
   22MPD2    H7  354   4.163   0.826  14.558 -0.6469 -1.8155 -0.1105
   23TMC2    C1  355   0.764   1.424  14.617  0.4295  0.3959 -0.3108
   23TMC2    C2  356   0.886   1.394  14.558  0.3524 -0.0372 -0.6194
   23TMC2    C3  357   0.889   1.344  14.431 -0.1898  0.3859 -0.0951
   23TMC2    C4  358   0.649   1.399  14.554  0.5068 -0.0213  0.4170
   23TMC2    C5  359   0.663   1.347  14.425 -0.4951 -0.3103  0.3214
   23TMC2    C6  360   0.781   1.322  14.361 -0.2868  0.0661  0.2674
   23TMC2     C  361   0.764   1.444  14.757  0.4824  0.8632  0.3397
   23TMC2     O  362   0.872   1.420  14.810 -0.1511  0.4443 -0.3860
   23TMC2     H  363   0.975   1.398  14.620 -0.5699 -2.0728  0.8473
   23TMC2    H1  364   0.552   1.404  14.603 -0.0004 -1.6947 -0.4209
   23TMC2    H2  365   0.786   1.293  14.257  0.7937  1.0589  0.0336
   23TMC2    C7  366   0.548   1.279  14.370  0.6995 -0.0254 -0.1578
   23TMC2    C8  367   1.021   1.336  14.364  0.3687 -0.4596 -0.2903
   23TMC2    O1  368   0.566   1.174  14.305  0.0802 -0.1808 -0.3852
   23TMC2    O2  369   1.050   1.259  14.272  0.2629  0.0894  0.0854
   23TMC2    O5  370   1.074   1.461  14.384 -0.0648  0.6216 -0.4430
   23TMC2    H5  371   1.014   1.518  14.437 -0.5897 -2.6645  2.4640
   24MPD2     C  372   0.549   1.602  15.184 -0.0875 -0.0043 -0.0719
   24MPD2    C1  373   0.667   1.532  15.171 -0.4746 -0.0882 -0.6765
   24MPD2    C2  374   0.706   1.499  15.047  0.0288  0.5906  0.9285
   24MPD2    C3  375   0.635   1.551  14.938 -1.1195  0.1769  0.0350
   24MPD2    C4  376   0.531   1.638  14.959  0.1822  0.1593 -0.1910
   24MPD2    C5  377   0.480   1.657  15.084 -0.5782  0.0629  1.0063
   24MPD2     H  378   0.788   1.429  15.038 -2.8481 -2.8004  1.2405
   24MPD2    H1  379   0.481   1.689  14.878 -2.1040 -2.5179 -0.4307
   24MPD2    H2  380   0.521   1.630  15.285  0.1559  0.8999 -0.2524
   24MPD2    H3  381   0.391   1.715  15.103 -0.8994 -0.6507  1.6893
   24MPD2     N  382   0.656   1.515  14.804  0.1040 -0.1350  0.1486
   24MPD2    H5  383   0.583   1.543  14.739 -0.4281 -0.6629  0.5193
   24MPD2    N1  384   0.746   1.481  15.276 -0.0887  0.0472  0.2201
   24MPD2    H7  385   0.823   1.424  15.242 -0.1505  0.0437  0.0865
   25TMC2    C1  386   3.949   3.574  11.396  0.0169 -0.2321  0.2694
   25TMC2    C2  387   4.057   3.643  11.433  0.1806 -0.9910  0.1976
   25TMC2    C3  388   4.059   3.707  11.554 -0.4283 -0.0094 -0.1043
   25TMC2    C4  389   3.835   3.570  11.479  0.4948 -0.1392 -0.6756
   25TMC2    C5  390   3.838   3.644  11.597  0.1652  0.6148  0.1921
   25TMC2    C6  391   3.953   3.705  11.635 -0.6591  0.1923 -0.3638
   25TMC2     C  392   3.955   3.496  11.270 -0.3434 -0.0572 -0.4021
   25TMC2     O  393   4.034   3.537  11.187  0.2843  0.0064 -0.3820
   25TMC2     H  394   4.143   3.645  11.366 -0.0008 -2.4971 -0.0774
   25TMC2    H1  395   3.751   3.506  11.457 -0.1020  0.9510 -1.5815
   25TMC2    H2  396   3.947   3.767  11.724  0.7207  1.8997 -1.4553
   25TMC2    C7  397   3.720   3.676  11.676 -0.4708 -0.3447 -0.0592
   25TMC2    C8  398   4.171   3.796  11.587  0.3563  0.4069 -0.1259
   25TMC2    O1  399   3.729   3.674  11.800 -0.0849 -0.4448  0.6270
   25TMC2    O2  400   4.227   3.864  11.505 -0.2977 -0.1773  0.1241
   25TMC2    O5  401   4.199   3.792  11.719 -0.5430 -0.6981 -0.1949
   25TMC2    H5  402   4.163   3.722  11.779  0.3694 -1.5394 -0.6369
   26MPD2     C  403   3.787   3.155  10.940  0.0184  0.0819  0.3896
   26MPD2    C1  404   3.701   3.152  11.045  0.4833 -0.3805 -0.6179
   26MPD2    C2  405   3.728   3.224  11.152  0.6170  0.0632  0.1929
   26MPD2    C3  406   3.837   3.314  11.149  0.9821  0.6371  0.8530
   26MPD2    C4  407   3.921   3.320  11.038  0.8813  0.0395 -0.3110
   26MPD2    C5  408   3.899   3.231  10.942  0.4605 -0.6107 -0.2811
   26MPD2     H  409   3.667   3.224  11.242  0.2177 -0.2622 -0.0833
   26MPD2    H1  410   3.999   3.394  11.023 -0.5361  1.4986 -0.4690
   26MPD2    H2  411   3.766   3.093  10.853 -2.2839  1.3520  0.0712
   26MPD2    H3  412   3.967   3.225  10.857  0.1378 -0.6384 -0.5405
   26MPD2     N  413   3.854   3.397  11.259 -0.0380 -0.0698 -0.0056
   26MPD2    H5  414   3.792   3.377  11.337 -1.8510  0.8099 -1.2217
   26MPD2    N1  415   3.587   3.067  11.029 -0.7886  0.0702  0.1560
   26MPD2    H7  416   3.598   2.998  10.956 -0.0010 -0.0045  0.3515
   27TMC2    C1  417   3.016   1.662  11.959 -0.1752  0.6042 -0.4123
   27TMC2    C2  418   3.115   1.697  11.869 -0.2428 -0.2904 -0.1404
   27TMC2    C3  419   3.230   1.745  11.919  0.8015  0.1223 -0.2766
   27TMC2    C4  420   3.037   1.671  12.095  0.1840 -0.1988  0.1941
   27TMC2    C5  421   3.150   1.718  12.148 -0.2033  0.1105 -0.8363
   27TMC2    C6  422   3.250   1.750  12.059 -0.4090  1.5078  0.2572
   27TMC2     C  423   2.893   1.613  11.916  0.1237 -0.5748  0.1171
   27TMC2     O  424   2.847   1.684  11.829  0.3946 -0.0015 -0.0514
   27TMC2     H  425   3.098   1.701  11.763  0.2816  1.0605 -0.1668
   27TMC2    H1  426   2.966   1.641  12.172  2.0113 -1.4780  1.3935
   27TMC2    H2  427   3.341   1.801  12.090 -0.9982  1.5932  1.8471
   27TMC2    C7  428   3.173   1.733  12.293 -0.1951 -0.1848  0.0656
   27TMC2    C8  429   3.333   1.797  11.831 -0.0575  0.0942 -0.2781
   27TMC2    O1  430   3.081   1.691  12.365 -0.5527 -0.2906 -0.3342
   27TMC2    O2  431   3.350   1.746  11.724 -0.0462 -0.4173 -0.3943
   27TMC2    O5  432   3.395   1.913  11.868  0.1143  0.5133  0.0617
   27TMC2    H5  433   3.345   1.969  11.932 -3.5396  1.9263 -3.9725
   28MPD2     C  434   2.495   1.300  11.962 -0.3080  0.5348  0.2413
   28MPD2    C1  435   2.578   1.281  12.066  0.3077  0.0417  0.0034
   28MPD2    C2  436   2.686   1.355  12.078  0.4212  0.4278  0.6641
   28MPD2    C3  437   2.720   1.439  11.980 -0.2678  0.3806  0.2737
   28MPD2    C4  438   2.650   1.453  11.866 -0.2499 -0.3464 -0.8531
   28MPD2    C5  439   2.532   1.389  11.858  0.2679  0.7619  0.7000
   28MPD2     H  440   2.758   1.350  12.159  1.6477 -1.7670 -0.5555
   28MPD2    H1  441   2.675   1.522  11.785 -2.3030  1.4294  0.0304
   28MPD2    H2  442   2.400   1.248  11.960  0.9538 -1.7969  1.7752
   28MPD2    H3  443   2.471   1.412  11.772 -2.6238 -2.2033  1.9409
   28MPD2     N  444   2.849   1.507  11.991  0.3971 -0.4993  0.1810
   28MPD2    H5  445   2.912   1.471  12.062 -1.4230 -1.6638  1.2130
   28MPD2    N1  446   2.534   1.200  12.170 -0.6227  0.3020  0.1186
   28MPD2    H7  447   2.447   1.149  12.163  0.2101 -0.9958 -0.9146
   29TMC2    C1  448   2.411   4.086  14.471  0.1321 -0.0744 -0.4221
   29TMC2    C2  449   2.298   4.109  14.540  0.4416  0.0670 -0.7922
   29TMC2    C3  450   2.263   4.238  14.563 -0.3161  0.4517  0.0268
   29TMC2    C4  451   2.503   4.187  14.448  0.1252 -0.7337 -0.0497
   29TMC2    C5  452   2.474   4.313  14.488 -0.4539 -0.2470  0.6174
   29TMC2    C6  453   2.347   4.347  14.533  0.3025 -0.3827  1.1797
   29TMC2     C  454   2.426   3.951  14.417 -0.3423  0.6459 -0.1871
   29TMC2     O  455   2.370   3.859  14.473  0.0971 -0.0437  0.3733
   29TMC2     H  456   2.235   4.027  14.572  0.1050  0.9012  0.6784
   29TMC2    H1  457   2.596   4.154  14.404 -0.1097  0.7900 -1.6827
   29TMC2    H2  458   2.322   4.449  14.560  0.3108 -0.3436  1.0384
   29TMC2    C7  459   2.559   4.418  14.439  0.2843 -0.0557 -1.3554
   29TMC2    C8  460   2.130   4.259  14.622 -0.6301 -0.3185 -0.7954
   29TMC2    O1  461   2.500   4.516  14.402 -0.3578 -0.6246  0.0584
   29TMC2    O2  462   2.046   4.174  14.603  0.0261  0.1563  0.0333
   29TMC2    O5  463   2.122   4.363  14.708 -0.3664 -0.0350  0.1477
   29TMC2    H5  464   2.213   4.398  14.721 -0.2813 -1.0067  2.0665
   30MPD2     C  465   2.582   3.600  14.083  0.3815 -0.8111 -0.1413
   30MPD2    C1  466   2.541   3.586  14.214  0.1313  0.6595 -0.5721
   30MPD2    C2  467   2.517   3.706  14.280 -0.4243 -0.7692  0.0811
   30MPD2    C3  468   2.528   3.833  14.225 -0.0618 -0.5281  0.1803
   30MPD2    C4  469   2.593   3.840  14.106  0.0777  0.2059  0.1668
   30MPD2    C5  470   2.624   3.724  14.039  0.7730  0.2935  0.0012
   30MPD2     H  471   2.485   3.688  14.382  0.8644 -0.5478  0.5304
   30MPD2    H1  472   2.613   3.934  14.056  1.4167 -0.8408 -1.2535
   30MPD2    H2  473   2.609   3.524  14.010  3.4889  0.2281 -0.0679
   30MPD2    H3  474   2.670   3.729  13.941  0.5993  4.0426  0.1212
   30MPD2     N  475   2.495   3.950  14.298  0.0652 -0.4489 -0.0497
   30MPD2    H5  476   2.520   4.037  14.252 -2.4355 -0.0773 -0.7031
   30MPD2    N1  477   2.528   3.462  14.281  0.5044 -0.1074 -0.1651
   30MPD2    H7  478   2.503   3.452  14.379 -0.6618 -0.2128 -0.4700
   31TMC2    C1  479   0.658   2.065  15.105 -0.1519 -0.4626  0.8682
   31TMC2    C2  480   0.748   1.967  15.063 -0.0606  0.6576 -0.1496
   31TMC2    C3  481   0.791   1.878  15.154 -0.3206 -0.7788 -0.0993
   31TMC2    C4  482   0.608   2.073  15.231 -0.1820  0.3538 -0.4339
   31TMC2    C5  483   0.641   1.965  15.312  0.0418  0.1267  0.2153
   31TMC2    C6  484   0.733   1.872  15.275 -0.1162 -0.0885  0.1333
   31TMC2     C  485   0.634   2.176  15.007  0.0028 -0.2812  0.2736
   31TMC2     O  486   0.628   2.142  14.889  0.1845  0.6557 -0.1430
   31TMC2     H  487   0.788   1.978  14.962 -0.6035  0.4778 -0.3821
   31TMC2    H1  488   0.521   2.136  15.243 -0.4376  0.0666 -0.7683
   31TMC2    H2  489   0.769   1.802  15.350  0.3999 -0.6649 -0.6465
   31TMC2    C7  490   0.594   1.980  15.448  0.1282  0.4746  0.0862
   31TMC2    C8  491   0.898   1.792  15.112 -0.0991  0.8051 -0.3466
   31TMC2    O1  492   0.546   2.092  15.466 -0.4113  0.5541 -0.7393
   31TMC2    O2  493   0.920   1.764  14.996 -0.0629 -0.5468 -0.2283
   31TMC2    O5  494   0.963   1.745  15.218  0.3232 -0.1415  0.0874
   31TMC2    H5  495   0.974   1.806  15.294 -1.6026  0.5321 -0.1839
   32MPD2     C  496   0.505   2.682  14.919  0.6930 -0.2410 -0.4055
   32MPD2    C1  497   0.545   2.581  14.823  0.1259 -0.3758 -0.1599
   32MPD2    C2  498   0.575   2.452  14.867 -0.7427  0.0702  0.2913
   32MPD2    C3  499   0.579   2.428  15.006  0.2139  0.4562  0.0178
   32MPD2    C4  500   0.537   2.524  15.096  0.0386  0.2854  0.4959
   32MPD2    C5  501   0.503   2.648  15.054  0.0402 -0.2870  0.1406
   32MPD2     H  502   0.606   2.378  14.793 -0.5681  1.9784 -1.5473
   32MPD2    H1  503   0.528   2.497  15.200  0.9754  0.9104  0.7308
   32MPD2    H2  504   0.489   2.787  14.896 -0.5235 -0.1587  0.7840
   32MPD2    H3  505   0.487   2.720  15.134  1.9905 -0.0521  0.3142
   32MPD2     N  506   0.607   2.303  15.067 -0.1639 -0.2550 -0.2875
   32MPD2    H5  507   0.613   2.297  15.168  0.9812  1.1252 -0.2755
   32MPD2    N1  508   0.567   2.622  14.693  0.1476 -0.4305  0.2804
   32MPD2    H7  509   0.559   2.722  14.682 -0.9694 -0.5875 -0.2875
   33TMC2    C1  510   0.038   4.680   9.746  0.6584 -1.0281  0.2471
   33TMC2    C2  511   4.654   4.630   9.709 -0.0967  0.0831 -0.2850
   33TMC2    C3  512   4.581   4.714   9.633  0.1635 -0.1092  0.0666
   33TMC2    C4  513   0.087   0.066   9.711  0.0261  0.3506  0.4039
   33TMC2    C5  514   0.011   0.152   9.638  0.3654 -0.3211  0.1336
   33TMC2    C6  515   4.621   0.106   9.602 -0.1966  0.1603  0.4776
   33TMC2     C  516   0.117   4.591   9.825 -0.1991  0.1507  0.2603
   33TMC2     O  517   0.052   4.515   9.894 -0.2798 -0.2847  0.3108
   33TMC2     H  518   4.615   4.539   9.754  1.1613  0.3791  1.3995
   33TMC2    H1  519   0.177   0.109   9.755  1.3968 -0.1737 -1.9207
   33TMC2    H2  520   4.555   0.166   9.540 -0.1117 -0.0179  0.2119
   33TMC2    C7  521   0.055   0.288   9.603 -0.1778 -0.4040  0.0216
   33TMC2    C8  522   4.431   4.695   9.611 -0.3788  1.0422  0.5029
   33TMC2    O1  523   0.180   0.298   9.594 -0.3895 -0.1402 -0.2817
   33TMC2    O2  524   4.357   0.055   9.597 -0.1136  0.2017 -0.3099
   33TMC2    O5  525   4.386   4.572   9.657 -0.3414  0.0537 -0.2482
   33TMC2    H5  526   4.457   4.504   9.666  0.0082  0.7010  1.8092
   34MPD2     C  527   0.528   4.455  10.095 -0.6700  0.8283 -1.0193
   34MPD2    C1  528   0.402   4.405  10.086 -0.7857  0.2078 -0.0793
   34MPD2    C2  529   0.307   4.456  10.002 -0.4057  0.2522  0.5121
   34MPD2    C3  530   0.342   4.564   9.919  0.6818 -0.3265  0.3844
   34MPD2    C4  531   0.475   4.609   9.922 -0.3939  0.0885  0.3187
   34MPD2    C5  532   0.560   4.559  10.011  0.3165 -0.6119  0.2380
   34MPD2     H  533   0.213   4.403   9.997 -0.3336  0.2475 -0.6638
   34MPD2    H1  534   0.505   4.693   9.860 -0.9009 -0.2660 -0.4023
   34MPD2    H2  535   0.600   4.413  10.165  0.0546  2.1186 -0.9902
   34MPD2    H3  536   0.656   4.608  10.022  0.8805 -1.3156 -1.5689
   34MPD2     N  537   0.250   4.618   9.829 -0.6226 -0.4046 -0.0765
   34MPD2    H5  538   0.280   4.686   9.760 -2.7847  0.7554  0.1093
   34MPD2    N1  539   0.367   4.296  10.171  0.5735  0.1523  0.0487
   34MPD2    H7  540   0.438   4.258  10.232  2.1591 -0.0741 -1.9361
   35TMC2    C1  541   1.474   0.982  11.057  0.0457  0.5426  0.5371
   35TMC2    C2  542   1.467   1.077  10.959 -0.3613  0.2004  0.4194
   35TMC2    C3  543   1.366   1.065  10.869 -0.4877 -0.2294  0.0884
   35TMC2    C4  544   1.395   0.866  11.050 -0.3715  0.0894  0.3304
   35TMC2    C5  545   1.300   0.858  10.955  0.1550  0.5020  0.0571
   35TMC2    C6  546   1.275   0.963  10.863  0.5304 -0.8894  0.6407
   35TMC2     C  547   1.544   1.009  11.184 -0.6956  0.1839 -0.3514
   35TMC2     O  548   1.616   1.110  11.184  0.2381 -0.0740  0.2759
   35TMC2     H  549   1.524   1.168  10.974 -0.0641  0.3332 -1.4484
   35TMC2    H1  550   1.413   0.778  11.111  3.6659 -0.2193 -1.2970
   35TMC2    H2  551   1.209   0.960  10.777  1.4709 -1.1067 -0.0792
   35TMC2    C7  552   1.212   0.741  10.941 -0.6690 -0.4645  0.5544
   35TMC2    C8  553   1.333   1.176  10.788 -0.0983  0.2679 -0.8728
   35TMC2    O1  554   1.245   0.652  11.017  0.2328  0.2407  0.3549
   35TMC2    O2  555   1.260   1.163  10.688  0.0348 -0.1885  0.2129
   35TMC2    O5  556   1.310   1.279  10.876  0.1951 -0.6571 -0.6157
   35TMC2    H5  557   1.310   1.256  10.971 -0.6104  2.4175  0.1272
   36MPD2     C  558   1.670   0.906  11.662  0.0330  0.6184 -0.3993
   36MPD2    C1  559   1.630   0.789  11.604  0.4508  0.0642 -0.1331
   36MPD2    C2  560   1.581   0.785  11.471  0.0598  0.2935  0.4729
   36MPD2    C3  561   1.575   0.905  11.405  0.7154  0.2197  0.5289
   36MPD2    C4  562   1.609   1.024  11.463 -0.5564  0.2428 -0.3594
   36MPD2    C5  563   1.662   1.023  11.588 -0.4742 -0.1892 -0.6817
   36MPD2     H  564   1.545   0.698  11.417 -0.2104  0.5270  0.2753
   36MPD2    H1  565   1.600   1.121  11.417  0.3669 -0.2407 -1.5472
   36MPD2    H2  566   1.712   0.907  11.761  0.6344  1.5727 -0.6650
   36MPD2    H3  567   1.695   1.120  11.622  1.4320 -0.5972 -1.3488
   36MPD2     N  568   1.523   0.915  11.279  0.1883  0.1965  0.4067
   36MPD2    H5  569   1.464   0.839  11.248  1.3155 -0.3082 -0.5024
   36MPD2    N1  570   1.646   0.676  11.679  0.3072 -0.0444 -0.8418
   36MPD2    H7  571   1.691   0.689  11.769 -0.5465 -0.8414 -0.3007
   37TMC2    C1  572   3.742   1.145  12.333  0.1360  0.6799 -0.0109
   37TMC2    C2  573   3.616   1.106  12.315  0.3083 -0.4570 -0.2496
   37TMC2    C3  574   3.558   1.105  12.188 -0.8337  0.1371  0.1361
   37TMC2    C4  575   3.818   1.181  12.225  0.0727  0.5638 -0.2874
   37TMC2    C5  576   3.758   1.192  12.099 -0.8348  0.3097  0.1571
   37TMC2    C6  577   3.629   1.164  12.081 -0.0810  0.4127  0.4160
   37TMC2     C  578   3.793   1.158  12.464 -0.8871  0.0014  0.3740
   37TMC2     O  579   3.734   1.105  12.562 -0.5657 -0.4843 -0.4778
   37TMC2     H  580   3.552   1.093  12.401  1.1516  1.5340  0.6739
   37TMC2    H1  581   3.920   1.218  12.230 -0.4080  1.8735 -0.1870
   37TMC2    H2  582   3.586   1.164  11.981 -1.5085  0.4526  1.0377
   37TMC2    C7  583   3.842   1.234  11.986 -0.5858  0.0201  0.5362
   37TMC2    C8  584   3.431   1.035  12.155 -0.0868  0.4682 -0.2943
   37TMC2    O1  585   3.951   1.285  12.013 -0.4257 -0.1602 -0.2310
   37TMC2    O2  586   3.354   1.057  12.061  0.0139 -0.2691  0.8151
   37TMC2    O5  587   3.402   0.976  12.275  0.7211 -0.3854 -0.3129
   37TMC2    H5  588   3.471   0.962  12.343 -0.2627 -2.5230  0.2727
   38MPD2     C  589   4.080   1.393  12.811  0.8819  0.1892  0.2820
   38MPD2    C1  590   4.152   1.386  12.694 -0.2703 -1.0256 -0.0249
   38MPD2    C2  591   4.097   1.325  12.586  0.6811 -0.5714 -0.4166
   38MPD2    C3  592   3.971   1.270  12.593 -0.1838 -0.3974 -1.2694
   38MPD2    C4  593   3.899   1.288  12.708 -0.6007 -0.6542 -0.2186
   38MPD2    C5  594   3.952   1.349  12.819 -0.0304 -0.4235 -0.1622
   38MPD2     H  595   4.153   1.318  12.493  1.7901  0.8480  0.1474
   38MPD2    H1  596   3.796   1.257  12.722 -0.4070 -0.5776  1.4856
   38MPD2    H2  597   4.128   1.435  12.898 -3.3986  3.5553  1.0532
   38MPD2    H3  598   3.896   1.353  12.911  0.6515  3.1089  0.0759
   38MPD2     N  599   3.917   1.213  12.472  0.1885  0.0620  0.3927
   38MPD2    H5  600   3.963   1.234  12.384  1.0937  0.8936  1.0588
   38MPD2    N1  601   4.287   1.423  12.689  0.3891  0.2581 -0.4335
   38MPD2    H7  602   4.336   1.400  12.603  0.9482  0.7031 -0.2321
   39TMC2    C1  603   2.280   3.563   1.244  0.8254  0.3317 -0.5866
   39TMC2    C2  604   2.412   3.528   1.254 -0.0023  0.0516 -0.2347
   39TMC2    C3  605   2.483   3.571   1.363 -0.2861 -0.2549 -0.3075
   39TMC2    C4  606   2.222   3.655   1.330 -0.6076  0.2221 -0.0180
   39TMC2    C5  607   2.290   3.685   1.443 -0.0771  1.1307  0.2121
   39TMC2    C6  608   2.421   3.647   1.467 -0.2126 -0.4162  0.0082
   39TMC2     C  609   2.190   3.502   1.143 -0.0251 -0.6193  0.1060
   39TMC2     O  610   2.070   3.525   1.148 -0.0434  0.5600  0.2877
   39TMC2     H  611   2.461   3.471   1.176 -0.1730  0.7803 -0.8649
   39TMC2    H1  612   2.122   3.691   1.309 -1.1064 -0.0812  1.8081
   39TMC2    H2  613   2.464   3.663   1.566 -0.1843 -2.1671  0.2745
   39TMC2    C7  614   2.253   3.807   1.512  0.8413  0.2716 -0.2010
   39TMC2    C8  615   2.620   3.522   1.385 -0.6185 -1.1495 -0.3851
   39TMC2    O1  616   2.139   3.847   1.489  0.3173  0.0778  0.3059
   39TMC2    O2  617   2.656   3.434   1.302 -0.2434 -1.0594  0.3360
   39TMC2    O5  618   2.670   3.557   1.506  0.0288 -0.1950 -0.2590
   39TMC2    H5  619   2.705   3.473   1.543  0.7589 -0.4585 -1.5721
   40MPD2     C  620   2.226   3.198   0.927 -0.3905 -0.5193  0.0014
   40MPD2    C1  621   2.176   3.318   0.969 -0.5407  0.7708  0.3279
   40MPD2    C2  622   2.058   3.361   0.903  0.1303 -0.5783 -0.2233
   40MPD2    C3  623   2.001   3.290   0.798  0.5134  0.1078 -0.2743
   40MPD2    C4  624   2.062   3.178   0.751  0.2679 -0.3861  0.3926
   40MPD2    C5  625   2.172   3.131   0.818 -0.2793  0.0282 -0.2877
   40MPD2     H  626   2.010   3.446   0.950  0.9456  0.5924 -1.4948
   40MPD2    H1  627   2.016   3.107   0.683  0.0823 -1.2193  1.3953
   40MPD2    H2  628   2.323   3.163   0.960 -0.2746 -0.2383 -0.0448
   40MPD2    H3  629   2.230   3.047   0.782  0.0481  0.0835  0.1096
   40MPD2     N  630   1.877   3.324   0.730 -0.2918 -0.7040  0.6192
   40MPD2    H5  631   1.848   3.269   0.649 -2.4868 -0.1907  1.0446
   40MPD2    N1  632   2.247   3.397   1.074 -0.4776  0.0853 -0.6885
   40MPD2    H7  633   2.337   3.362   1.104 -1.0738  0.2406  1.3104
   41TMC2    C1  634   1.463   1.305  13.524  0.4313  0.1035  0.1891
   41TMC2    C2  635   1.519   1.405  13.595  0.6463 -0.4585 -0.8389
   41TMC2    C3  636   1.508   1.531  13.542  0.6328  0.6320  0.1161
   41TMC2    C4  637   1.396   1.328  13.403  0.1626  0.6684  0.1650
   41TMC2    C5  638   1.388   1.452  13.356 -0.4959  0.6088  0.1699
   41TMC2    C6  639   1.443   1.554  13.425 -0.7969 -0.0872 -0.0090
   41TMC2     C  640   1.514   1.174  13.549 -0.2911 -0.3698  0.6266
   41TMC2     O  641   1.504   1.086  13.469 -0.1175 -0.5401 -0.4959
   41TMC2     H  642   1.590   1.396  13.678 -1.2442  3.1408  1.1349
   41TMC2    H1  643   1.371   1.240  13.346  0.7527  1.4884 -1.3573
   41TMC2    H2  644   1.434   1.653  13.382  1.4613  0.5876  1.0588
   41TMC2    C7  645   1.324   1.482  13.231  0.3082  0.0724 -0.0358
   41TMC2    C8  646   1.619   1.617  13.580 -0.1237 -0.2306 -0.1349
   41TMC2    O1  647   1.312   1.599  13.198  0.2632  0.1303  0.3907
   41TMC2    O2  648   1.725   1.581  13.637 -0.2577  0.5277 -0.5741
   41TMC2    O5  649   1.560   1.741  13.599  0.0117  0.0485 -0.1345
   41TMC2    H5  650   1.469   1.746  13.562  0.2174  0.3618 -0.5952
   42MPD2     C  651   1.708   0.953  13.621  0.2240 -0.0429  0.0938
   42MPD2    C1  652   1.681   1.062  13.699  1.0830  0.0170 -0.5756
   42MPD2    C2  653   1.734   1.073  13.825  0.2133  0.2378  0.2889
   42MPD2    C3  654   1.827   0.975  13.872  0.1357 -0.1283  0.4135
   42MPD2    C4  655   1.855   0.879  13.778  0.6550 -0.2460  0.0337
   42MPD2    C5  656   1.802   0.867  13.656  0.6931 -0.2556  0.6819
   42MPD2     H  657   1.705   1.152  13.894  2.2906  0.0644  1.3604
   42MPD2    H1  658   1.920   0.797  13.809  2.2164  0.4447 -1.4433
   42MPD2    H2  659   1.660   0.944  13.524  1.6924  0.5665 -0.6880
   42MPD2    H3  660   1.830   0.787  13.588 -0.3370  1.9243 -2.2728
   42MPD2     N  661   1.867   0.955  14.011  0.1333 -1.1954 -0.1269
   42MPD2    H5  662   1.937   0.884  14.027  2.0608  0.8010  0.2187
   42MPD2    N1  663   1.588   1.161  13.663  0.3748 -0.2490 -0.0723
   42MPD2    H7  664   1.581   1.244  13.721  0.2790 -0.7964  0.6947
   43TMC2    C1  665   2.838   4.477   0.954  0.5197 -0.6378  0.5026
   43TMC2    C2  666   2.786   4.460   1.076  0.1644 -0.1037 -0.0818
   43TMC2    C3  667   2.769   4.567   1.162  0.4218 -0.3973  0.4319
   43TMC2    C4  668   2.885   4.606   0.917  0.1831  0.1100 -0.7606
   43TMC2    C5  669   2.871   4.711   1.001  0.1926 -0.3921  0.7306
   43TMC2    C6  670   2.805   4.694   1.125 -0.1042  0.5873 -0.6588
   43TMC2     C  671   2.831   4.367   0.860  0.9630 -0.0475 -0.2472
   43TMC2     O  672   2.868   4.395   0.743 -0.0867 -0.0109 -0.1343
   43TMC2     H  673   2.762   4.361   1.114  0.2895 -0.2231 -0.3165
   43TMC2    H1  674   2.928   4.615   0.818  0.2498 -1.4974 -0.8903
   43TMC2    H2  675   2.791   0.040   1.194  1.8823 -1.3058  1.9824
   43TMC2    C7  676   2.944   0.099   0.960 -0.0165  0.3250  0.4008
   43TMC2    C8  677   2.754   4.535   1.300  0.1616  0.1677  0.0795
   43TMC2    O1  678   3.002   0.089   0.855  0.3501  0.3348  0.1111
   43TMC2    O2  679   2.762   4.420   1.344 -0.2721 -0.3724 -0.6968
   43TMC2    O5  680   2.680   4.632   1.351 -0.2369 -0.0087  0.1785
   43TMC2    H5  681   2.669   4.709   1.292 -1.3921 -2.1011 -2.3130
   44MPD2     C  682   2.684   3.889   0.727  0.9425  0.0824  0.6336
   44MPD2    C1  683   2.758   3.979   0.657 -0.5482  0.1467 -0.4151
   44MPD2    C2  684   2.780   4.100   0.714 -0.6000  0.6578  0.1032
   44MPD2    C3  685   2.758   4.129   0.850  0.1016 -0.8121 -0.1171
   44MPD2    C4  686   2.706   4.024   0.928 -0.5257  0.1002  0.6417
   44MPD2    C5  687   2.664   3.911   0.861 -0.4935 -0.6913  0.7193
   44MPD2     H  688   2.839   4.171   0.656 -0.0787 -0.6994 -1.0373
   44MPD2    H1  689   2.696   4.027   1.036 -1.9199 -1.6080  0.5548
   44MPD2    H2  690   2.648   3.800   0.677 -2.1130  0.9512  1.3000
   44MPD2    H3  691   2.617   3.832   0.919 -3.1813  1.5574  1.6167
   44MPD2     N  692   2.785   4.251   0.913  0.6369  0.5699 -0.0675
   44MPD2    H5  693   2.761   4.246   1.012 -0.0052 -1.6997 -0.3367
   44MPD2    N1  694   2.806   3.939   0.526  0.0010  0.3904  0.0175
   44MPD2    H7  695   2.787   3.845   0.495 -2.7906  0.9064  0.1188
   45TMC2    C1  696   3.206   1.247   9.422  0.5068  0.2993  0.5778
   45TMC2    C2  697   3.334   1.214   9.410 -0.1067  0.0525 -0.1873
   45TMC2    C3  698   3.422   1.273   9.495  0.5555  0.0822 -0.4185
   45TMC2    C4  699   3.162   1.346   9.515 -1.0883 -0.1926  0.4697
   45TMC2    C5  700   3.257   1.410   9.582 -0.0759  0.4683 -0.1244
   45TMC2    C6  701   3.390   1.377   9.580 -0.1679  1.0845  0.2508
   45TMC2     C  702   3.111   1.152   9.371  0.1687  0.0947 -0.0716
   45TMC2     O  703   3.159   1.048   9.324  0.1963 -0.0043  0.0531
   45TMC2     H  704   3.360   1.138   9.336 -1.8960 -1.7971  1.1071
   45TMC2    H1  705   3.059   1.365   9.544 -0.3437  2.6373  1.3405
   45TMC2    H2  706   3.468   1.426   9.637  0.0868 -1.9002  2.5223
   45TMC2    C7  707   3.212   1.537   9.638 -0.5671  0.5140  0.1304
   45TMC2    C8  708   3.563   1.234   9.513 -0.4193  0.2787  0.0235
   45TMC2    O1  709   3.294   1.597   9.704 -0.0433 -0.3385 -0.5211
   45TMC2    O2  710   3.639   1.317   9.561 -0.4354  0.2885  0.6596
   45TMC2    O5  711   3.595   1.098   9.509 -0.4880 -0.4495  0.3573
   45TMC2    H5  712   3.522   1.040   9.479  0.0299 -0.1283 -1.5164
   46MPD2     C  713   2.870   0.988   9.274 -0.2358  0.7668  0.2198
   46MPD2    C1  714   2.857   1.112   9.334 -0.5192 -0.0360  0.0255
   46MPD2    C2  715   2.735   1.164   9.358  0.2857 -0.2583  0.4113
   46MPD2    C3  716   2.618   1.089   9.340  0.0474 -0.4409  0.0012
   46MPD2    C4  717   2.633   0.965   9.285  0.2438 -0.2241  1.2201
   46MPD2    C5  718   2.753   0.926   9.247  0.1310  0.2932  0.1545
   46MPD2     H  719   2.735   1.265   9.396  1.7152  0.1933 -0.8606
   46MPD2    H1  720   2.549   0.903   9.257 -0.9068  1.9345 -0.0506
   46MPD2    H2  721   2.962   0.942   9.242  0.6028  0.7222  2.7033
   46MPD2    H3  722   2.754   0.828   9.200 -2.2659 -0.0395  0.7917
   46MPD2     N  723   2.495   1.153   9.372 -0.3966  0.5695 -0.1435
   46MPD2    H5  724   2.508   1.248   9.405  0.2932  0.6880 -0.7633
   46MPD2    N1  725   2.973   1.193   9.369  0.1424  0.0509 -0.3150
   46MPD2    H7  726   2.951   1.286   9.402  0.8355  0.6359 -1.5429
   47TMC2    C1  727   4.486   2.386   8.316  0.0873  0.7229  0.6522
   47TMC2    C2  728   4.413   2.475   8.245  0.0427  0.2003 -1.3103
   47TMC2    C3  729   4.273   2.460   8.253  0.1162 -0.3226 -0.1216
   47TMC2    C4  730   4.425   2.281   8.383 -0.5905 -0.1925  1.3734
   47TMC2    C5  731   4.286   2.267   8.376  0.0074 -0.7552  0.3337
   47TMC2    C6  732   4.208   2.371   8.327 -0.3162  0.7553 -1.0473
   47TMC2     C  733   4.628   2.384   8.293  0.1792 -0.1973 -0.3431
   47TMC2     O  734   4.660   2.418   8.179  0.2784 -0.0711 -0.1667
   47TMC2     H  735   4.455   2.553   8.183 -0.0757 -0.5046 -2.2775
   47TMC2    H1  736   4.493   2.201   8.412 -1.4181 -1.8208 -1.1750
   47TMC2    H2  737   4.102   2.353   8.318 -0.3645  0.2516  0.5855
   47TMC2    C7  738   4.216   2.151   8.431 -0.0439  0.0590  0.5137
   47TMC2    C8  739   4.199   2.535   8.157 -0.0752  0.2074  0.1258
   47TMC2    O1  740   4.124   2.109   8.364  0.5610  0.0041 -0.2420
   47TMC2    O2  741   4.257   2.597   8.069 -0.6636 -0.0491 -0.5233
   47TMC2    O5  742   4.098   2.592   8.227 -0.2624  0.5523 -0.0873
   47TMC2    H5  743   4.075   2.551   8.313 -1.2197 -2.0416 -1.5597
   48MPD2     C  744   0.183   2.334   8.290 -0.5887 -0.0047  0.5372
   48MPD2    C1  745   0.107   2.303   8.395  0.3665  0.2402 -0.5112
   48MPD2    C2  746   0.153   2.239   8.508 -0.3459  0.7113 -0.0389
   48MPD2    C3  747   0.286   2.217   8.521 -0.3508 -0.1021 -0.2346
   48MPD2    C4  748   0.370   2.243   8.411  0.0004  0.3949  0.4710
   48MPD2    C5  749   0.318   2.301   8.297  0.2235  0.3634 -0.6782
   48MPD2     H  750   0.097   2.207   8.596 -0.6625 -0.7289 -0.7666
   48MPD2    H1  751   0.477   2.232   8.418  0.0525  1.4698  1.2322
   48MPD2    H2  752   0.147   2.381   8.199  1.1404  0.7464  0.2374
   48MPD2    H3  753   0.386   2.306   8.213 -1.2048  0.8476 -1.8063
   48MPD2     N  754   0.332   2.165   8.644  0.8218  0.3307  0.4258
   48MPD2    H5  755   0.265   2.168   8.720 -1.3392 -1.9418 -1.4100
   48MPD2    N1  756   4.702   2.324   8.394 -0.2930 -0.5831  0.0554
   48MPD2    H7  757   4.642   2.304   8.473  2.1780  1.2383  2.3818
   49TMC2    C1  758   3.113   3.533  10.887  0.1882  0.8887  0.6475
   49TMC2    C2  759   3.206   3.593  10.812  0.1122 -0.5068 -0.2126
   49TMC2    C3  760   3.263   3.523  10.711 -1.0023  0.0827 -0.2405
   49TMC2    C4  761   3.066   3.411  10.852  0.2688  1.3793  0.7973
   49TMC2    C5  762   3.120   3.345  10.750 -0.2519  0.0227 -0.8191
   49TMC2    C6  763   3.221   3.399  10.673  0.1246  0.6769 -0.6877
   49TMC2     C  764   3.048   3.609  10.989 -0.0235  0.4253 -0.2314
   49TMC2     O  765   2.937   3.575  11.026 -0.3277 -0.1655 -0.2088
   49TMC2     H  766   3.226   3.699  10.822  1.6639 -0.9191  1.1112
   49TMC2    H1  767   2.971   3.379  10.892 -0.0982  0.1019 -1.1051
   49TMC2    H2  768   3.276   3.352  10.593  0.1129  0.4476 -0.5599
   49TMC2    C7  769   3.051   3.226  10.717 -0.2826  0.9219  0.2355
   49TMC2    C8  770   3.361   3.593  10.617 -0.3175  0.8214 -0.3012
   49TMC2    O1  771   2.978   3.180  10.804 -0.5411 -0.4393  0.0450
   49TMC2    O2  772   3.378   3.542  10.506 -0.1832 -0.3227 -0.4226
   49TMC2    O5  773   3.430   3.694  10.669 -0.7003 -0.0052 -0.4639
   49TMC2    H5  774   3.422   3.710  10.765 -0.8528 -0.5184 -0.3929
   50MPD2     C  775   2.975   3.821  11.189  0.1961 -0.1220  0.1514
   50MPD2    C1  776   3.102   3.785  11.152 -0.1669  0.7918  0.3452
   50MPD2    C2  777   3.201   3.869  11.205 -0.1129 -0.2978 -0.1450
   50MPD2    C3  778   3.180   3.964  11.311  0.2204  0.4647  0.3372
   50MPD2    C4  779   3.054   3.988  11.341 -0.3506  0.4797 -0.0237
   50MPD2    C5  780   2.949   3.919  11.285  0.7462  1.4822 -0.3134
   50MPD2     H  781   3.302   3.832  11.195 -0.2636 -0.5864 -0.5851
   50MPD2    H1  782   3.039   4.058  11.422  0.5046  2.3521 -1.5031
   50MPD2    H2  783   2.892   3.766  11.146 -0.5125  0.7560  0.3857
   50MPD2    H3  784   2.846   3.933  11.317  1.4345  2.1868  1.5576
   50MPD2     N  785   3.283   4.035  11.376 -0.1076  0.1392  0.2609
   50MPD2    H5  786   3.252   4.089  11.456  0.6813  3.0625 -1.4122
   50MPD2    N1  787   3.132   3.699  11.045  0.3971  0.2614  0.4533
   50MPD2    H7  788   3.229   3.697  11.015  0.0038 -1.6091 -0.6552
   51TMC2    C1  789   0.075   3.514   1.304 -0.1692  0.5906 -0.2110
   51TMC2    C2  790   0.084   3.638   1.369  0.8964 -0.0734  0.2740
   51TMC2    C3  791   0.058   3.755   1.290  0.0006 -0.3421  0.0128
   51TMC2    C4  792   0.055   3.507   1.170 -0.1492 -0.0812  0.0962
   51TMC2    C5  793   0.039   3.623   1.100  0.2996  0.3897 -0.2664
   51TMC2    C6  794   0.045   3.744   1.159  0.4277  0.0840 -0.0282
   51TMC2     C  795   0.129   3.395   1.368  0.3138  0.5061 -0.5144
   51TMC2     O  796   0.173   3.308   1.299  0.4299  0.2706  0.0506
   51TMC2     H  797   0.089   3.647   1.476 -0.0847 -0.0957  0.3269
   51TMC2    H1  798   0.055   3.410   1.122  0.3700 -0.7444  1.4393
   51TMC2    H2  799   0.020   3.835   1.106  1.5889  0.8290  0.7059
   51TMC2    C7  800   0.054   3.616   0.955 -0.3521  0.1603  0.5860
   51TMC2    C8  801   0.045   3.887   1.346 -0.2713  1.1614 -0.0199
   51TMC2    O1  802   0.109   3.708   0.895 -0.3360  0.5980  0.5031
   51TMC2    O2  803   4.712   3.976   1.298 -0.2566 -0.5303 -0.3860
   51TMC2    O5  804   0.114   3.909   1.461 -0.0200  0.0417 -0.2127
   51TMC2    H5  805   0.182   3.839   1.474  2.4637  2.3783 -0.8114
   52MPD2     C  806   0.393   3.148   1.697  0.0211  0.5173 -0.2962
   52MPD2    C1  807   0.305   3.101   1.597 -0.1407 -0.4818 -0.0287
   52MPD2    C2  808   0.213   3.188   1.543  0.2401  0.2604  0.5381
   52MPD2    C3  809   0.214   3.316   1.589 -0.1605  0.2160 -0.0255
   52MPD2    C4  810   0.292   3.356   1.694  1.0943  0.0940 -0.2398
   52MPD2    C5  811   0.381   3.276   1.753 -0.0966 -0.0579 -0.3658
   52MPD2     H  812   0.148   3.152   1.465 -0.0912 -1.4004  1.5797
   52MPD2    H1  813   0.301   3.461   1.722 -1.2442 -0.4023  2.3567
   52MPD2    H2  814   0.465   3.087   1.749 -1.2949 -3.3280 -2.9365
   52MPD2    H3  815   0.447   3.316   1.830 -1.7102 -2.0926  2.0866
   52MPD2     N  816   0.160   3.419   1.504 -0.7925  0.6128  0.0372
   52MPD2    H5  817   0.150   3.515   1.535  2.0992  0.8833  0.1035
   52MPD2    N1  818   0.306   2.964   1.548  0.1517  0.4931 -0.0829
   52MPD2    H7  819   0.231   2.937   1.485 -0.0956  0.5920  0.1716
   53TMC2    C1  820   4.353   1.416  11.500  0.9967  0.5631 -0.3709
   53TMC2    C2  821   4.462   1.345  11.466  0.5972 -0.6284  0.0926
   53TMC2    C3  822   4.575   1.359  11.536 -0.3958  0.3573  0.0500
   53TMC2    C4  823   4.357   1.509  11.600 -0.1429  0.0513 -0.1724
   53TMC2    C5  824   4.471   1.512  11.677 -0.8409  0.4252  0.8341
   53TMC2    C6  825   4.585   1.443  11.642 -0.3026 -0.3407  0.1580
   53TMC2     C  826   4.224   1.356  11.463  0.8150 -0.7794 -0.2948
   53TMC2     O  827   4.209   1.305  11.356  0.8721  0.0468  0.1529
   53TMC2     H  828   4.448   1.263  11.397 -0.0816 -1.6848  1.4621
   53TMC2    H1  829   4.272   1.571  11.626 -1.6088 -1.7659 -0.6348
   53TMC2    H2  830   4.670   1.440  11.709  1.5272  0.9315 -2.1336
   53TMC2    C7  831   4.451   1.555  11.818 -0.0514 -0.3458  0.2710
   53TMC2    C8  832   4.697   1.289  11.496  0.5859  0.5490  1.2613
   53TMC2    O1  833   4.333   1.579  11.841  1.0617 -0.3545  0.0594
   53TMC2    O2  834   0.051   1.271  11.576  0.2210 -0.1556  0.5570
   53TMC2    O5  835   4.723   1.358  11.383  0.4826  0.1775 -0.4942
   53TMC2    H5  836   4.642   1.395  11.341 -0.2179 -2.8238 -1.7887
   54MPD2     C  837   3.948   1.265  11.478  0.0202  0.3779 -0.3399
   54MPD2    C1  838   4.013   1.306  11.592  0.3048  0.1959  0.0822
   54MPD2    C2  839   3.972   1.287  11.719 -0.0604  0.3387  0.4862
   54MPD2    C3  840   3.848   1.229  11.735 -0.3677  0.5991 -0.3245
   54MPD2    C4  841   3.778   1.189  11.625 -0.1833 -0.0269  0.0025
   54MPD2    C5  842   3.827   1.207  11.498  0.8237 -0.0046 -0.4866
   54MPD2     H  843   4.030   1.342  11.792  0.2985 -0.0988  0.5322
   54MPD2    H1  844   3.681   1.141  11.630 -0.1330 -0.0764  0.4664
   54MPD2    H2  845   3.968   1.292  11.375 -0.9361  0.6264 -0.4673
   54MPD2    H3  846   3.769   1.195  11.407  0.4291  1.5534 -0.4407
   54MPD2     N  847   3.786   1.205  11.860 -0.3594 -0.1268 -0.3273
   54MPD2    H5  848   3.702   1.147  11.858 -2.4555  2.9884 -2.5063
   54MPD2    N1  849   4.148   1.353  11.578  0.2994 -0.2500 -0.3521
   54MPD2    H7  850   4.194   1.382  11.664 -2.5604 -1.5469  1.6303
   55TMC2    C1  851   0.835   0.092  17.361  0.5209 -0.3790  0.1202
   55TMC2    C2  852   0.896   0.138  17.253  0.2157  0.2531 -0.2116
   55TMC2    C3  853   0.992   0.057  17.199 -0.2430 -0.2692  0.3922
   55TMC2    C4  854   0.864   4.703  17.418 -0.0888 -0.0039 -0.5359
   55TMC2    C5  855   0.960   4.629  17.365  0.4406 -0.1020 -0.1140
   55TMC2    C6  856   1.022   4.669  17.252 -0.4816  0.3607  0.2490
   55TMC2     C  857   0.744   0.169  17.446 -0.2520 -0.1689 -0.1768
   55TMC2     O  858   0.659   0.117  17.514  0.1840  0.0752 -0.6087
   55TMC2     H  859   0.863   0.229  17.205 -0.2264  0.1718 -0.0686
   55TMC2    H1  860   0.817   4.654  17.502 -4.1999  1.4864 -1.9255
   55TMC2    H2  861   1.110   4.624  17.207 -1.0093 -0.5605  0.1462
   55TMC2    C7  862   0.991   4.487  17.404 -0.7861 -0.6028  0.4073
   55TMC2    C8  863   1.078   0.107  17.087 -0.8431  0.1353 -0.4514
   55TMC2    O1  864   1.089   4.439  17.349 -0.2590  0.5579 -0.1342
   55TMC2    O2  865   1.090   0.229  17.070  0.4811  0.2250 -0.2787
   55TMC2    O5  866   1.052   0.018  16.987 -0.3441 -0.1741  0.1546
   55TMC2    H5  867   1.061   4.662  17.021  0.7849  0.9433  2.9139
   56MPD2     C  868   0.677   0.533  17.407  0.1543  0.4312  0.4798
   56MPD2    C1  869   0.663   0.408  17.460 -0.2846 -0.4925 -0.1251
   56MPD2    C2  870   0.570   0.388  17.554 -0.4193  0.1761 -0.1888
   56MPD2    C3  871   0.487   0.492  17.594 -0.6247 -0.3246 -0.3974
   56MPD2    C4  872   0.511   0.619  17.546 -0.1162 -0.7680  0.2505
   56MPD2    C5  873   0.602   0.639  17.447  0.4262  0.0618 -0.5886
   56MPD2     H  874   0.541   0.289  17.587  2.8067 -0.7148 -0.0305
   56MPD2    H1  875   0.461   0.707  17.585  0.4448 -0.5867  0.5461
   56MPD2    H2  876   0.743   0.548  17.322  0.2644 -0.2483  0.4463
   56MPD2    H3  877   0.622   0.734  17.398 -1.0636  0.2869 -0.7799
   56MPD2     N  878   0.400   0.474  17.706  0.3471  0.2887 -0.1931
   56MPD2    H5  879   0.401   0.384   0.013  2.7885  0.9912  1.0784
   56MPD2    N1  880   0.749   0.303  17.412 -0.0586  0.2070  0.8497
   56MPD2    H7  881   0.804   0.332  17.331 -0.3350 -2.6393 -0.3677
   57TMC2    C1  882   4.411   4.379  13.312  0.6317 -0.3591  0.4918
   57TMC2    C2  883   4.320   4.393  13.212 -0.2188  0.5755 -0.1588
   57TMC2    C3  884   4.360   4.455  13.099 -0.1752  0.5133 -0.7213
   57TMC2    C4  885   4.544   4.415  13.293 -0.5428 -1.0010 -0.1182
   57TMC2    C5  886   4.579   4.466  13.165  0.2791 -0.7930 -0.7130
   57TMC2    C6  887   4.490   4.490  13.064 -0.1728  0.2352 -0.0480
   57TMC2     C  888   4.356   4.431  13.437 -0.2485 -0.4623 -0.5190
   57TMC2     O  889   4.257   4.502  13.420  0.0095 -0.7520  0.0636
   57TMC2     H  890   4.214   4.374  13.220 -0.1240 -0.2185 -0.8468
   57TMC2    H1  891   4.626   4.416  13.364 -0.1777 -0.5569 -0.5446
   57TMC2    H2  892   4.512   4.542  12.971 -0.2505  1.1182  0.4343
   57TMC2    C7  893   4.724   4.480  13.139  0.3090  0.3027  0.1635
   57TMC2    C8  894   4.258   4.520  13.021  0.6618 -0.3743 -0.0280
   57TMC2    O1  895   0.068   4.472  13.232  0.1550  0.3571  0.1414
   57TMC2    O2  896   4.286   4.569  12.912  0.4039 -0.3204  0.5330
   57TMC2    O5  897   4.181   4.580  13.119  0.6492 -0.5705  0.1442
   57TMC2    H5  898   4.202   4.576  13.215 -0.9800  0.6735  0.5628
   58MPD2     C  899   4.329   4.557  13.926 -0.2366 -0.0814  0.4286
   58MPD2    C1  900   4.287   4.620  13.815  0.1583  0.0337  1.1891
   58MPD2    C2  901   4.325   4.569  13.690 -0.0191 -0.1738 -0.2140
   58MPD2    C3  902   4.402   4.457  13.672  1.2846 -0.1735  0.2259
   58MPD2    C4  903   4.452   4.401  13.791  0.5063 -0.2009  0.4752
   58MPD2    C5  904   4.411   4.452  13.913  0.1651 -0.7252  0.8347
   58MPD2     H  905   4.297   4.629  13.603  0.7863  0.4828 -0.0190
   58MPD2    H1  906   4.510   4.309  13.790  0.5671 -0.1499 -0.6460
   58MPD2    H2  907   4.311   4.589  14.028  1.8553  0.4772  0.6197
   58MPD2    H3  908   4.454   4.419  14.006  0.7351  0.1066  0.8652
   58MPD2     N  909   4.428   4.398  13.546 -0.1022  0.3323  0.3326
   58MPD2    H5  910   4.489   4.318  13.531 -1.4083 -0.7317  0.7406
   58MPD2    N1  911   4.205   4.732  13.818 -0.1523 -0.1676 -0.1318
   58MPD2    H7  912   4.162   0.028  13.732 -1.5702 -0.4539  0.4654
   59TMC2    C1  913   2.345   0.648  12.728 -0.0484 -0.1216  0.5125
   59TMC2    C2  914   2.327   0.531  12.800 -0.7495 -0.5338 -0.6460
   59TMC2    C3  915   2.294   0.415  12.733 -0.1448  0.1465 -0.5679
   59TMC2    C4  916   2.332   0.652  12.591 -0.5435 -0.0257  0.5098
   59TMC2    C5  917   2.303   0.533  12.532 -0.1782 -0.6802  0.0176
   59TMC2    C6  918   2.290   0.408  12.594  0.0814  0.0494 -0.0454
   59TMC2     C  919   2.379   0.775  12.798 -0.0046  0.3213 -0.5980
   59TMC2     O  920   2.309   0.868  12.767  0.0693 -0.6170  0.2455
   59TMC2     H  921   2.327   0.530  12.908  0.2093 -0.4430 -0.6455
   59TMC2    H1  922   2.320   0.743  12.533  3.4074  0.2409  0.1534
   59TMC2    H2  923   2.273   0.322  12.530 -2.1006 -0.1389  0.7920
   59TMC2    C7  924   2.305   0.536  12.388  0.0959 -0.3270  0.0957
   59TMC2    C8  925   2.290   0.288  12.805  0.2356 -0.6333  0.0820
   59TMC2    O1  926   2.361   0.631  12.335 -0.0079 -0.1728 -0.5768
   59TMC2    O2  927   2.338   0.265  12.917  0.1113  0.0122 -0.5607
   59TMC2    O5  928   2.225   0.193  12.737  0.2904 -0.0932 -0.5915
   59TMC2    H5  929   2.163   0.217  12.664 -0.4316  0.7661  0.3073
   60MPD2     C  930   2.433   0.949  13.035  0.0722 -0.6573 -0.1280
   60MPD2    C1  931   2.493   0.828  13.003  0.5324 -0.2324 -0.1217
   60MPD2    C2  932   2.615   0.797  13.066 -0.0376  0.3498 -0.5706
   60MPD2    C3  933   2.657   0.878  13.177 -0.1601  0.6359 -0.5397
   60MPD2    C4  934   2.593   0.996  13.199  0.0481 -0.3080  0.1184
   60MPD2    C5  935   2.481   1.036  13.127  0.6535  0.0109 -0.2993
   60MPD2     H  936   2.662   0.707  13.030  1.3926  1.0745 -0.4950
   60MPD2    H1  937   2.637   1.074  13.260  1.7518 -2.1483  1.2269
   60MPD2    H2  938   2.341   0.985  12.989  0.4488 -1.5520 -1.5932
   60MPD2    H3  939   2.439   1.134  13.142  1.1576  0.4577 -1.8407
   60MPD2     N  940   2.769   0.850  13.255  0.0104 -0.5582  0.5608
   60MPD2    H5  941   2.812   0.923  13.311 -1.3570 -0.1870  1.1290
   60MPD2    N1  942   2.454   0.741  12.903 -0.3142  0.1898 -1.2180
   60MPD2    H7  943   2.507   0.655  12.899 -2.0886 -0.9280 -1.0012
   61TMC2    C1  944   1.338   2.076  15.541  0.2801  0.2138  0.0240
   61TMC2    C2  945   1.345   2.039  15.668 -0.0592  0.5778 -0.0622
   61TMC2    C3  946   1.358   2.139  15.761 -0.8702  0.3794  0.5083
   61TMC2    C4  947   1.332   2.210  15.503  0.4135 -1.0271  0.0792
   61TMC2    C5  948   1.366   2.303  15.599 -0.2958  0.4984  0.3157
   61TMC2    C6  949   1.384   2.275  15.731  0.1863  0.1905 -0.0506
   61TMC2     C  950   1.358   1.973  15.444  0.1152 -0.2896  0.0494
   61TMC2     O  951   1.354   1.860  15.489  0.1756  0.0516  1.1506
   61TMC2     H  952   1.327   1.937  15.702 -1.8521  1.3288  1.2587
   61TMC2    H1  953   1.331   2.238  15.398  1.8356 -1.2813 -0.0081
   61TMC2    H2  954   1.423   2.337  15.811  1.1191  0.9528 -1.0999
   61TMC2    C7  955   1.407   2.433  15.552  0.3624 -0.3652  0.2931
   61TMC2    C8  956   1.389   2.090  15.889 -0.1974  0.5265 -0.3941
   61TMC2    O1  957   1.430   2.456  15.434 -0.2743  1.0122 -0.5152
   61TMC2    O2  958   1.477   2.005  15.899  0.2151  0.0282 -0.1315
   61TMC2    O5  959   1.346   2.173  15.990  0.3993  0.1362 -0.3100
   61TMC2    H5  960   1.270   2.223  15.955  0.0251 -0.2836 -0.0999
   62MPD2     C  961   1.418   1.803  15.212 -0.3089  0.0134  0.9440
   62MPD2    C1  962   1.460   1.934  15.226 -1.0849 -0.3405  0.5890
   62MPD2    C2  963   1.555   1.981  15.134 -0.1801  0.1644 -0.0658
   62MPD2    C3  964   1.606   1.896  15.039  0.2598 -0.5120  0.3940
   62MPD2    C4  965   1.556   1.771  15.016 -0.5782  0.5668 -0.9343
   62MPD2    C5  966   1.465   1.727  15.108 -0.1617  0.4305  0.5886
   62MPD2     H  967   1.603   2.075  15.156 -1.0926 -0.2680  3.8568
   62MPD2    H1  968   1.594   1.704  14.939  2.2812 -0.6469  1.5046
   62MPD2    H2  969   1.340   1.755  15.270 -0.2163  0.0418  1.0912
   62MPD2    H3  970   1.430   1.625  15.097  2.5809 -0.5980  1.3736
   62MPD2     N  971   1.722   1.932  14.966 -0.4864  0.0521  0.1810
   62MPD2    H5  972   1.768   1.852  14.923 -3.5515 -1.4723 -0.2409
   62MPD2    N1  973   1.420   2.019  15.327  0.1820  0.1586 -0.0977
   62MPD2    H7  974   1.470   2.107  15.335 -1.7128  1.2002  0.4122
   63TMC2    C1  975   0.586   1.573  10.123  0.0735 -0.2592 -0.4034
   63TMC2    C2  976   0.709   1.631  10.146 -0.3677 -0.3741 -0.3947
   63TMC2    C3  977   0.764   1.703  10.044 -0.1820  0.3625 -0.7341
   63TMC2    C4  978   0.511   1.586  10.009  0.2791  0.0011 -0.1116
   63TMC2    C5  979   0.557   1.670   9.918 -0.6311 -0.6995 -0.5787
   63TMC2    C6  980   0.684   1.721   9.929  0.2637  0.0397 -1.1081
   63TMC2     C  981   0.533   1.474  10.218  0.2339 -0.5917 -0.1193
   63TMC2     O  982   0.446   1.399  10.178  0.1854 -0.1208  0.1757
   63TMC2     H  983   0.766   1.612  10.236  0.7823  0.4647 -0.9471
   63TMC2    H1  984   0.408   1.551  10.004  0.4822 -0.4143 -1.5631
   63TMC2    H2  985   0.725   1.782   9.849 -1.0537  1.3208 -0.8080
   63TMC2    C7  986   0.509   1.681   9.780  0.6378  0.3372  0.9879
   63TMC2    C8  987   0.905   1.723  10.051 -0.2225 -0.6255  0.7652
   63TMC2    O1  988   0.539   1.781   9.713 -0.6088 -0.6558 -0.5515
   63TMC2    O2  989   0.966   1.703  10.155  0.0451  0.3494  0.3620
   63TMC2    O5  990   0.962   1.741   9.930  0.4966  0.6927  0.4360
   63TMC2    H5  991   0.898   1.736   9.856  1.3873  2.0349 -0.4131
   64MPD2     C  992   0.549   1.212  10.665  0.0242 -0.4904  0.7433
   64MPD2    C1  993   0.510   1.175  10.535 -0.1314 -0.2848 -0.4621
   64MPD2    C2  994   0.519   1.271  10.428  0.3452 -0.4315 -0.9836
   64MPD2    C3  995   0.576   1.393  10.451  0.3326  0.2138  0.4142
   64MPD2    C4  996   0.608   1.431  10.578  0.2453  0.1324 -0.1734
   64MPD2    C5  997   0.602   1.346  10.686 -0.5912  0.0938  0.7562
   64MPD2     H  998   0.484   1.237  10.331 -2.2067 -1.4401  0.2767
   64MPD2    H1  999   0.650   1.531  10.587  0.1077  0.1402  0.3756
   64MPD2    H2 1000   0.552   1.143  10.748 -0.1845  1.2466  2.1827
   64MPD2    H3 1001   0.641   1.369  10.784 -2.1385 -1.9233  1.8479
   64MPD2     N 1002   0.586   1.489  10.349  0.2163  0.6348  0.3798
   64MPD2    H5 1003   0.644   1.572  10.359 -2.4052  2.3144  1.6525
   64MPD2    N1 1004   0.468   1.041  10.502 -0.6201 -0.1990  0.2917
   64MPD2    H7 1005   0.469   1.019  10.402 -0.8581  1.1278 -0.0021
   65TMC2    C1 1006   2.498   1.611  15.571  0.3031  0.9625 -0.0906
   65TMC2    C2 1007   2.580   1.574  15.463 -0.0870  0.2451  0.2487
   65TMC2    C3 1008   2.639   1.675  15.390 -0.0904 -0.0423  0.1815
   65TMC2    C4 1009   2.475   1.743  15.601  0.2724  0.1685  0.1440
   65TMC2    C5 1010   2.529   1.840  15.516  0.3548 -0.6591  0.0614
   65TMC2    C6 1011   2.616   1.807  15.416  0.9400 -0.5209  0.7506
   65TMC2     C 1012   2.435   1.507  15.656  0.1420  0.8470 -0.0777
   65TMC2     O 1013   2.401   1.548  15.764  0.3211  0.0039  0.6832
   65TMC2     H 1014   2.610   1.470  15.460  1.3371  0.6593  0.0104
   65TMC2    H1 1015   2.399   1.780  15.670  0.2288  0.9820 -0.3297
   65TMC2    H2 1016   2.669   1.882  15.358  0.7004 -0.4905  0.5719
   65TMC2    C7 1017   2.498   1.979  15.525  0.6747 -0.6959 -0.1398
   65TMC2    C8 1018   2.707   1.643  15.265  0.4378  0.2094 -0.5915
   65TMC2    O1 1019   2.523   2.043  15.424 -0.3087 -0.5388 -0.2055
   65TMC2    O2 1020   2.792   1.714  15.216 -0.0233  0.3433  0.2598
   65TMC2    O5 1021   2.680   1.517  15.225  0.7989 -0.3218  0.2460
   65TMC2    H5 1022   2.593   1.485  15.257  1.7496 -0.7904  2.3890
   66MPD2     C 1023   2.328   1.261  15.787 -0.3874  0.1755  0.2561
   66MPD2    C1 1024   2.341   1.276  15.647 -0.3252 -0.4279  0.2051
   66MPD2    C2 1025   2.298   1.170  15.573  0.3966 -0.7534 -0.0958
   66MPD2    C3 1026   2.249   1.052  15.628  0.0365 -0.2192 -0.4567
   66MPD2    C4 1027   2.250   1.037  15.764  0.6948 -0.5537  0.7988
   66MPD2    C5 1028   2.290   1.140  15.846  0.4815  0.2606 -0.4857
   66MPD2     H 1029   2.301   1.189  15.466 -0.8389  1.1946  0.2126
   66MPD2    H1 1030   2.206   0.952  15.816 -0.4649  0.6974  1.8678
   66MPD2    H2 1031   2.338   1.343  15.857  0.6377  2.3805 -2.4407
   66MPD2    H3 1032   2.257   1.136  15.949 -0.6447  3.4158 -0.7270
   66MPD2     N 1033   2.195   0.936  15.558  0.3909 -0.2082 -0.1893
   66MPD2    H5 1034   2.174   0.855  15.616 -2.8079  0.6773 -0.1303
   66MPD2    N1 1035   2.403   1.393  15.591 -0.6096 -0.3954  0.1472
   66MPD2    H7 1036   2.437   1.380  15.496  1.0518  1.8476  0.4239
   67TMC2    C1 1037   2.930   0.844  14.169 -0.0700  0.1180  0.3487
   67TMC2    C2 1038   2.918   0.984  14.164  0.1994 -0.2631 -0.4299
   67TMC2    C3 1039   2.963   1.056  14.269  0.5582  0.2284  0.1017
   67TMC2    C4 1040   2.979   0.778  14.284  0.5666  0.0168  0.4222
   67TMC2    C5 1041   3.019   0.863  14.390 -0.3922  0.5382  0.7209
   67TMC2    C6 1042   3.011   0.999  14.384 -0.0036 -0.5792  0.2523
   67TMC2     C 1043   2.837   0.766  14.094  0.5371 -0.2324  0.5259
   67TMC2     O 1044   2.838   0.646  14.108  0.5262 -0.7829 -0.8485
   67TMC2     H 1045   2.899   1.030  14.068  1.1871  0.0065 -0.4885
   67TMC2    H1 1046   2.971   0.672  14.304  1.0134 -0.2850 -0.9833
   67TMC2    H2 1047   3.051   1.056  14.467  2.2767 -0.4231 -0.9443
   67TMC2    C7 1048   3.074   0.796  14.505  0.5606  0.2619 -0.6395
   67TMC2    C8 1049   2.986   1.202  14.259  0.2358 -0.0689  0.0240
   67TMC2    O1 1050   3.158   0.707  14.496  0.0785  0.0345 -0.3380
   67TMC2    O2 1051   3.012   1.272  14.353 -0.2075 -0.4646 -0.3081
   67TMC2    O5 1052   2.965   1.232  14.132  0.3378  0.0744  0.4236
   67TMC2    H5 1053   2.975   1.329  14.122 -0.1564  0.5569  4.4282
   68MPD2     C 1054   2.615   0.686  13.889 -0.5297  0.6249  0.2819
   68MPD2    C1 1055   2.630   0.810  13.950  0.4859  0.0767 -0.6449
   68MPD2    C2 1056   2.533   0.908  13.924  0.7867 -0.2142 -0.5943
   68MPD2    C3 1057   2.423   0.883  13.848 -0.9536  0.4689  0.6096
   68MPD2    C4 1058   2.417   0.764  13.783 -0.1953 -0.9940 -0.5679
   68MPD2    C5 1059   2.503   0.658  13.811  0.1030  0.1879  0.2659
   68MPD2     H 1060   2.554   1.010  13.951 -0.1518 -0.1273 -0.1883
   68MPD2    H1 1061   2.335   0.745  13.715 -0.8359  0.1803 -0.1168
   68MPD2    H2 1062   2.689   0.610  13.908 -0.2947  0.7215 -0.2557
   68MPD2    H3 1063   2.490   0.565  13.757  2.3656 -0.5633  1.0215
   68MPD2     N 1064   2.326   0.984  13.820 -0.2014  0.1360 -0.2077
   68MPD2    H5 1065   2.261   0.963  13.744 -0.9157 -1.6985  0.9109
   68MPD2    N1 1066   2.744   0.847  14.031  0.5710 -0.0645  0.3139
   68MPD2    H7 1067   2.754   0.947  14.041  0.7058  0.1003 -1.5381
   69TMC2    C1 1068   4.611   2.025  12.368  0.2254 -0.0477 -0.0915
   69TMC2    C2 1069   4.500   2.103  12.382  0.2004 -0.3638  0.3498
   69TMC2    C3 1070   4.434   2.137  12.267 -0.3683  0.1623 -0.0032
   69TMC2    C4 1071   4.656   1.974  12.247  0.4433 -0.3568  0.2088
   69TMC2    C5 1072   4.580   2.004  12.134 -0.3256  0.5121  0.2042
   69TMC2    C6 1073   4.472   2.089  12.147 -0.0315 -0.5183  0.5130
   69TMC2     C 1074   4.653   1.967  12.495 -0.6583 -0.2978  0.2994
   69TMC2     O 1075   4.612   2.009  12.600  0.1393  0.2774 -0.2725
   69TMC2     H 1076   4.474   2.144  12.479 -0.0289 -0.0233  0.1448
   69TMC2    H1 1077   0.015   1.927  12.225  0.5257 -0.4180  0.6761
   69TMC2    H2 1078   4.435   2.147  12.063  3.6277 -2.0394 -2.1341
   69TMC2    C7 1079   4.607   1.946  12.010  0.0961 -0.1095 -0.2784
   69TMC2    C8 1080   4.332   2.240  12.280  0.2671 -0.0701 -0.6071
   69TMC2    O1 1081   4.715   1.892  11.997 -0.1632  0.5097 -0.1011
   69TMC2    O2 1082   4.318   2.322  12.371 -0.7397  0.4399  0.4339
   69TMC2    O5 1083   4.257   2.246  12.163 -0.0709  0.2273 -0.2418
   69TMC2    H5 1084   4.272   2.176  12.096 -0.7483 -0.7903  0.6713
   70MPD2     C 1085   0.161   1.703  12.538 -0.0692  0.4116  0.2954
   70MPD2    C1 1086   0.056   1.773  12.578  0.3962 -0.1252 -0.4830
   70MPD2    C2 1087   4.734   1.747  12.703  0.4306 -0.2753  0.3689
   70MPD2    C3 1088   0.057   1.650  12.783  0.1509 -0.3983 -0.0300
   70MPD2    C4 1089   0.170   1.578  12.734  0.0265 -0.0704 -0.4388
   70MPD2    C5 1090   0.230   1.616  12.618 -0.3161 -0.0604 -0.1632
   70MPD2     H 1091   4.647   1.800  12.738  1.0525  0.6734  0.4872
   70MPD2    H1 1092   0.216   1.496  12.788 -3.1297 -1.3427  0.3858
   70MPD2    H2 1093   0.205   1.724  12.441 -0.7985  1.9764  0.3057
   70MPD2    H3 1094   0.310   1.555  12.577  0.9705  0.3455  1.7586
   70MPD2     N 1095   0.020   1.614  12.914  0.8197 -0.1317  0.2930
   70MPD2    H5 1096   0.082   1.550  12.962 -2.6930 -0.6209  4.1297
   70MPD2    N1 1097   0.006   1.865  12.474 -0.4175  0.5916  0.0166
   70MPD2    H7 1098   0.046   1.845  12.383 -0.4310  1.1809 -0.1187
   71TMC2    C1 1099   2.544   3.122   1.305 -0.1920  0.4600  0.2777
   71TMC2    C2 1100   2.648   3.074   1.377 -0.8546  0.1566 -0.2733
   71TMC2    C3 1101   2.642   3.096   1.508 -0.2390  0.0579  0.4776
   71TMC2    C4 1102   2.438   3.197   1.360  0.0071 -0.4895  0.0552
   71TMC2    C5 1103   2.442   3.220   1.495 -0.1696 -0.1487 -0.0432
   71TMC2    C6 1104   2.547   3.173   1.570  0.2744  0.0356  0.4604
   71TMC2     C 1105   2.541   3.109   1.162  0.8980  0.3907 -0.8265
   71TMC2     O 1106   2.474   3.200   1.116  0.5111 -0.2432 -0.3968
   71TMC2     H 1107   2.741   3.052   1.326  0.9159  1.7507  2.2730
   71TMC2    H1 1108   2.350   3.226   1.303  1.5133 -0.4587 -2.2296
   71TMC2    H2 1109   2.556   3.203   1.674 -2.2440  0.2566  0.6175
   71TMC2    C7 1110   2.341   3.288   1.566 -0.0874 -0.2619 -0.4274
   71TMC2    C8 1111   2.745   3.045   1.586 -0.6534 -0.1121 -0.4100
   71TMC2    O1 1112   2.374   3.357   1.662 -0.2874 -0.2027  0.1321
   71TMC2    O2 1113   2.774   3.081   1.701  0.5117  0.4160 -0.1723
   71TMC2    O5 1114   2.770   2.922   1.532 -0.1447  0.4680 -1.0129
   71TMC2    H5 1115   2.730   2.902   1.445  1.4390 -0.2931 -1.5571
   72MPD2     C 1116   2.655   2.886   0.713  0.2025 -0.5120  0.3280
   72MPD2    C1 1117   2.583   2.999   0.746  0.3558 -0.2318 -0.3066
   72MPD2    C2 1118   2.566   3.043   0.871  0.7829 -0.3427  0.2538
   72MPD2    C3 1119   2.628   2.971   0.974  0.0624 -0.6422  0.8616
   72MPD2    C4 1120   2.709   2.869   0.939 -0.1840 -0.9411  0.0989
   72MPD2    C5 1121   2.721   2.820   0.813 -0.4118  0.7955  0.4068
   72MPD2     H 1122   2.504   3.127   0.899  2.8591  1.3499 -0.1699
   72MPD2    H1 1123   2.754   2.809   1.016 -0.9322 -1.2116  0.3287
   72MPD2    H2 1124   2.655   2.848   0.611 -0.5480 -1.5628  0.7144
   72MPD2    H3 1125   2.792   2.741   0.794 -2.3589 -0.9514  0.3829
   72MPD2     N 1126   2.608   2.999   1.114 -0.3240 -0.5494  0.2268
   72MPD2    H5 1127   2.658   2.936   1.176  0.5549 -1.5471 -1.4769
   72MPD2    N1 1128   2.505   3.069   0.658 -0.0839 -0.2047  0.1930
   72MPD2    H7 1129   2.458   3.152   0.694  0.0545 -0.0921  0.1122
   73TMC2    C1 1130   1.393   4.558  13.914  0.1194 -0.0983  0.0476
   73TMC2    C2 1131   1.303   4.594  14.013  0.2212 -0.1003  0.3065
   73TMC2    C3 1132   1.319   4.532  14.135  0.7324 -0.6656  0.3039
   73TMC2    C4 1133   1.502   4.481  13.943 -0.5575 -0.2936  0.2648
   73TMC2    C5 1134   1.520   4.432  14.068 -1.4304 -0.2119  0.6834
   73TMC2    C6 1135   1.425   4.451  14.163  0.3273 -0.8817 -0.0426
   73TMC2     C 1136   1.434   4.666  13.833  0.4175 -1.0932 -0.2672
   73TMC2     O 1137   1.558   4.670  13.821 -0.2143  0.2906  0.4486
   73TMC2     H 1138   1.208   4.638  13.984  0.3305 -0.1204 -0.0904
   73TMC2    H1 1139   1.561   4.455  13.856  1.0942  1.3358  0.9097
   73TMC2    H2 1140   1.434   4.411  14.263  1.2554 -3.5424 -1.2049
   73TMC2    C7 1141   1.654   4.458  14.112 -0.8489  0.3836  0.5822
   73TMC2    C8 1142   1.218   4.537  14.236  0.0442  0.0146 -0.2070
   73TMC2    O1 1143   1.699   4.394  14.205 -0.4473 -0.2093  0.0088
   73TMC2    O2 1144   1.213   4.447  14.319  0.4529  0.2572 -0.1074
   73TMC2    O5 1145   1.106   4.601  14.200 -0.2547 -0.2484  0.2021
   73TMC2    H5 1146   1.110   4.666  14.126 -0.8186  0.3707  0.7199
   74MPD2     C 1147   1.380   0.372  13.606  0.2579  0.9451 -0.1744
   74MPD2    C1 1148   1.484   0.320  13.684  0.0068 -0.4466 -0.1330
   74MPD2    C2 1149   1.462   0.202  13.755  0.0604  0.3978  0.3237
   74MPD2    C3 1150   1.346   0.132  13.729  0.0469  0.0897 -0.4693
   74MPD2    C4 1151   1.247   0.177  13.640  0.0975  0.6617 -0.1606
   74MPD2    C5 1152   1.263   0.303  13.586  0.0333  0.0444  0.5894
   74MPD2     H 1153   1.530   0.161  13.828  1.3783 -0.6613 -1.4779
   74MPD2    H1 1154   1.158   0.121  13.615 -0.6235  1.9964 -0.5985
   74MPD2    H2 1155   1.387   0.465  13.551  0.9753  0.8871 -0.1812
   74MPD2    H3 1156   1.194   0.345  13.514  4.9228  2.8862 -2.4098
   74MPD2     N 1157   1.334   0.009  13.783  0.0544  0.0807 -0.3987
   74MPD2    H5 1158   1.242   4.702  13.790 -0.1692  0.3260 -1.6934
   74MPD2    N1 1159   1.597   0.404  13.707  0.6855 -0.2506 -0.7963
   74MPD2    H7 1160   1.585   0.498  13.672  0.4882  0.6494  1.6982
   75TMC2    C1 1161   2.201   1.184  13.851 -0.0230 -0.1277  0.3585
   75TMC2    C2 1162   2.135   1.261  13.950 -0.0643  0.1340  0.3882
   75TMC2    C3 1163   2.021   1.318  13.912 -0.3371  0.2740  0.4548
   75TMC2    C4 1164   2.152   1.174  13.727 -0.3878 -0.7914  0.4276
   75TMC2    C5 1165   2.034   1.225  13.704 -0.1363 -0.1991 -0.3452
   75TMC2    C6 1166   1.964   1.308  13.789 -0.1265  0.3817 -0.6256
   75TMC2     C 1167   2.303   1.091  13.899  0.5091  0.1008  0.1236
   75TMC2     O 1168   2.336   1.113  14.017 -0.5256 -0.4020 -0.6190
   75TMC2     H 1169   2.172   1.270  14.051 -1.7597 -2.0166  1.1954
   75TMC2    H1 1170   2.209   1.109  13.661  0.9684  4.6786 -3.8398
   75TMC2    H2 1171   1.868   1.355  13.772  0.1190  1.5761  1.2049
   75TMC2    C7 1172   1.982   1.208  13.566  0.0610  0.6405  0.0726
   75TMC2    C8 1173   1.947   1.405  14.002  0.0748 -0.4462  0.1553
   75TMC2    O1 1174   2.031   1.110  13.505  0.1446  0.0854  0.4714
   75TMC2    O2 1175   1.831   1.434  13.991  0.2587 -0.1327  0.4914
   75TMC2    O5 1176   2.032   1.460  14.088  0.0306  0.3937  0.1818
   75TMC2    H5 1177   2.123   1.424  14.091 -0.8618 -1.8416  0.9324
   76TMC2    C1 1178   0.150   0.882  12.015  0.0143  0.2252  0.1072
   76TMC2    C2 1179   0.020   0.865  12.049  0.0887 -0.3943 -0.8671
   76TMC2    C3 1180   4.720   0.784  12.151  0.1997 -0.1221  0.1940
   76TMC2    C4 1181   0.241   0.819  12.105 -0.4074 -0.1497 -0.3149
   76TMC2    C5 1182   0.199   0.739  12.203  0.2668 -0.4576 -0.3376
   76TMC2    C6 1183   0.071   0.718  12.225 -0.6735 -0.3226 -0.0056
   76TMC2     C 1184   0.189   0.977  11.912 -0.1411 -0.5085  0.0622
   76TMC2     O 1185   0.104   1.026  11.842 -0.2025 -0.3518 -0.5470
   76TMC2     H 1186   4.678   0.919  11.995 -1.3395 -0.8464  0.7390
   76TMC2    H1 1187   0.347   0.841  12.101 -0.7664  1.1473 -2.5445
   76TMC2    H2 1188   0.033   0.653  12.304  0.3931  0.9660  1.5614
   76TMC2    C7 1189   0.296   0.652  12.272  0.1862  0.0838  0.2092
   76TMC2    C8 1190   4.582   0.788  12.187 -0.7235  0.6496  0.4025
   76TMC2    O1 1191   0.263   0.532  12.274  0.4896 -0.0021  0.0933
   76TMC2    O2 1192   4.495   0.775  12.101  0.0734 -0.0999  0.1715
   76TMC2    O5 1193   4.580   0.881  12.281  0.2679 -0.0939 -0.6759
   76TMC2    H5 1194   4.667   0.916  12.311  2.1738 -4.1252 -1.4849
   77MPD2     C 1195   0.530   1.154  11.570 -0.2829  0.3497 -0.0690
   77MPD2    C1 1196   0.404   1.199  11.608  0.7873  0.3729 -0.4144
   77MPD2    C2 1197   0.347   1.141  11.719  0.1053  0.2153 -0.3341
   77MPD2    C3 1198   0.401   1.043  11.798  0.6318 -0.5456 -0.2003
   77MPD2    C4 1199   0.529   0.998  11.762 -0.9111 -0.2003 -0.1487
   77MPD2    C5 1200   0.587   1.048  11.646  0.7625  0.2055 -0.5088
   77MPD2     H 1201   0.253   1.176  11.759  0.6205  1.8309 -0.5243
   77MPD2    H1 1202   0.578   0.911  11.804  0.7244  1.1614  0.8096
   77MPD2    H2 1203   0.580   1.200  11.486 -1.4597  0.9980 -0.4213
   77MPD2    H3 1204   0.684   1.010  11.616 -0.1772 -2.4748 -0.1714
   77MPD2     N 1205   0.326   0.971  11.892  0.3677  0.3216 -0.3189
   77MPD2    H5 1206   0.381   0.907  11.949  1.1557  0.5099 -0.8766
   77MPD2    N1 1207   0.346   1.314  11.553 -0.7580 -0.8432 -0.2933
   77MPD2    H7 1208   0.256   1.339  11.593  0.5606  1.7603  1.0625
   78TMC2    C1 1209   3.029   1.671   0.792 -0.2903 -0.5512  0.4597
   78TMC2    C2 1210   2.918   1.716   0.724  1.0919  0.2825  0.3709
   78TMC2    C3 1211   2.848   1.819   0.779  0.1257 -0.1064 -0.2617
   78TMC2    C4 1212   3.078   1.734   0.899 -0.0907  0.0131 -0.6013
   78TMC2    C5 1213   3.001   1.837   0.951  0.4413  0.6440 -0.4793
   78TMC2    C6 1214   2.891   1.891   0.883  0.0047 -0.1043 -0.2929
   78TMC2     C 1215   3.085   1.544   0.741  0.0726  0.3057 -0.3169
   78TMC2     O 1216   3.006   1.457   0.707  0.0573 -0.2006 -0.4435
   78TMC2     H 1217   2.865   1.662   0.646 -2.6223  1.9367  1.7545
   78TMC2    H1 1218   3.160   1.694   0.957  1.6563  0.1485 -2.9823
   78TMC2    H2 1219   2.821   1.962   0.926 -1.2776 -0.8130 -1.2177
   78TMC2    C7 1220   3.049   1.918   1.054 -0.5343 -0.2447 -0.1557
   78TMC2    C8 1221   2.742   1.860   0.699 -0.1172  0.8700 -0.0251
   78TMC2    O1 1222   3.005   2.030   1.052 -0.4494 -0.1394  0.6008
   78TMC2    O2 1223   2.676   1.783   0.632  0.5007 -0.3838  0.4956
   78TMC2    O5 1224   2.736   1.992   0.688 -0.3135 -0.0046  0.0492
   78TMC2    H5 1225   2.794   2.038   0.751 -1.2638  0.4281  0.6079
   79MPD1     C 1226   3.487   1.230   0.743  0.2975 -0.0378 -0.2283
   79MPD1    C1 1227   3.354   1.208   0.714  0.3936 -0.5858 -0.4331
   79MPD1    C2 1228   3.267   1.316   0.705 -0.7192  0.6004  0.4418
   79MPD1    C3 1229   3.311   1.442   0.751  0.4682 -0.1180 -0.1642
   79MPD1    C4 1230   3.445   1.461   0.780  0.3172 -0.5141 -1.2419
   79MPD1    C5 1231   3.531   1.354   0.778 -0.5063  0.4096 -0.2584
   79MPD1     H 1232   3.166   1.297   0.673 -0.6773  0.2865  0.4940
   79MPD1    H1 1233   3.489   1.556   0.811  0.7893 -0.1179 -3.1075
   79MPD1    H2 1234   3.559   1.149   0.742 -1.1656 -1.3639  1.1100
   79MPD1    H3 1235   3.634   1.361   0.813  0.2567  0.9927 -2.6243
   79MPD1     N 1236   3.223   1.545   0.762 -0.6686 -0.2487  0.4706
   79MPD1    H5 1237   3.264   1.632   0.795 -0.9622 -0.3157  1.0091
   79MPD1    N1 1238   3.315   1.085   0.656 -0.4429 -0.5428 -0.2247
   79MPD1    H6 1239   3.217   1.056   0.650 -0.3254 -1.1582  0.8503
   79MPD1    H7 1240   3.367   1.012   0.706  0.9690  0.6204  0.0073
   80TMC2    C1 1241   4.138   1.003  11.862  0.0170  0.0478  0.0629
   80TMC2    C2 1242   4.091   0.950  11.743  0.9717 -0.2861  0.1242
   80TMC2    C3 1243   3.984   0.867  11.749 -0.2594  0.2897  0.6317
   80TMC2    C4 1244   4.063   0.985  11.981  0.2087 -0.2789  0.2587
   80TMC2    C5 1245   3.961   0.895  11.977  0.4303  1.0934  0.3604
   80TMC2    C6 1246   3.915   0.838  11.860 -0.0084 -0.2356 -0.0818
   80TMC2     C 1247   4.259   1.078  11.862 -0.1031  0.3533  0.5930
   80TMC2     O 1248   4.313   1.092  11.750 -0.0472 -0.0988  0.0380
   80TMC2     H 1249   4.146   0.963  11.650  1.1590  0.4076  0.3365
   80TMC2    H1 1250   4.083   1.035  12.075  1.1084  0.5797 -0.3938
   80TMC2    H2 1251   3.833   0.767  11.854  1.3437 -1.7287 -0.8600
   80TMC2    C7 1252   3.874   0.875  12.090  0.1283 -0.0272 -0.4516
   80TMC2    C8 1253   3.939   0.825  11.619 -0.1580  0.8481  0.3753
   80TMC2    O1 1254   3.753   0.870  12.062 -0.2180 -0.5938  0.2191
   80TMC2    O2 1255   3.980   0.878  11.520  0.1359  0.1599 -0.4910
   80TMC2    O5 1256   3.883   0.702  11.619  0.6327  0.2157 -0.4368
   80TMC2    H5 1257   3.887   0.664  11.709  0.6100 -1.7304 -1.2633
   81MPD2     C 1258   4.528   1.200  11.926  1.9707  0.3440  0.1118
   81MPD2    C1 1259   4.441   1.169  12.025 -0.3316  0.7084  0.0753
   81MPD2    C2 1260   4.475   1.184  12.161  0.2022 -0.1829 -0.3468
   81MPD2    C3 1261   4.598   1.240  12.198  0.7380  0.7653  0.2429
   81MPD2    C4 1262   4.690   1.251  12.097  0.0110 -0.6486 -0.5789
   81MPD2    C5 1263   4.653   1.234  11.965  0.2659  0.0382  0.0942
   81MPD2     H 1264   4.408   1.166  12.244  0.8984  0.5058  0.3581
   81MPD2    H1 1265   0.054   1.287  12.122 -1.4213  2.9214  0.0961
   81MPD2    H2 1266   4.502   1.188  11.821 -1.9818 -0.7064  1.1957
   81MPD2    H3 1267   4.726   1.258  11.889  0.8628 -2.0163  0.0174
   81MPD2     N 1268   4.626   1.280  12.336 -0.2758  0.3686 -0.2914
   81MPD2    H5 1269   4.721   1.306  12.362  0.1324 -0.2726 -1.1004
   81MPD2    N1 1270   4.306   1.110  11.992  0.6715 -0.2316 -0.4631
   81MPD2    H7 1271   4.264   1.081  12.080  2.1739  1.9559  0.9870
   82TMC2    C1 1272   2.239   4.163  10.967 -1.0576 -0.8679  0.5282
   82TMC2    C2 1273   2.371   4.163  10.992 -0.6027 -0.1613  0.2601
   82TMC2    C3 1274   2.404   4.104  11.115 -0.1565 -0.5456  0.6684
   82TMC2    C4 1275   2.150   4.096  11.041  0.5506 -0.2145  0.3720
   82TMC2    C5 1276   2.185   4.044  11.163  0.0912  0.3014  0.0708
   82TMC2    C6 1277   2.318   4.045  11.194  0.1078  0.0046  0.4249
   82TMC2     C 1278   2.191   4.281  10.898  0.2837  0.0401 -0.2889
   82TMC2     O 1279   2.103   4.252  10.813  0.0505 -0.5537 -0.1328
   82TMC2     H 1280   2.438   4.227  10.937  0.9583  0.1594  2.5503
   82TMC2    H1 1281   2.044   4.109  11.022  0.8021 -0.3875 -1.1669
   82TMC2    H2 1282   2.351   4.007  11.289 -4.0494 -0.3835  1.7039
   82TMC2    C7 1283   2.095   3.985  11.251  0.6606 -0.5682 -0.0668
   82TMC2    C8 1284   2.539   4.055  11.152 -0.2114  0.3357  0.2377
   82TMC2    O1 1285   2.125   3.986  11.368 -0.0317 -0.3204  0.2840
   82TMC2    O2 1286   2.580   4.053  11.265  0.2230 -0.0807  1.0984
   82TMC2    O5 1287   2.607   4.061  11.037 -0.1522  0.0299  0.0477
   82TMC2    H5 1288   2.556   4.038  10.957  0.2265 -1.0591  0.1262
   83MPD2     C 1289   2.126   0.061  10.891  0.1915 -0.5403 -0.2045
   83MPD2    C1 1290   2.056   4.692  10.828  0.4723  0.0870 -0.3895
   83MPD2    C2 1291   2.091   4.556  10.848 -0.3073 -0.3884 -0.2041
   83MPD2    C3 1292   2.195   4.527  10.927 -0.1401  0.5038  0.3543
   83MPD2    C4 1293   2.268   4.629  10.987 -0.3250  0.8785  0.4806
   83MPD2    C5 1294   2.228   0.027  10.975 -0.1366  0.3052  0.4054
   83MPD2     H 1295   2.046   4.479  10.787  1.8910 -3.0159  1.5211
   83MPD2    H1 1296   2.357   4.611  11.047 -0.2013  0.1286  0.0693
   83MPD2    H2 1297   2.095   0.164  10.884  1.7429 -0.2423 -2.4697
   83MPD2    H3 1298   2.284   0.104  11.026  0.7887  0.6004 -1.0407
   83MPD2     N 1299   2.237   4.396  10.950 -0.2459 -0.7513  0.0358
   83MPD2    H5 1300   2.311   4.389  11.019  0.0866  0.4653 -0.2006
   83MPD2    N1 1301   1.953   4.727  10.738 -0.2592 -0.1561 -0.2517
   83MPD2    H7 1302   1.938   0.091  10.728 -1.5468 -0.6697 -3.4165
   84TMC2    C1 1303   3.510   4.262  11.609 -0.0821 -0.4006  0.4636
   84TMC2    C2 1304   3.621   4.204  11.660  0.8615  1.2910  0.6083
   84TMC2    C3 1305   3.675   4.091  11.593  0.4081  0.3916  0.2562
   84TMC2    C4 1306   3.442   4.197  11.514 -0.1684 -0.6929  0.5886
   84TMC2    C5 1307   3.495   4.093  11.449 -0.3985 -0.0319 -0.0070
   84TMC2    C6 1308   3.611   4.034  11.493 -0.4244  0.5865 -0.3262
   84TMC2     C 1309   3.473   4.392  11.654 -0.1168 -0.0239  0.0244
   84TMC2     O 1310   3.360   4.422  11.611  0.1201  0.0125  0.2695
   84TMC2     H 1311   3.678   4.242  11.744 -1.0782 -2.0200  3.4320
   84TMC2    H1 1312   3.353   4.243  11.472  0.5465  0.6642  0.5773
   84TMC2    H2 1313   3.648   3.947  11.440  2.1230 -0.5993  3.3671
   84TMC2    C7 1314   3.417   4.013  11.356 -0.2624  0.1866 -0.4862
   84TMC2    C8 1315   3.770   4.023  11.669  0.0316 -0.3411  0.3323
   84TMC2    O1 1316   3.478   3.939  11.283  0.2798  0.3297 -0.1851
   84TMC2    O2 1317   3.771   4.005  11.791  0.1158  0.1724 -0.3806
   84TMC2    O5 1318   3.874   3.995  11.582  0.1924 -0.1652  0.4462
   84TMC2    H5 1319   3.843   4.014  11.491  1.1289 -0.5767  0.0438
   85TMC2    C1 1320   4.706   2.855  16.122 -0.2923  0.4274  0.6750
   85TMC2    C2 1321   4.596   2.922  16.155  0.4376  0.3068 -0.1060
   85TMC2    C3 1322   4.599   3.059  16.157 -0.5109 -1.1501  0.3524
   85TMC2    C4 1323   0.084   2.916  16.078 -0.2575 -0.1826  0.0716
   85TMC2    C5 1324   0.084   3.055  16.072 -0.3817  0.1133  0.4202
   85TMC2    C6 1325   4.709   3.133  16.121  0.1083  0.2959  0.0586
   85TMC2     C 1326   4.723   2.714  16.159 -0.3393 -0.5654  0.0948
   85TMC2     O 1327   0.103   2.674  16.171 -0.5875 -0.3065 -0.4778
   85TMC2     H 1328   4.503   2.873  16.182  1.4122 -1.6778 -0.4254
   85TMC2    H1 1329   0.160   2.852  16.035  1.8394  2.1977  0.1925
   85TMC2    H2 1330   4.698   3.240  16.112  0.4032  0.2304 -1.1096
   85TMC2    C7 1331   0.201   3.119  16.032  0.1949 -1.2985  0.0186
   85TMC2    C8 1332   4.477   3.129  16.186  0.2805  0.1511 -0.4431
   85TMC2    O1 1333   0.291   3.049  15.992 -0.2926 -0.3478  0.1766
   85TMC2    O2 1334   4.452   3.210  16.274  0.7548 -0.0113 -0.3581
   85TMC2    O5 1335   4.392   3.074  16.093 -0.4461  0.5122  0.9113
   85TMC2    H5 1336   4.416   2.996  16.039  0.2518  2.4253 -1.5463
   86MPD2     C 1337   4.546   2.322  16.433  0.3015 -0.1855 -0.6615
   86MPD2    C1 1338   4.445   2.376  16.364 -0.0890  0.5730  0.8694
   86MPD2    C2 1339   4.465   2.497  16.298 -0.2929 -0.3193  0.2697
   86MPD2    C3 1340   4.588   2.557  16.293 -0.0031  0.1352  0.4490
   86MPD2    C4 1341   4.689   2.501  16.362  0.4205  0.6382  0.0617
   86MPD2    C5 1342   4.668   2.390  16.440  0.3067 -0.2827 -0.1735
   86MPD2     H 1343   4.392   2.529  16.225  0.8204 -0.6319 -0.9912
   86MPD2    H1 1344   0.048   2.552  16.372  1.4157 -1.1302 -0.4526
   86MPD2    H2 1345   4.535   2.237  16.500  2.4918 -0.8585 -1.1589
   86MPD2    H3 1346   0.013   2.340  16.492  0.7470  0.8776  0.2569
   86MPD2     N 1347   4.604   2.666  16.211  0.0982 -0.4506  0.0430
   86MPD2    H5 1348   4.519   2.706  16.173 -1.1203 -0.8678  2.3220
   86MPD2    N1 1349   4.317   2.314  16.357 -0.4586 -0.4224  0.1386
   86MPD2    H7 1350   4.250   2.347  16.288  2.5880  1.7618 -1.7697
   87TMC2    C1 1351   2.185   1.083   0.857  0.6112  0.4643  0.0954
   87TMC2    C2 1352   2.213   1.014   0.971  1.1282  1.1694 -0.5824
   87TMC2    C3 1353   2.201   1.073   1.094 -0.2138 -0.4679  0.3250
   87TMC2    C4 1354   2.147   1.219   0.870 -0.3184 -0.2013  0.1682
   87TMC2    C5 1355   2.122   1.267   0.997  0.4160 -0.0727  0.0022
   87TMC2    C6 1356   2.149   1.199   1.111  0.0131 -0.9335 -0.2574
   87TMC2     C 1357   2.195   1.021   0.726  0.4865  0.0681 -0.0763
   87TMC2     O 1358   2.199   0.899   0.732  0.6478  0.2807 -0.4500
   87TMC2     H 1359   2.238   0.910   0.953 -2.4943  0.4032 -1.3680
   87TMC2    H1 1360   2.102   1.273   0.787 -1.1993 -0.2720  0.5999
   87TMC2    H2 1361   2.123   1.233   1.211  0.0159  0.1688 -0.6353
   87TMC2    C7 1362   2.033   1.380   1.005  0.0885  0.4194 -0.2867
   87TMC2    C8 1363   2.167   0.985   1.209 -0.5196 -0.2352 -0.2261
   87TMC2    O1 1364   1.961   1.414   0.916 -0.5362 -0.1465 -0.1388
   87TMC2    O2 1365   2.075   0.994   1.287 -0.8379  0.1217  0.0707
   87TMC2    O5 1366   2.249   0.881   1.197 -0.4442  0.2490  0.3160
   87TMC2    H5 1367   2.316   0.897   1.126 -1.2241  1.2970 -0.1798
   88MPD2     C 1368   2.023   1.626   1.289 -0.1292  0.1322 -0.4485
   88MPD2    C1 1369   1.992   1.579   1.162 -0.2142  0.2053  0.0242
   88MPD2    C2 1370   1.901   1.651   1.088 -0.3373 -0.1112 -0.2274
   88MPD2    C3 1371   1.855   1.777   1.127  0.4549  0.8028 -0.1329
   88MPD2    C4 1372   1.893   1.818   1.250 -0.0419 -0.0796  0.2148
   88MPD2    C5 1373   1.963   1.740   1.331  0.7234  0.1514  0.3089
   88MPD2     H 1374   1.875   1.618   0.988 -0.2875  0.1087 -0.3130
   88MPD2    H1 1375   1.857   1.910   1.296  1.4765  1.0412 -0.8426
   88MPD2    H2 1376   2.077   1.562   1.358  1.3028 -0.5243 -2.1775
   88MPD2    H3 1377   1.972   1.771   1.434  2.7716 -0.2173  0.2521
   88MPD2     N 1378   1.772   1.864   1.046  0.6735 -0.4208  0.5615
   88MPD2    H5 1379   1.764   1.957   1.084 -0.0640  0.0863 -0.8523
   88MPD2    N1 1380   2.054   1.450   1.123  0.2317 -0.0063  0.2588
   88MPD2    H7 1381   2.133   1.417   1.176  2.2259  0.2983 -2.5408
   89TMC2    C1 1382   2.765   4.441   1.716 -0.4130 -0.5598  0.0847
   89TMC2    C2 1383   2.786   4.573   1.733 -0.1023 -0.2392  0.0006
   89TMC2    C3 1384   2.910   4.627   1.713 -0.1027  0.5301 -0.4821
   89TMC2    C4 1385   2.867   4.363   1.665  1.2783 -0.2532  1.1061
   89TMC2    C5 1386   2.984   4.425   1.628 -0.4847 -0.4988  0.0311
   89TMC2    C6 1387   3.008   4.555   1.652 -0.2094  0.2412 -0.0136
   89TMC2     C 1388   2.632   4.395   1.724  0.5717 -0.2430  0.4755
   89TMC2     O 1389   2.553   4.485   1.750  0.3735 -0.3263 -0.1215
   89TMC2     H 1390   2.711   4.644   1.768  1.0214  0.9855 -0.0908
   89TMC2    H1 1391   2.845   4.265   1.624 -2.2130 -0.5666  3.7491
   89TMC2    H2 1392   3.110   4.591   1.647 -0.5828  1.4547  1.2069
   89TMC2    C7 1393   3.023   4.380   1.499  0.1808  0.9019  0.1409
   89TMC2    C8 1394   2.909   0.034   1.697  0.4171 -0.5603  0.6497
   89TMC2    O1 1395   3.001   4.260   1.472 -0.0889  0.3540 -0.0791
   89TMC2    O2 1396   2.977   0.095   1.618  0.3576 -0.1534  0.2028
   89TMC2    O5 1397   2.875   0.085   1.817 -0.0570  0.4109 -0.0326
   89TMC2    H5 1398   2.827   0.029   1.881 -0.0013  0.2463 -0.1359
   90MPD2     C 1399   2.234   4.100   1.593 -0.6437 -0.3689  0.3259
   90MPD2    C1 1400   2.347   4.018   1.593 -0.7874  0.3018 -0.0157
   90MPD2    C2 1401   2.472   4.076   1.633  0.0905  0.3122 -0.3588
   90MPD2    C3 1402   2.486   4.202   1.675  0.7061  0.4683 -0.1632
   90MPD2    C4 1403   2.363   4.278   1.687  0.6421  0.0850 -0.2741
   90MPD2    C5 1404   2.246   4.225   1.640  0.0105 -0.2760 -0.3528
   90MPD2     H 1405   2.563   4.017   1.626 -1.0921 -1.5633 -0.1330
   90MPD2    H1 1406   2.362   4.380   1.722 -2.0551  0.8125 -2.4862
   90MPD2    H2 1407   2.138   4.063   1.559 -1.8431  1.2544  1.9401
   90MPD2    H3 1408   2.154   4.283   1.638  1.6263  2.2998  1.0031
   90MPD2     N 1409   2.609   4.262   1.699  0.0214 -0.7519 -0.7309
   90MPD2    H5 1410   2.692   4.204   1.690  0.9757  0.2769  1.5001
   90MPD2    N1 1411   2.351   3.872   1.568  0.0022  0.0213 -0.9065
   90MPD2    H7 1412   2.447   3.840   1.566 -0.1552 -0.4417 -0.9987
   91TMC2    C1 1413   4.512   3.104  16.641 -0.6705 -0.2285  0.1243
   91TMC2    C2 1414   4.502   3.035  16.758 -0.7629 -0.1022  0.0227
   91TMC2    C3 1415   4.386   3.031  16.821  0.1087  0.5066 -0.7344
   91TMC2    C4 1416   4.404   3.174  16.584 -0.3674  0.2917  0.0033
   91TMC2    C5 1417   4.286   3.179  16.657  0.4440  1.2668 -0.3821
   91TMC2    C6 1418   4.276   3.104  16.774 -0.6169  0.1185  0.0038
   91TMC2     C 1419   4.643   3.114  16.576 -0.8231 -0.3903 -1.2689
   91TMC2     O 1420   4.673   3.231  16.539  0.0811 -0.9546  0.4826
   91TMC2     H 1421   4.583   2.998  16.820  0.0380 -2.6138 -2.5620
   91TMC2    H1 1422   4.416   3.227  16.490 -0.5814  1.0073  0.3819
   91TMC2    H2 1423   4.188   3.097  16.836  1.5327  0.7008  3.1007
   91TMC2    C7 1424   4.165   3.235  16.606  0.0673 -0.8939 -0.4080
   91TMC2    C8 1425   4.387   2.947  16.938  0.3952  0.9013 -0.8818
   91TMC2    O1 1426   4.064   3.184  16.650 -0.1021 -0.1560  0.6948
   91TMC2    O2 1427   4.293   2.866  16.958  0.0617  0.0083  0.7331
   91TMC2    O5 1428   4.436   3.034  17.034 -0.0630 -0.2271  0.3584
   91TMC2    H5 1429   4.482   3.106  16.985 -2.4640  1.7526  0.9788
   92MPD2     C 1430   0.111   2.825  16.478  0.3118 -0.1983 -0.2738
   92MPD2    C1 1431   0.091   2.957  16.503 -0.2987 -0.0490  0.1327
   92MPD2    C2 1432   0.183   3.049  16.466 -0.6225  0.4266 -0.7230
   92MPD2    C3 1433   0.298   3.009  16.409  0.1093 -0.3367 -0.2825
   92MPD2    C4 1434   0.319   2.872  16.377 -0.6995  0.4526  0.0715
   92MPD2    C5 1435   0.220   2.782  16.415 -0.0677 -0.6495  0.4371
   92MPD2     H 1436   0.173   3.157  16.469  1.9044  0.6921 -1.2920
   92MPD2    H1 1437   0.405   2.833  16.323 -0.2122  1.3035  0.2387
   92MPD2    H2 1438   0.038   2.750  16.502  0.5165 -0.5873 -0.8660
   92MPD2    H3 1439   0.237   2.676  16.394 -0.9670 -0.8461  0.7324
   92MPD2     N 1440   0.382   3.108  16.359  0.6329  0.0900  0.4397
   92MPD2    H5 1441   0.354   3.204  16.376  0.3342 -0.1252  1.1480
   92MPD2    N1 1442   4.699   2.986  16.559 -0.5611 -0.1078  0.0561
   92MPD2    H7 1443   4.641   2.909  16.589 -0.9210 -0.1543 -0.7565
   93TMC2    C1 1444   1.392   3.803  14.232  0.1733 -0.0977  0.3137
   93TMC2    C2 1445   1.364   3.864  14.349 -0.1695 -0.3238 -0.5781
   93TMC2    C3 1446   1.470   3.910  14.419 -0.2546  0.1965  0.0933
   93TMC2    C4 1447   1.515   3.810  14.179  0.3971 -0.2986  0.0535
   93TMC2    C5 1448   1.618   3.859  14.253 -0.3190 -0.0447  0.0536
   93TMC2    C6 1449   1.598   3.904  14.376  0.4866  0.4377  0.1878
   93TMC2     C 1450   1.296   3.724  14.160 -0.4459 -0.2591 -0.1252
   93TMC2     O 1451   1.180   3.749  14.193 -0.3696  0.2676  0.4947
   93TMC2     H 1452   1.263   3.876  14.386  0.1707  0.9429 -0.0812
   93TMC2    H1 1453   1.520   3.801  14.071  0.5491 -0.1381  0.0475
   93TMC2    H2 1454   1.678   3.936  14.442  1.5883  1.8213 -1.8115
   93TMC2    C7 1455   1.750   3.879  14.187  0.0149  0.1520  0.3520
   93TMC2    C8 1456   1.438   3.939  14.558  0.2641  0.7042 -0.5461
   93TMC2    O1 1457   1.764   3.814  14.082  0.3445  0.1283  0.0628
   93TMC2    O2 1458   1.337   3.890  14.613 -0.1636  0.2357  0.1843
   93TMC2    O5 1459   1.543   3.986  14.628  0.1859  0.5249 -0.2225
   93TMC2    H5 1460   1.623   4.016  14.579  1.6701  0.5417  2.1995
   94MPD2     C 1461   1.357   3.450  13.905  0.3925 -0.2982  0.1048
   94MPD2    C1 1462   1.285   3.534  13.990 -0.1867  1.1517 -0.0936
   94MPD2    C2 1463   1.148   3.514  13.991 -0.4085 -0.2581  1.1740
   94MPD2    C3 1464   1.083   3.432  13.899  0.0398  0.6770 -0.6448
   94MPD2    C4 1465   1.156   3.366  13.812  0.1034  0.2295 -0.4036
   94MPD2    C5 1466   1.294   3.365  13.822  0.0748 -0.0410  0.2930
   94MPD2     H 1467   1.082   3.571  14.055 -1.1717 -1.8895  1.8088
   94MPD2    H1 1468   1.101   3.303  13.743 -1.6629 -0.2461  1.4581
   94MPD2    H2 1469   1.465   3.452  13.904  0.3955 -0.3414  0.3133
   94MPD2    H3 1470   1.356   3.296  13.766  0.8091  2.8503 -2.4358
   94MPD2     N 1471   0.947   3.426  13.878 -0.6269 -0.4585 -0.1693
   94MPD2    H5 1472   0.915   3.372  13.798  2.3540 -0.0438 -1.6188
   94MPD2    N1 1473   1.349   3.632  14.066  0.3871 -0.3192 -0.7484
   94MPD2    H7 1474   1.450   3.628  14.077  0.2802  3.2672  1.6361
   95TMC2    C1 1475   1.196   0.657  15.344  0.2500 -0.3202 -0.6325
   95TMC2    C2 1476   1.091   0.568  15.329 -0.3857 -0.4391 -0.2290
   95TMC2    C3 1477   0.992   0.601  15.241  0.5767 -0.5002  0.3211
   95TMC2    C4 1478   1.188   0.783  15.296  0.0525 -0.2072  0.0911
   95TMC2    C5 1479   1.093   0.812  15.206  0.5995  0.2818  0.3633
   95TMC2    C6 1480   0.990   0.719  15.168 -0.6446  0.2000 -0.0264
   95TMC2     C 1481   1.320   0.614  15.408 -0.5044 -0.5134 -0.6853
   95TMC2     O 1482   1.397   0.708  15.407  0.4581 -0.0860 -0.6891
   95TMC2     H 1483   1.093   0.468  15.370  2.1737  0.1526  1.0735
   95TMC2    H1 1484   1.260   0.859  15.323 -1.7251  1.1668  1.0019
   95TMC2    H2 1485   0.910   0.738  15.097  1.8980  2.1406 -2.3612
   95TMC2    C7 1486   1.074   0.954  15.156 -0.1256 -0.4806  0.4497
   95TMC2    C8 1487   0.878   0.520  15.255  0.0117  0.6405  0.6188
   95TMC2    O1 1488   0.960   0.991  15.170  0.0720 -0.0935  0.1105
   95TMC2    O2 1489   0.880   0.399  15.270 -1.1109  0.2042  0.0527
   95TMC2    O5 1490   0.784   0.607  15.297 -0.2111 -0.3610  0.1369
   95TMC2    H5 1491   0.814   0.698  15.278 -0.4485 -0.0528  1.1996
   96MPD2     C 1492   1.660   0.306  15.638  0.2090 -0.5917 -0.1411
   96MPD2    C1 1493   1.674   0.426  15.569  0.5665  0.2928 -0.8372
   96MPD2    C2 1494   1.564   0.490  15.525  0.0025  0.1718 -0.3691
   96MPD2    C3 1495   1.432   0.437  15.530  0.7338  0.2238 -0.3742
   96MPD2    C4 1496   1.422   0.314  15.597  0.1941  0.3857  0.0804
   96MPD2    C5 1497   1.533   0.256  15.653  0.1730  0.2131  0.6194
   96MPD2     H 1498   1.586   0.582  15.472  1.3992  0.0036 -0.0714
   96MPD2    H1 1499   1.331   0.258  15.615 -0.4906  0.8681 -1.8430
   96MPD2    H2 1500   1.747   0.260  15.684  0.8841  0.1096 -0.7202
   96MPD2    H3 1501   1.510   0.159  15.696  3.0623 -0.2800  1.0902
   96MPD2     N 1502   1.323   0.493  15.471  0.3088 -0.2870  0.5924
   96MPD2    H5 1503   1.237   0.438  15.475 -0.3416  0.7326  0.7644
   96MPD2    N1 1504   1.805   0.479  15.553  0.5219  0.3832  0.4496
   96MPD2    H7 1505   1.887   0.419  15.550  1.5150  1.7340  0.8209
   97TMC2    C1 1506   3.924   3.246   0.202  0.0326  0.0861  1.1905
   97TMC2    C2 1507   3.840   3.290   0.108 -0.0201  0.1572  0.0414
   97TMC2    C3 1508   3.883   3.400   0.041 -0.1826  0.2625  0.8201
   97TMC2    C4 1509   4.041   3.303   0.235 -0.0550 -0.8480 -0.0467
   97TMC2    C5 1510   4.086   3.403   0.155 -0.5579 -0.1918 -0.0899
   97TMC2    C6 1511   4.007   3.463   0.063  0.0839 -0.5319 -0.1718
   97TMC2     C 1512   3.889   3.130   0.283  0.1449  0.8595 -0.2548
   97TMC2     O 1513   3.771   3.096   0.304  0.0030  0.5831  0.1376
   97TMC2     H 1514   3.749   3.240   0.077 -1.3741  2.5336  0.2058
   97TMC2    H1 1515   4.088   3.274   0.328  1.9659  0.2417 -0.7444
   97TMC2    H2 1516   4.043   3.534  17.730  0.5524 -1.1131 -0.5072
   97TMC2    C7 1517   4.193   3.489   0.202  0.0778 -0.5464 -0.7738
   97TMC2    C8 1518   3.787   3.454  17.694  0.1462  0.2812 -0.6261
   97TMC2    O1 1519   4.206   3.596   0.145 -0.4652  0.3143  0.0607
   97TMC2    O2 1520   3.700   3.388  17.634 -0.0025 -0.1955 -0.3793
   97TMC2    O5 1521   3.794   3.588  17.694  0.7342 -0.2767  0.0942
   97TMC2    H5 1522   3.850   3.627   0.022  0.9637  1.2051 -0.9251
   98MPD2     C 1523   4.018   2.694   0.531 -0.0491 -0.1733 -0.7495
   98MPD2    C1 1524   3.897   2.740   0.489 -0.0653 -0.2482 -0.1710
   98MPD2    C2 1525   3.889   2.854   0.415 -0.5416 -0.2694 -0.3533
   98MPD2    C3 1526   3.997   2.933   0.385  0.1533 -0.1350 -0.6859
   98MPD2    C4 1527   4.117   2.889   0.433 -0.0534  0.0941  0.1132
   98MPD2    C5 1528   4.125   2.772   0.507  0.3933 -0.4208  0.3010
   98MPD2     H 1529   3.802   2.869   0.351  0.8234 -1.9179 -2.5741
   98MPD2    H1 1530   4.211   2.932   0.399  0.7499 -2.6278 -1.1484
   98MPD2    H2 1531   4.031   2.597   0.580 -1.0274 -1.3007 -2.7213
   98MPD2    H3 1532   4.216   2.725   0.544 -0.1539 -0.1429  2.0346
   98MPD2     N 1533   3.995   3.056   0.312  0.4686 -0.4074  0.0670
   98MPD2    H5 1534   4.086   3.100   0.306  0.4691 -0.0358  2.8588
   98MPD2    N1 1535   3.797   2.643   0.503  0.4256  0.4420  0.4301
   98MPD2    H7 1536   3.809   2.569   0.570 -0.7987 -0.7760 -0.6862
   99TMC2    C1 1537   2.997   0.836   1.346  0.1459  0.1872 -0.7121
   99TMC2    C2 1538   3.059   0.959   1.370 -0.0825 -0.1189 -0.5183
   99TMC2    C3 1539   3.000   1.037   1.464 -0.7093 -0.3306  0.9383
   99TMC2    C4 1540   2.893   0.794   1.423 -0.3419 -0.6095  0.3709
   99TMC2    C5 1541   2.837   0.881   1.515 -0.3960  0.0408  0.7188
   99TMC2    C6 1542   2.890   1.004   1.539 -0.2931 -0.2992  0.4382
   99TMC2     C 1543   3.068   0.754   1.258  0.0608 -0.4049  0.1305
   99TMC2     O 1544   3.189   0.785   1.244 -1.0230  0.2274  0.9194
   99TMC2     H 1545   3.132   0.999   1.301 -1.6927  1.5396 -1.2478
   99TMC2    H1 1546   2.852   0.695   1.411  2.2979 -1.6816  0.2178
   99TMC2    H2 1547   2.852   1.062   1.622 -1.0456 -1.3218  0.8048
   99TMC2    C7 1548   2.728   0.837   1.602  0.3799 -0.8022 -0.0326
   99TMC2    C8 1549   3.082   1.155   1.495  0.6771 -0.9506 -0.4424
   99TMC2    O1 1550   2.709   0.902   1.706  0.4962 -0.1614 -0.0679
   99TMC2    O2 1551   3.133   1.219   1.407 -0.4271 -0.4752 -0.0571
   99TMC2    O5 1552   3.165   1.105   1.595  0.1825  0.0611 -0.0542
   99TMC2    H5 1553   3.124   1.032   1.646 -3.4874  1.9692 -0.2589
  100MPD2     C 1554   3.152   0.563   1.050 -0.0855 -0.0533 -0.4408
  100MPD2    C1 1555   3.043   0.549   1.125 -0.1044 -0.2402 -0.1760
  100MPD2    C2 1556   2.978   0.432   1.118  0.6326  0.5275  0.4511
  100MPD2    C3 1557   3.017   0.331   1.034  0.3989 -0.7527 -0.2587
  100MPD2    C4 1558   3.120   0.349   0.939 -0.0634  0.7525 -0.1113
  100MPD2    C5 1559   3.190   0.469   0.952  0.9460 -0.3709  0.1295
  100MPD2     H 1560   2.892   0.417   1.182  1.3759 -1.5628  0.9936
  100MPD2    H1 1561   3.156   0.272   0.872  2.0415  2.2570 -0.7009
  100MPD2    H2 1562   3.212   0.654   1.051  0.8799 -0.7043  1.6766
  100MPD2    H3 1563   3.279   0.490   0.895  0.2714 -1.2332 -1.2512
  100MPD2     N 1564   2.945   0.210   1.049 -0.0412  0.0497 -0.2470
  100MPD2    H5 1565   2.877   0.216   1.123  1.2073  2.4016  0.7086
  100MPD2    N1 1566   3.000   0.645   1.218  1.2034 -0.0911  0.0277
  100MPD2    H7 1567   2.906   0.626   1.252  1.7433 -0.9321  1.0404
  101TMC2    C1 1568   3.528   1.230  13.420  1.0580 -0.3569  0.1724
  101TMC2    C2 1569   3.556   1.260  13.549  0.2572 -0.2619  0.0502
  101TMC2    C3 1570   3.621   1.377  13.564  0.9715  0.0859  0.6504
  101TMC2    C4 1571   3.565   1.314  13.318  0.7221  0.0432 -0.2525
  101TMC2    C5 1572   3.634   1.425  13.339  0.0144  0.1505 -0.3806
  101TMC2    C6 1573   3.657   1.468  13.461 -0.4944 -0.7746 -0.8865
  101TMC2     C 1574   3.522   1.093  13.387 -0.2179  0.0047  0.3038
  101TMC2     O 1575   3.451   1.065  13.288 -0.9874  0.3065 -0.0725
  101TMC2     H 1576   3.529   1.203  13.638  1.6029 -0.0579  0.5892
  101TMC2    H1 1577   3.563   1.273  13.217 -2.0641  0.7001 -0.4513
  101TMC2    H2 1578   3.667   1.572  13.491  0.4363 -1.5081  1.3322
  101TMC2    C7 1579   3.703   1.494  13.228 -0.1271  0.2539  0.1102
  101TMC2    C8 1580   3.631   1.417  13.695  0.4653  0.5316  0.4039
  101TMC2    O1 1581   3.681   1.441  13.118  0.8380  0.2023 -0.1383
  101TMC2    O2 1582   3.554   1.381  13.784  0.8302 -0.1596  0.5197
  101TMC2    O5 1583   3.769   1.431  13.705  0.0586  0.2865 -0.3445
  101TMC2    H5 1584   3.814   1.449  13.620 -0.7642 -2.8527 -1.4581
  102MPD2     C 1585   3.718   0.792  13.494  0.3668 -0.1705  0.5285
  102MPD2    C1 1586   3.618   0.866  13.442 -0.2587 -0.0246 -0.4188
  102MPD2    C2 1587   3.504   0.797  13.396 -0.0903  0.2780 -0.1638
  102MPD2    C3 1588   3.486   0.667  13.425 -0.2553 -0.0241 -0.0637
  102MPD2    C4 1589   3.594   0.598  13.486  0.2276  0.0198  0.4061
  102MPD2    C5 1590   3.714   0.658  13.501 -0.2559  0.2611 -0.3074
  102MPD2     H 1591   3.413   0.852  13.372 -1.1441 -1.6737 -0.6287
  102MPD2    H1 1592   3.590   0.491  13.500  1.7839 -0.2795 -1.4092
  102MPD2    H2 1593   3.799   0.851  13.535 -0.1045  0.1555  0.9986
  102MPD2    H3 1594   3.801   0.606  13.540  0.8203  1.1599 -1.5026
  102MPD2     N 1595   3.360   0.601  13.427  0.2640  0.2060 -0.2180
  102MPD2    H5 1596   3.347   0.518  13.483 -1.6907 -0.3844 -1.5651
  102MPD2    N1 1597   3.612   1.012  13.449 -0.4471  0.2785  0.1129
  102MPD2    H7 1598   3.694   1.060  13.486  0.2418 -0.5878 -0.3061
  103TMC2    C1 1599   1.053   0.815  12.534 -0.0956 -0.2275  0.4924
  103TMC2    C2 1600   1.151   0.721  12.505 -0.5939  0.7409  0.5190
  103TMC2    C3 1601   1.270   0.743  12.573 -0.4007  0.7179  1.1513
  103TMC2    C4 1602   1.066   0.913  12.635 -0.2401 -0.0788 -0.6280
  103TMC2    C5 1603   1.191   0.935  12.685  0.0104  0.6818 -0.0031
  103TMC2    C6 1604   1.292   0.847  12.656 -1.0772 -0.2193 -0.5323
  103TMC2     C 1605   0.924   0.811  12.465  0.8071  0.0175  0.1289
  103TMC2     O 1606   0.853   0.912  12.477 -0.3816 -0.3737 -0.2620
  103TMC2     H 1607   1.138   0.631  12.446  3.0135  0.7436 -0.3238
  103TMC2    H1 1608   0.980   0.971  12.667  0.9069  0.6287  1.1688
  103TMC2    H2 1609   1.396   0.866  12.681 -1.1354  0.4774 -0.8483
  103TMC2    C7 1610   1.229   1.049  12.766 -0.1675  1.5150  0.6253
  103TMC2    C8 1611   1.391   0.702  12.506 -1.0252 -0.2271 -0.3959
  103TMC2    O1 1612   1.338   1.042  12.824 -0.4752 -0.2306  0.1417
  103TMC2    O2 1613   1.404   0.588  12.471  0.8958  0.1082  0.5833
  103TMC2    O5 1614   1.455   0.810  12.457  0.0540  0.7229 -0.8902
  103TMC2    H5 1615   1.418   0.899  12.477  4.1649  2.3758 -0.6951
  104MPD2     C 1616   0.766   0.496  12.357 -0.0351 -0.5079  0.5159
  104MPD2    C1 1617   0.769   0.631  12.387  0.4808  0.3820 -0.5556
  104MPD2    C2 1618   0.648   0.704  12.386  0.1963  0.0829 -0.1173
  104MPD2    C3 1619   0.534   0.639  12.341 -0.3043 -0.0924 -0.6847
  104MPD2    C4 1620   0.531   0.494  12.324 -0.0634  0.0129  0.3576
  104MPD2    C5 1621   0.649   0.431  12.338  0.3198  0.5924  0.3822
  104MPD2     H 1622   0.650   0.812  12.394 -0.8244  0.0069  1.1203
  104MPD2    H1 1623   0.447   0.427  12.316  0.1484 -0.1008 -0.9134
  104MPD2    H2 1624   0.856   0.435  12.362 -0.0841 -0.4721  1.8656
  104MPD2    H3 1625   0.656   0.323  12.338  1.8251  0.6852  0.0525
  104MPD2     N 1626   0.418   0.710  12.313  0.5636 -0.0774  0.2708
  104MPD2    H5 1627   0.434   0.809  12.322 -0.7026  0.2470 -0.9791
  104MPD2    N1 1628   0.896   0.688  12.417  0.4733 -0.3448  0.4135
  104MPD2    H7 1629   0.976   0.625  12.411  1.0393  0.4723 -0.5523
  105TMC2    C1 1630   2.439   0.406   0.039  0.2235  0.2848 -0.1706
  105TMC2    C2 1631   2.438   0.330   0.150 -0.2792 -0.2873 -0.0386
  105TMC2    C3 1632   2.405   0.389   0.267  0.0484  0.7547 -0.1075
  105TMC2    C4 1633   2.389   0.534   0.047 -0.0960  0.3836 -0.3615
  105TMC2    C5 1634   2.350   0.591   0.170 -0.2736  0.2560  0.5210
  105TMC2    C6 1635   2.362   0.516   0.280  0.7778  0.7137  0.0287
  105TMC2     C 1636   2.491   0.343  17.658 -0.7460  0.5614 -0.2018
  105TMC2     O 1637   2.513   0.223  17.655 -0.2344 -0.2167 -0.4423
  105TMC2     H 1638   2.494   0.237   0.148 -0.6630 -0.5252  0.2626
  105TMC2    H1 1639   2.360   0.593  17.702 -2.8875 -3.0680 -1.7772
  105TMC2    H2 1640   2.340   0.561   0.377 -1.2381 -0.7082  0.2305
  105TMC2    C7 1641   2.312   0.727   0.165 -0.6391 -0.0760  0.0864
  105TMC2    C8 1642   2.436   0.326   0.395  0.4797 -0.1844  0.3355
  105TMC2    O1 1643   2.316   0.780   0.052  0.4645  0.3039  0.4089
  105TMC2    O2 1644   2.478   0.393   0.488 -0.5146  0.1053  0.4356
  105TMC2    O5 1645   2.385   0.205   0.406  0.7339  1.0328  0.0561
  105TMC2    H5 1646   2.327   0.177   0.331 -0.1281  2.5634  0.1515
  106MPD2     C 1647   2.699   0.377  17.184  0.0497 -0.2229 -0.2220
  106MPD2    C1 1648   2.710   0.501  17.258 -0.2589 -0.1744  0.2680
  106MPD2    C2 1649   2.655   0.511  17.385 -0.2673 -0.2432  0.4818
  106MPD2    C3 1650   2.597   0.400  17.443 -0.4072 -0.2236 -0.6202
  106MPD2    C4 1651   2.586   0.284  17.377  0.8219 -0.3795  0.0548
  106MPD2    C5 1652   2.646   0.268  17.249 -1.0413  0.4157 -0.7654
  106MPD2     H 1653   2.667   0.604  17.440  1.3238  0.5045 -1.1241
  106MPD2    H1 1654   2.555   0.194  17.429  1.4001  0.8619  2.5626
  106MPD2    H2 1655   2.748   0.355  17.089  1.5558 -0.2235  0.5630
  106MPD2    H3 1656   2.636   0.170  17.203  0.1902 -0.6136  1.1441
  106MPD2     N 1657   2.538   0.435  17.564 -1.0948  0.4132  0.0949
  106MPD2    H5 1658   2.528   0.532  17.591  0.4149  1.2076 -2.2111
  106MPD2    N1 1659   2.780   0.613  17.215 -0.2148 -0.0780  0.1390
  106MPD2    H7 1660   2.786   0.695  17.274  0.9195  0.3368 -0.5537
  107TMC2    C1 1661   2.880   0.250  11.765  0.1126  0.6853 -0.5305
  107TMC2    C2 1662   2.884   0.384  11.765  0.0199  0.3010  0.2752
  107TMC2    C3 1663   2.977   0.449  11.845 -0.5197  0.2236  0.0594
  107TMC2    C4 1664   2.977   0.176  11.821 -0.1730 -0.1729 -0.2391
  107TMC2    C5 1665   3.070   0.247  11.891  0.2582 -0.3166 -0.4368
  107TMC2    C6 1666   3.074   0.386  11.906 -1.1573 -0.1054  0.3328
  107TMC2     C 1667   2.750   0.197  11.759 -0.3766 -0.3670  0.3792
  107TMC2     O 1668   2.732   0.090  11.815 -0.0257  0.0760  0.2981
  107TMC2     H 1669   2.808   0.452  11.729  1.7052  0.5355 -2.8770
  107TMC2    H1 1670   2.973   0.068  11.822  3.9493 -0.3050  0.6040
  107TMC2    H2 1671   3.157   0.441  11.948 -0.2987 -2.0194  1.1451
  107TMC2    C7 1672   3.184   0.176  11.948  0.2730  0.0813 -0.5849
  107TMC2    C8 1673   2.983   0.597  11.836 -0.4126 -0.4638 -0.2188
  107TMC2    O1 1674   3.236   0.220  12.053  0.1078  0.2402  0.2424
  107TMC2    O2 1675   3.017   0.666  11.933  0.5393  0.8286  0.0787
  107TMC2    O5 1676   2.989   0.637  11.706 -0.1051 -0.3750  0.0580
  107TMC2    H5 1677   2.976   0.562  11.644  2.6435  2.0200 -3.3953
  108MPD2     C 1678   2.439   0.325  11.589  0.2094 -0.1030  0.0798
  108MPD2    C1 1679   2.516   0.259  11.681 -0.0251 -0.3078  0.2989
  108MPD2    C2 1680   2.454   0.184  11.782  0.0223  0.4906  0.4602
  108MPD2    C3 1681   2.316   0.171  11.777  0.5890  0.1046 -0.6706
  108MPD2    C4 1682   2.239   0.235  11.675 -0.1390 -0.4269 -0.3725
  108MPD2    C5 1683   2.299   0.324  11.589 -0.6431  0.4977 -0.4636
  108MPD2     H 1684   2.515   0.134  11.857 -1.2280  0.3910  1.4083
  108MPD2    H1 1685   2.133   0.215  11.667 -0.5071  1.0583  0.7434
  108MPD2    H2 1686   2.482   0.396  11.519  1.1036 -0.9192 -0.1948
  108MPD2    H3 1687   2.249   0.377  11.509  0.5501  1.0219 -0.8660
  108MPD2     N 1688   2.240   0.114  11.883  0.3235  0.7310 -0.0733
  108MPD2    H5 1689   2.140   0.099  11.873  0.7826 -1.0217 -1.9662
  108MPD2    N1 1690   2.660   0.266  11.680  0.5048 -0.2076  0.0896
  108MPD2    H7 1691   2.699   0.324  11.605 -1.7303  0.7940 -0.2929
  109TMC2    C1 1692   2.807   3.310   0.810  0.2896 -0.0169 -0.0039
  109TMC2    C2 1693   2.781   3.420   0.729  0.6869  0.1814 -0.1444
  109TMC2    C3 1694   2.788   3.401   0.592  0.3920  0.0202  0.5584
  109TMC2    C4 1695   2.839   3.189   0.753  0.1900  0.6347 -0.2214
  109TMC2    C5 1696   2.830   3.176   0.622 -0.4416  0.1393 -0.5581
  109TMC2    C6 1697   2.815   3.283   0.542 -0.1703 -0.4000  0.6086
  109TMC2     C 1698   2.834   3.337   0.950 -0.1688  0.1337  0.3496
  109TMC2     O 1699   2.812   3.442   0.996  0.2248 -0.6606  0.3106
  109TMC2     H 1700   2.745   3.511   0.776 -1.8986 -0.5699 -0.6283
  109TMC2    H1 1701   2.858   3.096   0.805  3.5096  0.6027 -1.4855
  109TMC2    H2 1702   2.818   3.268   0.435  0.4335  0.4563  0.5057
  109TMC2    C7 1703   2.904   3.065   0.581  0.5036 -0.6089  0.2619
  109TMC2    C8 1704   2.739   3.502   0.498 -0.4292 -0.1902 -0.5684
  109TMC2    O1 1705   3.012   3.046   0.642 -0.5875  0.2562  0.0795
  109TMC2    O2 1706   2.669   3.475   0.398 -0.2193 -0.3998 -0.2733
  109TMC2    O5 1707   2.735   3.620   0.561 -0.8442 -0.1378  0.3948
  109TMC2    H5 1708   2.805   3.636   0.627  0.3002  1.0834 -1.1359
  110MPD2     C 1709   3.009   3.127   1.391  0.2625  0.3371 -1.1320
  110MPD2    C1 1710   3.028   3.041   1.286 -0.1166  0.0307 -0.0205
  110MPD2    C2 1711   2.993   3.086   1.159  0.1224  0.1027  0.1132
  110MPD2    C3 1712   2.918   3.203   1.141  0.1963 -0.4034 -0.2420
  110MPD2    C4 1713   2.915   3.291   1.244 -0.4392 -0.2497  0.5541
  110MPD2    C5 1714   2.965   3.256   1.366 -0.6161 -0.3435  1.2021
  110MPD2     H 1715   3.002   3.008   1.084  1.0025  1.8027 -1.5354
  110MPD2    H1 1716   2.857   3.382   1.233 -0.4066 -0.2703  0.2046
  110MPD2    H2 1717   3.045   3.098   1.489 -1.0712 -0.2016 -0.8034
  110MPD2    H3 1718   2.953   3.329   1.445  0.7356  1.6609 -0.4171
  110MPD2     N 1719   2.882   3.225   1.006 -0.2130  0.9429 -0.3369
  110MPD2    H5 1720   2.907   3.159   0.933 -3.7430  0.0116 -0.6904
  110MPD2    N1 1721   3.093   2.924   1.322  0.0278 -0.6053  0.3190
  110MPD2    H7 1722   3.143   2.924   1.410  0.6705  0.0518 -0.0499
  111TMC2    C1 1723   3.496   1.550  11.455  1.3585  1.0818  0.4652
  111TMC2    C2 1724   3.606   1.570  11.376  0.0089  0.8335 -0.5250
  111TMC2    C3 1725   3.728   1.580  11.433 -0.0961 -0.0814 -0.3388
  111TMC2    C4 1726   3.507   1.529  11.587  0.2001 -0.1441  0.0891
  111TMC2    C5 1727   3.631   1.528  11.641 -0.0649 -0.2522 -0.3045
  111TMC2    C6 1728   3.749   1.554  11.565 -0.0843 -0.4349 -0.1380
  111TMC2     C 1729   3.361   1.572  11.397 -0.4875  0.4292  0.0036
  111TMC2     O 1730   3.359   1.629  11.289  0.4952  0.3835  0.0498
  111TMC2     H 1731   3.587   1.583  11.270  0.8699 -0.1162 -0.7932
  111TMC2    H1 1732   3.425   1.539  11.657  0.8919 -1.9150  1.1518
  111TMC2    H2 1733   3.849   1.541  11.604  0.7888 -2.0662 -2.9138
  111TMC2    C7 1734   3.646   1.533  11.784  0.3778 -0.2752 -0.1855
  111TMC2    C8 1735   3.831   1.559  11.336  0.2009 -0.2546 -0.2530
  111TMC2    O1 1736   3.745   1.591  11.819 -0.9573  0.5572  0.3592
  111TMC2    O2 1737   3.811   1.518  11.224 -0.7060 -0.6031 -0.1267
  111TMC2    O5 1738   3.941   1.627  11.374  0.1125 -0.8294  0.1101
  111TMC2    H5 1739   3.936   1.680  11.457 -1.0941  0.2760 -0.6621
  112MPD2     C 1740   2.853   1.647  11.454 -0.0191  0.4945 -0.0932
  112MPD2    C1 1741   2.939   1.703  11.362 -0.0524  0.5721  0.1811
  112MPD2    C2 1742   3.071   1.665  11.370  0.5556 -0.1583  0.4183
  112MPD2    C3 1743   3.117   1.577  11.470 -0.7437 -0.3527 -0.4045
  112MPD2    C4 1744   3.031   1.532  11.565  0.3379  0.1750  0.5677
  112MPD2    C5 1745   2.899   1.567  11.559 -0.3615  0.0187 -0.0230
  112MPD2     H 1746   3.149   1.705  11.306 -0.2829  2.2982  0.9005
  112MPD2    H1 1747   3.068   1.467  11.643  3.2249  1.5146  0.3166
  112MPD2    H2 1748   2.747   1.674  11.457 -0.1256  0.2610 -1.7844
  112MPD2    H3 1749   2.835   1.536  11.641 -1.2976  0.4536 -0.5890
  112MPD2     N 1750   3.252   1.535  11.482  0.4747 -0.0584  0.3237
  112MPD2    H5 1751   3.264   1.474  11.562 -1.4317 -0.0163  0.6497
  112MPD2    N1 1752   2.893   1.792  11.264  0.5473  0.1818 -0.5211
  112MPD2    H7 1753   2.967   1.846  11.221 -0.8443  1.7441 -0.9610
  113TMC2    C1 1754   1.536   0.759   0.760  0.1428 -0.7548 -0.3110
  113TMC2    C2 1755   1.492   0.888   0.736 -0.0420  0.7447  0.2188
  113TMC2    C3 1756   1.412   0.901   0.626  0.0830 -0.2406 -0.0457
  113TMC2    C4 1757   1.497   0.653   0.679  0.3877  0.3370  0.2275
  113TMC2    C5 1758   1.417   0.677   0.578  0.2939 -0.0382  0.4620
  113TMC2    C6 1759   1.371   0.797   0.548 -0.2088 -0.4445  0.3598
  113TMC2     C 1760   1.636   0.751   0.864  0.3727  0.8157  0.4173
  113TMC2     O 1761   1.628   0.842   0.941  0.0959 -0.1977  0.1377
  113TMC2     H 1762   1.513   0.967   0.807  1.5561  0.1779  0.3658
  113TMC2    H1 1763   1.534   0.555   0.708  1.2559  0.2947 -0.9692
  113TMC2    H2 1764   1.299   0.806   0.468 -0.5820 -0.1708  0.7299
  113TMC2    C7 1765   1.362   0.562   0.504 -0.2620  0.2983  1.2756
  113TMC2    C8 1766   1.338   1.026   0.615 -0.0298 -0.2532  0.5076
  113TMC2    O1 1767   1.325   0.588   0.391  0.2017 -0.3707 -0.4750
  113TMC2    O2 1768   1.311   1.103   0.708 -0.5137 -0.0213  0.2724
  113TMC2    O5 1769   1.303   1.052   0.485  0.0374  0.2857 -0.2454
  113TMC2    H5 1770   1.361   1.008   0.419  1.5581  3.1187 -0.8180
  114MPD2     C 1771   2.045   0.542   1.108  0.2044  0.4675  0.0995
  114MPD2    C1 1772   1.949   0.641   1.145 -0.3039  0.1908 -0.3067
  114MPD2    C2 1773   1.848   0.670   1.063 -0.3712  0.6347 -0.7185
  114MPD2    C3 1774   1.826   0.601   0.946 -0.9013  0.8434 -0.2035
  114MPD2    C4 1775   1.909   0.494   0.919  0.0880  0.0933  0.2066
  114MPD2    C5 1776   2.016   0.475   0.993 -0.1306  0.2145  0.4300
  114MPD2     H 1777   1.785   0.755   1.089  0.9604  1.2966  0.3484
  114MPD2    H1 1778   1.900   0.437   0.828 -0.3865  2.8251 -1.4464
  114MPD2    H2 1779   2.133   0.520   1.167 -0.0139  2.5082  1.1799
  114MPD2    H3 1780   2.095   0.409   0.958 -0.1684  1.3669 -1.7856
  114MPD2     N 1781   1.720   0.638   0.855  0.4771  0.0105  0.0797
  114MPD2    H5 1782   1.714   0.574   0.776  0.7664  0.8318 -0.6030
  114MPD2    N1 1783   1.960   0.718   1.264  0.5485  0.3857  0.4532
  114MPD2    H7 1784   1.898   0.795   1.286  0.0117  0.2798 -0.6846
  115TMC2    C1 1785   2.527   2.877  17.458 -0.3255  1.0461 -0.2254
  115TMC2    C2 1786   2.642   2.848  17.526  1.3742 -0.4543 -0.1450
  115TMC2    C3 1787   2.732   2.948  17.550  0.2896  0.1118  0.5664
  115TMC2    C4 1788   2.491   3.007  17.428  1.3230  0.3459 -0.1957
  115TMC2    C5 1789   2.585   3.107  17.456 -0.3715 -0.4104  0.2856
  115TMC2    C6 1790   2.703   3.082  17.511  0.1468 -0.7848  0.1143
  115TMC2     C 1791   2.436   2.769  17.429  0.6355  0.2665  0.1506
  115TMC2     O 1792   2.423   2.686  17.518 -0.8367  0.3891 -0.0537
  115TMC2     H 1793   2.656   2.748  17.565 -1.0054 -0.1564  1.4603
  115TMC2    H1 1794   2.394   3.038  17.391  1.3472  0.8561  0.1689
  115TMC2    H2 1795   2.760   3.163  17.557  1.2715 -1.2389 -0.4678
  115TMC2    C7 1796   2.531   3.247  17.460 -0.2054 -0.5121  0.0786
  115TMC2    C8 1797   2.837   2.919  17.649 -0.4373  0.6631  0.0804
  115TMC2    O1 1798   2.417   3.278  17.445 -0.3357 -0.5980  0.5522
  115TMC2    O2 1799   2.838   2.831  17.733  0.2559  0.9042 -0.5143
  115TMC2    O5 1800   2.935   3.016  17.630 -0.2463 -0.1519 -0.2917
  115TMC2    H5 1801   2.910   3.086  17.565  2.4143 -0.8340 -2.0234
  116MPD2     C 1802   2.098   2.556  17.114 -0.0661 -0.8030  0.9473
  116MPD2    C1 1803   2.172   2.495  17.217 -0.4698 -0.5071  0.9047
  116MPD2    C2 1804   2.265   2.576  17.279  0.1179  0.2864 -0.7429
  116MPD2    C3 1805   2.279   2.710  17.250 -0.5364 -0.0787  0.3571
  116MPD2    C4 1806   2.219   2.759  17.141 -0.1095  0.0432  0.5886
  116MPD2    C5 1807   2.129   2.679  17.069  0.2788  0.5431 -0.5034
  116MPD2     H 1808   2.318   2.536  17.365  1.1364  1.2221 -0.9337
  116MPD2    H1 1809   2.240   2.861  17.110  1.5993 -0.2132  0.9135
  116MPD2    H2 1810   2.034   2.503  17.044  1.8637  0.2744 -1.6150
  116MPD2    H3 1811   2.081   2.725  16.983 -0.5150 -0.7984 -0.7652
  116MPD2     N 1812   2.359   2.799  17.322  0.5795  0.3050 -0.1012
  116MPD2    H5 1813   2.392   2.883  17.275  1.4981  0.4864  0.8709
  116MPD2    N1 1814   2.121   2.369  17.266  0.6419 -0.2720 -0.8094
  116MPD2    H7 1815   2.043   2.326  17.217  1.1125 -0.8899 -1.0161
  117TMC2    C1 1816   1.093   3.963  13.833 -0.1509  0.3350 -0.4542
  117TMC2    C2 1817   1.226   3.956  13.852 -0.3185 -0.4874  0.2436
  117TMC2    C3 1818   1.289   4.064  13.904  0.3068  0.2464 -0.3346
  117TMC2    C4 1819   1.028   4.079  13.846 -0.7997  0.0398 -0.0095
  117TMC2    C5 1820   1.091   4.183  13.916  0.1746  0.6154 -0.7245
  117TMC2    C6 1821   1.224   4.184  13.940  1.0961  0.2157 -0.3474
  117TMC2     C 1822   1.020   3.852  13.773 -1.1876 -0.2065 -0.3706
  117TMC2     O 1823   1.086   3.757  13.731 -0.3426 -0.1038 -0.4196
  117TMC2     H 1824   1.288   3.869  13.834  0.4516  0.7743 -3.1205
  117TMC2    H1 1825   0.940   4.101  13.786  0.3460  4.0134 -0.1988
  117TMC2    H2 1826   1.281   4.267  13.979 -1.1520  1.7291 -0.3450
  117TMC2    C7 1827   1.025   4.307  13.933  0.3843  0.2246  0.3392
  117TMC2    C8 1828   1.429   4.045  13.940 -0.1424 -0.0763 -0.4523
  117TMC2    O1 1829   1.099   4.406  13.924 -0.6996  0.2458  0.4878
  117TMC2    O2 1830   1.507   3.961  13.889 -0.5449 -0.1367 -0.1534
  117TMC2    O5 1831   1.447   4.111  14.057  0.2602  0.1836  0.3894
  117TMC2    H5 1832   1.370   4.146  14.106 -0.7312 -0.1453 -0.9389
  118MPD2     C 1833   0.671   4.379  13.918  0.1095  0.2425  0.4244
  118MPD2    C1 1834   0.805   4.411  13.929  0.5641  0.5370  0.4504
  118MPD2    C2 1835   0.851   4.541  13.944  0.1899  0.4086 -0.0252
  118MPD2    C3 1836   0.763   4.648  13.934  0.0426  0.0070  0.4053
  118MPD2    C4 1837   0.634   4.615  13.910  0.0422 -0.5606 -0.1929
  118MPD2    C5 1838   0.592   4.487  13.905 -0.7421 -0.0708  0.7517
  118MPD2     H 1839   0.957   4.560  13.956  0.1955 -0.4607  1.4175
  118MPD2    H1 1840   0.558   4.693  13.911  0.2689 -0.3361 -0.5412
  118MPD2    H2 1841   0.629   4.280  13.901  3.2255 -0.8682 -0.6994
  118MPD2    H3 1842   0.487   4.472  13.884 -0.3203 -1.4292 -0.2936
  118MPD2     N 1843   0.799   0.046  13.924 -0.5944  0.1700 -0.3633
  118MPD2    H5 1844   0.721   0.106  13.899 -1.8512  0.0962  3.2817
  118MPD2    N1 1845   0.889   4.297  13.939  0.1210  0.0916  0.2265
  118MPD2    H7 1846   0.851   4.203  13.946  0.3649  0.0317  0.7207
  119TMC2    C1 1847   3.862   0.109  13.033  0.4508  0.0627 -0.4612
  119TMC2    C2 1848   3.898   4.726  12.982 -0.0221  0.7191  0.7145
  119TMC2    C3 1849   3.801   4.647  12.935 -0.2533  0.2531  0.0263
  119TMC2    C4 1850   3.733   0.145  13.050 -0.1116 -0.1475 -0.4105
  119TMC2    C5 1851   3.629   0.062  13.008  0.1079 -0.2153 -0.1564
  119TMC2    C6 1852   3.669   4.684  12.938  1.0333 -0.0100  0.3859
  119TMC2     C 1853   3.958   0.187  13.124 -0.2250 -0.3487  0.1517
  119TMC2     O 1854   3.907   0.255  13.210  0.6656 -0.2585 -0.3067
  119TMC2     H 1855   4.000   4.691  12.988 -0.2767  0.0886  1.3217
  119TMC2    H1 1856   3.706   0.245  13.085 -1.9839 -0.9759  0.5208
  119TMC2    H2 1857   3.593   4.622  12.893  0.8281 -0.0485  0.7841
  119TMC2    C7 1858   3.497   0.095  13.044 -0.2325  0.5734 -0.3078
  119TMC2    C8 1859   3.845   4.554  12.837  0.3255  0.2947 -0.1167
  119TMC2    O1 1860   3.392   0.066  12.983 -0.1381  0.2078 -0.3020
  119TMC2    O2 1861   3.939   4.471  12.856 -0.1136 -0.1461 -0.0563
  119TMC2    O5 1862   3.806   4.608  12.718 -0.2751 -0.3782  0.0304
  119TMC2    H5 1863   3.762   4.695  12.722  3.1786  1.4571 -1.7842
  120MPD2     C 1864   4.412   0.258  13.333  0.8554  0.7283  0.9967
  120MPD2    C1 1865   4.289   0.266  13.391  0.0930 -0.2061 -0.1346
  120MPD2    C2 1866   4.185   0.233  13.312 -0.4264  0.1595 -0.2229
  120MPD2    C3 1867   4.200   0.188  13.184 -0.3417 -0.3989 -0.3011
  120MPD2    C4 1868   4.327   0.168  13.133 -0.1600 -0.8002  0.0417
  120MPD2    C5 1869   4.431   0.213  13.208 -0.3242 -0.2414 -0.0830
  120MPD2     H 1870   4.088   0.248  13.358  1.3241  0.7665  3.2900
  120MPD2    H1 1871   4.344   0.124  13.035  0.5288 -1.7375  0.5828
  120MPD2    H2 1872   4.503   0.293  13.381  0.1987 -2.4910  4.6056
  120MPD2    H3 1873   4.527   0.214  13.157  0.5783  3.0988  1.7213
  120MPD2     N 1874   4.093   0.160  13.096  0.0483  0.2384 -0.1186
  120MPD2    H5 1875   4.105   0.107  13.010 -0.4295  1.3416 -0.8770
  120MPD2    N1 1876   4.277   0.322  13.520  0.3195  0.1966 -0.0978
  120MPD2    H7 1877   4.362   0.326  13.575 -0.4082 -1.0507  1.1393
  121TMC2    C1 1878   0.817   2.481  14.019  0.0767  0.5743 -0.0169
  121TMC2    C2 1879   0.874   2.484  14.139  0.4587  0.3355  0.0844
  121TMC2    C3 1880   0.894   2.364  14.199 -0.4775  0.7915  0.0787
  121TMC2    C4 1881   0.791   2.366  13.948 -0.6359 -0.8680 -0.0589
  121TMC2    C5 1882   0.807   2.247  14.015  0.0273 -0.4072  0.2089
  121TMC2    C6 1883   0.846   2.245  14.147 -0.6544 -0.7070 -0.6786
  121TMC2     C 1884   0.778   2.608  13.952 -0.8483 -0.1539  0.8996
  121TMC2     O 1885   0.778   2.707  14.021 -0.1484 -0.6299 -0.3002
  121TMC2     H 1886   0.880   2.573  14.199 -0.9507  0.3687  0.1608
  121TMC2    H1 1887   0.741   2.360  13.852  1.4848 -1.5265 -1.1139
  121TMC2    H2 1888   0.846   2.160  14.214  1.2224 -2.2942 -2.7025
  121TMC2    C7 1889   0.728   2.136  13.971 -0.5280 -0.4398  0.6603
  121TMC2    C8 1890   0.937   2.356  14.343 -0.1957 -0.3041 -0.3738
  121TMC2    O1 1891   0.763   2.030  14.020  0.4316 -0.2918 -0.1097
  121TMC2    O2 1892   0.860   2.290  14.417  0.1080  0.0166  0.1037
  121TMC2    O5 1893   1.002   2.474  14.367  0.6854  0.0670 -0.1913
  121TMC2    H5 1894   1.060   2.495  14.290  4.5817 -1.0958  2.4091
  122MPD2     C 1895   0.657   2.811  13.771  0.0567 -0.2647  1.0478
  122MPD2    C1 1896   0.710   2.688  13.734 -0.0614 -0.0121  0.2800
  122MPD2    C2 1897   0.686   2.648  13.605  0.5540 -0.2847 -0.3840
  122MPD2    C3 1898   0.616   2.725  13.508 -0.4610 -0.0145  0.1831
  122MPD2    C4 1899   0.591   2.858  13.549  0.1020 -1.0321  0.2839
  122MPD2    C5 1900   0.594   2.892  13.679  0.1640 -0.4447 -0.1396
  122MPD2     H 1901   0.739   2.558  13.576  3.3398  1.9839 -2.2391
  122MPD2    H1 1902   0.534   2.926  13.486  0.6396 -0.2177  0.6862
  122MPD2    H2 1903   0.677   2.857  13.868 -0.4756  0.8279  0.6397
  122MPD2    H3 1904   0.562   2.991  13.707  0.9549 -0.1132 -0.4242
  122MPD2     N 1905   0.585   2.672  13.380  0.5302  0.2667  0.2760
  122MPD2    H5 1906   0.541   2.735  13.313 -0.7189 -2.2262 -1.2430
  122MPD2    N1 1907   0.766   2.590  13.820 -0.3202  0.1380 -0.4239
  122MPD2    H7 1908   0.785   2.499  13.781  1.1347 -0.0347  0.7011
  123TMC2    C1 1909   3.089   0.524  10.984 -0.0423  0.2656  0.2105
  123TMC2    C2 1910   3.122   0.620  11.073  0.3614  0.5538 -0.4125
  123TMC2    C3 1911   3.197   0.726  11.038  0.3840  1.7047 -0.4221
  123TMC2    C4 1912   3.124   0.543  10.855  1.1587  0.0226 -0.0794
  123TMC2    C5 1913   3.199   0.657  10.820  0.3312 -0.1614  0.0113
  123TMC2    C6 1914   3.239   0.749  10.912 -0.0180 -0.2452  0.4282
  123TMC2     C 1915   3.077   0.386  11.036  0.0627 -0.0766  0.3062
  123TMC2     O 1916   3.125   0.362  11.148 -0.0091  0.4039  0.3790
  123TMC2     H 1917   3.093   0.589  11.173  2.6095 -1.5459 -0.4177
  123TMC2    H1 1918   3.123   0.465  10.780 -3.6522  2.0083 -2.0417
  123TMC2    H2 1919   3.304   0.830  10.882  0.1254 -0.6464 -0.3646
  123TMC2    C7 1920   3.249   0.653  10.688  0.0350 -0.8057  0.9169
  123TMC2    C8 1921   3.267   0.795  11.148 -0.2339 -0.7811 -0.2224
  123TMC2    O1 1922   3.198   0.578  10.611 -0.2518  0.2760 -0.2740
  123TMC2    O2 1923   3.282   0.744  11.261 -0.5158  0.0160 -0.2702
  123TMC2    O5 1924   3.280   0.928  11.114 -0.4062 -0.3436 -0.2561
  123TMC2    H5 1925   3.261   0.948  11.019  2.2712 -0.3801 -0.8122
  124MPD2     C 1926   2.970   4.616  10.930  0.1411 -0.2639  0.1558
  124MPD2    C1 1927   2.944   4.693  10.816 -0.3023  1.4530 -0.9029
  124MPD2    C2 1928   2.969   0.098  10.830 -0.2473  0.8124  0.0916
  124MPD2    C3 1929   3.015   0.155  10.943  0.2334 -0.4512 -0.5636
  124MPD2    C4 1930   3.023   0.080  11.059  0.5116  0.5241 -0.3865
  124MPD2    C5 1931   2.995   4.677  11.055  0.7786 -0.2675 -0.1037
  124MPD2     H 1932   2.961   0.170  10.749 -2.5454 -0.0346 -0.4376
  124MPD2    H1 1933   3.055   0.120  11.154  1.0855 -0.8870  0.0181
  124MPD2    H2 1934   2.952   4.509  10.928  1.1535 -0.4507  1.1466
  124MPD2    H3 1935   2.992   4.612  11.143  0.1053 -0.2025 -0.0768
  124MPD2     N 1936   3.025   0.297  10.941  0.2705 -0.0730 -0.5248
  124MPD2    H5 1937   2.990   0.347  10.860  0.7809  2.5580  0.8560
  124MPD2    N1 1938   2.926   4.624  10.690 -0.3447 -0.5091  0.2234
  124MPD2    H7 1939   2.917   4.523  10.694 -2.0567 -0.4351 -1.6168
  125TMC2    C1 1940   3.583   1.474   8.731 -0.9606  0.9364 -0.4329
  125TMC2    C2 1941   3.526   1.578   8.801  0.4074 -0.0119  0.4697
  125TMC2    C3 1942   3.603   1.689   8.809  0.4682  0.8862 -0.4654
  125TMC2    C4 1943   3.712   1.484   8.685 -0.4958  0.7220 -0.8160
  125TMC2    C5 1944   3.786   1.598   8.700  0.1646  0.5929  0.0676
  125TMC2    C6 1945   3.726   1.714   8.756  1.1591 -0.0736  0.4457
  125TMC2     C 1946   3.508   1.356   8.703  0.1182 -0.3895 -0.2552
  125TMC2     O 1947   3.564   1.261   8.650 -0.3972  0.3667 -0.3855
  125TMC2     H 1948   3.435   1.561   8.858  0.1713 -0.1394  0.0518
  125TMC2    H1 1949   3.742   1.395   8.630  0.4402 -0.9306  2.3232
  125TMC2    H2 1950   3.787   1.791   8.802 -0.3603  2.2000 -1.2869
  125TMC2    C7 1951   3.930   1.602   8.669  0.1709 -0.2052 -0.1122
  125TMC2    C8 1952   3.530   1.802   8.875  0.2658 -0.3014 -0.4158
  125TMC2    O1 1953   3.991   1.497   8.670  0.0564  0.4310  0.3145
  125TMC2    O2 1954   3.424   1.790   8.933 -0.1862  0.1162 -0.3173
  125TMC2    O5 1955   3.583   1.910   8.824 -0.0721 -0.2650 -0.0604
  125TMC2    H5 1956   3.652   1.893   8.756 -1.0707 -0.5563 -0.9897
  126MPD1     C 1957   3.061   1.118   8.637 -0.0832  1.1321  0.4579
  126MPD1    C1 1958   3.033   1.248   8.685 -0.2542  0.1728 -0.0988
  126MPD1    C2 1959   3.141   1.320   8.724 -0.1504 -0.4175 -0.5147
  126MPD1    C3 1960   3.271   1.283   8.692  0.0050 -0.0357  0.0569
  126MPD1    C4 1961   3.292   1.174   8.612 -0.6173 -0.4264 -0.3098
  126MPD1    C5 1962   3.189   1.088   8.598  0.5940 -0.4261  0.4773
  126MPD1     H 1963   3.118   1.408   8.782 -0.9824  0.0996 -1.6268
  126MPD1    H1 1964   3.387   1.153   8.563  0.4612 -0.2808  1.7492
  126MPD1    H2 1965   2.980   1.048   8.624  1.4359 -0.3488 -0.9496
  126MPD1    H3 1966   3.208   0.993   8.550  2.5102 -0.1031  0.5734
  126MPD1     N 1967   3.374   1.374   8.721 -0.4804  0.0345  0.0050
  126MPD1    H5 1968   3.343   1.467   8.748 -1.8970  0.4808 -3.2223
  126MPD1    N1 1969   2.909   1.280   8.738  0.1906  0.0264  0.4298
  126MPD1    H6 1970   2.883   1.378   8.727  1.8731  0.4267 -0.1116
  126MPD1    H7 1971   2.836   1.224   8.695 -0.3317  1.4661 -0.5648
  127TMC2    C1 1972   0.465   1.100   9.257 -0.7374 -0.5459 -0.2504
  127TMC2    C2 1973   0.563   1.070   9.345  0.1423  0.0487 -0.9600
  127TMC2    C3 1974   0.567   0.940   9.396 -0.0175 -0.1152  0.2761
  127TMC2    C4 1975   0.366   1.003   9.223  0.3668 -0.5715 -0.2287
  127TMC2    C5 1976   0.360   0.890   9.294  0.0108 -0.6421  0.7063
  127TMC2    C6 1977   0.469   0.847   9.367  0.9972 -0.3933 -0.4623
  127TMC2     C 1978   0.437   1.243   9.229  0.5761  0.2897  0.6672
  127TMC2     O 1979   0.528   1.322   9.251  0.6718  0.2369 -0.3436
  127TMC2     H 1980   0.619   1.147   9.396  1.2525 -2.1982  1.1820
  127TMC2    H1 1981   0.295   1.022   9.143 -0.0792  0.5628  0.4350
  127TMC2    H2 1982   0.478   0.750   9.414  2.1203 -0.9222 -1.7624
  127TMC2    C7 1983   0.242   0.813   9.281  0.2111  0.5517 -0.5753
  127TMC2    C8 1984   0.654   0.894   9.503 -0.3572  0.0315 -0.7320
  127TMC2    O1 1985   0.176   0.836   9.183 -0.1520  0.2977 -0.1517
  127TMC2    O2 1986   0.585   0.843   9.594  0.1291 -0.6422  0.6806
  127TMC2    O5 1987   0.748   0.982   9.515 -0.7523  0.0558  0.6222
  127TMC2    H5 1988   0.772   1.011   9.424 -1.0227  0.8647  0.8076
  128MPD2     C 1989   0.106   1.385   9.166 -0.0783 -0.0863 -0.0605
  128MPD2    C1 1990   0.248   1.384   9.185  0.2600  0.8403  0.9211
  128MPD2    C2 1991   0.322   1.497   9.150  0.2632  0.0342  0.0851
  128MPD2    C3 1992   0.257   1.607   9.090  1.1325  0.6823 -0.1277
  128MPD2    C4 1993   0.118   1.608   9.070  0.6106  0.6007  0.6621
  128MPD2    C5 1994   0.046   1.492   9.106  0.6075  0.5974  0.2817
  128MPD2     H 1995   0.426   1.504   9.178  0.3984 -0.9066 -0.1580
  128MPD2    H1 1996   0.059   1.686   9.025 -0.6346  0.3242  1.8131
  128MPD2    H2 1997   0.049   1.299   9.198 -1.5371  0.0697 -2.2015
  128MPD2    H3 1998   4.675   1.498   9.089  0.2340 -2.9506  1.4468
  128MPD2     N 1999   0.334   1.720   9.059  0.7579  0.0228  0.2399
  128MPD2    H5 2000   0.428   1.719   9.097  0.7762 -3.4691  0.0597
  128MPD2    N1 2001   0.304   1.259   9.219 -0.1216 -0.3450  0.9602
  128MPD2    H7 2002   0.239   1.184   9.240 -1.5189  0.0340 -1.9548
  129TMC2    C1 2003   4.642   1.750   1.167  0.4649 -0.7889  0.4203
  129TMC2    C2 2004   0.008   1.777   1.079 -0.1125  0.0684 -0.3481
  129TMC2    C3 2005   0.061   1.671   1.014 -0.4963 -0.6623  0.4498
  129TMC2    C4 2006   4.584   1.631   1.169 -0.3862  0.2082 -0.5565
  129TMC2    C5 2007   4.628   1.527   1.089  0.8223  0.2576 -0.2089
  129TMC2    C6 2008   0.003   1.541   1.016  0.2698 -0.0930 -0.3739
  129TMC2     C 2009   4.576   1.866   1.231 -0.4418  0.3393  0.3115
  129TMC2     O 2010   4.454   1.861   1.261  0.0369  0.2637 -0.1684
  129TMC2     H 2011   0.043   1.875   1.050 -0.2706 -0.5080 -2.5319
  129TMC2    H1 2012   4.503   1.610   1.238 -0.0103  0.8940  0.0903
  129TMC2    H2 2013   0.034   1.468   0.941 -0.5168  0.3264 -1.1165
  129TMC2    C7 2014   4.525   1.430   1.067 -0.1608 -0.3980  0.4726
  129TMC2    C8 2015   0.185   1.687   0.934 -0.1608  0.2172 -0.5337
  129TMC2    O1 2016   4.413   1.459   1.102 -0.3837 -0.2937 -0.3675
  129TMC2    O2 2017   0.214   1.619   0.838 -0.8006 -0.0633 -0.1399
  129TMC2    O5 2018   0.266   1.753   1.013 -0.3898  0.3316  0.3659
  129TMC2    H5 2019   0.223   1.797   1.089 -0.0348  0.8705  0.2582
  130MPD2     C 2020   4.521   2.125   1.358  0.1426 -0.8512 -0.2283
  130MPD2    C1 2021   4.648   2.083   1.326  0.0015  0.1575 -0.6113
  130MPD2    C2 2022   0.022   2.163   1.351  0.3947 -0.0034 -0.2861
  130MPD2    C3 2023   0.013   2.290   1.411 -0.1476 -0.1949  0.1054
  130MPD2    C4 2024   4.624   2.329   1.433 -0.1012 -0.4912 -0.2527
  130MPD2    C5 2025   4.513   2.250   1.415  0.1568 -0.1632 -0.0755
  130MPD2     H 2026   0.122   2.128   1.326  0.0078 -2.1042  1.1421
  130MPD2    H1 2027   4.611   2.423   1.486 -0.4853 -0.1355 -0.9822
  130MPD2    H2 2028   4.429   2.072   1.341 -1.7108  2.3628 -0.2108
  130MPD2    H3 2029   4.421   2.298   1.445  0.0811 -0.3176 -0.0572
  130MPD2     N 2030   0.123   2.377   1.435  0.2743 -0.3556  0.5717
  130MPD2    H5 2031   0.212   2.343   1.399  1.1380  2.6014 -0.0245
  130MPD2    N1 2032   4.673   1.962   1.262 -0.0597 -0.1391 -0.7655
  130MPD2    H7 2033   0.034   1.938   1.244 -0.5217 -0.8411 -2.3132
  131TMC2    C1 2034   3.262   0.646  10.016  0.9291 -0.4892  0.4897
  131TMC2    C2 2035   3.363   0.685   9.929  0.7112 -0.0650  0.7315
  131TMC2    C3 2036   3.419   0.806   9.948  0.0261 -0.2944  0.3404
  131TMC2    C4 2037   3.211   0.735  10.101  0.0310  0.1766 -0.6174
  131TMC2    C5 2038   3.259   0.864  10.108 -0.5967  1.1852 -0.0133
  131TMC2    C6 2039   3.373   0.903  10.033 -0.0576  0.4416  0.3101
  131TMC2     C 2040   3.203   0.517  10.024  0.1254 -0.1552 -0.5408
  131TMC2     O 2041   3.156   0.486  10.132 -0.2115  0.1782 -0.1304
  131TMC2     H 2042   3.390   0.619   9.848  1.8262  1.4494 -0.1424
  131TMC2    H1 2043   3.135   0.705  10.172  0.2111  0.8111 -0.1496
  131TMC2    H2 2044   3.418   1.001  10.019  0.4172  0.1466 -0.1990
  131TMC2    C7 2045   3.232   0.948  10.218  0.2631  0.5924 -0.4783
  131TMC2    C8 2046   3.519   0.839   9.844  0.4441  0.0071  0.1234
  131TMC2    O1 2047   3.133   0.917  10.283 -0.2267 -0.3751  0.4788
  131TMC2    O2 2048   3.517   0.950   9.785 -0.2626 -0.3017  0.2386
  131TMC2    O5 2049   3.630   0.769   9.869 -0.5968 -0.0358 -0.5146
  131TMC2    H5 2050   3.625   0.712   9.948  1.7759  2.1956  1.2586
  132MPD2     C 2051   3.203   0.243   9.781  0.7314  0.4696 -0.0693
  132MPD2    C1 2052   3.185   0.312   9.900  0.3927  0.2034  0.2102
  132MPD2    C2 2053   3.133   0.235  10.008 -0.5101 -0.0465  0.5314
  132MPD2    C3 2054   3.087   0.105   9.996 -0.4049 -0.2908  0.2401
  132MPD2    C4 2055   3.110   0.039   9.873 -0.1288  0.8176 -0.6656
  132MPD2    C5 2056   3.168   0.110   9.768 -0.2839 -0.3127  0.0076
  132MPD2     H 2057   3.113   0.275  10.107  0.2054  2.2963 -0.2719
  132MPD2    H1 2058   3.101   4.668   9.862 -0.9591  0.7479  0.6608
  132MPD2    H2 2059   3.245   0.290   9.692  0.2509 -0.8068 -0.9691
  132MPD2    H3 2060   3.182   0.050   9.678 -2.0665  1.1240 -1.2159
  132MPD2     N 2061   3.022   0.037  10.108 -0.7254  0.3261 -0.4692
  132MPD2    H5 2062   3.021   0.080  10.200 -1.3797 -0.0996 -0.2760
  132MPD2    N1 2063   3.209   0.450   9.909  0.3979  0.6523  0.3482
  132MPD2    H7 2064   3.234   0.499   9.824  0.2262  0.4424  0.1754
  133TMC2    C1 2065   2.713   1.799   9.935  0.0796  1.1186  0.1708
  133TMC2    C2 2066   2.809   1.710   9.965  0.9421 -0.0382 -0.7832
  133TMC2    C3 2067   2.898   1.752  10.064  0.1333 -0.0007  0.3051
  133TMC2    C4 2068   2.690   1.916  10.007 -0.0774  0.5230  0.2521
  133TMC2    C5 2069   2.767   1.933  10.117  0.1073  0.1526  0.3688
  133TMC2    C6 2070   2.878   1.862  10.143  1.1897  0.2860 -0.4024
  133TMC2     C 2071   2.621   1.753   9.830 -0.7300 -0.0476 -0.0750
  133TMC2     O 2072   2.617   1.631   9.807 -0.2212  0.1815 -0.1650
  133TMC2     H 2073   2.817   1.617   9.910 -2.4461 -0.6475 -0.2359
  133TMC2    H1 2074   2.598   1.969   9.983 -0.5008 -0.8339 -1.1318
  133TMC2    H2 2075   2.921   1.876  10.241  1.8480 -2.5480 -0.2730
  133TMC2    C7 2076   2.737   2.066  10.181 -0.3804 -0.6143  0.4651
  133TMC2    C8 2077   3.020   1.685  10.079  0.1488  0.9209  0.7301
  133TMC2    O1 2078   2.641   2.124  10.134 -0.1819  0.2750  0.4198
  133TMC2    O2 2079   3.112   1.735  10.141  0.2817 -0.3578  0.2145
  133TMC2    O5 2080   3.031   1.587   9.982 -0.4023 -0.1259 -0.7663
  133TMC2    H5 2081   3.121   1.549   9.976  0.2679  1.4891 -1.0180
  134MPD2     C 2082   2.407   1.953   9.595  0.6199  0.4367 -0.0896
  134MPD2    C1 2083   2.468   1.838   9.645 -0.3769 -0.6170 -0.2079
  134MPD2    C2 2084   2.442   1.722   9.587 -0.2964 -0.4228 -0.1476
  134MPD2    C3 2085   2.342   1.714   9.488 -0.2336  0.3047  0.4390
  134MPD2    C4 2086   2.281   1.830   9.440  0.3325  0.1868 -0.7196
  134MPD2    C5 2087   2.315   1.946   9.495 -0.2199  0.2990  0.2626
  134MPD2     H 2088   2.498   1.633   9.613  1.5571  0.4300 -1.2712
  134MPD2    H1 2089   2.197   1.832   9.371 -0.2480 -3.0807 -0.1396
  134MPD2    H2 2090   2.434   2.047   9.640 -1.1204 -0.0297  1.9500
  134MPD2    H3 2091   2.262   2.031   9.455 -0.7773 -0.9478 -1.6314
  134MPD2     N 2092   2.313   1.583   9.438 -0.3933 -0.0562 -0.4210
  134MPD2    H5 2093   2.371   1.504   9.464 -0.5992  0.0895  0.4589
  134MPD2    N1 2094   2.550   1.853   9.759  0.5856 -0.1513 -0.1676
  134MPD2    H7 2095   2.561   1.948   9.795  0.8143 -1.0445  2.1228
  135TMC2    C1 2096   4.139   2.386   8.889  0.3971 -0.6851 -0.4667
  135TMC2    C2 2097   4.041   2.292   8.890  0.5839 -0.9190 -0.8148
  135TMC2    C3 2098   4.046   2.198   8.989 -0.3955  0.6428  0.0244
  135TMC2    C4 2099   4.238   2.387   8.991 -0.3065  0.2724  0.8163
  135TMC2    C5 2100   4.243   2.284   9.083 -0.2991 -0.6829 -0.2247
  135TMC2    C6 2101   4.139   2.190   9.091  0.2637 -0.7537 -0.6991
  135TMC2     C 2102   4.165   2.464   8.772 -0.1132  0.0109 -0.0785
  135TMC2     O 2103   4.072   2.465   8.691 -0.5859 -0.3653 -0.3777
  135TMC2     H 2104   3.978   2.285   8.801 -0.4578  2.8012 -0.3683
  135TMC2    H1 2105   4.310   2.469   8.991  1.9088 -1.6887  0.7103
  135TMC2    H2 2106   4.130   2.114   9.167  4.4434 -1.5842 -1.0270
  135TMC2    C7 2107   4.328   2.312   9.196 -0.4218 -0.0810 -0.0814
  135TMC2    C8 2108   3.944   2.104   8.978  0.4753 -0.3532  0.4763
  135TMC2    O1 2109   4.358   2.432   9.207 -0.2856  0.1381 -1.0374
  135TMC2    O2 2110   3.879   2.082   8.876 -0.2698  0.1357  0.0161
  135TMC2    O5 2111   3.899   2.066   9.106  0.3841  0.2667  0.2339
  135TMC2    H5 2112   3.935   2.126   9.175  0.7263 -0.6774  0.8780
  136MPD2     C 2113   4.262   2.643   8.560  0.1805 -0.1254  0.3887
  136MPD2    C1 2114   4.345   2.575   8.647 -0.4778  0.4232 -0.9816
  136MPD2    C2 2115   4.478   2.572   8.630  0.3387 -0.1558 -0.1948
  136MPD2    C3 2116   4.535   2.658   8.533  0.2633 -0.2637  0.3240
  136MPD2    C4 2117   4.454   2.728   8.446 -1.8453  0.3298 -0.1099
  136MPD2    C5 2118   4.316   2.716   8.454  0.2719  0.5630  0.4492
  136MPD2     H 2119   4.536   2.500   8.688 -0.3048 -0.0243  0.6112
  136MPD2    H1 2120   4.499   2.787   8.366  2.6010 -0.1809  2.0305
  136MPD2    H2 2121   4.155   2.640   8.573  0.4059 -2.2178  1.6151
  136MPD2    H3 2122   4.251   2.771   8.387 -1.9891 -0.9633  1.3918
  136MPD2     N 2123   4.677   2.665   8.508  0.1290 -0.4133  0.2167
  136MPD2    H5 2124   4.703   2.737   8.441 -2.4666 -0.1186 -0.4614
  136MPD2    N1 2125   4.295   2.503   8.757 -0.6185 -0.4740  0.6171
  136MPD2    H7 2126   4.366   2.479   8.826 -1.8515 -2.6549  1.1169
  137TMC2    C1 2127   3.203   1.984   9.415  0.5227 -0.0958 -0.4016
  137TMC2    C2 2128   3.079   2.016   9.358  0.5801 -0.3857 -0.2272
  137TMC2    C3 2129   3.030   2.141   9.380  0.1509  0.0058 -0.4017
  137TMC2    C4 2130   3.268   2.068   9.500 -0.1659  0.7328  0.8181
  137TMC2    C5 2131   3.208   2.187   9.526 -0.0898  0.1924  0.0961
  137TMC2    C6 2132   3.091   2.229   9.466  0.0002 -0.0328  0.3246
  137TMC2     C 2133   3.267   1.864   9.376 -0.3302 -0.4621 -0.1785
  137TMC2     O 2134   3.378   1.853   9.424 -0.5498  0.4133  0.2195
  137TMC2     H 2135   3.020   1.942   9.305 -0.3720 -1.1562  1.9220
  137TMC2    H1 2136   3.363   2.041   9.546 -1.5690 -1.2604  2.5532
  137TMC2    H2 2137   3.050   2.329   9.470 -1.5414 -0.6778  0.3264
  137TMC2    C7 2138   3.259   2.265   9.638 -0.5075  1.0444 -0.3214
  137TMC2    C8 2139   2.886   2.158   9.359  0.4146  0.4704  0.2371
  137TMC2    O1 2140   3.213   2.376   9.664 -0.8965 -0.8237  0.3985
  137TMC2    O2 2141   2.810   2.205   9.437  0.4188  0.4902  0.4343
  137TMC2    O5 2142   2.866   2.131   9.229  0.3926  0.3219 -0.4950
  137TMC2    H5 2143   2.949   2.109   9.181 -0.9120  0.5164 -2.8147
  138MPD2     C 2144   3.189   1.608   9.118 -0.6373  0.1342  0.2745
  138MPD2    C1 2145   3.267   1.674   9.214  0.1359  0.9536  0.2582
  138MPD2    C2 2146   3.390   1.618   9.244  0.0283 -0.3721 -0.2351
  138MPD2    C3 2147   3.432   1.499   9.186 -0.5532 -0.1854  0.1314
  138MPD2    C4 2148   3.354   1.424   9.100  1.3340 -0.5930  0.2930
  138MPD2    C5 2149   3.235   1.487   9.064  0.1468  0.3904  0.9242
  138MPD2     H 2150   3.458   1.677   9.305 -1.3926  1.5988 -0.5219
  138MPD2    H1 2151   3.385   1.337   9.043  1.8308 -0.9491  1.0964
  138MPD2    H2 2152   3.091   1.637   9.081 -0.6357  1.3775  1.2208
  138MPD2    H3 2153   3.167   1.444   8.991 -0.9079  2.0145  0.9368
  138MPD2     N 2154   3.567   1.459   9.216 -0.2049  0.0174 -0.4089
  138MPD2    H5 2155   3.620   1.527   9.270  1.8913 -0.5212 -1.7703
  138MPD2    N1 2156   3.207   1.788   9.278 -0.1087 -0.0665 -0.2914
  138MPD2    H7 2157   3.113   1.814   9.252 -0.4198  1.0121  1.9496
  139TMC2    C1 2158   0.099   4.606  13.511 -0.7921 -0.5640 -0.3560
  139TMC2    C2 2159   0.153   4.686  13.412  0.1354 -0.4283  1.3625
  139TMC2    C3 2160   0.113   0.078  13.400  0.3072 -0.9212 -0.0485
  139TMC2    C4 2161   0.006   4.655  13.605  0.2189 -0.2851 -0.3297
  139TMC2    C5 2162   4.705   0.051  13.590 -0.7129 -0.2964  0.5522
  139TMC2    C6 2163   0.027   0.131  13.493 -0.7596 -0.8071 -0.8419
  139TMC2     C 2164   0.185   4.499  13.558  0.0973 -0.2192  0.5071
  139TMC2     O 2165   0.193   4.482  13.680  0.5958  0.4517  0.0691
  139TMC2     H 2166   0.239   4.658  13.353  0.1080  2.3092  0.0361
  139TMC2    H1 2167   4.692   4.595  13.681 -3.3846  0.8944 -1.7339
  139TMC2    H2 2168   0.010   0.238  13.489  2.2103 -0.3037  0.0467
  139TMC2    C7 2169   4.608   0.112  13.674  0.0866  0.4339 -0.7499
  139TMC2    C8 2170   0.161   0.165  13.297  0.3898  0.0771 -0.9722
  139TMC2    O1 2171   4.540   0.207  13.635  0.2367  0.5121  0.3803
  139TMC2    O2 2172   0.257   0.129  13.229 -0.0575 -0.4468  0.5171
  139TMC2    O5 2173   0.077   0.272  13.280  0.2695 -0.3366 -0.2180
  139TMC2    H5 2174   0.084   0.334  13.205 -1.2414  1.1098  0.8523
  140MPD2     C 2175   0.426   4.335  13.586  0.5558  0.5282  0.4021
  140MPD2    C1 2176   0.369   4.353  13.464 -0.0692 -0.5279 -0.4153
  140MPD2    C2 2177   0.416   4.283  13.355  0.2780  0.2622  0.3278
  140MPD2    C3 2178   0.514   4.190  13.362  0.5063 -0.4659 -0.0988
  140MPD2    C4 2179   0.557   4.155  13.489 -0.0503 -0.5657 -0.5764
  140MPD2    C5 2180   0.521   4.237  13.593  0.2038  0.2829  0.0981
  140MPD2     H 2181   0.373   4.300  13.256 -2.2770 -1.7608  1.1003
  140MPD2    H1 2182   0.634   4.082  13.510 -0.5081 -1.1525 -0.9267
  140MPD2    H2 2183   0.410   4.388  13.679 -0.3064 -1.5976  1.4774
  140MPD2    H3 2184   0.553   4.213  13.694  1.0994 -2.4128 -0.8312
  140MPD2     N 2185   0.549   4.128  13.245 -0.1763  0.3826 -0.0215
  140MPD2    H5 2186   0.495   4.148  13.161 -0.0142 -0.2551 -0.2820
  140MPD2    N1 2187   0.258   4.439  13.450  0.2698  0.2137  0.0171
  140MPD2    H7 2188   0.210   4.450  13.361  2.0290 -0.4288 -1.0046
  141TMC2    C1 2189   1.881   1.018  14.243  0.2374  0.2356 -0.0098
  141TMC2    C2 2190   1.896   0.887  14.284  0.2199  0.6505  0.4864
  141TMC2    C3 2191   1.940   0.860  14.414  0.1893  0.5321 -0.3951
  141TMC2    C4 2192   1.906   1.123  14.321 -0.7158 -0.0519 -0.8773
  141TMC2    C5 2193   1.954   1.091  14.451  0.3683  1.0025 -0.5218
  141TMC2    C6 2194   1.967   0.962  14.498  0.4670  0.7904  0.0051
  141TMC2     C 2195   1.828   1.044  14.107 -0.3979  0.5280 -0.3508
  141TMC2     O 2196   1.798   1.162  14.096  0.2613  0.5153 -0.2376
  141TMC2     H 2197   1.887   0.802  14.216 -1.2414  0.2626  1.1609
  141TMC2    H1 2198   1.896   1.224  14.283  0.2918  0.6851  0.7840
  141TMC2    H2 2199   2.005   0.944  14.598  0.4696 -0.8331 -0.2890
  141TMC2    C7 2200   2.051   1.174  14.521 -0.2220 -0.1954 -0.7006
  141TMC2    C8 2201   1.933   0.729  14.467 -0.3560 -0.0842  1.2491
  141TMC2    O1 2202   2.159   1.120  14.547  0.2839 -0.5923  0.3356
  141TMC2    O2 2203   1.857   0.643  14.430  0.8674  0.1515 -0.1506
  141TMC2    O5 2204   2.056   0.715  14.538  0.4847 -0.5885 -0.4980
  141TMC2    H5 2205   2.121   0.787  14.522  1.1995 -0.6488  2.0984
  142TMC2    C1 2206   3.501   0.173  10.054 -0.2778  0.8093  0.0400
  142TMC2    C2 2207   3.544   0.158   9.920 -0.3592 -0.0656 -0.0193
  142TMC2    C3 2208   3.600   0.272   9.866 -0.5038  0.2394 -0.2971
  142TMC2    C4 2209   3.522   0.285  10.134 -0.4497  0.6553 -0.4068
  142TMC2    C5 2210   3.586   0.386  10.074  0.8490 -0.2189 -0.2286
  142TMC2    C6 2211   3.602   0.384   9.939  0.1705  0.4585  0.3824
  142TMC2     C 2212   3.437   0.047  10.108  0.6080 -0.1403 -0.7157
  142TMC2     O 2213   3.450   4.681  10.042 -0.4620 -1.0247 -0.3574
  142TMC2     H 2214   3.516   0.077   9.853 -1.2305 -0.6694  1.0701
  142TMC2    H1 2215   3.505   0.281  10.241 -0.9200  0.3379 -0.4954
  142TMC2    H2 2216   3.642   0.471   9.888 -0.5560  1.8966  2.2799
  142TMC2    C7 2217   3.582   0.516  10.139 -0.0362  0.3026 -0.3975
  142TMC2    C8 2218   3.590   0.286   9.722 -0.0036 -0.3397 -0.6968
  142TMC2    O1 2219   3.645   0.600  10.078  0.0990 -0.0769  0.3836
  142TMC2    O2 2220   3.535   0.384   9.676  0.1633 -0.3316 -0.0564
  142TMC2    O5 2221   3.614   0.170   9.656 -0.8397  0.5608 -0.5225
  142TMC2    H5 2222   3.659   0.106   9.716 -0.1296  0.2062 -1.4304
  143MPD2     C 2223   3.245   4.485  10.474 -0.2652  0.0475  0.6268
  143MPD2    C1 2224   3.229   4.472  10.336 -0.1182  0.1640  1.1481
  143MPD2    C2 2225   3.286   4.572  10.252 -0.1784  0.1440  0.5584
  143MPD2    C3 2226   3.366   4.673  10.312  0.4798  0.4056  0.4523
  143MPD2    C4 2227   3.402   4.665  10.447 -0.6100  0.0575  0.1631
  143MPD2    C5 2228   3.347   4.568  10.521  0.1889 -0.3169  0.1383
  143MPD2     H 2229   3.262   4.569  10.146  1.5657  1.0702  0.1295
  143MPD2    H1 2230   3.463   4.735  10.502 -2.0081  2.9862 -2.0279
  143MPD2    H2 2231   3.199   4.409  10.536 -0.7539 -0.8262 -0.8059
  143MPD2    H3 2232   3.369   4.566  10.627 -0.1747  1.4985  0.2425
  143MPD2     N 2233   3.404   0.053  10.244 -0.8296  0.4623 -0.3174
  143MPD2    H5 2234   3.448   0.129  10.296  0.5247 -0.6541  0.1534
  143MPD2    N1 2235   3.146   4.364  10.294  0.1637  0.2066 -0.1444
  143MPD2    H7 2236   3.110   4.309  10.371 -0.8392 -0.2048 -0.9059
  144TMC2    C1 2237   2.044   4.144   0.583 -0.9905 -0.2449 -0.8694
  144TMC2    C2 2238   2.090   4.043   0.508  0.1368  0.1611 -0.0742
  144TMC2    C3 2239   2.210   3.982   0.520  0.6741 -0.0370 -0.4935
  144TMC2    C4 2240   2.118   4.220   0.674 -0.0407  0.5496 -0.2378
  144TMC2    C5 2241   2.245   4.165   0.683  1.1824  0.1003  0.4431
  144TMC2    C6 2242   2.288   4.048   0.615 -0.2301  0.1511 -0.8554
  144TMC2     C 2243   1.901   4.182   0.561  0.1543  0.1292 -0.3560
  144TMC2     O 2244   1.861   4.178   0.445 -0.1307 -1.1786  0.2377
  144TMC2     H 2245   2.028   3.990   0.437 -0.5503  1.2560 -0.2992
  144TMC2    H1 2246   2.082   4.307   0.729 -1.3056  0.5462 -1.0579
  144TMC2    H2 2247   2.384   4.002   0.636  0.2631  1.0172 -1.2685
  144TMC2    C7 2248   2.307   4.201   0.806 -0.3784  0.3511 -0.5370
  144TMC2    C8 2249   2.280   3.953   0.393  0.3922 -0.4717  0.6331
  144TMC2    O1 2250   2.386   4.122   0.849  0.8727  0.1296 -0.6088
  144TMC2    O2 2251   2.226   3.970   0.282 -0.0518 -0.0285 -0.3197
  144TMC2    O5 2252   2.360   3.850   0.422 -0.0654 -0.1416  0.1952
  144TMC2    H5 2253   2.363   3.835   0.519 -2.3059 -2.0500 -0.0485
  145MPD2     C 2254   1.476   4.437   0.704  0.0906 -0.8909  0.8513
  145MPD2    C1 2255   1.510   4.381   0.578  0.5735  0.1904 -0.3639
  145MPD2    C2 2256   1.630   4.317   0.561 -0.1919  0.7821  0.1767
  145MPD2    C3 2257   1.719   4.309   0.667  0.1414  0.6027  0.0857
  145MPD2    C4 2258   1.687   4.367   0.791  0.1778 -0.0138  0.3949
  145MPD2    C5 2259   1.568   4.433   0.805 -0.3913 -0.8724 -0.5902
  145MPD2     H 2260   1.650   4.277   0.463  1.0409  2.0468 -0.0849
  145MPD2    H1 2261   1.747   4.348   0.879  1.0619 -1.5412 -0.5354
  145MPD2    H2 2262   1.387   4.495   0.722 -0.8396 -2.0569 -0.0726
  145MPD2    H3 2263   1.547   4.464   0.906  0.5923 -0.7334 -0.4303
  145MPD2     N 2264   1.840   4.240   0.664  0.7572  0.4015  0.0174
  145MPD2    H5 2265   1.893   4.235   0.751  0.4362  0.1887  0.1973
  145MPD2    N1 2266   1.428   4.383   0.469 -0.0583  0.4079  0.1627
  145MPD2    H7 2267   1.466   4.344   0.384  1.8477  0.9752  0.7599
  146TMC2    C1 2268   3.099   3.109  12.993  0.2875 -1.0867  0.2153
  146TMC2    C2 2269   3.133   3.236  12.955  0.4716 -0.2539 -0.4454
  146TMC2    C3 2270   3.199   3.244  12.841  0.5018  0.6480 -0.2009
  146TMC2    C4 2271   3.151   2.993  12.930 -0.1099 -0.3504  0.4005
  146TMC2    C5 2272   3.214   3.013  12.812  0.2370  0.3242  0.0605
  146TMC2    C6 2273   3.236   3.138  12.766  0.2047 -0.1984 -0.3273
  146TMC2     C 2274   3.037   3.094  13.127 -0.3519 -0.1074 -0.2035
  146TMC2     O 2275   2.962   3.178  13.166  0.3959  0.0572 -0.7249
  146TMC2     H 2276   3.113   3.324  13.015 -1.6735 -2.4398  2.0586
  146TMC2    H1 2277   3.105   2.898  12.955  0.5112 -0.7774 -0.0850
  146TMC2    H2 2278   3.295   3.152  12.676  0.3145 -1.7340 -0.4932
  146TMC2    C7 2279   3.240   2.914  12.712  0.2721  0.3488  0.4353
  146TMC2    C8 2280   3.258   3.368  12.794  0.4321  0.0157 -0.0711
  146TMC2    O1 2281   3.259   2.948  12.599  0.1946 -0.1340 -0.1325
  146TMC2    O2 2282   3.374   3.403  12.805  0.1841 -0.2962  0.1594
  146TMC2    O5 2283   3.158   3.464  12.798  0.5950  0.1756  0.2587
  146TMC2    H5 2284   3.068   3.427  12.786 -0.3426  2.1583  1.0743
  147MPD2     C 2285   3.376   2.458  12.554  0.0319  0.0006  0.5155
  147MPD2    C1 2286   3.390   2.464  12.693  0.3405 -0.1228 -0.6464
  147MPD2    C2 2287   3.351   2.574  12.762 -0.4703  0.1327 -0.1200
  147MPD2    C3 2288   3.281   2.673  12.696  0.3894  0.9227  0.4696
  147MPD2    C4 2289   3.257   2.661  12.558 -0.0564  0.3135 -0.3075
  147MPD2    C5 2290   3.308   2.557  12.492 -0.4255  0.1505  0.0351
  147MPD2     H 2291   3.375   2.575  12.868 -3.5841  0.7183  0.5786
  147MPD2    H1 2292   3.212   2.738  12.496 -1.4088  0.5722  0.9755
  147MPD2    H2 2293   3.411   2.378  12.490 -0.2285  1.2432 -1.1791
  147MPD2    H3 2294   3.288   2.548  12.386  0.3632 -1.4250  0.0235
  147MPD2     N 2295   3.241   2.789  12.765  0.2093  0.2169 -0.1430
  147MPD2    H5 2296   3.240   2.777  12.865  1.9801  0.6585 -0.0658
  147MPD2    N1 2297   3.444   2.349  12.754 -0.1707 -0.1141  0.2735
  147MPD2    H7 2298   3.480   2.285  12.684 -0.2065  0.1052  0.0525
  148TMC2    C1 2299   2.513   1.371  10.530  0.3372 -0.4584  0.5605
  148TMC2    C2 2300   2.537   1.478  10.618  0.5807  0.3209  0.6758
  148TMC2    C3 2301   2.663   1.484  10.671 -0.0786 -0.1538  0.1417
  148TMC2    C4 2302   2.605   1.268  10.511  0.0124 -0.3785 -0.4010
  148TMC2    C5 2303   2.720   1.275  10.576  0.7852 -0.4396 -0.0335
  148TMC2    C6 2304   2.753   1.373  10.666  0.1120 -0.1920 -0.3384
  148TMC2     C 2305   2.400   1.384  10.435 -0.6897 -0.3415  0.2961
  148TMC2     O 2306   2.370   1.496  10.385  0.0163 -0.7043  0.0134
  148TMC2     H 2307   2.468   1.558  10.642  1.4114  1.4389 -0.6408
  148TMC2    H1 2308   2.586   1.183  10.446  1.3051 -0.5208 -0.5854
  148TMC2    H2 2309   2.852   1.377  10.710 -0.5217 -1.2927  1.1708
  148TMC2    C7 2310   2.778   1.138  10.584  0.0621  0.3817 -0.5504
  148TMC2    C8 2311   2.687   1.575  10.785  0.1611 -0.0170 -0.5987
  148TMC2    O1 2312   2.789   1.070  10.481 -0.7723 -0.3467  1.1083
  148TMC2    O2 2313   2.591   1.623  10.844 -0.1470  0.1802  0.8251
  148TMC2    O5 2314   2.810   1.626  10.785 -0.5781  0.2487 -0.0662
  148TMC2    H5 2315   2.878   1.594  10.722 -1.2653  1.5289 -1.4380
  149MPD2     C 2316   2.196   1.324  10.224 -0.8157 -0.0621 -0.0913
  149MPD2    C1 2317   2.259   1.232  10.304 -0.6632 -0.0561  0.0348
  149MPD2    C2 2318   2.249   1.099  10.284 -0.4199  0.3746  0.4556
  149MPD2    C3 2319   2.182   1.047  10.177 -0.0115 -0.4875  0.0056
  149MPD2    C4 2320   2.120   1.135  10.094 -0.0920  0.5554  0.3357
  149MPD2    C5 2321   2.133   1.270  10.115  0.6379  0.3576 -0.2070
  149MPD2     H 2322   2.308   1.025  10.337  0.3729  1.2825  0.8576
  149MPD2    H1 2323   2.061   1.111  10.006 -0.8224  1.0314  0.6979
  149MPD2    H2 2324   2.202   1.432  10.231  0.5963 -0.1065 -0.7801
  149MPD2    H3 2325   2.093   1.327  10.031  0.9587  0.1681 -0.4874
  149MPD2     N 2326   2.156   0.906  10.151  0.1159 -0.2034  0.2589
  149MPD2    H5 2327   2.104   0.895  10.065  1.8634  0.3032 -0.8716
  149MPD2    N1 2328   2.334   1.266  10.413 -0.7330 -0.3120  0.1423
  149MPD2    H7 2329   2.362   1.190  10.473 -0.6273 -2.2466 -2.3355
  150TMC2    C1 2330   0.073   0.449  12.611 -0.3660  0.3961 -0.3608
  150TMC2    C2 2331   0.090   0.319  12.586  0.0417 -0.1361  0.5435
  150TMC2    C3 2332   0.216   0.288  12.563 -0.4127 -0.2617  0.2132
  150TMC2    C4 2333   0.174   0.539  12.628 -0.4015 -0.0719  0.3570
  150TMC2    C5 2334   0.303   0.492  12.621 -0.2191  0.0344  0.8723
  150TMC2    C6 2335   0.328   0.371  12.571  0.1250 -0.6072 -0.5063
  150TMC2     C 2336   4.682   0.515  12.583 -0.7238  0.5335 -0.0468
  150TMC2     O 2337   4.669   0.626  12.626 -0.8610  0.2607 -0.5895
  150TMC2     H 2338   0.005   0.255  12.604  0.0148 -0.3480 -0.3379
  150TMC2    H1 2339   0.155   0.640  12.662  1.1254 -0.1332  1.3804
  150TMC2    H2 2340   0.423   0.320  12.558  0.4709 -0.3185  0.8060
  150TMC2    C7 2341   0.404   0.579  12.682  0.5001 -0.0391  1.0655
  150TMC2    C8 2342   0.249   0.151  12.532  0.9702  0.3514 -0.1098
  150TMC2    O1 2343   0.371   0.692  12.706 -0.8694  0.2365 -0.1408
  150TMC2    O2 2344   0.357   0.097  12.547  0.6454 -0.7142  0.6958
  150TMC2    O5 2345   0.144   0.097  12.465  0.3679 -0.3140  0.3044
  150TMC2    H5 2346   0.065   0.155  12.454  0.8170 -0.2687 -2.8359
  151MPD2     C 2347   4.248   0.567  12.301  0.0866 -0.3758  0.0363
  151MPD2    C1 2348   4.328   0.470  12.250 -0.6321 -0.3249 -0.8653
  151MPD2    C2 2349   4.442   0.430  12.311 -0.6361 -0.8919 -0.7039
  151MPD2    C3 2350   4.488   0.491  12.423 -0.0815 -0.0079  0.2564
  151MPD2    C4 2351   4.413   0.599  12.474  0.7647  0.2137  0.1195
  151MPD2    C5 2352   4.294   0.628  12.414  0.1541 -0.1027 -0.5004
  151MPD2     H 2353   4.508   0.353  12.270  0.6759  1.1031 -2.3354
  151MPD2    H1 2354   4.435   0.647  12.569  0.2454 -0.3015  0.4951
  151MPD2    H2 2355   4.151   0.594  12.261 -0.4890 -1.0124  1.0018
  151MPD2    H3 2356   4.219   0.691  12.461 -1.3392 -1.3423 -1.1944
  151MPD2     N 2357   4.610   0.446  12.491 -0.2770 -0.7263  0.6263
  151MPD2    H5 2358   4.651   0.357  12.463 -1.9112 -0.5170 -2.4999
  151MPD2    N1 2359   4.275   0.394  12.142  0.6043  0.4249 -0.7056
  151MPD2    H7 2360   4.190   0.429  12.099  0.5566  2.3332  0.9490
  152TMC2    C1 2361   0.349   0.319  12.998 -1.0040  0.3019 -1.0933
  152TMC2    C2 2362   0.423   0.248  12.907 -0.2583 -0.4919 -0.2336
  152TMC2    C3 2363   0.550   0.289  12.888  0.0306  0.1384 -0.0445
  152TMC2    C4 2364   0.405   0.425  13.072 -0.4929 -0.7499  0.1968
  152TMC2    C5 2365   0.539   0.454  13.049  0.4220 -0.2103  0.2546
  152TMC2    C6 2366   0.608   0.390  12.950  0.2375 -0.3704 -0.3972
  152TMC2     C 2367   0.204   0.306  12.996 -0.2623  0.0878  0.2922
  152TMC2     O 2368   0.145   0.398  13.053  0.1637 -0.4031 -0.1150
  152TMC2     H 2369   0.388   0.167  12.845 -1.0279 -1.3446  1.3368
  152TMC2    H1 2370   0.344   0.492  13.132  0.4708  0.5354 -0.2705
  152TMC2    H2 2371   0.701   0.426  12.907  0.4717 -1.4868 -0.8249
  152TMC2    C7 2372   0.593   0.567  13.125 -0.0718  0.1411  0.3161
  152TMC2    C8 2373   0.633   0.227  12.783  0.5353  0.0338  0.5471
  152TMC2    O1 2374   0.515   0.616  13.211  0.8394 -0.1086 -0.6078
  152TMC2    O2 2375   0.633   0.272  12.666  0.1459  0.6505  0.1960
  152TMC2    O5 2376   0.617   0.095  12.814  0.1806 -0.1136  0.2156
  152TMC2    H5 2377   0.613   0.075  12.910  0.6780  0.1620  0.2926
  153MPD2     C 2378   4.732   0.068  12.807  0.6728 -0.0360  0.3110
  153MPD2    C1 2379   0.024   0.182  12.882  0.6331  0.1095  0.4083
  153MPD2    C2 2380   4.659   0.274  12.894 -1.1191 -0.1154  0.7691
  153MPD2    C3 2381   4.533   0.257  12.837  0.1602  0.7475  0.7335
  153MPD2    C4 2382   4.503   0.153  12.762  0.7683  0.1534  0.1682
  153MPD2    C5 2383   4.608   0.059  12.751  0.3658 -1.0104 -0.0662
  153MPD2     H 2384   4.668   0.366  12.951 -0.4905 -0.3267  0.9997
  153MPD2    H1 2385   4.402   0.139  12.724  0.7865  0.1154  0.1322
  153MPD2    H2 2386   0.068   0.003  12.759  1.1440  1.9872 -1.7339
  153MPD2    H3 2387   4.599   4.708  12.687  0.0716 -0.6044 -0.5635
  153MPD2     N 2388   4.439   0.352  12.868  0.5622 -0.5476  1.0789
  153MPD2    H5 2389   4.466   0.443  12.904 -0.3260  0.7995 -1.6423
  153MPD2    N1 2390   0.155   0.200  12.927  0.0345 -0.0276  0.4849
  153MPD2    H7 2391   0.222   0.124  12.934 -0.5352 -0.6829 -1.0866
  154TMC2    C1 2392   2.392   0.279   0.820  0.0094 -0.4655 -0.5843
  154TMC2    C2 2393   2.436   0.301   0.951 -0.3111 -0.3210 -0.8080
  154TMC2    C3 2394   2.502   0.197   1.012 -0.4702 -0.5994  0.1617
  154TMC2    C4 2395   2.405   0.155   0.757 -0.5833 -0.6194  0.0273
  154TMC2    C5 2396   2.446   0.048   0.838  0.6791  0.4551  0.4643
  154TMC2    C6 2397   2.495   0.070   0.965 -1.1854  0.5973 -0.2275
  154TMC2     C 2398   2.305   0.381   0.767  0.1411 -0.1834 -0.3476
  154TMC2     O 2399   2.321   0.495   0.805  0.0161  0.2359  0.1767
  154TMC2     H 2400   2.426   0.395   1.003 -1.7368 -1.5679  1.1824
  154TMC2    H1 2401   2.373   0.140   0.655  0.5404 -1.6802 -0.1712
  154TMC2    H2 2402   2.536   4.728   1.028 -0.5412  0.4536 -0.8259
  154TMC2    C7 2403   2.455   4.649   0.778 -1.0051 -0.4186  0.3782
  154TMC2    C8 2404   2.567   0.223   1.142  0.1347  0.1713  0.5998
  154TMC2    O1 2405   2.521   4.576   0.849 -0.3445  0.3803  0.3357
  154TMC2    O2 2406   2.584   0.136   1.230 -0.1640 -0.0808 -0.1615
  154TMC2    O5 2407   2.629   0.339   1.122  0.3323 -0.0617 -0.5627
  154TMC2    H5 2408   2.615   0.391   1.039  0.8554  0.5725 -0.2516
  155MPD2     C 2409   2.080   0.342   0.481  0.1526  0.1794 -0.3014
  155MPD2    C1 2410   2.136   0.404   0.585 -0.3690 -0.8599 -0.1565
  155MPD2    C2 2411   2.095   0.538   0.612  0.2279  0.2118 -0.1025
  155MPD2    C3 2412   1.999   0.607   0.532 -0.3612 -0.0030 -0.1777
  155MPD2    C4 2413   1.962   0.535   0.421  0.7402 -0.2533  1.0787
  155MPD2    C5 2414   1.997   0.413   0.403  0.1545 -0.3013  0.3932
  155MPD2     H 2415   2.130   0.584   0.703 -2.7980  0.4281  0.9470
  155MPD2    H1 2416   1.900   0.574   0.341  1.1068  2.4728  2.1062
  155MPD2    H2 2417   2.118   0.245   0.451 -2.6028 -0.2990 -2.2388
  155MPD2    H3 2418   1.949   0.357   0.323 -0.9140 -1.0849  1.5738
  155MPD2     N 2419   1.959   0.744   0.554  0.2475  0.2870 -0.0675
  155MPD2    H5 2420   1.999   0.790   0.635  2.3204 -0.5637 -0.5928
  155MPD2    N1 2421   2.231   0.336   0.662  0.2378  0.3641 -0.2947
  155MPD2    H7 2422   2.246   0.243   0.624 -3.2678 -0.7621  1.0778
  156TMC2    C1 2423   0.161   2.161  11.864  0.0976 -0.0264 -0.2206
  156TMC2    C2 2424   0.279   2.080  11.872 -0.4229 -0.9217 -0.3775
  156TMC2    C3 2425   0.314   2.010  11.763  0.2248 -0.4989  0.3440
  156TMC2    C4 2426   0.091   2.172  11.748  0.1360 -0.0390  0.1934
  156TMC2    C5 2427   0.148   2.119  11.631  0.2577  0.8913  1.1614
  156TMC2    C6 2428   0.258   2.034  11.641  0.3601  0.4339  0.2877
  156TMC2     C 2429   0.092   2.217  11.978 -0.7688 -0.3548 -0.0527
  156TMC2     O 2430   4.726   2.285  11.962 -0.2256  0.0631 -0.3517
  156TMC2     H 2431   0.326   2.059  11.968  0.9219 -1.9124 -1.2683
  156TMC2    H1 2432   4.726   2.212  11.745  0.5593  0.9775 -0.7340
  156TMC2    H2 2433   0.292   1.969  11.560  1.2443 -0.3311  1.2730
  156TMC2    C7 2434   0.090   2.128  11.497  0.5806 -0.0744  0.2183
  156TMC2    C8 2435   0.451   1.971  11.757 -0.1560 -0.7066 -0.2461
  156TMC2    O1 2436   0.121   2.042  11.415  0.2359  0.1201 -0.0247
  156TMC2    O2 2437   0.522   2.017  11.670  0.1282  0.3760 -0.0802
  156TMC2    O5 2438   0.491   1.937  11.879  0.4142 -0.0581 -0.0562
  156TMC2    H5 2439   0.420   1.885  11.924 -0.2929  0.4576 -0.5836
  157MPD2     C 2440   0.195   2.174  12.329  0.2573 -0.0828  0.0278
  157MPD2    C1 2441   0.129   2.227  12.222 -0.1409  0.6627  0.1439
  157MPD2    C2 2442   0.037   2.324  12.250  0.2085  0.3984 -0.2345
  157MPD2    C3 2443   4.728   2.361  12.377 -0.2652  0.7407 -1.3346
  157MPD2    C4 2444   0.060   2.303  12.486 -0.4118 -0.0726  0.0044
  157MPD2    C5 2445   0.160   2.215  12.456 -0.4466  0.2013 -0.0903
  157MPD2     H 2446   4.712   2.376  12.177  0.9544 -0.0394 -1.1665
  157MPD2    H1 2447   0.049   2.336  12.589 -0.0841  2.0625 -0.6431
  157MPD2    H2 2448   0.275   2.102  12.315 -0.8894 -1.6032  1.2404
  157MPD2    H3 2449   0.221   2.185  12.540  1.3093  2.4788 -0.5514
  157MPD2     N 2450   4.626   2.458  12.377  0.5311 -0.2776 -0.0340
  157MPD2    H5 2451   4.585   2.491  12.289  0.2369  0.2228  0.2886
  157MPD2    N1 2452   0.154   2.178  12.092  0.2289 -0.5817  0.2463
  157MPD2    H7 2453   0.224   2.104  12.089  0.4806 -0.2724 -1.1074
  158TMC2    C1 2454   0.302   1.775  13.990  0.2482  0.4204  0.1383
  158TMC2    C2 2455   0.258   1.898  14.033 -0.4669 -0.1337  0.4224
  158TMC2    C3 2456   0.133   1.942  13.976  0.0586  1.2997 -0.6555
  158TMC2    C4 2457   0.235   1.693  13.908 -0.4963  0.1343  0.2223
  158TMC2    C5 2458   0.123   1.746  13.856 -0.0874 -1.0342 -0.1930
  158TMC2    C6 2459   0.075   1.867  13.886  0.6976  1.4386 -0.1024
  158TMC2     C 2460   0.432   1.734  14.044  0.3538 -0.3719 -0.0441
  158TMC2     O 2461   0.481   1.800  14.134 -0.2724 -0.7273  0.2298
  158TMC2     H 2462   0.315   1.963  14.097  0.1123 -0.0708 -0.1621
  158TMC2    H1 2463   0.265   1.598  13.865 -1.5116  1.3694 -3.2639
  158TMC2    H2 2464   4.718   1.895  13.837  0.6068  0.7786 -0.3134
  158TMC2    C7 2465   0.033   1.664  13.780 -0.3261  0.0640  0.5529
  158TMC2    C8 2466   0.053   2.044  14.035  0.0569 -0.2859  0.4652
  158TMC2    O1 2467   4.702   1.726  13.695  0.3862 -1.2028 -0.1322
  158TMC2    O2 2468   4.701   2.110  13.977 -0.7490 -0.1518 -0.4954
  158TMC2    O5 2469   0.072   2.036  14.169  0.2924  0.0154  0.3254
  158TMC2    H5 2470   0.138   1.968  14.196  1.5578  1.3322  0.5666
  159MPD2     C 2471   0.859   1.468  14.002  0.0413 -0.0467 -0.5938
  159MPD2    C1 2472   0.756   1.376  13.988  0.4571  0.3524 -0.5181
  159MPD2    C2 2473   0.629   1.426  13.982 -0.5798  0.1297 -0.4522
  159MPD2    C3 2474   0.597   1.559  13.997  0.5843  0.3960 -0.0362
  159MPD2    C4 2475   0.704   1.651  14.013 -0.1187  0.3163  0.5976
  159MPD2    C5 2476   0.835   1.599  14.022  0.2630  0.4652 -0.6226
  159MPD2     H 2477   0.538   1.367  13.980  0.5370 -1.5696 -0.8781
  159MPD2    H1 2478   0.695   1.758  14.024 -1.3661  0.1406  1.3908
  159MPD2    H2 2479   0.965   1.445  14.009  0.2340  1.0262  0.1248
  159MPD2    H3 2480   0.918   1.667  14.038 -0.0400  1.1268 -1.9545
  159MPD2     N 2481   0.470   1.608  13.988  0.0344 -0.2345 -0.0217
  159MPD2    H5 2482   0.407   1.548  13.936  0.9317 -0.0371 -1.3258
  159MPD2    N1 2483   0.790   1.240  13.992 -0.3028 -0.3099  0.4146
  159MPD2    H7 2484   0.884   1.204  14.008 -0.7671 -0.2614  3.1954
  160TMC2    C1 2485   0.788   4.561   1.164  0.4394 -0.5669  0.6844
  160TMC2    C2 2486   0.870   4.489   1.238  0.5915  0.4994 -0.2549
  160TMC2    C3 2487   0.989   4.546   1.285 -0.1911  0.5648 -0.8793
  160TMC2    C4 2488   0.823   4.688   1.127  0.4590  0.0902 -0.7208
  160TMC2    C5 2489   0.944   0.001   1.164  0.6387  0.2528  0.8577
  160TMC2    C6 2490   1.030   4.670   1.239  0.1903  0.8839  0.3663
  160TMC2     C 2491   0.675   4.501   1.104  0.1688  0.3064  0.9492
  160TMC2     O 2492   0.660   4.384   1.127  0.1516  0.3314  0.1170
  160TMC2     H 2493   0.845   4.390   1.274  0.5235  1.1540  1.5237
  160TMC2    H1 2494   0.767   0.012   1.057 -0.2969 -0.1187 -0.2913
  160TMC2    H2 2495   1.128   4.713   1.259  1.3495 -1.8952  0.6576
  160TMC2    C7 2496   0.975   0.135   1.119 -0.9723  0.4385  0.4559
  160TMC2    C8 2497   1.091   4.469   1.360  0.0521 -0.9406  0.4640
  160TMC2    O1 2498   1.062   0.194   1.185  0.2603  0.2574 -0.2829
  160TMC2    O2 2499   1.172   4.533   1.428 -0.0975 -0.2397  0.1671
  160TMC2    O5 2500   1.035   4.352   1.392  0.1367  0.5354  0.4029
  160TMC2    H5 2501   0.988   4.297   1.326 -0.3143  0.5761  0.6831
  161MPD2     C 2502   0.435   4.426   0.939 -0.1870 -0.4172  0.0521
  161MPD2    C1 2503   0.478   4.558   0.963 -0.2442  0.3995  0.1489
  161MPD2    C2 2504   0.419   4.658   0.893  0.2441  0.9222  0.0289
  161MPD2    C3 2505   0.320   4.628   0.803  0.0794  0.3864  0.2664
  161MPD2    C4 2506   0.279   4.507   0.781 -0.5059  0.0527  0.3443
  161MPD2    C5 2507   0.328   4.410   0.857 -0.4083  0.6285  0.7863
  161MPD2     H 2508   0.455   0.022   0.912 -0.0793 -0.0164  5.3953
  161MPD2    H1 2509   0.204   4.492   0.703 -0.7590 -0.5145  0.6972
  161MPD2    H2 2510   0.470   4.340   0.995 -2.5356 -1.8037 -0.6365
  161MPD2    H3 2511   0.287   4.310   0.850 -0.8626  0.8930 -0.2429
  161MPD2     N 2512   0.250   4.733   0.734  0.4993 -0.0373 -0.6648
  161MPD2    H5 2513   0.194   4.706   0.653 -0.0131 -2.7520  0.5886
  161MPD2    N1 2514   0.589   4.594   1.045 -0.0651  0.3582  0.0655
  161MPD2    H7 2515   0.614   4.692   1.038  1.4667 -0.1682 -1.8782
  162TMC2    C1 2516   3.455   1.957   0.972 -0.1687 -0.5231  0.4854
  162TMC2    C2 2517   3.461   2.093   0.991  0.3861 -0.2382 -0.2752
  162TMC2    C3 2518   3.510   2.136   1.111  0.3202  0.3010 -0.0792
  162TMC2    C4 2519   3.498   1.865   1.068 -0.6226 -0.8069  0.6598
  162TMC2    C5 2520   3.568   1.908   1.179 -0.4265 -0.0789  0.3060
  162TMC2    C6 2521   3.567   2.047   1.211 -0.4347 -0.3025 -0.0003
  162TMC2     C 2522   3.379   1.913   0.858 -0.0439 -0.4455  0.1286
  162TMC2     O 2523   3.365   1.792   0.839 -0.0821 -0.6015 -0.2977
  162TMC2     H 2524   3.442   2.169   0.916  1.3960 -0.0288 -0.3112
  162TMC2    H1 2525   3.488   1.758   1.053  1.1054 -1.0230  1.0826
  162TMC2    H2 2526   3.618   2.079   1.301 -0.7557  1.3212 -0.4103
  162TMC2    C7 2527   3.620   1.820   1.282 -0.0724  0.2454  0.2609
  162TMC2    C8 2528   3.531   2.277   1.139 -0.2159  0.3579  0.9253
  162TMC2    O1 2529   3.659   1.869   1.387  0.0124  0.3837 -0.0207
  162TMC2    O2 2530   3.541   2.315   1.253 -0.5209 -0.0499  0.2015
  162TMC2    O5 2531   3.561   2.343   1.032 -0.1935  0.0243 -0.2507
  162TMC2    H5 2532   3.569   2.284   0.955  4.2812  1.8257 -1.1959
  163MPD2     C 2533   3.028   1.988   0.494 -0.1486 -0.0493  0.7875
  163MPD2    C1 2534   3.110   1.882   0.515 -0.0078 -0.7304 -0.2374
  163MPD2    C2 2535   3.216   1.887   0.606  0.4717  0.5573 -0.2982
  163MPD2    C3 2536   3.228   1.992   0.694  1.1153 -0.2132  0.3913
  163MPD2    C4 2537   3.152   2.100   0.669 -0.2645  0.4656  0.8571
  163MPD2    C5 2538   3.063   2.102   0.561  0.1820  0.9324  0.4105
  163MPD2     H 2539   3.291   1.808   0.613 -0.1930  0.1887  2.6541
  163MPD2    H1 2540   3.171   2.191   0.725  0.8317  1.6238 -1.3869
  163MPD2    H2 2541   2.949   1.988   0.420 -2.2291 -1.6086  3.0263
  163MPD2    H3 2542   3.015   2.196   0.538  0.4948  0.2798 -2.9186
  163MPD2     N 2543   3.328   2.016   0.786  0.4197  0.7702 -0.1725
  163MPD2    H5 2544   3.329   2.107   0.831 -1.0692  0.1338  1.1379
  163MPD2    N1 2545   3.089   1.775   0.424 -0.2015 -0.0616  0.0427
  163MPD2    H7 2546   3.012   1.783   0.359 -1.1287 -2.7432  0.7997
  164TMC2    C1 2547   3.246   0.887  11.614 -0.2786  0.1315  0.2488
  164TMC2    C2 2548   3.294   0.984  11.700  0.0136 -0.3747  0.0597
  164TMC2    C3 2549   3.277   1.117  11.667  0.7130  0.7014 -0.3688
  164TMC2    C4 2550   3.176   0.920  11.506 -0.3331 -0.4726 -0.6150
  164TMC2    C5 2551   3.163   1.048  11.472  0.6791  0.2700  0.0973
  164TMC2    C6 2552   3.209   1.152  11.552 -0.0237  0.2221 -0.0375
  164TMC2     C 2553   3.285   0.750  11.648  0.7347 -0.3647  0.2757
  164TMC2     O 2554   3.332   0.736  11.757 -0.5152  0.1257  0.2595
  164TMC2     H 2555   3.329   0.953  11.798  0.2693 -2.1494 -0.5924
  164TMC2    H1 2556   3.115   0.856  11.443 -0.6822  1.4423 -2.2259
  164TMC2    H2 2557   3.201   1.258  11.533 -2.5957 -0.4224 -2.6284
  164TMC2    C7 2558   3.084   1.093  11.354  0.2541  0.3199 -0.3596
  164TMC2    C8 2559   3.326   1.225  11.747 -0.4412 -0.2450  0.2965
  164TMC2    O1 2560   2.985   1.020  11.332 -0.6420  0.2640 -0.0114
  164TMC2    O2 2561   3.306   1.343  11.714  0.7593  0.0872 -0.2170
  164TMC2    O5 2562   3.437   1.186  11.814  1.1891 -0.2795 -0.3692
  164TMC2    H5 2563   3.447   1.090  11.832 -1.2431 -0.4728  0.0365
  165TMC2    C1 2564   0.514   3.519   0.498 -0.4578  0.4408 -0.6768
  165TMC2    C2 2565   0.578   3.401   0.532  0.6955  0.4569  0.2191
  165TMC2    C3 2566   0.711   3.407   0.568 -1.1447  0.1853 -0.9101
  165TMC2    C4 2567   0.582   3.636   0.498  0.0247 -0.2685 -0.3737
  165TMC2    C5 2568   0.720   3.641   0.517  0.4430  0.7195  0.0913
  165TMC2    C6 2569   0.783   3.527   0.563  0.0355 -0.6800  0.0226
  165TMC2     C 2570   0.372   3.542   0.533 -0.0697  0.3094  0.4309
  165TMC2     O 2571   0.344   3.655   0.565  0.2000  0.1617  0.1305
  165TMC2     H 2572   0.523   3.308   0.522  1.3761  0.1715 -0.8484
  165TMC2    H1 2573   0.532   3.731   0.479  1.8185  0.6843 -0.3104
  165TMC2    H2 2574   0.883   3.533   0.606 -0.5682 -0.6324  1.4273
  165TMC2    C7 2575   0.771   3.771   0.565  0.5783 -0.0034  0.2248
  165TMC2    C8 2576   0.777   3.282   0.577  0.3465  0.1469 -0.3750
  165TMC2    O1 2577   0.892   3.791   0.568 -0.0376  0.5142 -0.3535
  165TMC2    O2 2578   0.720   3.181   0.615  0.3940  0.4936 -0.0499
  165TMC2    O5 2579   0.876   3.280   0.482  0.8045 -0.4536 -0.1528
  165TMC2    H5 2580   0.900   3.364   0.437 -1.6902 -1.0083 -2.5692
  166MPD2     C 2581   4.725   3.307   0.757 -0.0630 -0.4119  0.6982
  166MPD2    C1 2582   0.042   3.430   0.784 -0.7026 -0.0730 -0.8868
  166MPD2    C2 2583   0.132   3.481   0.692 -0.3637  0.5041 -0.5511
  166MPD2    C3 2584   0.174   3.403   0.585  0.1457 -0.7858  0.6778
  166MPD2    C4 2585   0.115   3.282   0.561 -0.6761 -0.3649  0.3792
  166MPD2    C5 2586   0.016   3.235   0.644  0.0483 -0.2296 -0.2059
  166MPD2     H 2587   0.183   3.570   0.726 -0.9743  0.1379  1.3635
  166MPD2    H1 2588   0.142   3.217   0.479  1.8448  1.3637 -0.1722
  166MPD2    H2 2589   4.651   3.257   0.818 -1.7896 -0.1564 -1.2060
  166MPD2    H3 2590   4.700   3.142   0.623 -2.5109  0.8016  1.4794
  166MPD2     N 2591   0.294   3.433   0.512 -0.0613 -0.3892  0.1864
  166MPD2    H5 2592   0.335   3.356   0.459 -2.5505  0.0065 -2.3460
  166MPD2    N1 2593   0.007   3.489   0.910  0.0958 -0.1175 -0.1885
  166MPD2    H7 2594   4.676   3.444   0.971 -0.8304  0.1920 -0.9602
  167TMC2    C1 2595   3.240   1.627  13.022 -0.7899 -0.4482 -0.6297
  167TMC2    C2 2596   3.286   1.616  13.155  0.2077 -0.9567 -0.5004
  167TMC2    C3 2597   3.216   1.536  13.242 -0.7830  0.2996 -0.3577
  167TMC2    C4 2598   3.145   1.536  12.977 -0.8510 -0.6462 -0.4870
  167TMC2    C5 2599   3.084   1.455  13.068 -0.8378  0.2514 -0.2725
  167TMC2    C6 2600   3.117   1.455  13.201  1.6451 -0.6831  0.0770
  167TMC2     C 2601   3.333   1.699  12.933  0.2469  0.1227  0.7807
  167TMC2     O 2602   3.424   1.759  12.983 -0.5245 -0.1300 -0.2106
  167TMC2     H 2603   3.379   1.668  13.177  0.5536 -2.0377  0.5471
  167TMC2    H1 2604   3.113   1.541  12.874 -0.7343  0.6356 -0.4673
  167TMC2    H2 2605   3.064   1.386  13.266  0.4549 -0.2584 -0.4299
  167TMC2    C7 2606   2.961   1.392  13.033 -0.5915  0.6831 -0.5796
  167TMC2    C8 2607   3.272   1.517  13.372 -0.2327 -0.5950  0.3527
  167TMC2    O1 2608   2.876   1.378  13.117 -0.0325  0.1815 -0.3262
  167TMC2    O2 2609   3.323   1.610  13.433  0.4609  0.4128 -0.4583
  167TMC2    O5 2610   3.244   1.396  13.421  0.0333  0.6088 -0.2477
  167TMC2    H5 2611   3.206   1.343  13.348  2.9793 -0.7070 -0.8292
  168MPD2     C 2612   3.488   1.806  12.701  0.1487 -0.1624  0.7434
  168MPD2    C1 2613   3.357   1.760  12.691 -0.2394 -0.3167 -0.5225
  168MPD2    C2 2614   3.288   1.744  12.572  0.0783 -0.3310  0.3031
  168MPD2    C3 2615   3.343   1.796  12.459 -0.2359  0.3302  0.2961
  168MPD2    C4 2616   3.469   1.853  12.469  0.5354 -0.4307  0.0045
  168MPD2    C5 2617   3.538   1.860  12.587 -0.5255 -0.5653  0.1688
  168MPD2     H 2618   3.186   1.709  12.573 -0.7751  2.1227 -1.2360
  168MPD2    H1 2619   3.527   1.899  12.390  0.9117  1.6732  1.4864
  168MPD2    H2 2620   3.550   1.801  12.790 -1.1256 -1.1807  1.5756
  168MPD2    H3 2621   3.637   1.904  12.580 -2.5265  4.0697  1.3994
  168MPD2     N 2622   3.293   1.795  12.329  0.0163  0.1194  0.2223
  168MPD2    H5 2623   3.355   1.831  12.257 -1.4565 -0.5613 -1.3801
  168MPD2    N1 2624   3.287   1.705  12.802  0.8058  0.3181 -0.3125
  168MPD2    H7 2625   3.207   1.648  12.774 -0.7340  1.7072  1.3344
  169MPD1     C 2626   4.609   1.080   8.761 -0.0669 -0.3578 -0.0331
  169MPD1    C1 2627   4.537   0.962   8.736 -0.4818  0.5482 -0.7829
  169MPD1    C2 2628   4.562   0.857   8.823 -0.3600 -0.6603 -0.3419
  169MPD1    C3 2629   4.668   0.856   8.914  0.1613 -0.7673  0.1705
  169MPD1    C4 2630   0.003   0.972   8.930 -0.4915  0.7185  0.3207
  169MPD1    C5 2631   4.705   1.080   8.857 -0.1336 -0.4910  0.1321
  169MPD1     H 2632   4.526   0.757   8.799  0.4100 -1.1911  0.7582
  169MPD1    H1 2633   0.096   0.981   8.985 -1.8334  0.8548  2.5501
  169MPD1    H2 2634   4.591   1.159   8.689  1.9961 -0.0507 -0.2024
  169MPD1    H3 2635   0.028   1.170   8.862 -3.9150  2.1387 -2.3037
  169MPD1     N 2636   4.706   0.741   8.980 -0.3099  0.3236 -0.0244
  169MPD1    H5 2637   0.059   0.751   9.028 -0.0728  0.0281 -0.4074
  169MPD1    N1 2638   4.449   0.964   8.630 -0.6292  0.1355 -0.5838
  169MPD1    H6 2639   4.426   0.883   8.574 -2.6458 -0.1003  0.5887
  169MPD1    H7 2640   4.475   1.043   8.571  0.7573  0.5782  0.6290
  170MPD1     C 2641   3.807   3.023  13.351  0.5564  0.8610 -0.1397
  170MPD1    C1 2642   3.748   3.039  13.476 -0.0579  0.8057  0.5188
  170MPD1    C2 2643   3.706   3.170  13.506  0.0113 -0.1067  0.0105
  170MPD1    C3 2644   3.716   3.274  13.418  0.6699  0.7809  0.2835
  170MPD1    C4 2645   3.776   3.252  13.291 -0.0997  0.1264  0.5982
  170MPD1    C5 2646   3.819   3.125  13.262 -0.1890 -0.2355  0.2968
  170MPD1     H 2647   3.661   3.203  13.599 -0.9774 -0.3954 -0.3693
  170MPD1    H1 2648   3.797   3.330  13.218 -1.7168  0.7243  0.7675
  170MPD1    H2 2649   3.844   2.925  13.324  1.7927  0.7777  1.8251
  170MPD1    H3 2650   3.862   3.102  13.165 -0.2896  1.6346 -0.1914
  170MPD1     N 2651   3.670   3.399  13.463  0.4178  0.1635 -0.0251
  170MPD1    H5 2652   3.623   3.386  13.552  2.9247  0.7946  1.3886
  170MPD1    N1 2653   3.752   2.935  13.572  0.4302  0.2105 -0.1189
  170MPD1    H6 2654   3.761   2.837  13.544 -0.3412 -0.8457  3.2607
  170MPD1    H7 2655   3.674   2.939  13.638 -0.6495  0.2311 -1.3960
  171MPD1     C 2656   2.636   0.180  15.145  0.5346  0.7342 -0.5297
  171MPD1    C1 2657   2.588   0.052  15.161 -0.0987  0.5417 -0.0830
  171MPD1    C2 2658   2.647   4.713  15.261 -0.3718 -0.2712 -0.2001
  171MPD1    C3 2659   2.751   0.013  15.343 -0.8301 -0.3760  1.1344
  171MPD1    C4 2660   2.797   0.140  15.326 -0.0264 -0.1755  0.6760
  171MPD1    C5 2661   2.740   0.221  15.224 -0.6683 -0.5069  0.4760
  171MPD1     H 2662   2.592   4.621  15.278  1.0100 -1.8398 -4.1716
  171MPD1    H1 2663   2.881   0.182  15.381 -1.1442  1.5093  1.1140
  171MPD1    H2 2664   2.583   0.250  15.081 -3.7815 -2.7272 -0.7933
  171MPD1    H3 2665   2.787   0.319  15.217  0.8864 -1.1451  1.8706
  171MPD1     N 2666   2.802   4.665  15.446  0.5386  0.0222  0.0936
  171MPD1    H5 2667   2.875   4.708  15.502 -1.2269  1.1655  1.5260
  171MPD1    N1 2668   2.464   0.021  15.113  0.0284  0.4903 -0.4443
  171MPD1    H6 2669   2.465   4.657  15.090 -3.9175  0.5138 -0.8764
  171MPD1    H7 2670   2.452   0.071  15.025  0.3728  0.5752 -0.4389
  172MPD1     C 2671   1.962   3.465   0.165  0.1598  0.7002 -0.0369
  172MPD1    C1 2672   1.842   3.526   0.152 -0.2814  0.3618 -0.5146
  172MPD1    C2 2673   1.825   3.662   0.162  0.3899  0.6032 -0.4587
  172MPD1    C3 2674   1.939   3.740   0.187  0.1854 -0.2536  1.2291
  172MPD1    C4 2675   2.062   3.684   0.199  0.2883 -0.4029 -0.1426
  172MPD1    C5 2676   2.070   3.545   0.183 -0.2207 -0.6224  0.0811
  172MPD1     H 2677   1.727   3.703   0.141 -0.3323 -0.8632  0.0772
  172MPD1    H1 2678   2.158   3.732   0.211 -0.6446  1.0344  1.6063
  172MPD1    H2 2679   1.983   3.363   0.136  1.1242  0.4182  1.6224
  172MPD1    H3 2680   2.171   3.509   0.165 -0.2497 -0.5994 -0.1293
  172MPD1     N 2681   1.933   3.882   0.167 -0.1314 -0.2460 -0.5321
  172MPD1    H5 2682   2.020   3.934   0.161  0.9263 -1.9232  0.2863
  172MPD1    N1 2683   1.729   3.441   0.145  0.3375 -0.1085  0.0984
  172MPD1    H6 2684   1.732   3.342   0.125 -1.2140 -0.0270 -0.5289
  172MPD1    H7 2685   1.665   3.474   0.073 -0.7206  0.4345  1.2872
  173MPD1     C 2686   2.843   4.192  13.919  0.5264 -0.2462  0.0681
  173MPD1    C1 2687   2.853   4.250  14.043 -0.3688  0.0814 -0.2289
  173MPD1    C2 2688   2.877   4.172  14.160 -0.6528  0.0155 -0.4704
  173MPD1    C3 2689   2.906   4.036  14.149 -0.1657 -0.3259 -0.4010
  173MPD1    C4 2690   2.898   3.980  14.024  0.4870  0.7187  0.1704
  173MPD1    C5 2691   2.874   4.056  13.908 -0.4239 -0.3490 -0.0334
  173MPD1     H 2692   2.883   4.211  14.261  1.1306  2.4219 -1.4883
  173MPD1    H1 2693   2.921   3.875  14.010 -2.5538 -0.1592  1.8536
  173MPD1    H2 2694   2.822   4.244  13.826  0.1095  2.0730  1.4536
  173MPD1    H3 2695   2.875   4.007  13.812  1.2078  1.0035 -0.7136
  173MPD1     N 2696   2.951   3.943  14.250  0.4682  0.1517 -0.0315
  173MPD1    H5 2697   2.972   3.849  14.220 -0.4267 -0.0276 -0.1106
  173MPD1    N1 2698   2.810   4.383  14.067  0.3672 -0.4550  0.9178
  173MPD1    H6 2699   2.831   4.441  13.986 -1.2475 -2.1381 -0.6953
  173MPD1    H7 2700   2.848   4.426  14.151  3.3328  1.0039 -1.1730
  174MPD1     C 2701   3.610   3.213  14.521  0.1205  0.5032  0.0606
  174MPD1    C1 2702   3.627   3.327  14.440 -0.2148 -0.3247  0.1045
  174MPD1    C2 2703   3.515   3.406  14.432  0.4630  0.1197 -0.0702
  174MPD1    C3 2704   3.398   3.381  14.495 -0.0285  0.8703 -0.0979
  174MPD1    C4 2705   3.376   3.263  14.564  0.0417  0.5705  0.6739
  174MPD1    C5 2706   3.489   3.185  14.580 -0.5801 -0.0087  1.0135
  174MPD1     H 2707   3.529   3.499  14.379  0.3606  1.0242  1.4805
  174MPD1    H1 2708   3.284   3.241  14.617 -0.9853 -3.4114 -2.7772
  174MPD1    H2 2709   3.688   3.140  14.541  2.3400  2.9536  0.2861
  174MPD1    H3 2710   3.475   3.099  14.644  2.2752 -2.2174 -1.3403
  174MPD1     N 2711   3.293   3.483  14.497  0.5707 -0.2392 -0.1304
  174MPD1    H5 2712   3.217   3.460  14.561 -0.9322 -0.3025 -1.9425
  174MPD1    N1 2713   3.752   3.365  14.399  0.4176 -0.1959 -0.4572
  174MPD1    H6 2714   3.811   3.289  14.364  2.2190  0.2120  1.6722
  174MPD1    H7 2715   3.748   3.439  14.330  0.1544 -0.0286 -0.2628
  175MPD1     C 2716   1.597   0.271  15.105 -0.4368  0.4850  0.2250
  175MPD1    C1 2717   1.465   0.242  15.139  0.7984  0.7214 -0.4548
  175MPD1    C2 2718   1.450   0.161  15.254 -0.0037 -0.8042 -0.0975
  175MPD1    C3 2719   1.552   0.107  15.328 -0.2667 -0.1688  0.4071
  175MPD1    C4 2720   1.682   0.132  15.291 -0.1268  0.3673 -0.0486
  175MPD1    C5 2721   1.696   0.217  15.181  0.0473 -0.1837  0.1940
  175MPD1     H 2722   1.351   0.139  15.291 -0.6550 -1.6667 -2.3011
  175MPD1    H1 2723   1.772   0.109  15.348  0.2019 -0.4528 -0.9037
  175MPD1    H2 2724   1.619   0.325  15.014 -0.1145  0.3609  0.2282
  175MPD1    H3 2725   1.796   0.245  15.148  0.1417  0.3998  0.9767
  175MPD1     N 2726   1.530   0.005  15.435 -0.3448 -0.3309  0.6129
  175MPD1    H5 2727   1.612   4.712  15.488 -0.2928 -0.0887  0.6627
  175MPD1    N1 2728   1.357   0.304  15.070 -0.1987  0.1384 -0.0825
  175MPD1    H6 2729   1.270   0.252  15.073  0.6111 -1.2998 -0.9319
  175MPD1    H7 2730   1.377   0.323  14.972  1.6885  0.2113  0.3168
  176MPD1     C 2731   2.874   1.703   0.047 -0.3551  0.1931  0.1583
  176MPD1    C1 2732   2.878   1.813   0.138 -0.3093  0.3984  1.1129
  176MPD1    C2 2733   2.938   1.929   0.093  0.0645  0.3848  0.6556
  176MPD1    C3 2734   2.984   1.943  17.706  0.3442  0.2996  0.0731
  176MPD1    C4 2735   2.964   1.844  17.617 -0.2122 -0.2912 -0.4360
  176MPD1    C5 2736   2.919   1.720  17.660  0.0599  0.2373  0.2535
  176MPD1     H 2737   2.955   2.011   0.162  1.1144  1.7877 -1.3055
  176MPD1    H1 2738   2.994   1.849  17.512 -0.8996  0.5523 -0.5937
  176MPD1    H2 2739   2.835   1.603   0.065  0.1700 -0.3044 -1.4453
  176MPD1    H3 2740   2.920   1.643  17.583 -0.5169  1.4135 -0.9289
  176MPD1     N 2741   3.051   2.064  17.672 -0.3317 -0.3865  0.2878
  176MPD1    H5 2742   3.052   2.139  17.740  3.2136  0.2550 -0.4688
  176MPD1    N1 2743   2.845   1.797   0.276 -0.0312  0.1017  0.8185
  176MPD1    H6 2744   2.814   1.885   0.316 -0.4418  0.7076 -0.8364
  176MPD1    H7 2745   2.779   1.723   0.296  0.0459 -0.2414 -0.1903
  177MPD1     C 2746   1.080   1.804   9.364 -0.4530  0.1494  1.1192
  177MPD1    C1 2747   0.998   1.906   9.402 -0.2897 -0.4692  0.0688
  177MPD1    C2 2748   0.893   1.927   9.321  0.0401  0.3262 -1.3811
  177MPD1    C3 2749   0.884   1.885   9.186  0.1633 -0.1101 -0.0595
  177MPD1    C4 2750   0.979   1.795   9.144 -1.0874  0.5618  0.1920
  177MPD1    C5 2751   1.077   1.757   9.236 -0.0577 -0.8432 -0.0287
  177MPD1     H 2752   0.815   1.993   9.359  0.4347 -0.3237  0.5470
  177MPD1    H1 2753   0.974   1.747   9.047 -0.0821 -1.0896  0.9486
  177MPD1    H2 2754   1.151   1.782   9.443  0.2752  0.8458  0.6700
  177MPD1    H3 2755   1.153   1.686   9.207  1.6937  1.7496 -1.7901
  177MPD1     N 2756   0.771   1.927   9.111  0.5928 -0.5843  0.1364
  177MPD1    H5 2757   0.715   1.993   9.164 -0.7707 -1.4474 -0.2358
  177MPD1    N1 2758   1.003   1.953   9.537  0.2697 -0.1612  0.1970
  177MPD1    H6 2759   0.977   2.050   9.551  0.5132 -0.0416 -0.1769
  177MPD1    H7 2760   1.094   1.938   9.580  0.4110  0.5403  0.1460
  178MPD1     C 2761   3.946   3.281  17.056  0.0686 -0.7262  0.2955
  178MPD1    C1 2762   3.860   3.175  17.053 -0.3308 -0.1756 -0.2015
  178MPD1    C2 2763   3.902   3.045  17.076  0.4009  0.1600  0.0935
  178MPD1    C3 2764   4.028   3.019  17.116  0.1161  0.0955  0.3379
  178MPD1    C4 2765   4.115   3.126  17.123  0.2121  0.3252  0.7424
  178MPD1    C5 2766   4.076   3.255  17.083 -0.2726  0.9249 -1.0979
  178MPD1     H 2767   3.828   2.967  17.060  0.4327  0.1666 -0.0790
  178MPD1    H1 2768   4.221   3.108  17.138  0.0098 -0.0745  1.6361
  178MPD1    H2 2769   3.910   3.381  17.036  2.5808 -0.0170 -0.6651
  178MPD1    H3 2770   4.154   3.330  17.077  0.7068  0.1169  1.5659
  178MPD1     N 2771   4.068   2.886  17.145 -0.2307 -0.2810 -0.2055
  178MPD1    H5 2772   4.169   2.872  17.149 -0.0505  0.4928 -2.0594
  178MPD1    N1 2773   3.724   3.202  17.022  0.6829  0.0200  0.2034
  178MPD1    H6 2774   3.705   3.301  17.006 -0.5614 -0.4248 -1.0197
  178MPD1    H7 2775   3.696   3.149  16.941 -0.1571  1.0546 -0.1803
  179MPD1     C 2776   3.703   1.212  15.189 -0.2394 -0.2770  0.6408
  179MPD1    C1 2777   3.714   1.208  15.325 -0.0508  0.3808  0.6535
  179MPD1    C2 2778   3.760   1.089  15.379  0.0740 -0.6871  0.0317
  179MPD1    C3 2779   3.798   0.983  15.297  0.0476 -0.6582 -0.4283
  179MPD1    C4 2780   3.801   1.001  15.161 -1.0537 -0.3056  0.6742
  179MPD1    C5 2781   3.748   1.112  15.107  0.1454  0.2266 -0.0843
  179MPD1     H 2782   3.769   1.079  15.486  0.4873  1.1556  0.1819
  179MPD1    H1 2783   3.843   0.928  15.093 -1.1101 -1.2614  1.6640
  179MPD1    H2 2784   3.663   1.301  15.140 -1.7066 -0.8009  0.8977
  179MPD1    H3 2785   3.745   1.118  14.999  0.4567 -0.4439 -0.1311
  179MPD1     N 2786   3.834   0.853  15.346 -0.3738 -0.4728  0.4528
  179MPD1    H5 2787   3.848   0.779  15.279  1.6081  1.8073 -1.6293
  179MPD1    N1 2788   3.666   1.313  15.404  0.3561 -0.0182  0.0997
  179MPD1    H6 2789   3.692   1.403  15.366  0.0940  0.7877  1.8235
  179MPD1    H7 2790   3.711   1.308  15.495  0.4938 -2.1333 -0.0710
  180MPD1     C 2791   3.298   2.861  14.927 -0.4434  0.1914 -0.8141
  180MPD1    C1 2792   3.413   2.850  14.861 -0.2060  0.5119 -0.3060
  180MPD1    C2 2793   3.450   2.727  14.818  0.5725  0.2094 -0.5226
  180MPD1    C3 2794   3.367   2.615  14.825 -0.0586 -0.0154 -0.2451
  180MPD1    C4 2795   3.246   2.634  14.881  0.6912  0.6399 -0.4222
  180MPD1    C5 2796   3.214   2.753  14.941 -0.1670 -0.4932 -0.7308
  180MPD1     H 2797   3.551   2.724  14.778  0.0843 -1.4904 -1.6423
  180MPD1    H1 2798   3.181   2.547  14.891  0.8441  0.4855 -0.8129
  180MPD1    H2 2799   3.260   2.952  14.971  0.4989  0.1345  0.0971
  180MPD1    H3 2800   3.128   2.750  15.006 -0.2217 -1.2347 -0.8351
  180MPD1     N 2801   3.421   2.494  14.790  0.1155 -0.7544 -0.1878
  180MPD1    H5 2802   3.508   2.493  14.738  0.3037  3.3651  0.0026
  180MPD1    N1 2803   3.504   2.951  14.848 -0.6663 -0.6375  0.4857
  180MPD1    H6 2804   3.458   3.041  14.861  1.7066  0.5362  0.6513
  180MPD1    H7 2805   3.567   2.935  14.770  0.1275 -1.5099  1.3074
  181MPD1     C 2806   4.236   3.625  10.428 -0.1824 -0.0809 -0.0376
  181MPD1    C1 2807   4.299   3.751  10.414  0.5839 -0.0333 -0.1406
  181MPD1    C2 2808   4.420   3.749  10.342 -0.1722 -0.2134 -0.2353
  181MPD1    C3 2809   4.457   3.646  10.261 -0.4265  0.3896  0.2345
  181MPD1    C4 2810   4.392   3.527  10.280  0.6837 -0.7642  0.8080
  181MPD1    C5 2811   4.282   3.513  10.367 -0.1719  0.2248 -0.9575
  181MPD1     H 2812   4.483   3.836  10.358  0.2636 -0.3370 -1.2340
  181MPD1    H1 2813   4.435   3.435  10.242 -1.6218 -2.2080  1.6977
  181MPD1    H2 2814   4.151   3.621  10.496 -0.4611  2.3401 -0.2383
  181MPD1    H3 2815   4.240   3.417  10.392  2.4757 -0.6592  0.1181
  181MPD1     N 2816   4.578   3.650  10.185 -0.1753 -1.0879 -0.7290
  181MPD1    H5 2817   4.616   3.557  10.167 -0.6732 -1.5586  0.5873
  181MPD1    N1 2818   4.261   3.871  10.473 -0.0652  0.4911  0.2405
  181MPD1    H6 2819   4.298   3.958  10.437  2.3273 -1.1372 -1.2981
  181MPD1    H7 2820   4.169   3.880  10.515 -0.8131 -0.1652 -1.2613
  182MPD1     C 2821   1.594   3.060   1.471  0.0335  0.1914  0.7167
  182MPD1    C1 2822   1.606   2.962   1.372  0.2144 -0.5932  0.0308
  182MPD1    C2 2823   1.498   2.950   1.279  0.3347 -0.4320  0.0948
  182MPD1    C3 2824   1.389   3.035   1.280  0.0562 -0.8902 -0.7017
  182MPD1    C4 2825   1.391   3.136   1.380 -0.1235 -0.4245  0.2440
  182MPD1    C5 2826   1.489   3.142   1.471 -0.3680 -0.4389 -0.3780
  182MPD1     H 2827   1.509   2.872   1.205  0.6660 -0.3429  0.0476
  182MPD1    H1 2828   1.311   3.207   1.394 -0.9312 -1.4233  0.7627
  182MPD1    H2 2829   1.671   3.081   1.544  0.1220  0.6708  0.4819
  182MPD1    H3 2830   1.481   3.209   1.555 -1.1482  0.3011 -1.0537
  182MPD1     N 2831   1.283   3.027   1.185 -1.0252  0.2284  0.1361
  182MPD1    H5 2832   1.204   3.090   1.198  0.1987  1.4922  1.5607
  182MPD1    N1 2833   1.709   2.867   1.390  0.2787 -0.5103  0.1721
  182MPD1    H6 2834   1.794   2.912   1.422 -0.2612  0.8303 -0.2814
  182MPD1    H7 2835   1.733   2.831   1.298 -1.0985  0.5705 -0.6066
  183MPD1     C 2836   0.761   2.827   8.606  0.1661  0.4651 -0.0970
  183MPD1    C1 2837   0.787   2.785   8.737  0.6573 -0.5167  0.1186
  183MPD1    C2 2838   0.741   2.873   8.834  0.6459 -0.1620 -0.0622
  183MPD1    C3 2839   0.655   2.978   8.814 -0.1855  0.4386  0.0360
  183MPD1    C4 2840   0.618   3.003   8.686 -0.3359 -0.4234  0.6221
  183MPD1    C5 2841   0.673   2.925   8.587  0.0806 -0.2220 -0.2913
  183MPD1     H 2842   0.775   2.860   8.937 -0.2356 -1.8121  0.0198
  183MPD1    H1 2843   0.550   3.081   8.653  0.4855 -0.1296 -0.3548
  183MPD1    H2 2844   0.811   2.776   8.524  1.0351  1.7231 -0.3517
  183MPD1    H3 2845   0.642   2.951   8.487  2.0519  0.0710 -0.8415
  183MPD1     N 2846   0.609   3.054   8.927 -0.1697  0.1273 -0.1093
  183MPD1    H5 2847   0.653   3.029   9.015 -0.8146 -0.1144  0.1475
  183MPD1    N1 2848   0.888   2.689   8.762  0.0850  0.5061  0.4770
  183MPD1    H6 2849   0.890   2.615   8.692 -1.6044  1.2954 -0.4060
  183MPD1    H7 2850   0.870   2.647   8.853 -2.2077 -1.3301 -0.8115
  184MPD1     C 2851   0.443   0.453  10.183 -0.1606  0.2882 -0.0129
  184MPD1    C1 2852   0.318   0.493  10.151  0.4847 -0.0472 -0.3068
  184MPD1    C2 2853   0.306   0.593  10.051 -0.1144 -0.1629  0.3052
  184MPD1    C3 2854   0.416   0.653   9.994  0.3999 -0.2113 -0.5519
  184MPD1    C4 2855   0.541   0.605  10.028  0.2651 -0.0659 -0.0063
  184MPD1    C5 2856   0.551   0.512  10.126 -0.6116 -1.2560 -0.5351
  184MPD1     H 2857   0.205   0.613  10.017  0.9481  1.8437 -1.6578
  184MPD1    H1 2858   0.632   0.647   9.988  1.1548 -2.8983 -0.9850
  184MPD1    H2 2859   0.466   0.367  10.244 -3.1956 -1.5965 -1.5603
  184MPD1    H3 2860   0.644   0.474  10.168 -0.7201 -0.4265  0.4331
  184MPD1     N 2861   0.399   0.756   9.902 -0.4923  0.3379  0.3712
  184MPD1    H5 2862   0.489   0.795   9.877 -0.2992 -0.2014  0.2147
  184MPD1    N1 2863   0.210   0.426  10.193 -0.5037 -0.0580 -0.1777
  184MPD1    H6 2864   0.219   0.367  10.276  0.5396 -0.8919 -0.9019
  184MPD1    H7 2865   0.133   0.491  10.206 -0.6116  0.1022 -1.6365
  185MPD1     C 2866   4.364   0.951   9.281 -0.1902  0.1026 -0.1942
  185MPD1    C1 2867   4.479   0.996   9.217 -0.6022  0.5048  0.7119
  185MPD1    C2 2868   4.599   1.018   9.291 -0.1265  0.6242 -0.0546
  185MPD1    C3 2869   4.597   0.986   9.424 -0.1288  0.1730 -0.3533
  185MPD1    C4 2870   4.480   0.934   9.483  0.1453  0.3749 -0.2097
  185MPD1    C5 2871   4.360   0.923   9.417 -0.4968  0.5582 -0.9966
  185MPD1     H 2872   4.690   1.053   9.243 -1.0948  0.4720 -1.9852
  185MPD1    H1 2873   4.482   0.907   9.588  2.1936 -0.8687 -0.5776
  185MPD1    H2 2874   4.275   0.943   9.219  0.2228  0.9170 -0.8807
  185MPD1    H3 2875   4.275   0.880   9.469 -0.8593  0.2719 -1.8230
  185MPD1     N 2876   4.722   0.991   9.512 -0.3854  0.6582 -0.5150
  185MPD1    H5 2877   4.717   0.961   9.609 -1.0619 -0.2895 -0.8355
  185MPD1    N1 2878   4.474   1.042   9.088 -0.8959 -0.2396 -0.3231
  185MPD1    H6 2879   4.567   1.046   9.047 -1.2785  2.8383 -0.8911
  185MPD1    H7 2880   4.412   0.981   9.035 -1.4677  1.7722 -1.9495
  186MPD1     C 2881   4.371   0.409  15.996  0.1228  0.5788  0.2598
  186MPD1    C1 2882   4.448   0.508  15.961  0.3656  0.2635 -0.2654
  186MPD1    C2 2883   4.424   0.638  16.011  0.7486 -0.2868  0.2614
  186MPD1    C3 2884   4.309   0.669  16.078  0.2040  0.2861 -0.7127
  186MPD1    C4 2885   4.225   0.565  16.110  0.0425  0.3199 -0.0054
  186MPD1    C5 2886   4.257   0.440  16.062  0.8500 -0.1448 -0.0644
  186MPD1     H 2887   4.488   0.720  15.982 -0.3517 -0.3941 -2.5337
  186MPD1    H1 2888   4.132   0.577  16.165 -0.3938  0.9589 -0.8765
  186MPD1    H2 2889   4.398   0.311  15.958  0.0594  0.1260  1.3890
  186MPD1    H3 2890   4.174   0.373  16.080 -0.0939  0.6601 -1.4622
  186MPD1     N 2891   4.273   0.794  16.128 -0.4181 -0.8337 -0.9074
  186MPD1    H5 2892   4.203   0.779  16.201  1.5018 -0.8132  0.9325
  186MPD1    N1 2893   4.572   0.485  15.902  0.1511 -0.1792 -0.1909
  186MPD1    H6 2894   4.606   0.567  15.852 -1.5135  1.0517  0.6994
  186MPD1    H7 2895   4.573   0.413  15.830  0.5304 -3.1021  2.7505
  187MPD1     C 2896   3.871   2.787  17.690  0.3143 -0.3013 -0.4756
  187MPD1    C1 2897   3.748   2.750  17.739 -0.2485  0.1791  0.0194
  187MPD1    C2 2898   3.632   2.786  17.670 -0.2641  0.2676 -0.3947
  187MPD1    C3 2899   3.645   2.886  17.570  0.4850  0.0854  0.1144
  187MPD1    C4 2900   3.776   2.927  17.530 -0.0307  0.1265 -0.1040
  187MPD1    C5 2901   3.888   2.871  17.586 -0.6912 -0.6496 -0.4228
  187MPD1     H 2902   3.532   2.770  17.707  0.0999  0.3702  0.6283
  187MPD1    H1 2903   3.792   3.002  17.453 -2.7535  1.1698  0.3439
  187MPD1    H2 2904   3.955   2.760   0.011 -0.9873 -2.1139  0.5153
  187MPD1    H3 2905   3.986   2.911  17.561 -1.2057  1.4830  0.9003
  187MPD1     N 2906   3.536   2.959  17.503 -0.3764 -0.5610  0.3157
  187MPD1    H5 2907   3.563   3.025  17.431 -1.5104 -0.8482 -0.3548
  187MPD1    N1 2908   3.742   2.654   0.098 -0.8215  0.3258  0.0367
  187MPD1    H6 2909   3.821   2.665   0.162  0.1031 -0.3355 -0.9932
  187MPD1    H7 2910   3.667   2.677   0.163 -0.8580 -0.5720  0.3118
  188MPD1     C 2911   2.721   2.658  10.789 -0.5741  0.1799 -0.0048
  188MPD1    C1 2912   2.607   2.640  10.715  0.1412 -0.2623 -0.7099
  188MPD1    C2 2913   2.573   2.515  10.664  0.1035  0.4157  0.2639
  188MPD1    C3 2914   2.666   2.413  10.670  0.4176  0.2835  0.4582
  188MPD1    C4 2915   2.791   2.437  10.721  0.1652 -0.3828  0.0989
  188MPD1    C5 2916   2.813   2.559  10.787  0.9192  0.7197 -0.1871
  188MPD1     H 2917   2.482   2.504  10.607  0.0216 -2.2388  0.9192
  188MPD1    H1 2918   2.876   2.370  10.732 -0.8275 -2.1160 -2.9170
  188MPD1    H2 2919   2.761   2.755  10.816 -0.9979  0.7188 -1.3159
  188MPD1    H3 2920   2.906   2.577  10.839  0.1051  2.4874  0.6574
  188MPD1     N 2921   2.643   2.278  10.609 -0.1236 -0.6511 -0.5778
  188MPD1    H5 2922   2.721   2.212  10.609 -2.4389 -3.4050 -0.1575
  188MPD1    N1 2923   2.526   2.753  10.681 -0.0275 -0.0171  0.2809
  188MPD1    H6 2924   2.430   2.731  10.657 -0.7864  0.5290  2.8640
  188MPD1    H7 2925   2.526   2.813  10.763 -0.5130  1.8681 -1.0954
  189MPD1     C 2926   0.628   3.818   0.076  0.4593  0.4609 -0.0070
  189MPD1    C1 2927   0.524   3.738   0.114 -0.3447 -0.3053  0.3214
  189MPD1    C2 2928   0.401   3.796   0.153  0.1641  0.0539 -0.6161
  189MPD1    C3 2929   0.384   3.935   0.135 -0.2970  0.3172 -0.6821
  189MPD1    C4 2930   0.484   4.012   0.080  0.0550 -0.2965  0.0627
  189MPD1    C5 2931   0.607   3.952   0.047  0.3993 -0.7142  0.3072
  189MPD1     H 2932   0.313   3.742   0.184  0.6062 -0.1653  0.2489
  189MPD1    H1 2933   0.458   4.110   0.043 -0.9745 -1.1417 -1.4818
  189MPD1    H2 2934   0.727   3.778   0.061  1.0810  2.8200 -2.1659
  189MPD1    H3 2935   0.684   4.014   0.003 -0.1044 -0.3632 -0.0859
  189MPD1     N 2936   0.260   3.993   0.157 -0.4992  0.3213 -0.3228
  189MPD1    H5 2937   0.185   3.929   0.181 -1.0956  0.8788 -0.7118
  189MPD1    N1 2938   0.551   3.606   0.128 -0.2452 -0.2329  0.2107
  189MPD1    H6 2939   0.618   3.571   0.059  0.1403  1.0986 -0.0873
  189MPD1    H7 2940   0.472   3.542   0.134 -0.6592  0.0223 -2.3506
  190MPD1     C 2941   3.342   2.245  15.489  0.2298 -0.7787 -0.3983
  190MPD1    C1 2942   3.433   2.145  15.501 -0.0107 -0.1055 -0.9888
  190MPD1    C2 2943   3.557   2.181  15.539 -0.0297  0.3287 -0.3440
  190MPD1    C3 2944   3.596   2.305  15.582 -0.3124 -0.1387 -0.0221
  190MPD1    C4 2945   3.504   2.409  15.570 -0.4932 -0.2754  0.0330
  190MPD1    C5 2946   3.378   2.370  15.528  0.2107  0.5396 -0.1381
  190MPD1     H 2947   3.624   2.097  15.547 -0.0250  0.3549 -0.1205
  190MPD1    H1 2948   3.535   2.513  15.571 -0.8229 -0.1466 -2.9288
  190MPD1    H2 2949   3.236   2.236  15.467 -0.2730  0.7986  1.4018
  190MPD1    H3 2950   3.300   2.443  15.541  0.0744 -0.0495  2.3137
  190MPD1     N 2951   3.733   2.329  15.629 -0.2788 -0.2506  0.8419
  190MPD1    H5 2952   3.800   2.253  15.633 -0.7537 -0.8245 -1.8606
  190MPD1    N1 2953   3.407   2.030  15.431  0.4078 -0.3090  0.5063
  190MPD1    H6 2954   3.313   1.996  15.450  0.2471  0.6084  1.3189
  190MPD1    H7 2955   3.472   1.959  15.465  0.9853  0.4534  0.9873
  191MPD1     C 2956   2.762   0.522  12.159  0.1905  1.1465  0.0768
  191MPD1    C1 2957   2.683   0.472  12.057 -0.4079  0.2924  0.5537
  191MPD1    C2 2958   2.664   0.341  12.048 -0.2496 -0.1810 -0.4126
  191MPD1    C3 2959   2.738   0.253  12.121  0.3489 -0.0216  1.1180
  191MPD1    C4 2960   2.837   0.295  12.204 -0.6072 -0.9490 -0.1971
  191MPD1    C5 2961   2.840   0.430  12.232  0.7156 -0.0909  0.1936
  191MPD1     H 2962   2.585   0.314  11.978  0.0600 -1.2504 -0.3581
  191MPD1    H1 2963   2.909   0.226  12.246 -0.9954 -2.0985 -1.4134
  191MPD1    H2 2964   2.782   0.628  12.174  1.2183  1.4904 -3.8232
  191MPD1    H3 2965   2.913   0.473  12.299  0.8317  0.6396 -0.4042
  191MPD1     N 2966   2.725   0.116  12.099  0.3383 -0.5693  0.0490
  191MPD1    H5 2967   2.657   0.097  12.026 -0.6893 -0.5728  0.9969
  191MPD1    N1 2968   2.607   0.563  11.979  0.6048 -0.0820  0.5772
  191MPD1    H6 2969   2.636   0.660  11.980 -0.5453  0.2670 -0.5379
  191MPD1    H7 2970   2.576   0.531  11.887 -2.1398 -0.5404  1.6452
  192MPD1     C 2971   2.148   4.080  11.728 -0.0330 -0.3673  0.6233
  192MPD1    C1 2972   2.231   4.169  11.659  0.9103 -0.5555  0.2434
  192MPD1    C2 2973   2.308   4.258  11.738 -0.0196  0.1574  0.0389
  192MPD1    C3 2974   2.341   4.230  11.870  0.1154 -0.0620 -0.0031
  192MPD1    C4 2975   2.287   4.119  11.927  0.3950  0.0265  0.1092
  192MPD1    C5 2976   2.181   4.052  11.866  0.0151 -0.4126  0.3359
  192MPD1     H 2977   2.365   4.340  11.697  1.1914 -0.4047  0.5809
  192MPD1    H1 2978   2.309   4.101  12.032  0.7165  2.4903  0.4600
  192MPD1    H2 2979   2.071   4.030  11.671 -1.3151  1.4700  0.7254
  192MPD1    H3 2980   2.112   3.989  11.920  0.3628 -2.4663 -1.6212
  192MPD1     N 2981   2.425   4.315  11.946  0.0520 -0.1124 -0.6213
  192MPD1    H5 2982   2.458   4.272  12.032  0.6512  1.0868 -0.2442
  192MPD1    N1 2983   2.203   4.205  11.525 -1.0798  0.2037  0.1382
  192MPD1    H6 2984   2.181   4.124  11.466  0.1302  1.4949 -2.1003
  192MPD1    H7 2985   2.261   4.275  11.478 -1.9431 -0.4528 -1.9401
  193MPD1     C 2986   2.518   4.474  15.788 -0.9582  0.3072  0.2441
  193MPD1    C1 2987   2.564   4.602  15.778  0.4020 -0.7289  0.0782
  193MPD1    C2 2988   2.597   4.667  15.895  0.2138 -0.0873 -0.2256
  193MPD1    C3 2989   2.616   4.595  16.018 -0.5405  0.1581  0.2591
  193MPD1    C4 2990   2.586   4.467  16.025  0.4645 -0.4362  0.5253
  193MPD1    C5 2991   2.532   4.404  15.912 -0.0618 -0.3442  0.8640
  193MPD1     H 2992   2.603   0.040  15.896  2.5724 -0.2148 -0.4756
  193MPD1    H1 2993   2.598   4.410  16.116 -2.3646 -2.4746 -0.4014
  193MPD1    H2 2994   2.472   4.436  15.698  0.8127 -0.3193 -0.3998
  193MPD1    H3 2995   2.498   4.301  15.916 -0.8580 -0.0739  1.0430
  193MPD1     N 2996   2.666   4.663  16.136 -0.1634 -0.0064 -0.2029
  193MPD1    H5 2997   2.710   4.603  16.205  0.4603 -2.3023 -2.5752
  193MPD1    N1 2998   2.553   4.677  15.659 -0.1895  0.2517 -0.6458
  193MPD1    H6 2999   2.609   0.026  15.651 -0.5053  0.4572 -0.6491
  193MPD1    H7 3000   2.556   4.629  15.569  0.4674 -1.7125  0.4038
  194MPD1     C 3001   0.584   2.037  16.805 -0.2994 -0.5960 -0.2140
  194MPD1    C1 3002   0.500   1.969  16.873  0.2270 -0.1646 -0.4753
  194MPD1    C2 3003   0.512   1.832  16.883  0.0165  0.1987  0.1760
  194MPD1    C3 3004   0.598   1.766  16.800  0.5107  0.5263 -0.3162
  194MPD1    C4 3005   0.671   1.829  16.708 -0.0790 -0.0609 -0.2157
  194MPD1    C5 3006   0.668   1.963  16.720  0.8006 -0.0925  0.5544
  194MPD1     H 3007   0.445   1.783  16.952 -0.6752  2.6824  1.2792
  194MPD1    H1 3008   0.752   1.780  16.654 -0.3454  0.8475 -1.4459
  194MPD1    H2 3009   0.605   2.144  16.814 -1.1595 -0.2889 -1.8483
  194MPD1    H3 3010   0.747   2.026  16.680 -0.7249  2.2445  1.2937
  194MPD1     N 3011   0.632   1.627  16.823  0.1576 -0.5535 -0.5825
  194MPD1    H5 3012   0.689   1.586  16.750  1.3627  1.8012 -0.9637
  194MPD1    N1 3013   0.411   2.039  16.955  0.1354  0.0231 -0.5688
  194MPD1    H6 3014   0.379   2.128  16.919 -1.4937 -0.6541 -0.7827
  194MPD1    H7 3015   0.330   1.983  16.981  0.2352  0.6046  0.9481
  195MPD1     C 3016   2.642   4.032   0.147 -0.0771  0.4739  0.2206
  195MPD1    C1 3017   2.701   3.978   0.029  0.3073 -0.6811 -0.5560
  195MPD1    C2 3018   2.737   3.844   0.032  0.6543  0.1773 -0.2520
  195MPD1    C3 3019   2.695   3.759   0.131  0.0404 -0.2031 -0.2257
  195MPD1    C4 3020   2.617   3.809   0.229 -0.2472 -0.0637  0.1859
  195MPD1    C5 3021   2.601   3.945   0.249  0.0876  1.0123 -0.3311
  195MPD1     H 3022   2.802   3.811  17.693  0.4839 -0.1544 -0.2520
  195MPD1    H1 3023   2.572   3.753   0.311  0.5476 -1.4227 -0.3019
  195MPD1    H2 3024   2.623   4.139   0.148  0.5884  0.6019 -0.5137
  195MPD1    H3 3025   2.543   3.982   0.333 -0.5094  1.2622 -0.8467
  195MPD1     N 3026   2.736   3.626   0.141 -0.0553  0.4592  0.1780
  195MPD1    H5 3027   2.699   3.576   0.221  1.6444 -2.3584 -0.7929
  195MPD1    N1 3028   2.740   4.067  17.671  0.7542 -0.1881 -0.1497
  195MPD1    H6 3029   2.761   4.025  17.581 -2.3892  1.4749 -1.6526
  195MPD1    H7 3030   2.697   4.159  17.662 -1.5854 -1.1736  1.1102
  196MPD1     C 3031   1.786   2.625   0.361  0.1257  0.6365 -0.0674
  196MPD1    C1 3032   1.748   2.754   0.332 -0.3330 -1.2249 -0.2116
  196MPD1    C2 3033   1.843   2.852   0.334  0.4588  0.2195 -0.4518
  196MPD1    C3 3034   1.977   2.831   0.356  0.9709 -0.6448  0.1610
  196MPD1    C4 3035   2.011   2.698   0.382 -0.4030  0.7788  0.5610
  196MPD1    C5 3036   1.918   2.597   0.390 -0.0948  0.0539 -0.0255
  196MPD1     H 3037   1.807   2.951   0.309 -0.3223  0.0247 -0.1061
  196MPD1    H1 3038   2.112   2.674   0.414 -0.0904 -0.9780 -1.7337
  196MPD1    H2 3039   1.724   2.536   0.358 -1.2809  1.5873  0.4591
  196MPD1    H3 3040   1.951   2.498   0.420  0.5294  0.8040  1.7687
  196MPD1     N 3041   2.082   2.928   0.342 -0.2204 -0.2560  0.3506
  196MPD1    H5 3042   2.174   2.898   0.372 -1.0313 -0.6767  2.4020
  196MPD1    N1 3043   1.625   2.775   0.273  0.2332 -0.4410  0.5704
  196MPD1    H6 3044   1.548   2.715   0.303 -2.0267  2.6000  0.8335
  196MPD1    H7 3045   1.606   2.873   0.294 -1.6605 -0.3461 -1.4975
  197MPD1     C 3046   1.311   4.199  17.117 -0.0679 -0.1638  0.2758
  197MPD1    C1 3047   1.389   4.268  17.207  0.5703  0.6020  1.2723
  197MPD1    C2 3048   1.498   4.345  17.157 -0.6502 -0.2765 -0.1410
  197MPD1    C3 3049   1.518   4.345  17.019  0.2028 -0.4711 -0.9128
  197MPD1    C4 3050   1.442   4.270  16.932  0.8022  0.2305  0.7504
  197MPD1    C5 3051   1.333   4.197  16.976 -0.3565  0.0607 -0.3451
  197MPD1     H 3052   1.558   4.407  17.223 -1.0192  0.5648 -0.5908
  197MPD1    H1 3053   1.462   4.260  16.826 -1.7302 -0.9643  0.3924
  197MPD1    H2 3054   1.218   4.158  17.154 -0.8452  1.6958  0.4062
  197MPD1    H3 3055   1.263   4.145  16.911 -0.7897 -0.7546  0.7766
  197MPD1     N 3056   1.618   4.426  16.962  0.1244 -0.0464 -0.3880
  197MPD1    H5 3057   1.629   4.418  16.861 -0.6531 -1.1004 -0.3871
  197MPD1    N1 3058   1.343   4.290  17.338 -0.0762  0.5308 -0.8340
  197MPD1    H6 3059   1.258   4.343  17.324 -0.1080  0.2137 -1.8496
  197MPD1    H7 3060   1.404   4.349  17.394  0.1603  0.8150 -1.3926
  198MPD1     C 3061   3.391   3.540  15.682 -0.5951 -0.0783  0.2033
  198MPD1    C1 3062   3.432   3.532  15.815  0.1386 -0.4229 -0.3774
  198MPD1    C2 3063   3.530   3.625  15.858 -0.0595  0.4189 -0.0737
  198MPD1    C3 3064   3.600   3.698  15.768 -0.7127  0.6539  0.1137
  198MPD1    C4 3065   3.560   3.699  15.632  0.0613  0.2436 -0.5176
  198MPD1    C5 3066   3.460   3.621  15.597 -0.1613  0.0346  0.8357
  198MPD1     H 3067   3.550   3.631  15.965 -0.6253  0.9486 -0.0009
  198MPD1    H1 3068   3.611   3.754  15.554 -0.0815  0.4212 -0.4878
  198MPD1    H2 3069   3.316   3.470  15.648 -1.4478  0.8969  0.0781
  198MPD1    H3 3070   3.426   3.612  15.494  1.6490 -0.5405  0.2947
  198MPD1     N 3071   3.699   3.786  15.822 -0.2612 -0.0134  0.0787
  198MPD1    H5 3072   3.727   3.764  15.917 -0.0190 -1.9940 -0.4578
  198MPD1    N1 3073   3.361   3.459  15.915 -0.1829  0.7873 -0.2408
  198MPD1    H6 3074   3.431   3.432  15.984  1.0858 -1.0123 -2.2244
  198MPD1    H7 3075   3.314   3.380  15.871  1.4024 -0.2059 -0.1564
  199MPD1     C 3076   1.230   4.281   9.734 -0.3139 -0.8399  1.0748
  199MPD1    C1 3077   1.164   4.401   9.711 -0.9001  0.5855  0.2315
  199MPD1    C2 3078   1.025   4.387   9.691  0.5863  0.0791  0.0333
  199MPD1    C3 3079   0.961   4.267   9.726 -1.0602 -0.1674 -0.5688
  199MPD1    C4 3080   1.039   4.159   9.750 -0.6414  0.3607  0.5259
  199MPD1    C5 3081   1.170   4.163   9.753 -0.9280 -0.7070 -0.7389
  199MPD1     H 3082   0.972   4.479   9.668  0.4988 -0.5079 -2.0666
  199MPD1    H1 3083   0.991   4.063   9.767 -1.0946  0.4455 -0.3001
  199MPD1    H2 3084   1.338   4.285   9.746 -0.3222  1.4506  0.5310
  199MPD1    H3 3085   1.233   4.077   9.774 -2.9421 -1.7782  0.9660
  199MPD1     N 3086   0.822   4.246   9.709  0.0589  0.5609 -0.6635
  199MPD1    H5 3087   0.782   4.154   9.725  1.2370  0.0728 -0.5478
  199MPD1    N1 3088   1.240   4.511   9.667  0.0776 -0.2870  0.0038
  199MPD1    H6 3089   1.185   4.587   9.706  2.1290  0.5819  1.2060
  199MPD1    H7 3090   1.329   4.516   9.716  0.4288 -3.2651 -0.2736
  200MPD1     C 3091   4.667   4.354  15.541 -0.3192 -0.3706 -0.0650
  200MPD1    C1 3092   4.531   4.374  15.549 -0.0260 -0.1250  0.2603
  200MPD1    C2 3093   4.472   4.446  15.447 -0.5090  0.1354  0.1454
  200MPD1    C3 3094   4.536   4.468  15.327  1.4117 -0.8757 -0.3020
  200MPD1    C4 3095   4.661   4.425  15.313 -0.7096 -0.0979 -0.2759
  200MPD1    C5 3096   4.723   4.381  15.420 -0.0455  0.3942 -0.0909
  200MPD1     H 3097   4.365   4.465  15.450 -0.2537  1.3601  1.2641
  200MPD1    H1 3098   4.714   4.430  15.218 -2.9787  2.1135 -1.4328
  200MPD1    H2 3099   4.727   4.321  15.625  0.4342  1.4494  0.0959
  200MPD1    H3 3100   0.092   4.357  15.407 -0.1302  1.0828 -2.1111
  200MPD1     N 3101   4.457   4.531  15.226  0.0942  0.1123  0.4096
  200MPD1    H5 3102   4.368   4.566  15.258 -0.2963  0.3287 -0.9191
  200MPD1    N1 3103   4.465   4.367  15.669 -0.1102 -0.1637  0.2632
  200MPD1    H6 3104   4.364   4.374  15.674 -0.1752  0.6050 -2.0828
  200MPD1    H7 3105   4.505   4.296  15.731  0.3611 -0.0194  0.1266
  201MPD1     C 3106   2.720   3.892  12.733 -0.4582  0.3879  0.1685
  201MPD1    C1 3107   2.601   3.824  12.751 -0.4438 -0.9284  0.6837
  201MPD1    C2 3108   2.605   3.690  12.773 -0.4627 -0.0225 -0.0824
  201MPD1    C3 3109   2.719   3.617  12.778 -1.1325 -0.4014  0.4775
  201MPD1    C4 3110   2.845   3.678  12.754  0.2306  0.0722 -0.6079
  201MPD1    C5 3111   2.835   3.814  12.743  0.2061  0.4146 -0.0224
  201MPD1     H 3112   2.510   3.638  12.779 -0.7385  0.3417 -1.2933
  201MPD1    H1 3113   2.940   3.627  12.754 -1.0041 -2.2410 -1.1183
  201MPD1    H2 3114   2.729   3.997  12.706  0.0794  0.5324  0.9006
  201MPD1    H3 3115   2.927   3.870  12.730 -0.0991  0.8394 -0.3529
  201MPD1     N 3116   2.714   3.482  12.818  0.2238 -0.2011  0.1014
  201MPD1    H5 3117   2.625   3.451  12.857 -0.7376  1.2544 -0.9119
  201MPD1    N1 3118   2.478   3.892  12.736 -0.1142  0.0391  0.5879
  201MPD1    H6 3119   2.487   3.993  12.744 -0.0013  0.0875 -0.1092
  201MPD1    H7 3120   2.396   3.853  12.781 -0.8432 -0.8477 -1.5096
  202MPD1     C 3121   1.249   2.456   8.822  0.4700 -0.2602  0.0813
  202MPD1    C1 3122   1.306   2.353   8.897 -0.5146  0.7772 -0.7784
  202MPD1    C2 3123   1.302   2.371   9.037  0.2906 -0.4106 -0.6854
  202MPD1    C3 3124   1.210   2.463   9.094 -0.3375  0.4000 -0.0383
  202MPD1    C4 3125   1.137   2.546   9.008  0.0348  0.3248  0.8007
  202MPD1    C5 3126   1.168   2.548   8.872  0.6392 -0.0167 -0.0015
  202MPD1     H 3127   1.384   2.337   9.100 -0.8820 -0.0884  1.0107
  202MPD1    H1 3128   1.060   2.609   9.053  1.7775  0.9285  2.9233
  202MPD1    H2 3129   1.261   2.458   8.714 -0.7028  3.4512  0.0175
  202MPD1    H3 3130   1.111   2.606   8.801  0.2644  0.2960  0.5517
  202MPD1     N 3131   1.191   2.482   9.234  0.1852  0.3921  0.1510
  202MPD1    H5 3132   1.135   2.561   9.263  1.4221  0.6937  1.7174
  202MPD1    N1 3133   1.424   2.296   8.853 -0.3654 -0.2444  0.5655
  202MPD1    H6 3134   1.429   2.277   8.753 -1.1139  0.6575  0.3567
  202MPD1    H7 3135   1.473   2.229   8.912 -2.2596 -1.0221  1.2570
  203MPD1     C 3136   4.109   3.012  11.826  0.0122 -0.5080  0.1886
  203MPD1    C1 3137   4.220   2.986  11.746  0.9609 -0.4489 -0.2758
  203MPD1    C2 3138   4.339   2.948  11.812  0.2394 -0.1264  0.2123
  203MPD1    C3 3139   4.341   2.950  11.950 -0.5841  0.2812  0.2975
  203MPD1    C4 3140   4.233   2.992  12.026 -0.3188 -0.1245  0.4061
  203MPD1    C5 3141   4.114   3.019  11.966 -0.2090 -0.3837  0.7418
  203MPD1     H 3142   4.427   2.921  11.753  1.3047  0.5011  1.5078
  203MPD1    H1 3143   4.236   2.983  12.134  2.5785 -2.5424  0.1356
  203MPD1    H2 3144   4.013   3.043  11.786  0.1770  1.1833  1.1094
  203MPD1    H3 3145   4.023   3.038  12.021 -0.0832 -1.6964  1.3961
  203MPD1     N 3146   4.467   2.929  12.017  0.6015  0.3585  0.0937
  203MPD1    H5 3147   4.545   2.893  11.963 -0.1047 -1.6768  0.4013
  203MPD1    N1 3148   4.209   2.966  11.611  0.6806 -0.3626  1.2466
  203MPD1    H6 3149   4.299   2.977  11.566 -1.0285 -1.1250 -2.3616
  203MPD1    H7 3150   4.143   3.037  11.579  1.8883  0.2577  0.1575
  204MPD1     C 3151   0.368   0.617  17.162  0.2771 -1.2411 -0.1594
  204MPD1    C1 3152   0.401   0.568  17.037  0.1292 -0.4771  0.0868
  204MPD1    C2 3153   0.429   0.437  17.019  0.3458  0.0794 -0.6749
  204MPD1    C3 3154   0.416   0.348  17.131  0.7449 -0.0553 -0.6475
  204MPD1    C4 3155   0.377   0.403  17.251 -0.3995  0.3709  0.3749
  204MPD1    C5 3156   0.350   0.531  17.261 -0.2050 -0.6366 -0.1133
  204MPD1     H 3157   0.455   0.400  16.920 -0.4907  0.0200 -0.8673
  204MPD1    H1 3158   0.356   0.332  17.331 -0.0175  0.5066  0.5976
  204MPD1    H2 3159   0.340   0.721  17.178  0.5601 -1.0269 -1.0501
  204MPD1    H3 3160   0.317   0.578  17.353 -2.3475  0.7820 -1.6187
  204MPD1     N 3161   0.455   0.220  17.106 -0.1501  0.3841 -0.4944
  204MPD1    H5 3162   0.484   0.197  17.011  1.1076  2.8651 -0.7078
  204MPD1    N1 3163   0.436   0.657  16.935  0.0813 -0.0274  0.1817
  204MPD1    H6 3164   0.416   0.616  16.844  2.0809  0.6569 -0.5697
  204MPD1    H7 3165   0.391   0.749  16.940 -0.1657 -0.0975 -0.8111
  205MPD1     C 3166   1.039   3.504  16.875  0.3643  0.2092 -0.7002
  205MPD1    C1 3167   1.062   3.450  16.999 -0.2064  0.1770  0.0156
  205MPD1    C2 3168   0.978   3.471  17.102 -0.5868  0.0159 -0.0476
  205MPD1    C3 3169   0.865   3.553  17.078 -0.8035  0.3842 -0.4484
  205MPD1    C4 3170   0.845   3.611  16.956  0.2883  0.3719 -0.6307
  205MPD1    C5 3171   0.933   3.587  16.852 -0.0779  0.4452 -0.6700
  205MPD1     H 3172   0.996   3.421  17.196 -0.5049 -0.1769 -0.1662
  205MPD1    H1 3173   0.771   3.689  16.946  0.2830  0.6455  1.5271
  205MPD1    H2 3174   1.120   3.500  16.803  1.5155  2.7435  0.4578
  205MPD1    H3 3175   0.924   3.632  16.754 -0.5370  2.7834  0.4544
  205MPD1     N 3176   0.774   3.595  17.184 -0.2809 -0.2046  0.3942
  205MPD1    H5 3177   0.702   3.662  17.161 -0.3371 -0.6577 -0.7572
  205MPD1    N1 3178   1.183   3.384  17.030  0.1599 -0.2685 -0.3262
  205MPD1    H6 3179   1.203   3.328  16.947  0.7082 -0.4982 -0.0418
  205MPD1    H7 3180   1.162   3.312  17.098  0.4643  0.3062  0.3764
  206MPD1     C 3181   1.223   1.452  16.850  0.0204  0.1511 -0.1789
  206MPD1    C1 3182   1.122   1.547  16.841  0.4437  0.3531 -0.1948
  206MPD1    C2 3183   1.041   1.548  16.728 -0.1543  0.4964 -0.4518
  206MPD1    C3 3184   1.050   1.442  16.637  0.2749 -0.2875  0.0169
  206MPD1    C4 3185   1.141   1.342  16.660 -0.5132 -0.0171 -0.0208
  206MPD1    C5 3186   1.223   1.350  16.764  0.4825 -1.0357  0.0274
  206MPD1     H 3187   0.958   1.618  16.734  1.0155  1.6013  2.6406
  206MPD1    H1 3188   1.150   1.257  16.594  0.6863  0.8199 -0.9289
  206MPD1    H2 3189   1.294   1.450  16.932  0.8506 -0.5762 -0.9146
  206MPD1    H3 3190   1.298   1.273  16.771 -0.5725 -2.0755 -0.2057
  206MPD1     N 3191   0.963   1.419  16.526 -0.1679 -0.0691  0.3653
  206MPD1    H5 3192   0.993   1.349  16.459 -1.5456 -2.5167  2.3235
  206MPD1    N1 3193   1.112   1.645  16.941 -0.1964 -0.5477 -0.0017
  206MPD1    H6 3194   1.169   1.612  17.017  0.0176 -0.7669 -0.2597
  206MPD1    H7 3195   1.014   1.652  16.969  0.7109  0.9243  2.7734
  207MPD1     C 3196   2.437   4.403   9.602  0.2591  1.1179  0.0532
  207MPD1    C1 3197   2.437   4.267   9.632 -0.4312  0.0199 -1.3472
  207MPD1    C2 3198   2.539   4.220   9.715 -0.0115  0.2477  0.2634
  207MPD1    C3 3199   2.653   4.298   9.741 -0.4156  0.2340  0.3033
  207MPD1    C4 3200   2.657   4.422   9.679  0.6033  0.2878  0.0776
  207MPD1    C5 3201   2.553   4.475   9.616 -0.5234 -1.0722  0.5522
  207MPD1     H 3202   2.526   4.119   9.752  0.8224  0.1605  0.3098
  207MPD1    H1 3203   2.744   4.485   9.691  1.5364 -0.9938  0.0083
  207MPD1    H2 3204   2.349   4.449   9.558 -0.6957 -0.5084  0.2394
  207MPD1    H3 3205   2.559   4.578   9.584  1.1113 -1.7388 -1.2438
  207MPD1     N 3206   2.765   4.256   9.820 -0.1649  0.0292  0.0816
  207MPD1    H5 3207   2.832   4.331   9.829 -1.1452  0.9021  0.1480
  207MPD1    N1 3208   2.307   4.209   9.619 -0.5158 -0.0769  0.3933
  207MPD1    H6 3209   2.254   4.245   9.540  1.0856 -1.2017 -1.2004
  207MPD1    H7 3210   2.325   4.109   9.609  0.4890  0.1915 -0.4282
  208MPD1     C 3211   0.359   1.837  17.530  0.0028  0.4702 -0.3875
  208MPD1    C1 3212   0.328   1.950  17.457 -0.5919 -0.1874 -0.1093
  208MPD1    C2 3213   0.360   2.072  17.512 -0.5813 -0.5624 -0.0656
  208MPD1    C3 3214   0.433   2.081  17.632 -0.4957  0.5096 -0.1802
  208MPD1    C4 3215   0.465   1.960  17.701 -0.3512  0.3789 -0.5983
  208MPD1    C5 3216   0.420   1.843  17.653  0.3792 -0.1942  0.1953
  208MPD1     H 3217   0.317   2.159  17.466  0.8783  0.4204  0.4427
  208MPD1    H1 3218   0.515   1.960   0.056 -0.4162  1.0040 -0.5637
  208MPD1    H2 3219   0.322   1.742  17.494  0.2976 -0.4902  1.8154
  208MPD1    H3 3220   0.459   1.755  17.705  0.5578  0.7258  1.6333
  208MPD1     N 3221   0.462   2.211  17.677 -0.4999  0.2428  1.9557
  208MPD1    H5 3222   0.423   2.292  17.629  1.0990 -0.0839  0.0962
  208MPD1    N1 3223   0.238   1.933  17.349  0.2985  0.0317 -0.2518
  208MPD1    H6 3224   0.256   2.003  17.277 -0.7590  0.8080  0.2439
  208MPD1    H7 3225   0.242   1.839  17.310  0.7763 -0.9680  2.2079
  209MPD1     C 3226   2.438   2.607  10.111  0.1175 -0.0820  0.4826
  209MPD1    C1 3227   2.429   2.587  10.244 -0.5139  0.5126 -0.7534
  209MPD1    C2 3228   2.459   2.687  10.332  0.3241  0.3195 -0.7999
  209MPD1    C3 3229   2.495   2.812  10.283  0.1422  0.1425 -0.1116
  209MPD1    C4 3230   2.515   2.829  10.150 -0.0998  0.1599 -0.5513
  209MPD1    C5 3231   2.484   2.732  10.062  0.9744 -0.5419  0.1992
  209MPD1     H 3232   2.445   2.665  10.437 -2.2044 -1.7730 -1.6009
  209MPD1    H1 3233   2.551   2.923  10.110  0.0151  0.3832  0.0698
  209MPD1    H2 3234   2.417   2.524  10.045  1.2763  0.5125 -0.6385
  209MPD1    H3 3235   2.488   2.746   9.954  0.2919 -0.6167  0.1620
  209MPD1     N 3236   2.532   2.914  10.367 -0.9164 -0.3088  0.0527
  209MPD1    H5 3237   2.534   2.890  10.466  2.0627 -1.3332 -0.2536
  209MPD1    N1 3238   2.375   2.466  10.295  0.2831  0.6029 -0.4699
  209MPD1    H6 3239   2.386   2.386  10.233  2.0133  0.9242 -0.5814
  209MPD1    H7 3240   2.424   2.447  10.382  2.4336  0.9979 -1.5764
  210MPD1     C 3241   2.641   3.014  11.320  0.0992 -0.4554  0.8734
  210MPD1    C1 3242   2.559   2.947  11.231  0.7277 -0.6561 -0.4834
  210MPD1    C2 3243   2.568   2.973  11.096 -0.0505  0.6243 -0.3251
  210MPD1    C3 3244   2.648   3.084  11.054  0.9589 -0.2693  0.1286
  210MPD1    C4 3245   2.729   3.150  11.147  0.4047 -0.3100 -0.1114
  210MPD1    C5 3246   2.724   3.112  11.277  0.3167  0.4494  0.3623
  210MPD1     H 3247   2.509   2.910  11.030  1.0402 -0.9925  0.2300
  210MPD1    H1 3248   2.803   3.226  11.126  0.5002 -0.6700 -1.0986
  210MPD1    H2 3249   2.654   2.983  11.423  2.8526 -1.0771  0.3435
  210MPD1    H3 3250   2.788   3.159  11.350  1.1049 -0.3595  0.1854
  210MPD1     N 3251   2.660   3.124  10.919 -0.5076 -0.4619  0.3278
  210MPD1    H5 3252   2.735   3.192  10.905  1.2716 -3.0885 -2.8787
  210MPD1    N1 3253   2.481   2.838  11.276 -0.3168 -0.5127  0.2147
  210MPD1    H6 3254   2.414   2.814  11.202  2.1650  0.1906 -2.2509
  210MPD1    H7 3255   2.429   2.868  11.358  0.2421  0.0054  0.3806
  211MPD1     C 3256   1.337   3.086  16.110 -0.7107 -0.9541  0.5969
  211MPD1    C1 3257   1.250   2.995  16.164 -0.5231 -0.4763 -0.1549
  211MPD1    C2 3258   1.121   3.034  16.196  0.6615  0.4451  0.0403
  211MPD1    C3 3259   1.080   3.163  16.153  0.2290  0.9052 -0.3140
  211MPD1    C4 3260   1.172   3.248  16.105  0.5974 -0.0428  0.6153
  211MPD1    C5 3261   1.298   3.212  16.083  0.2838  0.2021 -0.3505
  211MPD1     H 3262   1.052   2.965  16.242 -0.6224  2.3757  1.0063
  211MPD1    H1 3263   1.151   3.351  16.079  1.4956 -0.4375 -1.6642
  211MPD1    H2 3264   1.434   3.067  16.066 -0.0474  0.5960  1.3760
  211MPD1    H3 3265   1.360   3.283  16.029 -0.2912  0.9140 -0.0689
  211MPD1     N 3266   0.944   3.199  16.176  0.0265 -0.4440 -0.2242
  211MPD1    H5 3267   0.888   3.124  16.215 -0.7539  0.7870  0.9897
  211MPD1    N1 3268   1.296   2.864  16.173  0.7558  0.0717  0.1185
  211MPD1    H6 3269   1.394   2.869  16.199  0.9136 -2.5193  0.0329
  211MPD1    H7 3270   1.244   2.814  16.245  0.9926  0.1314  0.3278
  212MPD1     C 3271   0.335   1.991  16.420 -0.8187  0.2356 -0.1645
  212MPD1    C1 3272   0.292   2.059  16.535  0.2124  0.4367 -0.4947
  212MPD1    C2 3273   0.189   1.997  16.607 -0.0919 -0.5859 -0.3303
  212MPD1    C3 3274   0.148   1.867  16.577  0.5120 -0.9582  1.0513
  212MPD1    C4 3275   0.216   1.790  16.483 -0.0875 -0.5422 -0.5776
  212MPD1    C5 3276   0.305   1.858  16.408  0.4431 -0.5980  0.4207
  212MPD1     H 3277   0.144   2.059  16.683 -0.9803 -1.5614 -0.0527
  212MPD1    H1 3278   0.187   1.687  16.466  1.7858 -0.9366 -1.3877
  212MPD1    H2 3279   0.418   2.033  16.366  1.5059 -1.1259  2.3398
  212MPD1    H3 3280   0.373   1.804  16.344 -0.3542 -1.5177  0.3471
  212MPD1     N 3281   0.041   1.808  16.646 -0.4163 -0.4887 -0.0164
  212MPD1    H5 3282   0.032   1.712  16.615  1.0916 -0.3477 -0.9321
  212MPD1    N1 3283   0.334   2.187  16.558 -0.3010 -0.8256 -0.1214
  212MPD1    H6 3284   0.427   2.208  16.522  0.3262 -0.5808  1.6645
  212MPD1    H7 3285   0.326   2.216  16.655  2.5135  2.9772 -1.0443
  213MPD1     C 3286   3.106   2.145  15.918  0.3801 -0.0998 -0.1994
  213MPD1    C1 3287   3.114   2.095  15.788  0.4764 -0.2501  1.3155
  213MPD1    C2 3288   3.077   2.185  15.690 -0.6224  0.6458  0.4496
  213MPD1    C3 3289   3.064   2.324  15.720 -0.3359  0.6098  0.1725
  213MPD1    C4 3290   3.086   2.370  15.847  0.6039 -0.2113  0.0976
  213MPD1    C5 3291   3.093   2.280  15.949  0.2675 -1.0725  1.1151
  213MPD1     H 3292   3.052   2.147  15.592 -2.0895 -0.5747  1.3008
  213MPD1    H1 3293   3.077   2.472  15.883 -1.4678 -0.7295  1.0704
  213MPD1    H2 3294   3.085   2.077  16.000  1.3565 -0.0023  0.1342
  213MPD1    H3 3295   3.093   2.302  16.055 -0.5240 -1.8169  1.2737
  213MPD1     N 3296   3.003   2.404  15.625  0.3689 -0.0202 -0.5874
  213MPD1    H5 3297   2.980   2.355  15.539  2.3459 -1.9136 -0.0616
  213MPD1    N1 3298   3.106   1.961  15.755 -0.8687 -0.8386 -0.1928
  213MPD1    H6 3299   3.174   1.907  15.807 -1.1435  0.2065  1.2414
  213MPD1    H7 3300   3.125   1.944  15.656  3.0591  0.1344  0.4112
  214MPD1     C 3301   2.625   2.051  15.017  0.5797 -0.3942 -0.1345
  214MPD1    C1 3302   2.588   2.174  14.969  0.2677 -0.5966 -1.0281
  214MPD1    C2 3303   2.630   2.290  15.049  0.4991  0.0838  0.2336
  214MPD1    C3 3304   2.711   2.275  15.157 -0.3320  0.3698  0.2170
  214MPD1    C4 3305   2.763   2.157  15.187 -0.2063  0.5993 -0.3796
  214MPD1    C5 3306   2.720   2.045  15.120 -0.4125 -0.1786 -0.2745
  214MPD1     H 3307   2.600   2.389  15.016  2.0941  0.6517  0.4880
  214MPD1    H1 3308   2.827   2.142  15.273 -0.0888  0.1006 -0.5563
  214MPD1    H2 3309   2.587   1.958  14.975  1.0664 -0.6037 -0.1065
  214MPD1    H3 3310   2.753   1.947  15.152 -1.4612 -0.0547  1.1690
  214MPD1     N 3311   2.758   2.380  15.238 -0.1586 -0.2126  0.1439
  214MPD1    H5 3312   2.835   2.355  15.299 -0.2663 -4.0306 -1.2787
  214MPD1    N1 3313   2.491   2.192  14.867 -1.1126 -0.5703 -0.5530
  214MPD1    H6 3314   2.500   2.121  14.794  3.7983 -0.2287 -0.2672
  214MPD1    H7 3315   2.502   2.285  14.827  0.7771 -0.6695 -0.2304
  215MPD1     C 3316   1.961   2.650  10.512 -0.3093 -0.3821  0.8495
  215MPD1    C1 3317   1.908   2.700  10.627  0.2697 -0.5379  0.7497
  215MPD1    C2 3318   1.967   2.810  10.687 -0.3498 -0.3359  0.2352
  215MPD1    C3 3319   2.073   2.880  10.630 -0.3568 -0.3790 -0.1596
  215MPD1    C4 3320   2.133   2.828  10.517  0.4793  0.5594  0.5282
  215MPD1    C5 3321   2.072   2.717  10.461  0.3037 -0.2425  0.4480
  215MPD1     H 3322   1.927   2.843  10.782 -0.9191  3.7631 -1.4464
  215MPD1    H1 3323   2.210   2.882  10.464  1.1894  1.5122  2.5487
  215MPD1    H2 3324   1.913   2.571  10.455 -0.8646  0.7398 -0.2378
  215MPD1    H3 3325   2.109   2.690  10.363 -0.4079 -0.0260  0.1138
  215MPD1     N 3326   2.139   2.990  10.693  0.2482  0.0162  0.0818
  215MPD1    H5 3327   2.229   3.014  10.653  0.1823 -0.3920 -0.3098
  215MPD1    N1 3328   1.792   2.639  10.680 -0.3019 -0.0446 -0.4320
  215MPD1    H6 3329   1.782   2.539  10.669  0.8295 -0.4500  2.2188
  215MPD1    H7 3330   1.771   2.665  10.776 -0.4912 -1.8936  0.0299
  216MPD1     C 3331   0.335   1.538  16.688  0.0230  0.5473 -0.0388
  216MPD1    C1 3332   0.313   1.406  16.675 -0.5861  0.0271  0.5559
  216MPD1    C2 3333   0.254   1.335  16.786  0.3219  0.2753  0.0597
  216MPD1    C3 3334   0.196   1.409  16.888  0.4406 -0.4884 -0.7571
  216MPD1    C4 3335   0.192   1.547  16.881 -0.2332 -0.0299  0.5276
  216MPD1    C5 3336   0.261   1.611  16.782  0.3816 -0.4812  0.2854
  216MPD1     H 3337   0.256   1.227  16.800  0.6105  0.0505 -1.6652
  216MPD1    H1 3338   0.132   1.601  16.953  0.2528  1.9915 -0.5937
  216MPD1    H2 3339   0.404   1.598  16.630  1.1513 -1.3874 -0.6675
  216MPD1    H3 3340   0.263   1.720  16.784 -1.2273 -0.4558  0.4046
  216MPD1     N 3341   0.132   1.329  16.990 -0.7637  0.0662 -0.8014
  216MPD1    H5 3342   0.138   1.228  16.980 -0.0145 -0.1139  1.3079
  216MPD1    N1 3343   0.397   1.335  16.592 -0.3679  0.0729 -0.0068
  216MPD1    H6 3344   0.398   1.389  16.506 -2.0481 -1.3935 -0.9530
  216MPD1    H7 3345   0.352   1.246  16.573 -2.1522  1.5073 -2.3990
  217MPD1     C 3346   0.196   3.238   7.981  0.0668 -0.0887  0.0594
  217MPD1    C1 3347   0.329   3.195   8.009 -0.8088 -0.6538 -0.3631
  217MPD1    C2 3348   0.343   3.092   8.098  0.5652  0.6856 -0.3545
  217MPD1    C3 3349   0.228   3.020   8.140 -0.3373  0.2596  0.5770
  217MPD1    C4 3350   0.104   3.058   8.096 -1.0672  0.3139 -0.3048
  217MPD1    C5 3351   0.086   3.162   8.017  0.9251  0.1667 -0.3391
  217MPD1     H 3352   0.443   3.072   8.133  0.2855 -1.8524 -0.9550
  217MPD1    H1 3353   0.016   2.997   8.112 -0.0189 -1.4890 -1.3742
  217MPD1    H2 3354   0.173   3.319   7.914 -0.1563 -1.4085 -1.4537
  217MPD1    H3 3355   4.724   3.182   7.975 -1.3201 -2.2128  3.7926
  217MPD1     N 3356   0.232   2.910   8.229  0.2014 -0.0211 -0.1728
  217MPD1    H5 3357   0.140   2.880   8.258 -0.5410  1.0326 -1.4516
  217MPD1    N1 3358   0.438   3.261   7.951  0.8374  0.2221  0.6273
  217MPD1    H6 3359   0.409   3.344   7.899 -0.1891  0.4661  1.5842
  217MPD1    H7 3360   0.497   3.312   8.018 -0.1933 -0.0491  1.7420
  218MPD1     C 3361   2.134   4.041  13.611  1.3470 -0.3566 -0.6530
  218MPD1    C1 3362   2.195   4.148  13.554  0.0870 -0.7526 -0.6974
  218MPD1    C2 3363   2.280   4.126  13.446  0.1043  0.6968  0.3934
  218MPD1    C3 3364   2.328   3.997  13.414  0.4692  1.3600 -0.1145
  218MPD1    C4 3365   2.261   3.893  13.470 -0.1775 -0.7132 -0.5595
  218MPD1    C5 3366   2.165   3.914  13.570  0.5495  0.0632 -0.4037
  218MPD1     H 3367   2.327   4.208  13.393  0.5475 -0.0319 -0.3339
  218MPD1    H1 3368   2.288   3.794  13.434  0.2083 -0.8290  0.0534
  218MPD1    H2 3369   2.053   4.056  13.682 -0.0243  2.0089 -2.7444
  218MPD1    H3 3370   2.118   3.836  13.630  0.5462  0.2854 -0.1176
  218MPD1     N 3371   2.418   3.982  13.305 -0.5680 -0.1383 -0.4645
  218MPD1    H5 3372   2.448   4.073  13.271 -0.6311 -0.0271 -0.2203
  218MPD1    N1 3373   2.155   4.278  13.589  0.7222 -0.0218 -0.1691
  218MPD1    H6 3374   2.145   4.284  13.690  0.1970 -0.9461 -0.1694
  218MPD1    H7 3375   2.209   4.354  13.547 -1.4773  2.2717  1.1124
  219MPD1     C 3376   3.010   4.489  12.720 -0.5181  0.4588 -0.0182
  219MPD1    C1 3377   2.873   4.479  12.736 -0.3259 -0.4115 -0.1079
  219MPD1    C2 3378   2.832   4.371  12.799 -0.4536  0.0031  0.3360
  219MPD1    C3 3379   2.908   4.272  12.855 -0.4202 -0.2693 -0.4958
  219MPD1    C4 3380   3.046   4.286  12.838 -0.1030 -0.0893  0.4266
  219MPD1    C5 3381   3.095   4.392  12.767 -0.5183 -0.6948 -0.1096
  219MPD1     H 3382   2.723   4.364  12.798 -0.2176 -3.3375 -0.6562
  219MPD1    H1 3383   3.118   4.218  12.881 -0.7708 -0.2788  1.2506
  219MPD1    H2 3384   3.047   4.576  12.667  2.7713 -0.1416  1.2774
  219MPD1    H3 3385   3.203   4.399  12.756 -0.4044 -0.7439  0.9078
  219MPD1     N 3386   2.864   4.159  12.929 -0.5312 -0.2369 -0.1370
  219MPD1    H5 3387   2.934   4.103  12.977  1.5747  0.7784 -2.0261
  219MPD1    N1 3388   2.782   4.562  12.666  0.5493  0.3863 -0.4897
  219MPD1    H6 3389   2.812   4.658  12.655  0.9187  0.0982 -2.1447
  219MPD1    H7 3390   2.692   4.553  12.713  0.1973  0.0942 -1.2185
  220MPD1     C 3391   1.769   4.151   9.630  0.2793 -0.3217  0.2175
  220MPD1    C1 3392   1.903   4.149   9.657  0.2249  0.2887  0.2522
  220MPD1    C2 3393   1.961   4.023   9.684 -0.2256  0.1863  0.0442
  220MPD1    C3 3394   1.890   3.911   9.707  0.4789  0.3501 -0.3049
  220MPD1    C4 3395   1.753   3.914   9.699 -0.5471  0.0390 -0.1786
  220MPD1    C5 3396   1.697   4.034   9.652  0.3651 -0.3009 -0.2735
  220MPD1     H 3397   2.069   4.017   9.691 -0.1700  3.0241  1.5159
  220MPD1    H1 3398   1.695   3.823   9.713  0.0073 -0.5426 -1.6668
  220MPD1    H2 3399   1.720   4.246   9.618 -0.0176 -0.6393 -1.1067
  220MPD1    H3 3400   1.590   4.035   9.639  0.4093 -1.4305 -0.7529
  220MPD1     N 3401   1.968   3.794   9.730  0.3491 -0.6801  0.1924
  220MPD1    H5 3402   2.068   3.813   9.726  0.2493 -0.3877 -0.8405
  220MPD1    N1 3403   1.985   4.257   9.628  0.1020  0.3562 -0.3436
  220MPD1    H6 3404   2.076   4.250   9.674 -0.9567  2.1364  2.0321
  220MPD1    H7 3405   1.936   4.343   9.652 -1.4696 -1.3900  2.6438
  221MPD1     C 3406   0.030   2.910  17.111  0.6251 -0.0521  0.3201
  221MPD1    C1 3407   0.028   2.822  17.003  0.2774 -0.2455 -0.2885
  221MPD1    C2 3408   0.131   2.831  16.912 -0.1254 -0.8022  0.4971
  221MPD1    C3 3409   0.232   2.922  16.927  0.2742 -0.7733 -0.1456
  221MPD1    C4 3410   0.248   2.988  17.040 -0.2126  0.3022 -0.3514
  221MPD1    C5 3411   0.146   2.983  17.132  0.4151  0.2878 -0.3487
  221MPD1     H 3412   0.129   2.776  16.818  2.8768  2.1264 -1.2777
  221MPD1    H1 3413   0.339   3.040  17.067  0.1367 -0.4890  0.0082
  221MPD1    H2 3414   4.694   2.904  17.191 -0.7671 -1.6426 -1.0494
  221MPD1    H3 3415   0.166   3.041  17.222 -1.9765 -0.2229  0.5214
  221MPD1     N 3416   0.336   2.933  16.836 -0.5910 -0.6793 -0.1985
  221MPD1    H5 3417   0.403   3.009  16.845 -0.9581 -0.1642 -1.8627
  221MPD1    N1 3418   4.642   2.747  16.974 -0.4337 -0.1545  0.0343
  221MPD1    H6 3419   4.668   2.661  16.926 -0.6411 -1.0863  1.5794
  221MPD1    H7 3420   4.585   2.731  17.058 -2.2007  0.2646 -1.0785
  222MPD1     C 3421   3.835   1.369   0.466 -0.0192 -0.3135 -0.2461
  222MPD1    C1 3422   3.898   1.399   0.353  0.5005 -0.3613 -0.3184
  222MPD1    C2 3423   4.006   1.485   0.354  0.1495  0.2273  0.1937
  222MPD1    C3 3424   4.032   1.548   0.467 -0.1658 -0.4190  0.1512
  222MPD1    C4 3425   3.948   1.552   0.575  0.0191 -0.3808  0.1026
  222MPD1    C5 3426   3.852   1.453   0.571  0.2334 -0.6464 -0.3570
  222MPD1     H 3427   4.068   1.492   0.265 -2.1951 -1.2275 -1.5508
  222MPD1    H1 3428   3.966   1.607   0.667  0.8011 -4.1812  2.2055
  222MPD1    H2 3429   3.758   1.293   0.465  2.3703 -2.7299 -1.2391
  222MPD1    H3 3430   3.793   1.428   0.659  0.5786  1.5665  0.5116
  222MPD1     N 3431   4.137   1.642   0.475  0.1681 -0.1697 -0.5480
  222MPD1    H5 3432   4.136   1.705   0.555  0.9500  0.1184 -0.7663
  222MPD1    N1 3433   3.873   1.323   0.238 -0.0690  0.4091  0.4655
  222MPD1    H6 3434   3.902   1.374   0.155  0.3071  0.6083  0.7194
  222MPD1    H7 3435   3.775   1.297   0.235  0.3119 -1.1833  2.1412
  223MPD1     C 3436   4.243   2.585   0.784 -0.1675  0.2442  0.3626
  223MPD1    C1 3437   4.355   2.566   0.702  0.3004 -1.0681  1.2607
  223MPD1    C2 3438   4.374   2.437   0.665  0.1763  0.2479 -0.2128
  223MPD1    C3 3439   4.280   2.335   0.675  0.0215 -0.6348 -0.0650
  223MPD1    C4 3440   4.159   2.367   0.724  0.0392  0.3152 -0.8535
  223MPD1    C5 3441   4.142   2.491   0.787 -0.2148 -0.4875 -0.1744
  223MPD1     H 3442   4.472   2.412   0.625  0.2750  0.4344 -0.0870
  223MPD1    H1 3443   4.075   2.297   0.724  0.6572 -0.4295  2.0700
  223MPD1    H2 3444   4.233   2.676   0.841  2.8719  0.6594  0.2452
  223MPD1    H3 3445   4.057   2.511   0.852  0.2623  0.7029  0.0978
  223MPD1     N 3446   4.309   2.217   0.608 -0.1472  0.8520 -0.2180
  223MPD1    H5 3447   4.398   2.225   0.561  1.0171  1.8027  2.1511
  223MPD1    N1 3448   4.453   2.661   0.699  0.2382 -0.1927  0.1339
  223MPD1    H6 3449   4.419   2.754   0.722 -1.3301 -0.6996 -0.1490
  223MPD1    H7 3450   4.511   2.665   0.615  0.5099  0.0174  0.3308
  224MPD1     C 3451   0.214   2.960   8.734  0.8167 -0.1410 -0.0816
  224MPD1    C1 3452   0.130   3.032   8.816  0.0805 -0.0891 -0.0908
  224MPD1    C2 3453   0.148   3.015   8.954  0.1846 -0.6150 -0.1898
  224MPD1    C3 3454   0.237   2.922   9.006  0.2517  0.1092 -0.6166
  224MPD1    C4 3455   0.319   2.855   8.919 -0.7418  0.1290 -0.6091
  224MPD1    C5 3456   0.310   2.875   8.787 -0.3445 -0.3360 -0.2661
  224MPD1     H 3457   0.098   3.082   9.024 -1.6057 -3.9743  1.7299
  224MPD1    H1 3458   0.396   2.789   8.955 -0.2816  0.1584 -1.5244
  224MPD1    H2 3459   0.201   2.979   8.628  0.1753 -0.3773 -0.0437
  224MPD1    H3 3460   0.386   2.832   8.723 -1.2286 -1.1492 -0.7578
  224MPD1     N 3461   0.255   2.891   9.146 -0.3953 -0.2130 -0.4689
  224MPD1    H5 3462   0.334   2.831   9.166 -0.2689  0.3247  0.6585
  224MPD1    N1 3463   0.031   3.113   8.759 -0.1038  0.7217 -0.2654
  224MPD1    H6 3464   4.723   3.067   8.679 -2.0563  0.8387  0.7143
  224MPD1    H7 3465   4.692   3.131   8.826  0.5498 -1.7425  1.0974
  225MPD1     C 3466   1.611   4.255  13.216  0.1654  0.5282  0.1010
  225MPD1    C1 3467   1.555   4.129  13.237 -0.0391 -0.2854 -0.1623
  225MPD1    C2 3468   1.476   4.076  13.128  0.0781 -0.5352 -0.0252
  225MPD1    C3 3469   1.439   4.147  13.016  0.2631 -0.7190 -0.1547
  225MPD1    C4 3470   1.482   4.280  13.009 -0.1552 -0.3488  0.6379
  225MPD1    C5 3471   1.561   4.327  13.107  0.0641  0.0346 -0.0693
  225MPD1     H 3472   1.439   3.976  13.144 -1.0753 -0.4070 -1.9631
  225MPD1    H1 3473   1.460   4.341  12.922 -2.8053 -1.8382  0.2605
  225MPD1    H2 3474   1.677   4.309  13.283  0.5675 -0.6296  0.6260
  225MPD1    H3 3475   1.593   4.430  13.104  0.2689 -0.0285 -0.0435
  225MPD1     N 3476   1.355   4.094  12.914 -0.6667  0.3020  0.0393
  225MPD1    H5 3477   1.330   4.149  12.833 -1.6609 -0.9552 -0.5061
  225MPD1    N1 3478   1.610   4.034  13.321 -0.4351 -0.8934  0.4271
  225MPD1    H6 3479   1.659   4.063  13.405 -1.0728  1.6247 -0.0882
  225MPD1    H7 3480   1.539   3.964  13.346  0.0371 -0.3181  3.4412
  226MPD1     C 3481   0.886   4.092   9.401  0.6382 -0.0798  0.2612
  226MPD1    C1 3482   0.805   3.990   9.361  0.1799 -0.2867 -1.4141
  226MPD1    C2 3483   0.680   4.016   9.309 -0.2499 -0.3655 -0.5478
  226MPD1    C3 3484   0.639   4.148   9.281 -0.4023 -0.2567 -0.0532
  226MPD1    C4 3485   0.722   4.250   9.324 -0.4342 -0.6112 -0.9017
  226MPD1    C5 3486   0.849   4.226   9.382 -0.0013 -0.7133  0.1274
  226MPD1     H 3487   0.606   3.939   9.291  0.1044 -0.9155  0.3169
  226MPD1    H1 3488   0.689   4.353   9.315 -0.6303 -0.5713  0.3703
  226MPD1    H2 3489   0.973   4.074   9.464  0.2624  1.7359  1.2971
  226MPD1    H3 3490   0.914   4.306   9.415  1.1643 -1.8083  0.4737
  226MPD1     N 3491   0.521   4.170   9.207 -0.3462 -0.2640  0.0884
  226MPD1    H5 3492   0.466   4.085   9.196  0.1207 -0.3595 -1.5733
  226MPD1    N1 3493   0.853   3.862   9.380  0.4177  0.1224  0.3223
  226MPD1    H6 3494   0.953   3.859   9.401  0.2075 -0.3586  1.2857
  226MPD1    H7 3495   0.839   3.809   9.295  1.5771 -0.7066  0.6478
  227MPD1     C 3496   0.057   0.248   8.791 -0.4692 -0.6611 -0.0766
  227MPD1    C1 3497   0.192   0.222   8.815 -0.3561 -0.2611 -1.0484
  227MPD1    C2 3498   0.218   0.091   8.861 -0.8374  0.3775 -0.0604
  227MPD1    C3 3499   0.117   4.735   8.892 -0.0299 -0.1795  0.3495
  227MPD1    C4 3500   4.724   0.025   8.848  0.3862 -0.4667  0.3479
  227MPD1    C5 3501   4.698   0.150   8.799 -0.6060 -0.4479 -0.2507
  227MPD1     H 3502   0.324   0.072   8.877 -0.2445  3.3938 -0.3124
  227MPD1    H1 3503   4.639   4.695   8.861  0.6694 -0.5898  1.5819
  227MPD1    H2 3504   0.024   0.348   8.764  1.6735 -0.2160 -1.1132
  227MPD1    H3 3505   4.597   0.175   8.769 -0.8653  1.1884  2.0060
  227MPD1     N 3506   0.164   4.620   8.957 -0.0201 -0.7294  0.2087
  227MPD1    H5 3507   0.261   4.610   8.984  0.3675 -0.6695 -1.1682
  227MPD1    N1 3508   0.295   0.320   8.781 -0.5561  0.5057 -0.0353
  227MPD1    H6 3509   0.381   0.319   8.835 -2.4517 -1.5951  2.9272
  227MPD1    H7 3510   0.266   0.417   8.780 -0.3138  0.5709 -1.3156
  228MPD1     C 3511   4.146   1.996  12.429  0.4400 -0.0043 -0.8679
  228MPD1    C1 3512   4.018   2.016  12.369 -0.6654  0.0725  0.2661
  228MPD1    C2 3513   3.915   2.050  12.457  0.0844 -0.2492 -0.3539
  228MPD1    C3 3514   3.933   2.043  12.596  0.1026 -0.6709 -0.0433
  228MPD1    C4 3515   4.059   2.026  12.649  0.1153  0.1207 -0.1867
  228MPD1    C5 3516   4.167   2.015  12.566 -0.6047  0.8694  0.3702
  228MPD1     H 3517   3.818   2.073  12.415 -0.3421 -0.9179  0.2693
  228MPD1    H1 3518   4.081   2.024  12.755 -1.5104  2.6868  0.1977
  228MPD1    H2 3519   4.232   1.969  12.368 -0.5876  0.3712 -2.5027
  228MPD1    H3 3520   4.266   1.992  12.603  0.4334  0.3573 -2.6773
  228MPD1     N 3521   3.818   2.054  12.683  0.1232 -0.8428  0.2594
  228MPD1    H5 3522   3.731   2.067  12.631  0.8964  1.0739 -0.5228
  228MPD1    N1 3523   4.002   2.032  12.231 -0.4465  0.6680  0.4893
  228MPD1    H6 3524   3.909   2.014  12.194 -0.7824  1.0085  1.1782
  228MPD1    H7 3525   4.070   1.976  12.181 -2.0945  0.0748 -1.0811
  229MPD1     C 3526   3.727   1.469  14.783  0.2809  1.0340 -0.0517
  229MPD1    C1 3527   3.831   1.378  14.758  0.1499 -0.4394 -0.3335
  229MPD1    C2 3528   3.890   1.342  14.878 -0.0271  0.5278  0.6495
  229MPD1    C3 3529   3.882   1.411  15.001  0.3885  0.0147  0.7111
  229MPD1    C4 3530   3.787   1.515  15.002 -0.2634 -0.3360  0.2306
  229MPD1    C5 3531   3.714   1.543  14.899 -0.1169 -0.4643  0.0948
  229MPD1     H 3532   3.941   1.246  14.881 -1.3182 -0.1887 -0.1872
  229MPD1    H1 3533   3.778   1.580  15.088  0.5159 -0.9703  0.7958
  229MPD1    H2 3534   3.660   1.490  14.701 -1.0637  0.0417  0.7837
  229MPD1    H3 3535   3.645   1.627  14.905  1.3654  0.8982 -1.8990
  229MPD1     N 3536   3.938   1.369  15.125 -0.1024  0.7583  0.0649
  229MPD1    H5 3537   3.908   1.418  15.209  0.8231  2.7535 -0.7495
  229MPD1    N1 3538   3.827   1.298  14.641 -0.1306 -0.2775 -0.4220
  229MPD1    H6 3539   3.789   1.348  14.561  0.1099  0.0582 -0.3307
  229MPD1    H7 3540   3.918   1.256  14.622 -1.2615 -2.8120 -0.1709
  230MPD1     C 3541   3.969   1.537  16.107 -0.0055  0.2277  0.0885
  230MPD1    C1 3542   4.099   1.515  16.076 -0.8211 -0.4064 -0.1313
  230MPD1    C2 3543   4.133   1.469  15.947 -0.1582 -0.1921 -0.6234
  230MPD1    C3 3544   4.033   1.453  15.851 -0.3492 -0.7763 -0.3063
  230MPD1    C4 3545   3.903   1.483  15.881 -0.0593 -0.2758  0.2025
  230MPD1    C5 3546   3.874   1.510  16.014 -0.2814  0.5150 -0.2022
  230MPD1     H 3547   4.237   1.442  15.932  0.1349  1.8267 -2.2171
  230MPD1    H1 3548   3.812   1.475  15.823 -0.4718  0.6388  0.7219
  230MPD1    H2 3549   3.924   1.581  16.195 -1.5856 -0.3967 -0.3987
  230MPD1    H3 3550   3.767   1.524  16.029 -0.2090  0.0899  0.6808
  230MPD1     N 3551   4.069   1.401  15.728  0.7111  0.1333  0.2018
  230MPD1    H5 3552   4.169   1.385  15.716  0.9911 -1.6115  4.8920
  230MPD1    N1 3553   4.193   1.547  16.176  0.0303 -0.2271  0.2134
  230MPD1    H6 3554   4.281   1.496  16.167  1.2191  1.7798  0.2525
  230MPD1    H7 3555   4.157   1.551  16.271  1.0199  0.7546  0.5514
  231MPD1     C 3556   2.042   2.610  15.676 -0.5152  0.6886  0.2737
  231MPD1    C1 3557   2.054   2.561  15.546  0.5383  0.2220  0.5692
  231MPD1    C2 3558   2.145   2.621  15.468 -1.2035 -0.2011 -0.3523
  231MPD1    C3 3559   2.217   2.733  15.497  0.0776  0.1657 -0.2976
  231MPD1    C4 3560   2.205   2.778  15.624  0.3051  0.7406 -0.0137
  231MPD1    C5 3561   2.114   2.723  15.707 -0.0847  0.2071  0.1564
  231MPD1     H 3562   2.164   2.571  15.374  0.2709 -0.3585  0.0280
  231MPD1    H1 3563   2.251   2.871  15.655  1.8251  1.2226 -3.7543
  231MPD1    H2 3564   1.989   2.555  15.753  0.8450 -2.1315 -0.7905
  231MPD1    H3 3565   2.090   2.769  15.802 -1.7475 -1.5707  0.5956
  231MPD1     N 3566   2.314   2.785  15.406 -0.2539  0.1628 -0.3992
  231MPD1    H5 3567   2.311   2.751  15.310  0.4235 -0.1102 -0.3223
  231MPD1    N1 3568   1.996   2.443  15.500  0.3403  0.8057 -0.4228
  231MPD1    H6 3569   1.976   2.449  15.400 -2.5315 -0.9079  0.0611
  231MPD1    H7 3570   1.917   2.413  15.557  0.6877  0.5253 -0.0845
  232MPD1     C 3571   4.134   0.863   0.340 -0.5576  0.0324  1.1989
  232MPD1    C1 3572   4.044   0.962   0.309  0.2391 -0.3826  0.1490
  232MPD1    C2 3573   3.940   0.922   0.230  0.7575  0.9444  0.1845
  232MPD1    C3 3574   3.936   0.794   0.188  0.3144  0.2453  0.2295
  232MPD1    C4 3575   4.029   0.698   0.218  0.5335  0.0768 -0.4300
  232MPD1    C5 3576   4.129   0.736   0.297  0.3774 -0.6675  0.0187
  232MPD1     H 3577   3.870   0.994   0.189  0.2135 -0.1183 -0.7445
  232MPD1    H1 3578   4.016   0.591   0.211  0.0627  0.1986 -1.4072
  232MPD1    H2 3579   4.215   0.893   0.405  0.3039 -2.2677  1.1647
  232MPD1    H3 3580   4.204   0.665   0.329  0.6065 -0.4555 -0.0472
  232MPD1     N 3581   3.818   0.759   0.111  0.4696  0.4119  0.3025
  232MPD1    H5 3582   3.757   0.837   0.088 -2.0203 -0.4220  4.1049
  232MPD1    N1 3583   4.051   1.089   0.362 -0.6273  1.0315  0.7657
  232MPD1    H6 3584   3.987   1.157   0.320 -1.8745  0.6294  2.0239
  232MPD1    H7 3585   4.016   1.091   0.458 -0.6446 -1.3341  0.8156
  233MPD1     C 3586   0.168   4.407   1.479 -0.0356 -0.0841 -0.0586
  233MPD1    C1 3587   0.167   4.271   1.496  0.2532 -0.7190 -0.5095
  233MPD1    C2 3588   0.272   4.200   1.430 -0.5757  0.4387  0.0014
  233MPD1    C3 3589   0.349   4.261   1.336 -0.4610  0.1873  0.3386
  233MPD1    C4 3590   0.346   4.399   1.319  0.8834 -0.2289 -0.0738
  233MPD1    C5 3591   0.252   4.468   1.388  0.5103 -0.4911  0.1104
  233MPD1     H 3592   0.289   4.096   1.455 -1.2055  0.6082  1.1325
  233MPD1    H1 3593   0.405   4.455   1.247  1.3058 -0.6213 -0.0353
  233MPD1    H2 3594   0.103   4.476   1.533  1.1699  1.0400 -0.0402
  233MPD1    H3 3595   0.250   4.575   1.375 -1.2344 -0.6243 -0.7464
  233MPD1     N 3596   0.461   4.198   1.280 -0.3921  0.1107 -0.1965
  233MPD1    H5 3597   0.528   4.261   1.236  0.6617 -1.6839 -1.1789
  233MPD1    N1 3598   0.093   4.220   1.601 -0.3657  0.5072 -0.5232
  233MPD1    H6 3599   0.007   4.265   1.633  0.5020 -0.0108  2.5727
  233MPD1    H7 3600   0.059   4.125   1.586 -0.0142  0.3088 -0.0578
  234MPD1     C 3601   1.724   1.878   9.224 -0.1532  0.0283 -0.7965
  234MPD1    C1 3602   1.675   1.960   9.326 -0.0183  0.7369  0.1526
  234MPD1    C2 3603   1.554   2.024   9.306 -0.9791  0.4106 -0.6118
  234MPD1    C3 3604   1.467   1.989   9.200 -0.7535  0.4505  0.4190
  234MPD1    C4 3605   1.522   1.906   9.100 -0.1004  0.2368  0.3573
  234MPD1    C5 3606   1.649   1.857   9.115  0.2446 -0.6585  0.8823
  234MPD1     H 3607   1.522   2.104   9.372 -3.1655 -0.0338 -1.1148
  234MPD1    H1 3608   1.478   1.875   9.006  1.9594 -1.9844  0.1129
  234MPD1    H2 3609   1.821   1.836   9.250  0.3652  1.4725 -0.3203
  234MPD1    H3 3610   1.686   1.795   9.033 -1.2387  0.6718 -0.7956
  234MPD1     N 3611   1.349   2.052   9.189 -0.2698  0.1156  0.0270
  234MPD1    H5 3612   1.339   2.132   9.250 -3.6969 -0.6956  0.5237
  234MPD1    N1 3613   1.747   1.991   9.440 -0.0839 -0.7396 -0.5117
  234MPD1    H6 3614   1.799   1.907   9.466 -1.8826 -2.4605 -2.4367
  234MPD1    H7 3615   1.683   2.027   9.510  1.7290 -2.3259  1.9653
  235MPD1     C 3616   2.385   3.980  10.136 -0.0633  0.9967  1.0658
  235MPD1    C1 3617   2.394   4.087  10.049  0.1130  0.2231 -0.6607
  235MPD1    C2 3618   2.474   4.182  10.084  0.1094  0.5758  0.0606
  235MPD1    C3 3619   2.554   4.178  10.202  0.4125  0.2993  0.4762
  235MPD1    C4 3620   2.548   4.071  10.288  0.2236  0.8331  0.1696
  235MPD1    C5 3621   2.460   3.973  10.255 -0.4742  0.1366 -0.4705
  235MPD1     H 3622   2.482   4.278  10.034 -0.2106  0.2037 -0.7047
  235MPD1    H1 3623   2.597   4.075  10.385 -1.3911  0.8344  0.9840
  235MPD1    H2 3624   2.303   3.911  10.118  1.0061 -0.1432  0.5904
  235MPD1    H3 3625   2.473   3.892  10.326  0.4707  0.4843 -0.2414
  235MPD1     N 3626   2.625   4.301  10.226 -0.4722 -0.3060  0.5369
  235MPD1    H5 3627   2.611   4.375  10.158 -1.7921 -2.1161 -1.1393
  235MPD1    N1 3628   2.311   4.107   9.934  0.2431  0.1274  0.4270
  235MPD1    H6 3629   2.351   4.171   9.866 -0.5080  0.8410  0.6479
  235MPD1    H7 3630   2.293   4.022   9.881 -0.5293 -2.0214  4.0794
  236MPD1     C 3631   1.426   0.724   9.748  0.2667  0.0174 -0.1195
  236MPD1    C1 3632   1.433   0.618   9.835 -0.4225 -0.2518  0.4592
  236MPD1    C2 3633   1.543   0.590   9.906  0.1505 -0.5098  0.2496
  236MPD1    C3 3634   1.662   0.665   9.886 -0.1372 -0.0878  0.7415
  236MPD1    C4 3635   1.661   0.767   9.797 -0.2627  0.8744 -0.2927
  236MPD1    C5 3636   1.542   0.795   9.727  0.2990  0.0011  0.0920
  236MPD1     H 3637   1.539   0.500   9.967 -0.1236 -1.8275 -1.7304
  236MPD1    H1 3638   1.747   0.831   9.783  1.2031 -1.4499 -1.8191
  236MPD1    H2 3639   1.337   0.759   9.698 -0.3823 -2.4579 -0.7030
  236MPD1    H3 3640   1.543   0.871   9.649  0.1011  1.6783  1.7163
  236MPD1     N 3641   1.781   0.648   9.961  0.0805 -0.1670  0.4948
  236MPD1    H5 3642   1.853   0.718   9.952 -1.3847  1.2254 -0.3357
  236MPD1    N1 3643   1.313   0.547   9.866 -0.3715 -0.7163  0.4518
  236MPD1    H6 3644   1.257   0.527   9.784 -0.3129 -0.3066  0.3094
  236MPD1    H7 3645   1.345   0.459   9.905 -0.1147 -1.5195 -1.5898
  237MPD1     C 3646   2.693   4.001  15.052  0.5479 -0.5455  0.7796
  237MPD1    C1 3647   2.608   3.981  14.949 -0.1210 -0.5064  0.4437
  237MPD1    C2 3648   2.477   4.026  14.956 -0.3818  0.3899  0.0141
  237MPD1    C3 3649   2.426   4.079  15.076 -0.1514  0.8994 -0.3202
  237MPD1    C4 3650   2.515   4.094  15.177  0.0942  0.4775  0.9982
  237MPD1    C5 3651   2.639   4.045  15.169 -0.2967  0.0312 -0.5496
  237MPD1     H 3652   2.402   4.002  14.882  0.2041 -1.4045 -0.0122
  237MPD1    H1 3653   2.476   4.129  15.272 -0.1560 -0.7108  1.3270
  237MPD1    H2 3654   2.797   3.972  15.036  0.4613 -2.5464  3.6938
  237MPD1    H3 3655   2.694   4.063  15.261  2.8737  1.6665 -2.7811
  237MPD1     N 3656   2.288   4.120  15.102  0.2000  0.3860  0.1267
  237MPD1    H5 3657   2.269   4.153  15.196 -4.0456 -1.9252  0.1245
  237MPD1    N1 3658   2.663   3.926  14.829 -0.0188  0.2571 -0.0570
  237MPD1    H6 3659   2.759   3.892  14.833  0.6069  1.8855 -1.4136
  237MPD1    H7 3660   2.615   3.849  14.784 -2.1060  2.1117 -0.9916
  238MPD1     C 3661   3.638   3.486  14.946  0.1628  0.0697 -0.3414
  238MPD1    C1 3662   3.672   3.431  14.818 -0.2847  0.8202 -0.0267
  238MPD1    C2 3663   3.757   3.323  14.827  0.2787 -0.2731 -0.7777
  238MPD1    C3 3664   3.764   3.248  14.946  0.1703 -0.3583  0.1589
  238MPD1    C4 3665   3.711   3.296  15.064 -0.2711  0.0483  0.1085
  238MPD1    C5 3666   3.655   3.419  15.061  0.2659  0.1565 -0.0886
  238MPD1     H 3667   3.799   3.280  14.737  0.8508  0.8210 -1.0316
  238MPD1    H1 3668   3.711   3.231  15.151 -0.8516 -0.3171 -0.1673
  238MPD1    H2 3669   3.577   3.574  14.963 -1.1023 -0.4777 -2.0418
  238MPD1    H3 3670   3.630   3.462  15.157 -1.6640  0.7661 -0.8592
  238MPD1     N 3671   3.817   3.108  14.955 -0.0136  0.4856 -0.1194
  238MPD1    H5 3672   3.822   3.063  15.046  0.1326  1.1634  0.2078
  238MPD1    N1 3673   3.642   3.508  14.700 -0.2521  0.5073 -0.5574
  238MPD1    H6 3674   3.635   3.454  14.614  1.2236  0.4401 -0.6336
  238MPD1    H7 3675   3.564   3.573  14.714  0.4677  1.9558 -3.1798
  239MPD1     C 3676   4.343   3.877  14.802  0.0451  0.1444 -0.1669
  239MPD1    C1 3677   4.398   3.917  14.683  0.1652 -0.5883 -0.8438
  239MPD1    C2 3678   4.317   3.947  14.573  0.5504 -0.5569  0.2471
  239MPD1    C3 3679   4.186   3.915  14.576 -0.1269  0.4341 -0.3809
  239MPD1    C4 3680   4.129   3.878  14.694 -0.0794  0.4402  0.0954
  239MPD1    C5 3681   4.207   3.863  14.806 -0.4347  0.2723 -0.0679
  239MPD1     H 3682   4.357   3.991  14.483  0.1023 -3.0095 -1.1379
  239MPD1    H1 3683   4.023   3.854  14.695  0.3195 -1.2180  1.9352
  239MPD1    H2 3684   4.397   3.868  14.895  0.7877  3.0104 -0.3256
  239MPD1    H3 3685   4.165   3.834  14.902  1.0052  0.5618  0.6490
  239MPD1     N 3686   4.100   3.930  14.465 -0.2136  0.4313 -0.0603
  239MPD1    H5 3687   4.005   3.898  14.482 -0.2619 -0.5185 -2.1426
  239MPD1    N1 3688   4.538   3.941  14.680  0.2855 -0.1264  0.2032
  239MPD1    H6 3689   4.575   3.859  14.727 -2.5985 -0.5179  1.7737
  239MPD1    H7 3690   4.558   3.943  14.580 -1.4819 -2.0129 -0.1845
  240MPD1     C 3691   3.100   3.675  13.587 -0.0961 -0.4690 -0.3792
  240MPD1    C1 3692   3.065   3.658  13.713 -0.0210 -0.4681  0.5806
  240MPD1    C2 3693   3.152   3.585  13.794 -0.1940 -0.2379 -0.1593
  240MPD1    C3 3694   3.261   3.515  13.744 -0.0646 -0.3154  0.0941
  240MPD1    C4 3695   3.291   3.531  13.611  0.3505 -0.3226 -0.1897
  240MPD1    C5 3696   3.210   3.621  13.542  0.0506 -0.2623  0.9997
  240MPD1     H 3697   3.118   3.572  13.896 -1.1104 -2.1388 -0.7003
  240MPD1    H1 3698   3.363   3.478  13.550  0.4844  0.0018 -0.3110
  240MPD1    H2 3699   3.045   3.736  13.517  0.1413 -1.1274 -1.1406
  240MPD1    H3 3700   3.222   3.638  13.436 -0.2360 -2.5280  0.5980
  240MPD1     N 3701   3.329   3.422  13.827 -0.1455  0.3309 -0.4062
  240MPD1    H5 3702   3.301   3.411  13.924 -2.4269 -0.0287 -1.1078
  240MPD1    N1 3703   2.953   3.724  13.762  0.1489  0.3920 -0.5331
  240MPD1    H6 3704   2.924   3.667  13.841  1.0302 -1.9145 -1.8427
  240MPD1    H7 3705   2.881   3.741  13.692 -2.1490  2.2155  2.3061
  241MPD1     C 3706   4.297   3.141  13.917  0.0326  0.1761 -0.4067
  241MPD1    C1 3707   4.236   3.104  14.038  0.1401  0.2300 -0.3378
  241MPD1    C2 3708   4.104   3.125  14.065  0.5324 -0.7062 -0.2352
  241MPD1    C3 3709   4.025   3.172  13.962  0.1760  0.2532  0.8441
  241MPD1    C4 3710   4.080   3.191  13.835 -0.1931  0.0031 -0.7459
  241MPD1    C5 3711   4.218   3.182  13.817 -0.5766 -0.8311  0.4553
  241MPD1     H 3712   4.058   3.096  14.159  0.8103  1.1470  0.4699
  241MPD1    H1 3713   4.023   3.218  13.747  0.0901  1.0741 -0.6032
  241MPD1    H2 3714   4.400   3.116  13.896  0.3439  0.0935  1.2704
  241MPD1    H3 3715   4.258   3.205  13.719 -1.1069  2.4351  1.0030
  241MPD1     N 3716   3.888   3.192  13.969  0.2578  0.2567  0.9298
  241MPD1    H5 3717   3.851   3.217  13.879 -1.9140  0.4531  1.8901
  241MPD1    N1 3718   4.297   3.023  14.141  0.0173 -0.0911  0.8739
  241MPD1    H6 3719   4.399   3.024  14.141  0.0096  0.8504  0.7132
  241MPD1    H7 3720   4.271   3.052  14.235  1.2589  0.9500  0.8865
  242MPD1     C 3721   3.062   0.983  15.781  0.2657 -0.1374 -0.0302
  242MPD1    C1 3722   3.095   1.101  15.838 -0.5276 -0.2612  0.3429
  242MPD1    C2 3723   3.175   1.188  15.766 -0.1156  0.4364  0.1175
  242MPD1    C3 3724   3.201   1.178  15.631 -0.7387 -0.0045 -0.3198
  242MPD1    C4 3725   3.164   1.060  15.571 -0.1168  0.2743  0.0141
  242MPD1    C5 3726   3.092   0.966  15.646  0.9227 -0.2177  0.2101
  242MPD1     H 3727   3.222   1.268  15.821  2.0545 -0.5445 -0.2777
  242MPD1    H1 3728   3.179   1.038  15.466 -1.7884  0.4397 -0.2572
  242MPD1    H2 3729   3.006   0.909  15.836  0.0580 -0.2110 -0.3379
  242MPD1    H3 3730   3.060   0.875  15.596  3.0172 -1.1371  0.5209
  242MPD1     N 3731   3.283   1.270  15.559  0.1230 -0.2652 -0.1119
  242MPD1    H5 3732   3.295   1.246  15.462 -3.8501  0.2651 -0.7277
  242MPD1    N1 3733   3.078   1.112  15.978 -0.2914 -0.7493 -0.3256
  242MPD1    H6 3734   3.058   1.211  15.993  0.1869 -0.5183 -1.1869
  242MPD1    H7 3735   2.999   1.055  16.008 -0.1742 -1.2846 -1.0500
  243MPD1     C 3736   0.076   0.907  17.492  0.7263 -0.2334  0.0179
  243MPD1    C1 3737   4.721   0.859  17.588 -0.1220 -0.5328  0.7538
  243MPD1    C2 3738   4.707   0.721  17.604 -0.1756 -0.3262  0.1743
  243MPD1    C3 3739   0.004   0.636  17.499 -0.0978  0.3990  0.1225
  243MPD1    C4 3740   0.059   0.688  17.380 -0.7331 -0.0851  0.2993
  243MPD1    C5 3741   0.100   0.820  17.389 -0.3765 -0.5525  0.1242
  243MPD1     H 3742   4.663   0.680  17.694 -0.6108  0.7724  0.4612
  243MPD1    H1 3743   0.089   0.619  17.302  2.2516  0.8592  0.5848
  243MPD1    H2 3744   0.115   1.007  17.477  1.9137 -0.6161  0.5760
  243MPD1    H3 3745   0.158   0.849  17.302 -0.4530  1.0880  0.6180
  243MPD1     N 3746   4.726   0.502  17.516 -0.1211 -0.0393 -0.0097
  243MPD1    H5 3747   4.679   0.463  17.598 -1.3956  0.6038 -0.4245
  243MPD1    N1 3748   4.680   0.945  17.695 -0.0436  0.2253  0.1578
  243MPD1    H6 3749   4.652   1.040  17.672  0.6691  0.3391 -0.2297
  243MPD1    H7 3750   4.607   0.896   0.005  0.9650  0.1752  1.5350
  244MPD1     C 3751   0.614   4.560   0.163  0.0545 -0.6214  0.0331
  244MPD1    C1 3752   0.512   4.471   0.148 -0.0625 -0.6915  0.1927
  244MPD1    C2 3753   0.395   4.531   0.094  0.5111 -0.2013 -0.5593
  244MPD1    C3 3754   0.375   4.665   0.083 -0.5847  0.1755 -0.2935
  244MPD1    C4 3755   0.477   0.013   0.130 -0.3036  0.0908  0.0608
  244MPD1    C5 3756   0.598   4.694   0.156  0.1424  0.4002  0.2251
  244MPD1     H 3757   0.318   4.464   0.056 -0.0263 -0.5461  1.1398
  244MPD1    H1 3758   0.474   0.122   0.130 -3.6977  0.0018 -0.2887
  244MPD1    H2 3759   0.712   4.523   0.190  1.4562  1.6669 -1.9327
  244MPD1    H3 3760   0.679   0.019   0.195 -0.0058  0.1828  0.8694
  244MPD1     N 3761   0.257   4.704   0.008 -0.6927  0.3155 -0.0551
  244MPD1    H5 3762   0.201   4.629  17.710  0.3567 -0.9458  0.8739
  244MPD1    N1 3763   0.542   4.337   0.143 -0.1084  0.0373  0.1441
  244MPD1    H6 3764   0.577   4.309   0.051 -0.9736  0.0558 -0.1936
  244MPD1    H7 3765   0.458   4.282   0.156  0.5198 -0.6651  1.1865
  245MPD1     C 3766   2.003   0.723  13.056  0.0685 -0.1931 -0.1004
  245MPD1    C1 3767   1.994   0.741  13.197 -0.2007 -0.0718 -0.1147
  245MPD1    C2 3768   2.028   0.865  13.253 -0.2510  0.7918 -0.2152
  245MPD1    C3 3769   2.060   0.974  13.170  0.3586 -0.2178 -0.5756
  245MPD1    C4 3770   2.091   0.944  13.039  0.6257 -1.0047  0.0315
  245MPD1    C5 3771   2.064   0.822  12.986 -0.0055  0.0888  0.6390
  245MPD1     H 3772   2.007   0.886  13.357 -1.4381  0.5439 -0.3988
  245MPD1    H1 3773   2.151   1.008  12.976 -1.6225 -0.8379 -1.8962
  245MPD1    H2 3774   1.972   0.631  13.007  1.6356 -0.3523 -0.8128
  245MPD1    H3 3775   2.071   0.811  12.878  0.2977  2.0906  0.4600
  245MPD1     N 3776   2.097   1.095  13.235  0.0334  0.3653  0.5624
  245MPD1    H5 3777   2.088   1.094  13.336 -0.4389 -0.3636  0.5130
  245MPD1    N1 3778   1.932   0.645  13.263  0.0032 -0.2056 -0.2187
  245MPD1    H6 3779   1.941   0.553  13.219 -2.6509 -0.8014  0.4900
  245MPD1    H7 3780   1.973   0.630  13.355  1.1833  2.7322 -0.2754
  246MPD1     C 3781   2.892   2.507  10.386  0.4447 -0.2207 -0.3916
  246MPD1    C1 3782   2.958   2.398  10.446  0.8438  0.4383 -0.4668
  246MPD1    C2 3783   2.926   2.273  10.409 -0.1323  0.3861 -0.5486
  246MPD1    C3 3784   2.839   2.251  10.303  0.4475 -0.0733 -0.3052
  246MPD1    C4 3785   2.775   2.361  10.242  0.7146  1.1033  0.0323
  246MPD1    C5 3786   2.807   2.487  10.281  0.8142 -0.0537 -0.4646
  246MPD1     H 3787   2.981   2.188  10.448 -2.5354 -0.9083  0.0284
  246MPD1    H1 3788   2.705   2.357  10.159  0.4652  2.2196  0.1962
  246MPD1    H2 3789   2.935   2.606  10.400  2.7645 -1.0761 -1.6381
  246MPD1    H3 3790   2.744   2.567  10.244 -2.1139 -2.3229 -0.3780
  246MPD1     N 3791   2.830   2.115  10.266 -0.6526 -0.0134 -0.5044
  246MPD1    H5 3792   2.891   2.043  10.303  0.3165  0.2430 -1.6086
  246MPD1    N1 3793   3.067   2.419  10.530 -0.0286  0.0204 -0.2672
  246MPD1    H6 3794   3.058   2.511  10.573 -2.1111  0.4970 -1.6801
  246MPD1    H7 3795   3.064   2.358  10.611 -0.7436  0.5208  0.0860
  247MPD1     C 3796   1.291   1.394  15.000  0.0956 -0.2442 -0.2425
  247MPD1    C1 3797   1.156   1.361  15.009 -0.3843  0.1574  0.8418
  247MPD1    C2 3798   1.118   1.230  15.047  0.0548  0.2564 -0.4804
  247MPD1    C3 3799   1.220   1.143  15.082  0.1669  0.2373 -0.2095
  247MPD1    C4 3800   1.355   1.169  15.051 -0.4538  0.2399 -0.6282
  247MPD1    C5 3801   1.385   1.295  15.017 -0.8344  0.2410  1.1489
  247MPD1     H 3802   1.012   1.214  15.065  0.3932 -0.6279  0.7459
  247MPD1    H1 3803   1.436   1.099  15.065  0.5988  1.3094 -1.3374
  247MPD1    H2 3804   1.333   1.490  14.971 -1.3956  0.7167  0.8363
  247MPD1    H3 3805   1.489   1.322  15.001 -1.3070  0.9148 -0.7052
  247MPD1     N 3806   1.193   1.014  15.126 -0.7219  0.6925 -0.5877
  247MPD1    H5 3807   1.264   0.942  15.130 -0.8940  0.4601 -1.8169
  247MPD1    N1 3808   1.064   1.462  15.011  0.3892 -0.2532  0.5586
  247MPD1    H6 3809   1.106   1.549  14.977  2.4185 -0.9953  1.1878
  247MPD1    H7 3810   0.985   1.436  14.952 -0.8177  1.7213  1.2656
  248MPD1     C 3811   2.438   4.299   0.399  0.7120  0.1626 -0.2642
  248MPD1    C1 3812   2.358   4.407   0.367  0.5235 -0.6614  0.3886
  248MPD1    C2 3813   2.358   4.518   0.450 -0.0057 -0.0156 -0.3354
  248MPD1    C3 3814   2.418   4.514   0.572 -0.1602 -0.0176  0.0223
  248MPD1    C4 3815   2.498   4.405   0.602  0.5726 -0.4801  0.2216
  248MPD1    C5 3816   2.505   4.300   0.519  0.0831  0.3707  0.4766
  248MPD1     H 3817   2.314   4.608   0.409  3.3523  2.1715  0.9249
  248MPD1    H1 3818   2.549   4.395   0.697  0.1501  1.0026  0.6094
  248MPD1    H2 3819   2.449   4.210   0.338 -0.6206 -0.3461  0.2292
  248MPD1    H3 3820   2.553   4.210   0.556  0.5526  1.8004  3.3235
  248MPD1     N 3821   2.399   4.630   0.656  0.5964 -0.0062 -0.1678
  248MPD1    H5 3822   2.330   4.698   0.629  1.1183  0.4798 -0.2781
  248MPD1    N1 3823   2.325   4.420   0.232 -0.0854 -0.2235 -0.1692
  248MPD1    H6 3824   2.303   4.328   0.195 -2.7013  0.1430  0.4936
  248MPD1    H7 3825   2.236   4.469   0.226  1.1195  1.7639 -1.7087
  249MPD1     C 3826   2.894   2.858  10.403  0.1518  0.5891  1.0368
  249MPD1    C1 3827   2.966   2.948  10.320  0.3944 -0.2477 -0.3504
  249MPD1    C2 3828   3.004   3.067  10.389  0.0867  0.3225  0.5007
  249MPD1    C3 3829   3.001   3.080  10.526  0.7269 -0.2931 -0.2406
  249MPD1    C4 3830   2.950   2.979  10.595 -0.3068 -0.1453 -0.0413
  249MPD1    C5 3831   2.891   2.869  10.539  0.1517 -1.1352  0.0184
  249MPD1     H 3832   3.055   3.145  10.333 -1.7737  1.9652  1.0684
  249MPD1    H1 3833   2.971   2.970  10.701 -0.9457 -0.6136  0.0444
  249MPD1    H2 3834   2.857   2.770  10.351 -0.4936  0.7547  1.2126
  249MPD1    H3 3835   2.842   2.797  10.604 -1.7426  0.3456  0.2236
  249MPD1     N 3836   3.067   3.195  10.588 -0.3828 -0.2190  0.6159
  249MPD1    H5 3837   3.117   3.254  10.524 -1.3118 -0.6829 -0.5393
  249MPD1    N1 3838   2.960   2.955  10.181  0.1273 -0.7544 -0.0984
  249MPD1    H6 3839   3.044   3.003  10.150  0.9668 -2.4169 -0.3997
  249MPD1    H7 3840   2.959   2.866  10.132 -2.0520 -1.4529  1.2057
  250MPD2     C 3841   4.486   4.266  12.346  0.0038 -0.3090  0.1097
  250MPD2    C1 3842   4.580   4.220  12.257 -0.0966 -0.1512  0.7098
  250MPD2    C2 3843   4.558   4.099  12.204  0.3715 -0.3109 -0.0251
  250MPD2    C3 3844   4.444   4.022  12.228 -0.2745  0.3459 -0.2314
  250MPD2    C4 3845   4.344   4.075  12.309 -0.6369 -0.7978  0.0973
  250MPD2    C5 3846   4.373   4.192  12.366  0.5128  0.1791 -0.2235
  250MPD2     H 3847   4.632   4.067  12.132  1.3523 -2.7078  2.0092
  250MPD2    H1 3848   4.252   4.027  12.340 -0.7296 -2.0666 -2.0704
  250MPD2    H2 3849   4.489   4.362  12.397  1.0810 -0.8893  1.1501
  250MPD2    H3 3850   4.296   4.231  12.432 -0.5546 -0.1134 -1.2892
  250MPD2     N 3851   4.429   3.889  12.167 -0.6770  0.5507  0.7009
  250MPD2    H5 3852   4.339   3.849  12.191 -2.1619  1.9176 -2.6145
  250MPD2    N1 3853   4.689   4.297  12.238  0.6589 -0.6800 -0.4959
  250MPD2    H7 3854   4.695   4.382  12.294  0.4397  0.3599 -2.0372
  251TMC3    C1 3855   0.167   4.365  12.205 -0.1562 -0.0077  0.4744
  251TMC3    C2 3856   0.137   4.462  12.296  0.1845  0.5920  0.4388
  251TMC3    C3 3857   0.232   4.510  12.375 -0.2721  0.4418 -0.7694
  251TMC3    C4 3858   0.292   4.326  12.181  0.7584 -0.2292 -0.2062
  251TMC3    C5 3859   0.390   4.367  12.268  0.5484 -0.3282 -0.1930
  251TMC3    C6 3860   0.362   4.470  12.360  0.0106 -0.0851  0.7284
  251TMC3     C 3861   0.061   4.276  12.156 -0.2449  0.0545 -0.5854
  251TMC3     O 3862   0.087   4.181  12.082  0.1081 -0.5551 -0.1112
  251TMC3     H 3863   0.038   4.507  12.298  0.4975  1.1717  3.1057
  251TMC3    H1 3864   0.308   4.248  12.107 -0.9781  0.2536 -1.0902
  251TMC3    H2 3865   0.440   4.518  12.417  0.3548 -1.3773  1.3379
  251TMC3    C7 3866   0.440   4.257  12.349  0.1477 -0.3295  0.4354
  251TMC3    C8 3867   0.183   4.506  12.503  0.2498  0.1334  0.1724
  251TMC3    O1 3868   0.474   4.286  12.460  0.4996  0.0036 -0.1797
  251TMC3    O2 3869   0.071   4.452  12.509 -0.2108  0.7760  0.0739
  252TMC3    C1 3870   0.006   0.520   9.021  0.1468 -0.6078 -0.1248
  252TMC3    C2 3871   0.140   0.554   9.022  0.0699  0.4448 -0.0388
  252TMC3    C3 3872   0.224   0.462   9.077 -0.1384 -0.2629 -0.1185
  252TMC3    C4 3873   4.686   0.414   9.083  0.2555 -0.4135 -0.5628
  252TMC3    C5 3874   0.039   0.334   9.142 -0.0639  0.1235  0.1539
  252TMC3    C6 3875   0.175   0.351   9.135  0.1025  0.0614  0.6496
  252TMC3     C 3876   4.645   0.617   8.974  0.8445  0.3831 -0.1858
  252TMC3     O 3877   4.534   0.579   8.935  0.3315  0.1367  0.2924
  252TMC3     H 3878   0.176   0.644   8.974  0.6019  0.3223  0.1283
  252TMC3    H1 3879   4.579   0.409   9.103  0.0037  1.6104 -1.5032
  252TMC3    H2 3880   0.240   0.274   9.176 -0.6961 -0.6932  0.4925
  252TMC3    C7 3881   4.727   0.211   9.202  0.3981  0.5174  0.2394
  252TMC3    C8 3882   0.355   0.518   9.123  0.0056 -0.3984 -0.4054
  252TMC3    O1 3883   4.605   0.203   9.214  0.1566 -0.1413 -0.6407
  252TMC3    O2 3884   0.382   0.625   9.069  0.4132 -0.1349 -0.1491
  253MPD2     C 3885   1.722   4.425  15.275 -0.2256 -0.9594 -0.4568
  253MPD2    C1 3886   1.591   4.397  15.269  0.6307 -1.0792 -0.6682
  253MPD2    C2 3887   1.526   4.321  15.364  0.3444  0.2537 -0.5536
  253MPD2    C3 3888   1.592   4.258  15.465  0.5463  0.0497 -0.0795
  253MPD2    C4 3889   1.723   4.303  15.481  0.2623  0.9016 -0.3855
  253MPD2    C5 3890   1.787   4.378  15.383 -0.2943 -0.8106  0.1576
  253MPD2     H 3891   1.419   4.301  15.360  0.2379  0.7783 -0.2492
  253MPD2    H1 3892   1.778   4.262  15.565 -2.1338 -2.3752 -0.4018
  253MPD2    H2 3893   1.773   4.484  15.199 -0.5987  0.4531  0.3943
  253MPD2    H3 3894   1.894   4.398  15.389 -0.3710 -1.1695  2.9523
  253MPD2     N 3895   1.542   4.153  15.551  0.4204 -0.7708 -0.1551
  253MPD2    H5 3896   1.608   4.127  15.623  1.9346  0.9896 -0.9080
  253MPD2    N1 3897   1.507   4.434  15.162  0.7508  0.2726  0.0232
  253MPD2    H7 3898   1.408   4.422  15.177  0.7189 -0.4346 -0.7621
  254TMC3    C1 3899   1.375   3.995  15.633 -0.2054 -0.0796 -0.0340
  254TMC3    C2 3900   1.245   3.951  15.613  0.2614  0.3046 -0.1901
  254TMC3    C3 3901   1.204   3.849  15.698 -0.1676  1.0539 -0.1791
  254TMC3    C4 3902   1.461   3.939  15.718  0.4677  0.1464  0.0392
  254TMC3    C5 3903   1.416   3.830  15.792  0.4396 -0.1745  0.1472
  254TMC3    C6 3904   1.288   3.785  15.778 -0.3269 -0.2455 -0.2207
  254TMC3     C 3905   1.417   4.102  15.546 -0.0017  0.4304 -0.4587
  254TMC3     O 3906   1.332   4.125  15.460  0.3498 -0.2430 -0.2351
  254TMC3     H 3907   1.180   3.996  15.539  1.0619  0.4917 -0.7799
  254TMC3    H1 3908   1.564   3.973  15.724 -0.1487  1.7920  1.4628
  254TMC3    H2 3909   1.254   3.703  15.840  2.3081 -0.3164  1.1267
  254TMC3    C7 3910   1.465   3.815  15.929 -0.6516 -0.0124 -0.0942
  254TMC3    C8 3911   1.057   3.811  15.693 -0.4917  0.7913  0.4883
  254TMC3    O1 3912   1.444   3.712  15.996  0.3859 -0.2420  0.3064
  254TMC3    O2 3913   1.041   3.695  15.670  0.5137  0.0984 -0.2146
  255MPD2     C 3914   4.324   1.182   9.779 -0.9958  0.2213 -0.3301
  255MPD2    C1 3915   4.366   1.296   9.701 -0.1748  0.6360 -0.8956
  255MPD2    C2 3916   4.304   1.314   9.577 -0.4307 -0.4135  0.1184
  255MPD2    C3 3917   4.202   1.234   9.534  1.4941 -0.5520 -0.0205
  255MPD2    C4 3918   4.164   1.126   9.611  0.1663  0.1672 -0.1649
  255MPD2    C5 3919   4.230   1.088   9.731  0.7599 -0.9944  0.2326
  255MPD2     H 3920   4.340   1.385   9.503  2.4402 -1.3455  0.6376
  255MPD2    H1 3921   4.086   1.059   9.577  0.9152 -2.4007  3.1813
  255MPD2    H2 3922   4.359   1.163   9.879  1.9473  1.1577 -1.1841
  255MPD2    H3 3923   4.209   0.998   9.787  0.6355 -0.2435  1.3975
  255MPD2     N 3924   4.137   1.277   9.418 -0.0446  0.1165  0.2059
  255MPD2    H5 3925   4.162   1.374   9.402  1.3964  0.1955  2.9483
  255MPD2    N1 3926   4.471   1.376   9.747  0.1980 -0.0123  0.1136
  255MPD2    H7 3927   4.523   1.346   9.829  2.2711  3.5920  0.1106
  256TMC3    C1 3928   4.579   1.587   9.770  0.0486 -0.3729 -0.0855
  256TMC3    C2 3929   4.616   1.705   9.717  0.0111 -0.0037  0.5975
  256TMC3    C3 3930   4.655   1.810   9.800 -0.0546 -0.5931  0.0116
  256TMC3    C4 3931   4.572   1.576   9.907 -0.8616 -0.3926  0.0443
  256TMC3    C5 3932   4.595   1.690   9.982  0.5698  0.0927  0.0613
  256TMC3    C6 3933   4.645   1.807   9.932  0.6983  0.1128 -0.0290
  256TMC3     C 3934   4.496   1.503   9.689  0.2755 -0.8343 -0.0219
  256TMC3     O 3935   4.464   1.561   9.586 -0.2924  0.5915 -0.3067
  256TMC3     H 3936   4.613   1.714   9.609 -1.8585  0.5108  0.6827
  256TMC3    H1 3937   4.533   1.487   9.956 -1.9779 -0.3880 -0.8161
  256TMC3    H2 3938   4.673   1.888   9.997  1.4322  0.0582 -0.2745
  256TMC3    C7 3939   4.488   1.706  10.081  0.2538  0.2539  0.6823
  256TMC3    C8 3940   4.668   1.945   9.741  0.3657  0.3211  0.1430
  256TMC3    O1 3941   4.422   1.613  10.126 -0.3534  0.0454 -0.6793
  256TMC3    O2 3942   0.007   2.022   9.798 -0.3540  1.0394  0.3923
  257MPD2     C 3943   3.372   4.291  13.027  0.3479  0.2252 -0.2716
  257MPD2    C1 3944   3.484   4.223  12.990  0.2209 -0.0531 -0.4014
  257MPD2    C2 3945   3.539   4.120  13.073  0.6606 -0.1217  0.2501
  257MPD2    C3 3946   3.475   4.094  13.195 -0.5852  0.3680  0.2647
  257MPD2    C4 3947   3.353   4.157  13.217 -0.3829 -0.5193 -0.7986
  257MPD2    C5 3948   3.301   4.256  13.139 -0.3207  0.1062 -0.0291
  257MPD2     H 3949   3.634   4.072  13.051  0.0972 -0.0245 -2.4060
  257MPD2    H1 3950   3.292   4.130  13.302 -0.2566  1.0564 -0.2131
  257MPD2    H2 3951   3.330   4.359  12.953  0.9810  1.3943  0.4312
  257MPD2    H3 3952   3.215   4.318  13.161 -1.7304 -2.1503  0.7533
  257MPD2     N 3953   3.523   3.998  13.283  0.2886  0.1487  0.2198
  257MPD2    H5 3954   3.605   3.946  13.253  0.6926 -0.8814  3.0792
  257MPD2    N1 3955   3.534   4.264  12.863  0.1454  0.0541 -0.2187
  257MPD2    H7 3956   3.477   4.332  12.812  1.4339  1.1882 -0.1327
  258TMC3    C1 3957   3.546   3.854  13.469  0.7769  0.6810 -0.3023
  258TMC3    C2 3958   3.583   3.742  13.395 -0.4284  0.1766 -0.0505
  258TMC3    C3 3959   3.618   3.624  13.463 -0.1027  0.4055 -0.3408
  258TMC3    C4 3960   3.525   3.844  13.609  0.3271 -0.6792  0.0913
  258TMC3    C5 3961   3.556   3.724  13.665 -0.5959 -0.1532  0.6858
  258TMC3    C6 3962   3.622   3.620  13.597 -0.4820  0.5336 -0.0625
  258TMC3     C 3963   3.470   3.961  13.407 -0.2072  0.1870  0.3886
  258TMC3     O 3964   3.386   4.025  13.473 -0.3151 -0.6521  0.4810
  258TMC3     H 3965   3.581   3.743  13.287 -0.4177  0.0492 -0.0515
  258TMC3    H1 3966   3.487   3.923  13.673 -0.0104 -1.0573  0.3551
  258TMC3    H2 3967   3.665   3.535  13.648 -1.3247 -0.2734 -0.6957
  258TMC3    C7 3968   3.549   3.713  13.804 -0.1676  0.2466  0.2890
  258TMC3    C8 3969   3.666   3.507  13.386  0.7527  0.1458 -0.6481
  258TMC3    O1 3970   3.456   3.776  13.856  0.9037 -0.1540 -0.2892
  258TMC3    O2 3971   3.699   3.525  13.271 -0.2197  0.3453  0.7313
  259MPD2     C 3972   2.454   1.224   0.536 -0.6439  0.0389  0.3222
  259MPD2    C1 3973   2.534   1.105   0.510 -0.6473  0.2038 -0.1124
  259MPD2    C2 3974   2.589   1.089   0.386  0.0835 -0.2977 -0.0465
  259MPD2    C3 3975   2.581   1.178   0.287 -0.1390 -0.1615 -0.5230
  259MPD2    C4 3976   2.523   1.302   0.315 -0.0656  0.3273  0.8320
  259MPD2    C5 3977   2.451   1.322   0.433  0.3494  0.1863  0.1298
  259MPD2     H 3978   2.630   0.994   0.353  1.6282  0.3840 -0.1076
  259MPD2    H1 3979   2.519   1.383   0.243  1.6083 -1.5224 -1.3845
  259MPD2    H2 3980   2.413   1.240   0.636  0.0361 -0.1728  0.6350
  259MPD2    H3 3981   2.402   1.417   0.452 -0.0269  0.0473 -0.1489
  259MPD2     N 3982   2.641   1.154   0.163  0.2783  0.1613 -0.2334
  259MPD2    H5 3983   2.667   1.057   0.149 -0.9960 -0.1769 -0.2301
  259MPD2    N1 3984   2.561   1.024   0.626  0.0908 -0.0296  0.7718
  259MPD2    H7 3985   2.533   1.061   0.716 -2.2694  1.3836 -0.5435
  260TMC3    C1 3986   2.742   1.197  17.682  0.1937  0.1509  0.3211
  260TMC3    C2 3987   2.831   1.281  17.613  0.2928  0.6330 -0.3370
  260TMC3    C3 3988   2.900   1.225  17.511  0.1828 -0.6863 -0.1378
  260TMC3    C4 3989   2.718   1.067  17.644 -0.0946  0.5141 -0.5911
  260TMC3    C5 3990   2.784   1.021  17.534  0.2786 -0.3632  0.2740
  260TMC3    C6 3991   2.876   1.095  17.467  0.4142 -0.2953 -0.3819
  260TMC3     C 3992   2.686   1.249   0.069 -0.3508  0.5525  0.7047
  260TMC3     O 3993   2.673   1.367   0.078  0.3718 -0.0241  0.0471
  260TMC3     H 3994   2.833   1.385  17.644 -0.5598  1.4494 -3.0150
  260TMC3    H1 3995   2.645   1.008  17.698  1.3198 -2.1438 -1.5610
  260TMC3    H2 3996   2.927   1.056  17.380  0.9034  1.5590 -0.9335
  260TMC3    C7 3997   2.791   0.880  17.522  0.3040  1.2652  0.0970
  260TMC3    C8 3998   3.026   1.290  17.480  0.0576  0.0678 -0.1160
  260TMC3    O1 3999   2.821   0.839  17.408 -0.0586  0.1930  0.7757
  260TMC3    O2 4000   3.042   1.389  17.550 -0.5935 -0.4391  0.0178
  261MPD2     C 4001   4.540   3.449  11.484 -0.3657 -0.4862  0.6435
  261MPD2    C1 4002   4.523   3.565  11.555 -0.1317 -0.3268 -0.2555
  261MPD2    C2 4003   4.493   3.685  11.493 -0.3533  0.7408 -0.0179
  261MPD2    C3 4004   4.472   3.693  11.356  0.1566 -0.1485 -0.0408
  261MPD2    C4 4005   4.489   3.575  11.288 -0.1351 -0.8950  0.3852
  261MPD2    C5 4006   4.525   3.456  11.346  0.7727  0.4258 -0.0873
  261MPD2     H 4007   4.478   3.771  11.558  0.8774  1.2779 -0.4429
  261MPD2    H1 4008   4.473   3.572  11.181 -0.4694 -1.0594  0.4389
  261MPD2    H2 4009   4.572   3.357  11.532  2.6535  0.1376 -0.2079
  261MPD2    H3 4010   4.519   3.371  11.280  1.0336  1.4220 -1.3899
  261MPD2     N 4011   4.434   3.814  11.302 -0.0244 -0.5481  0.1914
  261MPD2    H5 4012   4.417   3.884  11.374  0.2145 -0.6580  0.3535
  261MPD2    N1 4013   4.532   3.573  11.697  0.5926 -0.0281 -0.0843
  261MPD2    H7 4014   4.514   3.664  11.737  2.5463  0.6797 -0.8433
  262TMC3    C1 4015   4.385   3.983  11.149 -0.2587  0.0733  0.5779
  262TMC3    C2 4016   4.327   4.050  11.251  0.4225 -0.4717  1.1467
  262TMC3    C3 4017   4.339   4.183  11.253 -0.0778 -0.2403 -0.0158
  262TMC3    C4 4018   4.442   4.036  11.041  0.2395  0.2607 -0.0093
  262TMC3    C5 4019   4.449   4.174  11.039  0.2759 -0.4870 -0.0166
  262TMC3    C6 4020   4.391   4.245  11.145 -0.1565  0.0318 -0.6213
  262TMC3     C 4021   4.408   3.840  11.172  0.4683  0.2004 -0.0962
  262TMC3     O 4022   4.430   3.773  11.071  0.3758 -0.7132 -0.5002
  262TMC3     H 4023   4.263   3.998  11.322 -0.9119  2.0551  1.8049
  262TMC3    H1 4024   4.490   3.972  10.968 -2.4264  1.8854 -3.1896
  262TMC3    H2 4025   4.389   4.353  11.137  0.9829  0.1057 -0.0091
  262TMC3    C7 4026   4.564   4.222  10.968  0.0242 -0.2966 -0.6899
  262TMC3    C8 4027   4.287   4.263  11.366 -0.0099 -0.0267 -0.8229
  262TMC3    O1 4028   4.646   4.139  10.936  0.0559 -0.6746 -0.0630
  262TMC3    O2 4029   4.264   4.380  11.344  0.2220  0.1961  0.0026
  263MPD2     C 4030   0.208   2.382  10.884  0.4202  0.2047 -0.1594
  263MPD2    C1 4031   0.237   2.474  10.976  0.1286  0.0559 -0.0678
  263MPD2    C2 4032   0.245   2.612  10.932  0.4862 -0.0353 -0.5281
  263MPD2    C3 4033   0.227   2.638  10.797 -0.0282 -0.1794  0.5292
  263MPD2    C4 4034   0.204   2.532  10.709  0.4618  0.1602  0.1717
  263MPD2    C5 4035   0.181   2.404  10.758 -0.2950 -0.5550  0.0220
  263MPD2     H 4036   0.265   2.691  11.003  3.7584 -1.7116  0.3935
  263MPD2    H1 4037   0.210   2.545  10.602  0.1176 -1.8387 -0.0805
  263MPD2    H2 4038   0.202   2.277  10.912  0.4840  0.3361  0.3548
  263MPD2    H3 4039   0.156   2.325  10.688 -1.2066  1.5405 -2.0184
  263MPD2     N 4040   0.242   2.779  10.751  0.5603 -0.0998 -0.4168
  263MPD2    H5 4041   0.264   2.844  10.825  2.4868  0.6177 -1.6104
  263MPD2    N1 4042   0.262   2.420  11.105  0.1106 -0.4380 -0.2918
  263MPD2    H7 4043   0.241   2.321  11.117  0.4710 -0.5299 -0.4022
  264TMC3    C1 4044   0.318   2.964  10.627 -0.4753  0.6627 -0.4190
  264TMC3    C2 4045   0.245   3.052  10.706 -0.7350 -0.2509 -0.0821
  264TMC3    C3 4046   0.279   3.181  10.699  0.2851 -0.1247 -0.1949
  264TMC3    C4 4047   0.408   3.000  10.538  0.4934 -0.0567 -0.7967
  264TMC3    C5 4048   0.432   3.136  10.535  0.0395  0.5855  0.0709
  264TMC3    C6 4049   0.371   3.227  10.610 -0.1728  0.0375  0.5378
  264TMC3     C 4050   0.264   2.823  10.617 -0.1782 -0.0246  0.4431
  264TMC3     O 4051   0.279   2.754  10.521 -0.4374 -0.1210  0.5016
  264TMC3     H 4052   0.164   3.017  10.768  1.1494 -0.0416  2.4935
  264TMC3    H1 4053   0.443   2.920  10.474  0.6246 -1.3713  0.9295
  264TMC3    H2 4054   0.389   3.333  10.596  1.5768 -0.3236 -0.0018
  264TMC3    C7 4055   0.553   3.169  10.464 -0.7205 -0.0535 -0.1166
  264TMC3    C8 4056   0.246   3.261  10.809 -0.3260  0.6310 -0.3806
  264TMC3    O1 4057   0.580   3.108  10.363  0.6274  0.2558 -0.1225
  264TMC3    O2 4058   0.132   3.280  10.833  0.0781 -0.5533 -0.2244
  265MPD2     C 4059   2.943   3.845  15.681 -0.4012  0.5158  0.4950
  265MPD2    C1 4060   2.956   3.943  15.583  0.4410 -0.2149 -0.5719
  265MPD2    C2 4061   2.994   3.903  15.457 -0.7625 -1.2280  0.2352
  265MPD2    C3 4062   3.028   3.776  15.431  0.8597 -0.5352 -0.6578
  265MPD2    C4 4063   3.004   3.681  15.522 -0.0132 -0.1643 -0.5588
  265MPD2    C5 4064   2.964   3.715  15.641  0.4517  0.2098 -0.3046
  265MPD2     H 4065   2.997   3.984  15.385  0.7861 -1.4155  0.0956
  265MPD2    H1 4066   3.015   3.576  15.498 -3.1450 -0.0347 -2.5515
  265MPD2    H2 4067   2.911   3.856  15.784 -0.2363 -1.5260  0.7636
  265MPD2    H3 4068   2.950   3.633  15.710 -1.1610  1.5766  0.9997
  265MPD2     N 4069   3.081   3.734  15.309  0.0086 -0.0818 -0.0512
  265MPD2    H5 4070   3.100   3.635  15.299 -1.3609 -0.3478 -0.0833
  265MPD2    N1 4071   2.928   4.081  15.605  0.1051 -0.4493  0.9766
  265MPD2    H7 4072   2.932   4.142  15.524 -1.1072  0.0104  1.2458
  266TMC3    C1 4073   2.871   4.281  15.714 -0.4462  0.2507  0.1597
  266TMC3    C2 4074   2.917   4.356  15.816 -0.4248 -0.0108  0.6557
  266TMC3    C3 4075   2.913   4.491  15.803 -0.0145 -0.0976 -0.2260
  266TMC3    C4 4076   2.833   4.344  15.596  0.3676  0.3558 -0.1776
  266TMC3    C5 4077   2.842   4.476  15.582 -0.2990  0.1633 -0.4137
  266TMC3    C6 4078   2.866   4.555  15.688 -0.2780  0.1313  0.3460
  266TMC3     C 4079   2.901   4.135  15.724  0.4463  0.1134  0.0718
  266TMC3     O 4080   2.904   4.086  15.836 -0.3908  0.1344  1.0080
  266TMC3     H 4081   2.947   4.308  15.908  3.0415 -2.7287 -1.8865
  266TMC3    H1 4082   2.803   4.282  15.512 -3.8338  3.3757 -0.8832
  266TMC3    H2 4083   2.836   4.659  15.694  0.3441  0.3159  0.2164
  266TMC3    C7 4084   2.783   4.531  15.460  1.0689 -0.3783  0.1377
  266TMC3    C8 4085   2.970   4.572  15.914 -0.2332 -0.1318 -0.4021
  266TMC3    O1 4086   2.726   4.452  15.387  0.5307 -0.2095  0.4106
  266TMC3    O2 4087   3.019   4.506  16.000  0.0692 -0.2172  0.0110
  267MPD2     C 4088   0.135   1.348   0.253  0.0854 -0.1304  0.6010
  267MPD2    C1 4089   0.225   1.381   0.157 -0.8313  0.2754  0.2301
  267MPD2    C2 4090   0.185   1.374   0.022 -0.0006 -1.0045  0.5041
  267MPD2    C3 4091   0.056   1.329  17.735  0.0351 -0.9501 -0.2067
  267MPD2    C4 4092   4.701   1.305   0.094 -0.2933 -0.0486 -0.1513
  267MPD2    C5 4093   0.009   1.316   0.218  0.1645 -0.1012  0.7212
  267MPD2     H 4094   0.258   1.394  17.687  1.9451 -0.6691  2.4385
  267MPD2    H1 4095   4.596   1.283   0.077  0.1574 -1.8129 -0.6221
  267MPD2    H2 4096   0.159   1.359   0.358  1.7002 -0.7916  0.3009
  267MPD2    H3 4097   4.680   1.278   0.296  0.1613  0.2249  0.8763
  267MPD2     N 4098   0.022   1.322  17.598 -0.0437 -0.4391 -0.6558
  267MPD2    H5 4099   0.101   1.347  17.539  0.2185 -1.8756 -0.9042
  267MPD2    N1 4100   0.355   1.402   0.200  0.1613  1.1539  0.5052
  267MPD2    H7 4101   0.386   1.364   0.289 -0.8336 -0.1873  0.2664
  268TMC3    C1 4102   0.594   1.467   0.168  0.2719 -0.2815 -0.4104
  268TMC3    C2 4103   0.702   1.462   0.082  0.0947 -0.1664 -0.6888
  268TMC3    C3 4104   0.828   1.457   0.137  0.2875 -0.1133 -0.5445
  268TMC3    C4 4105   0.610   1.470   0.303 -0.1434  0.4946 -0.1343
  268TMC3    C5 4106   0.731   1.471   0.353  0.4778 -0.0466  0.7435
  268TMC3    C6 4107   0.845   1.476   0.276  0.2071 -0.4519  0.2124
  268TMC3     C 4108   0.456   1.452   0.112 -0.2949  0.1784  0.9784
  268TMC3     O 4109   0.434   1.525   0.017  0.0026 -0.0054  0.4918
  268TMC3     H 4110   0.678   1.436  17.721 -0.3725 -0.9362 -0.3933
  268TMC3    H1 4111   0.528   1.455   0.371  0.7153 -1.1827  0.5528
  268TMC3    H2 4112   0.945   1.476   0.317  0.4803 -0.6931 -0.4617
  268TMC3    C7 4113   0.740   1.476   0.499 -0.1620  0.2584  0.2737
  268TMC3    C8 4114   0.944   1.415   0.067 -0.1010  0.0250 -0.2252
  268TMC3    O1 4115   0.648   1.530   0.552 -0.1258  0.2909 -0.3473
  268TMC3    O2 4116   1.044   1.389   0.127 -0.6741  0.3952  0.4158
  269MPD2     C 4117   0.696   4.367  15.493  0.1016  0.5152  0.2419
  269MPD2    C1 4118   0.600   4.397  15.582 -0.7705 -0.9614  0.9883
  269MPD2    C2 4119   0.573   4.533  15.618 -0.1528 -0.1339  0.4553
  269MPD2    C3 4120   0.646   4.634  15.556 -0.1226 -0.2215 -0.1983
  269MPD2    C4 4121   0.738   4.603  15.461  0.2415 -0.1652  0.4367
  269MPD2    C5 4122   0.753   4.473  15.428 -0.2827  0.5200  0.5685
  269MPD2     H 4123   0.492   4.549  15.688 -0.7276  1.4448 -0.5742
  269MPD2    H1 4124   0.812   4.671  15.418 -0.4891  1.6363  2.0184
  269MPD2    H2 4125   0.724   4.268  15.458 -0.0966  0.8278 -0.8053
  269MPD2    H3 4126   0.824   4.449  15.349  0.8206  4.1889  0.4486
  269MPD2     N 4127   0.623   0.027  15.603 -0.5540 -0.2058  0.1467
  269MPD2    H5 4128   0.538   0.031  15.658 -2.0568 -1.9550 -2.0010
  269MPD2    N1 4129   0.530   4.284  15.633 -0.2176  0.2805  0.2945
  269MPD2    H7 4130   0.549   4.194  15.590  1.3554  0.8745 -0.2430
  270TMC3    C1 4131   0.398   4.146  15.755 -0.7519  0.4445  0.9401
  270TMC3    C2 4132   0.277   4.108  15.704  0.2897 -0.0725  0.4572
  270TMC3    C3 4133   0.235   3.983  15.713 -0.2789 -0.5024  0.0606
  270TMC3    C4 4134   0.483   4.050  15.798 -0.0272  0.3394  0.4871
  270TMC3    C5 4135   0.441   3.917  15.801 -0.5489  0.4939  0.1448
  270TMC3    C6 4136   0.316   3.887  15.773 -0.7130  0.2920  0.1051
  270TMC3     C 4137   0.438   4.286  15.735  0.3818  0.2438 -0.2275
  270TMC3     O 4138   0.372   4.378  15.779  0.7338 -1.0593 -0.0497
  270TMC3     H 4139   0.215   4.182  15.654  0.9984 -0.7923 -1.4802
  270TMC3    H1 4140   0.584   4.080  15.823  0.6662  0.0110 -1.9552
  270TMC3    H2 4141   0.275   3.786  15.780  0.1506 -0.1403 -1.0030
  270TMC3    C7 4142   0.540   3.834  15.734  0.2433  0.3942 -0.7848
  270TMC3    C8 4143   0.176   3.928  15.587 -0.7912 -0.3927 -0.1225
  270TMC3    O1 4144   0.654   3.860  15.773 -0.5503  0.2911  0.5029
  270TMC3    O2 4145   0.219   3.824  15.537 -0.0694 -0.2417  0.1823
  271MPD2     C 4146   0.035   3.758  13.751 -0.6375  0.3102  0.5506
  271MPD2    C1 4147   4.717   3.812  13.865  0.0327  0.3500 -0.7142
  271MPD2    C2 4148   4.593   3.878  13.864  0.6078  0.1647  0.2726
  271MPD2    C3 4149   4.528   3.900  13.739  0.4621 -0.0821  0.4122
  271MPD2    C4 4150   4.578   3.846  13.627  0.6328 -0.0579  0.2441
  271MPD2    C5 4151   4.702   3.781  13.634 -0.0541  0.3327 -0.1454
  271MPD2     H 4152   4.563   3.913  13.962  1.3300  0.4332  0.3981
  271MPD2    H1 4153   4.540   3.863  13.527  2.4046 -0.3924 -0.4948
  271MPD2    H2 4154   0.136   3.721  13.738 -1.1622 -1.1823  0.7206
  271MPD2    H3 4155   0.012   3.751  13.541 -2.7605  0.7598 -1.6202
  271MPD2     N 4156   4.399   3.972  13.725 -0.3582  0.0473  0.5070
  271MPD2    H5 4157   4.352   3.964  13.635  1.8106  1.1594 -0.7086
  271MPD2    N1 4158   0.056   3.816  13.986  0.4460 -0.3851 -0.1225
  271MPD2    H7 4159   0.002   3.864  14.057  0.8236 -0.1267 -0.0144
  272TMC3    C1 4160   0.228   3.785  14.161 -0.2986  0.4279 -0.0687
  272TMC3    C2 4161   0.289   3.696  14.239  0.4443  0.3177  0.2553
  272TMC3    C3 4162   0.268   3.706  14.376  0.7562 -0.0898 -0.0088
  272TMC3    C4 4163   0.155   3.884  14.217  0.4070  0.4104 -0.3555
  272TMC3    C5 4164   0.125   3.883  14.353 -0.1022 -0.1417  0.1174
  272TMC3    C6 4165   0.184   3.800  14.434 -0.3396 -0.2852 -0.0715
  272TMC3     C 4166   0.173   3.745  14.029 -0.1869 -0.3219 -0.2619
  272TMC3     O 4167   0.247   3.667  13.967  0.5817  0.2771 -0.5495
  272TMC3     H 4168   0.329   3.604  14.199  1.5740  0.8357  0.2104
  272TMC3    H1 4169   0.107   3.959  14.156  1.7140  0.7540 -0.9708
  272TMC3    H2 4170   0.173   3.814  14.541 -2.5604 -0.8786 -0.2217
  272TMC3    C7 4171   0.036   3.990  14.390 -0.1682  0.2081  0.7178
  272TMC3    C8 4172   0.360   3.637  14.465  0.2355 -0.1062  0.3424
  272TMC3    O1 4173   4.676   4.009  14.314 -0.1778 -0.4236  0.5983
  272TMC3    O2 4174   0.455   3.577  14.412 -0.6269  0.0584  0.9034
  273MPD2     C 4175   0.881   1.276  11.526 -0.4753  0.6956  0.0958
  273MPD2    C1 4176   0.975   1.378  11.542  0.1429  0.5114 -0.4359
  273MPD2    C2 4177   1.019   1.439  11.430  0.8283  0.1248  0.2519
  273MPD2    C3 4178   0.970   1.409  11.304  0.6057 -0.2324  0.4196
  273MPD2    C4 4179   0.871   1.313  11.294  0.0879  0.0792  0.2269
  273MPD2    C5 4180   0.834   1.249  11.403 -0.4467 -1.0383 -0.1146
  273MPD2     H 4181   1.096   1.515  11.427 -1.1440  2.1560  0.7094
  273MPD2    H1 4182   0.831   1.269  11.204 -1.6797 -0.0091  1.0539
  273MPD2    H2 4183   0.836   1.214  11.603  0.1460  2.4891  1.8768
  273MPD2    H3 4184   0.759   1.171  11.392 -0.7709 -0.8287  0.6281
  273MPD2     N 4185   1.012   1.473  11.186  0.7683 -0.7915 -0.5126
  273MPD2    H5 4186   0.958   1.444  11.105 -1.4379 -0.2966  0.7964
  273MPD2    N1 4187   1.007   1.426  11.674 -0.2465 -0.1369  0.4624
  273MPD2    H7 4188   0.963   1.382  11.755  0.4802 -2.0983 -0.2143
  274TMC3    C1 4189   1.150   1.617  11.051  0.4259 -0.5857  0.2960
  274TMC3    C2 4190   1.060   1.595  10.949 -0.6294 -0.2328  0.0090
  274TMC3    C3 4191   1.031   1.700  10.862 -0.3423 -0.0228 -0.4890
  274TMC3    C4 4192   1.201   1.740  11.071 -0.5863  0.1131  0.9214
  274TMC3    C5 4193   1.155   1.848  11.004 -1.0390  0.0208 -0.4757
  274TMC3    C6 4194   1.093   1.822  10.885 -0.5154 -0.1422  1.0902
  274TMC3     C 4195   1.137   1.535  11.170 -0.1068 -0.0890  0.4783
  274TMC3     O 4196   1.219   1.554  11.257 -0.7016 -0.0338 -0.1001
  274TMC3     H 4197   1.048   1.494  10.912  0.5069 -0.1585 -0.5538
  274TMC3    H1 4198   1.270   1.754  11.154  0.7028  1.0724 -0.2968
  274TMC3    H2 4199   1.061   1.913  10.835  1.5473 -1.0192 -1.8536
  274TMC3    C7 4200   1.070   1.929  11.090  0.6207 -0.3967 -0.3754
  274TMC3    C8 4201   0.938   1.682  10.754 -0.2728 -0.1052 -0.3223
  274TMC3    O1 4202   0.983   1.999  11.041 -0.0005 -0.6503 -0.1376
  274TMC3    O2 4203   0.843   1.599  10.770 -0.4844 -0.3064  0.0771
  275MPD2     C 4204   1.376   0.287  14.461  0.2998  0.2115 -0.0743
  275MPD2    C1 4205   1.285   0.380  14.409 -0.1974 -0.0000 -0.2662
  275MPD2    C2 4206   1.159   0.343  14.358  0.6221 -0.6792 -0.0855
  275MPD2    C3 4207   1.121   0.209  14.391  0.0847 -0.4791  0.7633
  275MPD2    C4 4208   1.208   0.124  14.456  0.2412 -0.1129 -0.3752
  275MPD2    C5 4209   1.333   0.162  14.489  0.0597 -0.4867 -0.3205
  275MPD2     H 4210   1.080   0.404  14.316 -0.7361 -0.6594  2.4631
  275MPD2    H1 4211   1.179   0.020  14.453 -1.2962  0.3709 -2.4367
  275MPD2    H2 4212   1.475   0.317  14.492  0.7355  0.1183 -1.3816
  275MPD2    H3 4213   1.400   0.096  14.543 -1.0365 -0.7329  0.7325
  275MPD2     N 4214   0.996   0.157  14.352 -0.7430  0.4721  0.3995
  275MPD2    H5 4215   0.978   0.064  14.389 -2.1140  1.0105  1.1027
  275MPD2    N1 4216   1.303   0.520  14.417  0.2091 -0.2723  0.4677
  275MPD2    H7 4217   1.218   0.567  14.389 -0.1282 -0.9745  0.2956
  276TMC3    C1 4218   1.382   0.727  14.494  0.4029  0.5560  0.3293
  276TMC3    C2 4219   1.253   0.737  14.552 -0.8275  0.1747 -0.0115
  276TMC3    C3 4220   1.247   0.785  14.680  0.2698 -0.9235  0.0246
  276TMC3    C4 4221   1.491   0.778  14.566  0.3401  0.3219 -0.1929
  276TMC3    C5 4222   1.472   0.812  14.698  0.5272  0.1670  0.3274
  276TMC3    C6 4223   1.354   0.816  14.759  0.1019 -0.6545  0.2318
  276TMC3     C 4224   1.412   0.592  14.456 -0.1990  0.5295 -1.2403
  276TMC3     O 4225   1.519   0.546  14.498  0.5290  0.6597 -0.6760
  276TMC3     H 4226   1.159   0.702  14.512  1.2824 -3.1597 -2.0663
  276TMC3    H1 4227   1.592   0.775  14.526  0.4814  2.5911  0.0019
  276TMC3    H2 4228   1.341   0.858  14.858  1.3825 -0.3904  0.2796
  276TMC3    C7 4229   1.583   0.772  14.786  0.0373 -0.4337 -0.9661
  276TMC3    C8 4230   1.146   0.703  14.755 -0.4649 -0.3998  0.4932
  276TMC3    O1 4231   1.585   0.810  14.902  0.1282 -0.5683  0.0094
  276TMC3    O2 4232   1.072   0.759  14.832 -0.3916  0.4318 -0.5891
  277MPD2     C 4233   2.917   4.237  13.268 -0.4213  0.0327 -0.1093
  277MPD2    C1 4234   2.804   4.294  13.323 -0.0348 -0.2563 -0.1900
  277MPD2    C2 4235   2.732   4.231  13.425  0.2282 -0.7141  0.3467
  277MPD2    C3 4236   2.778   4.106  13.465 -0.3243 -0.0788  0.1963
  277MPD2    C4 4237   2.905   4.057  13.420 -0.5314 -0.0275  0.4905
  277MPD2    C5 4238   2.970   4.122  13.318 -0.3410  0.1694 -0.5786
  277MPD2     H 4239   2.636   4.269  13.456  0.3069  1.4917 -2.1549
  277MPD2    H1 4240   2.950   3.968  13.463 -0.1368  0.4806  1.1144
  277MPD2    H2 4241   2.974   4.297  13.198 -0.4206 -1.4476 -1.3964
  277MPD2    H3 4242   3.059   4.080  13.271  2.2661  1.3085  3.2978
  277MPD2     N 4243   2.702   4.040  13.562  0.0861 -0.1978  0.2031
  277MPD2    H5 4244   2.621   4.088  13.600  0.1304 -1.5067  1.9102
  277MPD2    N1 4245   2.760   4.414  13.263  0.0000  0.0953  0.0451
  277MPD2    H7 4246   2.809   4.442  13.178 -2.6326  0.4651 -1.3470
  278TMC3    C1 4247   2.594   3.874  13.686 -0.2187  0.2662 -0.6481
  278TMC3    C2 4248   2.559   3.738  13.670  0.0652 -0.0717  0.1593
  278TMC3    C3 4249   2.448   3.691  13.727  0.1495 -0.3471 -0.0003
  278TMC3    C4 4250   2.526   3.961  13.768  0.2267 -0.5937  0.3517
  278TMC3    C5 4251   2.413   3.904  13.833  0.3941  0.6805  0.3099
  278TMC3    C6 4252   2.371   3.767  13.817 -0.1968  0.6306  0.0694
  278TMC3     C 4253   2.712   3.908  13.597 -0.3740 -0.2308  0.0931
  278TMC3     O 4254   2.786   3.818  13.556  0.3011 -0.1343 -0.1086
  278TMC3     H 4255   2.615   3.676  13.601  0.0991  2.5780 -2.1965
  278TMC3    H1 4256   2.564   4.060  13.789 -0.7934 -0.1325  0.0349
  278TMC3    H2 4257   2.281   3.734  13.867  0.2252  0.8284  0.9659
  278TMC3    C7 4258   2.340   3.997  13.919  0.2256 -0.6085 -0.0963
  278TMC3    C8 4259   2.386   3.571  13.670  0.2329 -0.0081  0.0799
  278TMC3    O1 4260   2.378   4.115  13.915  0.4104  0.6014 -0.5618
  278TMC3    O2 4261   2.304   3.515  13.740  0.0387  0.0264  0.4593
  279MPD2     C 4262   2.269   4.592  17.640 -0.2013  0.0435 -1.1892
  279MPD2    C1 4263   2.232   4.461  17.606  0.2122  0.1546 -0.3035
  279MPD2    C2 4264   2.274   4.406  17.484 -0.2897  0.1462  0.3383
  279MPD2    C3 4265   2.368   4.470  17.408  0.4241 -0.3598  0.5388
  279MPD2    C4 4266   2.413   4.592  17.450 -0.2252  0.2895 -0.0509
  279MPD2    C5 4267   2.363   4.652  17.557 -0.2007 -0.6070  0.3446
  279MPD2     H 4268   2.228   4.314  17.449  1.3801 -0.7931  0.6437
  279MPD2    H1 4269   2.486   4.649  17.392 -2.6483  0.7355 -2.6724
  279MPD2    H2 4270   2.229   4.647  17.724 -0.8194 -1.1443 -0.6984
  279MPD2    H3 4271   2.403   0.015  17.580 -3.0972  0.8350 -0.8414
  279MPD2     N 4272   2.415   4.422  17.285 -0.5354  0.1526  0.5074
  279MPD2    H5 4273   2.477   4.482  17.232 -0.9753 -0.4760 -0.7184
  279MPD2    N1 4274   2.127   4.400  17.679 -0.2271 -0.2249 -0.3178
  279MPD2    H7 4275   2.100   4.450   0.022  0.4152  1.6954 -1.2456
  280TMC3    C1 4276   1.978   4.252   0.027 -0.3587  0.5921  0.4884
  280TMC3    C2 4277   1.964   4.125   0.073  0.1229 -0.3390 -0.7892
  280TMC3    C3 4278   1.843   4.093   0.132  0.4231 -0.9174  0.5131
  280TMC3    C4 4279   1.872   4.337   0.015  0.5508 -0.9456 -0.2044
  280TMC3    C5 4280   1.759   4.302   0.079 -0.9547 -0.4432 -0.5961
  280TMC3    C6 4281   1.742   4.180   0.138 -0.0353 -0.3604 -0.5928
  280TMC3     C 4282   2.080   4.269  17.675 -0.1080 -0.3695 -0.3609
  280TMC3     O 4283   2.110   4.175  17.600  0.1762 -0.7848 -0.3585
  280TMC3     H 4284   2.053   4.065   0.087  0.6768  0.9324  1.0380
  280TMC3    H1 4285   1.881   4.435  17.710  0.4174 -0.4199  0.8784
  280TMC3    H2 4286   1.647   4.160   0.187  1.1384 -1.9516  1.0350
  280TMC3    C7 4287   1.664   4.412   0.115 -0.6393  0.8419  0.2224
  280TMC3    C8 4288   1.820   3.954   0.167 -0.3596  0.4183 -0.2546
  280TMC3    O1 4289   1.596   4.393   0.217  0.5046  0.3725  0.3861
  280TMC3    O2 4290   1.702   3.934   0.208  0.1832 -0.1228 -0.1808
  281TMC3    C1 4291   0.666   3.978  13.108  0.3977  0.5362  0.3024
  281TMC3    C2 4292   0.600   4.025  13.000 -0.1561  0.0590  0.6101
  281TMC3    C3 4293   0.541   3.930  12.921 -0.3255  0.3149  0.1374
  281TMC3    C4 4294   0.683   3.845  13.126  0.0289  0.6531  0.3302
  281TMC3    C5 4295   0.621   3.743  13.052 -0.2796  0.5986 -0.0349
  281TMC3    C6 4296   0.549   3.794  12.948 -0.0548  0.4250 -0.2380
  281TMC3     C 4297   0.661   4.048  13.233 -0.4786 -0.3069  0.1183
  281TMC3     O 4298   0.746   4.018  13.317 -0.4350 -0.3030 -0.2008
  281TMC3     H 4299   0.595   4.127  12.966 -1.9676 -0.6870 -1.3306
  281TMC3    H1 4300   0.746   3.805  13.204  0.9604  0.4803 -0.5052
  281TMC3    H2 4301   0.491   3.722  12.892  1.7504  0.0176 -1.5620
  281TMC3    C7 4302   0.597   3.617  13.128  0.3678 -0.5422  0.0329
  281TMC3    C8 4303   0.515   3.971  12.780  0.3683  0.0631 -0.2061
  281TMC3    O1 4304   0.683   3.565  13.196  0.2338 -0.6324 -0.1333
  281TMC3    O2 4305   0.493   4.088  12.758 -0.3168 -0.1641  0.7185
  282MPD2     C 4306   3.199   0.878  15.008 -0.1500 -0.7355 -0.6670
  282MPD2    C1 4307   3.073   0.916  14.987 -0.2329 -0.3614  0.6739
  282MPD2    C2 4308   3.019   0.903  14.854 -0.1920  0.2712  0.4702
  282MPD2    C3 4309   3.092   0.855  14.749  0.3317  0.1454 -0.1329
  282MPD2    C4 4310   3.214   0.808  14.773 -0.0802  0.3729  0.2428
  282MPD2    C5 4311   3.269   0.819  14.903  0.1443  0.1998 -0.2147
  282MPD2     H 4312   2.919   0.945  14.849  0.2054  1.0711 -0.6915
  282MPD2    H1 4313   3.272   0.779  14.686 -0.0959  1.0482  0.0123
  282MPD2    H2 4314   3.241   0.886  15.108 -1.0519  0.0588 -0.3529
  282MPD2    H3 4315   3.376   0.804  14.913 -0.1017 -0.3472  1.5633
  282MPD2     N 4316   3.037   0.865  14.617 -0.0200  0.3494  0.2632
  282MPD2    H5 4317   2.947   0.911  14.614 -0.3517 -0.3415 -0.5621
  282MPD2    N1 4318   3.002   0.943  15.103 -0.0066  0.0382  0.1420
  282MPD2    H7 4319   3.057   0.956  15.187  0.1693 -1.2862  0.2399
  283TMC3    C1 4320   2.830   0.951  15.262 -0.5571 -0.1857  0.2787
  283TMC3    C2 4321   2.881   1.052  15.337 -0.4685 -0.3073  0.5687
  283TMC3    C3 4322   2.816   1.084  15.455 -0.7295 -0.4246  0.4290
  283TMC3    C4 4323   2.732   0.871  15.304 -0.4954  0.2519 -0.1435
  283TMC3    C5 4324   2.676   0.894  15.427  0.8351 -0.0193  0.2428
  283TMC3    C6 4325   2.723   0.999  15.510  0.5893  0.3168  0.4001
  283TMC3     C 4326   2.871   0.939  15.125 -0.5238  0.5506  0.0388
  283TMC3     O 4327   2.785   0.920  15.043 -0.5270  0.5213 -0.2255
  283TMC3     H 4328   2.951   1.121  15.291  1.3118 -1.2076  1.9304
  283TMC3    H1 4329   2.702   0.790  15.238  1.3988  0.4987 -1.2959
  283TMC3    H2 4330   2.680   1.030  15.605  0.1711  0.4147  0.1782
  283TMC3    C7 4331   2.575   0.809  15.484 -0.2579  0.2185  0.3315
  283TMC3    C8 4332   2.845   1.210  15.522  0.2775  0.0489 -0.5685
  283TMC3    O1 4333   2.518   0.853  15.582  0.2912  0.3943 -0.6180
  283TMC3    O2 4334   2.801   1.220  15.635  0.1836  0.2396 -0.1453
  284MPD2     C 4335   0.608   0.142  11.710 -0.4794 -0.0324 -0.6005
  284MPD2    C1 4336   0.708   0.048  11.666 -0.0903 -0.5303  0.6844
  284MPD2    C2 4337   0.755   4.699  11.762  0.1762 -0.6597 -0.0003
  284MPD2    C3 4338   0.712   4.691  11.894  0.0602  0.4492  0.2501
  284MPD2    C4 4339   0.612   0.043  11.932 -0.3060 -0.1310 -0.2223
  284MPD2    C5 4340   0.557   0.138  11.842 -0.0249  0.5272 -0.3176
  284MPD2     H 4341   0.835   4.635  11.728  0.4913  0.3487 -1.1656
  284MPD2    H1 4342   0.566   0.044  12.030 -0.7098 -0.9736 -0.4063
  284MPD2    H2 4343   0.545   0.202  11.646  0.8955  1.6844 -0.3448
  284MPD2    H3 4344   0.480   0.212  11.859  0.3892  1.7467 -3.5879
  284MPD2     N 4345   0.778   4.603  11.981  0.0814 -0.4540  0.0028
  284MPD2    H5 4346   0.857   4.550  11.945 -0.3509 -1.1197  0.0226
  284MPD2    N1 4347   0.742   0.039  11.525  0.1836 -0.2339 -0.3416
  284MPD2    H7 4348   0.804   4.698  11.502  0.9141 -0.4224  2.2523
  285TMC3    C1 4349   0.765   0.085  11.303 -0.2992 -0.7012  0.0793
  285TMC3    C2 4350   0.836   4.699  11.312  0.0008 -0.2990  0.1523
  285TMC3    C3 4351   0.955   4.693  11.234  0.2461  0.0417  0.2819
  285TMC3    C4 4352   0.803   0.188  11.220 -0.0547 -0.1458 -0.2417
  285TMC3    C5 4353   0.919   0.174  11.147  0.1852  0.7461  0.2742
  285TMC3    C6 4354   0.987   0.054  11.147 -0.3667  0.1431 -0.2139
  285TMC3     C 4355   0.699   0.121  11.422 -0.4009  0.4227 -0.3334
  285TMC3     O 4356   0.626   0.222  11.409 -0.3998 -0.1499 -0.1546
  285TMC3     H 4357   0.780   4.614  11.349  2.2123 -1.0347  1.8180
  285TMC3    H1 4358   0.770   0.289  11.243 -2.0381 -0.9174  0.2939
  285TMC3    H2 4359   1.081   0.043  11.094 -1.2725 -1.6641 -1.4375
  285TMC3    C7 4360   0.964   0.278  11.057 -0.2750 -0.0562  0.3175
  285TMC3    C8 4361   0.983   4.559  11.186  0.0914  0.2497  0.6594
  285TMC3    O1 4362   1.079   0.279  11.015 -0.3236  0.3441 -0.3984
  285TMC3    O2 4363   0.897   4.472  11.176  0.2657  0.0293 -0.1189
  286MPD2     C 4364   1.572   4.131   1.047 -0.0115 -0.7696  0.0280
  286MPD2    C1 4365   1.456   4.106   0.973 -0.3834 -0.3009 -0.2729
  286MPD2    C2 4366   1.455   3.993   0.900 -0.7100  0.0934  0.2831
  286MPD2    C3 4367   1.562   3.896   0.896 -0.6787 -0.4101 -0.1894
  286MPD2    C4 4368   1.664   3.920   0.991  0.0243 -0.2383 -0.1567
  286MPD2    C5 4369   1.666   4.030   1.064 -0.9812  0.5686  0.8780
  286MPD2     H 4370   1.364   3.972   0.846 -1.1570  1.4336  0.5310
  286MPD2    H1 4371   1.731   3.837   1.010  0.7991  0.5945  0.7780
  286MPD2    H2 4372   1.590   4.223   1.101  1.5917 -1.2434  0.3149
  286MPD2    H3 4373   1.751   4.050   1.129  0.9856 -0.3677 -1.4281
  286MPD2     N 4374   1.554   3.767   0.838 -0.6730  0.0498 -0.5614
  286MPD2    H5 4375   1.631   3.703   0.854 -1.2168 -0.6849 -0.9147
  286MPD2    N1 4376   1.343   4.191   0.971  0.0416 -0.5145 -0.2968
  286MPD2    H7 4377   1.270   4.159   0.908  0.2671  0.3032 -0.9667
  287TMC3    C1 4378   1.479   3.576   0.718 -0.2385 -0.7016  0.3096
  287TMC3    C2 4379   1.468   3.556   0.581 -0.3442 -0.2361  0.5886
  287TMC3    C3 4380   1.550   3.476   0.515  0.2065  0.0078 -0.3500
  287TMC3    C4 4381   1.588   3.520   0.779  0.8396  0.3349 -0.1770
  287TMC3    C5 4382   1.669   3.441   0.708 -0.4263 -0.1559 -0.1612
  287TMC3    C6 4383   1.653   3.418   0.578  0.3220  0.6602 -0.1555
  287TMC3     C 4384   1.459   3.716   0.751 -0.6233  0.0880 -0.6547
  287TMC3     O 4385   1.362   3.776   0.698 -0.0592  0.6118  0.2752
  287TMC3     H 4386   1.391   3.612   0.529  0.4788  1.8530  1.6107
  287TMC3    H1 4387   1.604   3.519   0.886  1.6929  1.6336 -0.2916
  287TMC3    H2 4388   1.715   3.352   0.517 -0.3877 -0.0327 -0.1360
  287TMC3    C7 4389   1.805   3.438   0.762  0.0166  0.3170  0.3576
  287TMC3    C8 4390   1.495   3.411   0.403 -0.1976  0.1430 -0.6436
  287TMC3    O1 4391   1.837   3.528   0.835  0.1418 -0.2684 -0.1591
  287TMC3    O2 4392   1.514   3.293   0.401 -0.0976 -0.1353 -0.1410
  288TMC3    C1 4393   3.158   3.680  14.476 -0.2714  0.3445  0.5802
  288TMC3    C2 4394   3.101   3.642  14.594 -0.2550  0.6687  0.5395
  288TMC3    C3 4395   2.989   3.718  14.635 -0.2659  0.0094  1.0316
  288TMC3    C4 4396   3.122   3.793  14.409  0.2854 -0.5776  0.2530
  288TMC3    C5 4397   3.011   3.858  14.454  0.1250  0.4222  0.0860
  288TMC3    C6 4398   2.948   3.837  14.574 -0.4927 -0.5922  0.3737
  288TMC3     C 4399   3.280   3.605  14.429 -0.2952 -0.2846 -0.3482
  288TMC3     O 4400   3.357   3.662  14.349 -0.1971  0.1428 -0.2400
  288TMC3     H 4401   3.132   3.559  14.657 -0.0086 -0.1684 -0.6885
  288TMC3    H1 4402   3.177   3.824  14.321  2.2172  1.3812  2.1511
  288TMC3    H2 4403   2.858   3.891  14.602 -0.0986 -0.0403  0.5774
  288TMC3    C7 4404   2.962   3.976  14.385 -0.1751 -0.1893  0.1006
  288TMC3    C8 4405   2.954   3.716  14.772 -0.5345  0.1945  0.4177
  288TMC3    O1 4406   2.924   4.077  14.444 -0.1343  0.1119  0.0450
  288TMC3    O2 4407   2.941   3.824  14.832 -0.3665 -0.3503 -0.0447
  289MPD2     C 4408   3.335   2.895  14.468 -0.2925 -0.3376 -0.6333
  289MPD2    C1 4409   3.285   2.986  14.373 -0.2380  0.2837 -1.2467
  289MPD2    C2 4410   3.150   3.019  14.381  0.0686  0.6745  0.7540
  289MPD2    C3 4411   3.067   2.971  14.476 -0.1406  1.2070  0.1352
  289MPD2    C4 4412   3.117   2.878  14.565  0.2795 -0.0351  0.5683
  289MPD2    C5 4413   3.250   2.842  14.565  0.3450 -0.4688 -0.0445
  289MPD2     H 4414   3.110   3.092  14.311 -1.1412 -1.4948 -0.8215
  289MPD2    H1 4415   3.048   2.835  14.637  1.0087 -0.7324  0.8441
  289MPD2    H2 4416   3.438   2.861  14.470 -0.1765  0.0635  0.2310
  289MPD2    H3 4417   3.287   2.769  14.637 -1.2127 -2.2349 -1.0323
  289MPD2     N 4418   2.928   2.998  14.476 -0.3793  0.1063 -0.6849
  289MPD2    H5 4419   2.865   2.932  14.521 -0.7457  0.4204 -0.7397
  289MPD2    N1 4420   3.368   3.032  14.272 -0.4535 -0.2671  0.0346
  289MPD2    H7 4421   3.456   2.983  14.259 -1.4894 -2.0425 -0.3450
  290TMC3    C1 4422   2.738   3.114  14.398 -0.5279  0.3781 -1.1878
  290TMC3    C2 4423   2.673   3.234  14.369  0.2790 -0.1158 -0.0673
  290TMC3    C3 4424   2.556   3.227  14.300  0.0493  1.0801 -0.0464
  290TMC3    C4 4425   2.682   2.991  14.359  0.0418  0.3215 -0.2624
  290TMC3    C5 4426   2.565   2.994  14.291  0.4402  0.2763 -0.3749
  290TMC3    C6 4427   2.497   3.113  14.261  0.2250 -0.0960  0.4340
  290TMC3     C 4428   2.879   3.115  14.415 -0.1052 -0.0749 -1.4891
  290TMC3     O 4429   2.936   3.220  14.391 -0.2701 -0.0478 -0.0092
  290TMC3     H 4430   2.714   3.329  14.402 -0.0437  0.1284 -0.3690
  290TMC3    H1 4431   2.727   2.899  14.395  1.6271  1.6559  1.2043
  290TMC3    H2 4432   2.411   3.117  14.196 -0.6601 -1.9926  1.5056
  290TMC3    C7 4433   2.494   2.876  14.250  0.2383 -0.0480  0.2279
  290TMC3    C8 4434   2.529   3.341  14.214 -0.2209 -0.4079 -0.5621
  290TMC3    O1 4435   2.372   2.888  14.250  0.3249 -0.1918 -0.7839
  290TMC3    O2 4436   2.539   3.319  14.097  0.2913  0.5870  0.0423
  291MPD2     C 4437   2.113   3.068  17.683 -0.0800  0.3831 -0.7910
  291MPD2    C1 4438   2.217   2.979  17.702  1.2979  0.4937 -0.4101
  291MPD2    C2 4439   2.334   3.024  17.737 -0.2863 -0.0828 -0.3228
  291MPD2    C3 4440   2.357   3.159   0.022  0.5685 -1.0844  0.2907
  291MPD2    C4 4441   2.257   3.245   0.008  0.6397  0.1961 -0.4309
  291MPD2    C5 4442   2.138   3.199  17.702  0.0396 -0.2235  0.6264
  291MPD2     H 4443   2.409   2.952   0.025 -0.0032  0.7638  1.0752
  291MPD2    H1 4444   2.259   3.350   0.036  0.6984 -0.3236  1.4864
  291MPD2    H2 4445   2.018   3.039  17.640 -0.5871 -1.7763  1.7668
  291MPD2    H3 4446   2.061   3.270  17.674  0.1141 -0.1982  0.4887
  291MPD2     N 4447   2.482   3.215   0.062  0.4861 -0.0943 -0.9883
  291MPD2    H5 4448   2.481   3.316   0.073  2.2910 -0.1557 -0.2358
  291MPD2    N1 4449   2.206   2.838  17.713  0.2685 -0.2403 -0.6676
  291MPD2    H7 4450   2.288   2.789   0.005  1.4098  1.2736 -1.2411
  292TMC3    C1 4451   2.110   2.623  17.704 -0.5042 -0.1086 -0.0560
  292TMC3    C2 4452   2.198   2.575   0.063  0.0800 -0.1564  0.1891
  292TMC3    C3 4453   2.191   2.450   0.118 -0.3024 -0.8706  0.2580
  292TMC3    C4 4454   2.007   2.543  17.649 -0.8053  0.3146  0.1695
  292TMC3    C5 4455   1.993   2.423  17.711  0.2279 -0.4019  0.2039
  292TMC3    C6 4456   2.077   2.375   0.073  0.1810  0.9626  0.3868
  292TMC3     C 4457   2.088   2.767  17.682 -0.2474  0.3785 -0.3309
  292TMC3     O 4458   1.977   2.811  17.648 -0.1337  0.1360  0.1327
  292TMC3     H 4459   2.271   2.645   0.104 -1.0841  0.6291  0.9309
  292TMC3    H1 4460   1.938   2.576  17.572 -1.2889 -0.7285  0.1542
  292TMC3    H2 4461   2.051   2.283   0.124  0.4198 -0.1590 -1.5006
  292TMC3    C7 4462   1.901   2.320  17.651 -0.1947 -0.5240  0.2692
  292TMC3    C8 4463   2.241   2.428   0.255 -0.2842  0.5676  0.1409
  292TMC3    O1 4464   1.797   2.353  17.600  0.3291 -0.2171 -0.0750
  292TMC3    O2 4465   2.317   2.514   0.299 -0.6005 -0.0190  0.2616
  293MPD2     C 4466   3.816   4.021  12.296 -0.3054 -0.4935 -0.2383
  293MPD2    C1 4467   3.728   3.971  12.381 -0.3494  0.1750  0.6974
  293MPD2    C2 4468   3.767   3.954  12.516 -0.2428 -1.0114  1.3677
  293MPD2    C3 4469   3.892   3.987  12.563 -0.7157  0.2050  0.0436
  293MPD2    C4 4470   3.981   4.048  12.473  0.9940  0.0303  0.1167
  293MPD2    C5 4471   3.947   4.053  12.339 -0.8084 -0.1259 -0.6914
  293MPD2     H 4472   3.699   3.909  12.587 -3.2014  1.8099  0.3082
  293MPD2    H1 4473   4.083   4.076  12.493  1.1832 -0.8082  0.3313
  293MPD2    H2 4474   3.779   4.043  12.197 -1.8092  2.6386  1.0366
  293MPD2    H3 4475   4.013   4.105  12.270 -1.5694  1.6104 -0.1021
  293MPD2     N 4476   3.926   3.961  12.699  0.2854 -0.3977  0.4087
  293MPD2    H5 4477   3.864   3.901  12.754 -1.6629  1.3319  0.1092
  293MPD2    N1 4478   3.596   3.945  12.331 -0.5602  0.5451 -0.1130
  293MPD2    H7 4479   3.576   3.951  12.232  2.2912  2.0644 -0.5941
  294TMC3    C1 4480   3.357   3.913  12.343  0.2416 -0.1296  0.7063
  294TMC3    C2 4481   3.253   3.855  12.405 -0.0322 -0.4119 -0.2487
  294TMC3    C3 4482   3.127   3.849  12.352 -0.3999  0.5926 -0.8782
  294TMC3    C4 4483   3.342   3.953  12.208 -0.3464  0.0574  0.1768
  294TMC3    C5 4484   3.220   3.935  12.153  0.3243 -0.7173 -0.4313
  294TMC3    C6 4485   3.103   3.889  12.218 -0.0920  0.1491 -0.4759
  294TMC3     C 4486   3.491   3.902  12.409 -0.4611 -0.2562  0.1843
  294TMC3     O 4487   3.485   3.878  12.532  0.2613  0.1676 -0.0355
  294TMC3     H 4488   3.262   3.822  12.508 -0.8282  1.3266  0.3717
  294TMC3    H1 4489   3.418   4.005  12.151  0.6953  0.7345  2.1699
  294TMC3    H2 4490   3.010   3.863  12.170 -1.1430 -0.3147  1.8091
  294TMC3    C7 4491   3.208   3.913  12.012 -0.6004  0.6618 -0.4877
  294TMC3    C8 4492   3.058   3.722  12.392 -0.2949 -0.5205 -0.4924
  294TMC3    O1 4493   3.098   3.906  11.968  0.0314 -0.2976 -0.2047
  294TMC3    O2 4494   2.935   3.716  12.399 -0.0704  0.0826  0.3208
  295MPD2     C 4495   0.823   2.502   0.848  0.4364  0.0552 -0.1158
  295MPD2    C1 4496   0.690   2.526   0.850 -0.4881  0.2552  0.2885
  295MPD2    C2 4497   0.637   2.547   0.976  0.1732 -0.2395  0.5503
  295MPD2    C3 4498   0.711   2.544   1.092 -0.2087 -0.3253  0.0202
  295MPD2    C4 4499   0.848   2.539   1.084 -1.3771  0.3693  0.4012
  295MPD2    C5 4500   0.900   2.512   0.962 -0.9196  0.1674 -0.1790
  295MPD2     H 4501   0.529   2.549   0.984  0.0962 -0.4626 -0.4073
  295MPD2    H1 4502   0.908   2.545   1.174  1.2009  0.6148 -1.3380
  295MPD2    H2 4503   0.877   2.482   0.756 -2.1226  0.6684 -1.7388
  295MPD2    H3 4504   1.006   2.491   0.963 -0.8348  0.5937 -0.2136
  295MPD2     N 4505   0.647   2.561   1.218  0.0010  0.2889  0.5552
  295MPD2    H5 4506   0.703   2.568   1.302  2.4445 -0.9204 -0.9736
  295MPD2    N1 4507   0.613   2.518   0.729 -0.9798  0.1017  0.0220
  295MPD2    H7 4508   0.531   2.578   0.729 -0.6270  0.5971  0.5567
  296TMC3    C1 4509   0.477   2.569   1.377  0.3279  0.5554 -0.1874
  296TMC3    C2 4510   0.494   2.693   1.423  0.5078 -0.8225  0.1698
  296TMC3    C3 4511   0.386   2.752   1.490  0.0155  0.4392  0.1352
  296TMC3    C4 4512   0.369   2.493   1.423  0.3224 -0.6991 -0.0154
  296TMC3    C5 4513   0.271   2.554   1.497 -0.0596 -0.0443  0.2022
  296TMC3    C6 4514   0.267   2.688   1.522 -0.5641 -0.8554  0.1943
  296TMC3     C 4515   0.510   2.546   1.240  0.4304 -0.0066  0.3335
  296TMC3     O 4516   0.429   2.487   1.170 -0.0961  0.0033 -0.9187
  296TMC3     H 4517   0.584   2.747   1.399 -0.2979  0.1243 -0.7368
  296TMC3    H1 4518   0.371   2.391   1.388  0.6729  0.1238 -2.4056
  296TMC3    H2 4519   0.190   2.728   1.587  1.0206  0.8492  1.0354
  296TMC3    C7 4520   0.134   2.497   1.506  0.4028 -0.7551  0.0770
  296TMC3    C8 4521   0.408   2.872   1.564 -0.3581 -0.2843 -0.1109
  296TMC3    O1 4522   0.044   2.557   1.563 -0.9944  0.0920  0.2075
  296TMC3    O2 4523   0.517   2.891   1.613  0.2666  0.1482  0.7209
  297MPD2     C 4524   1.943   4.417  15.935 -0.6540 -0.6866 -0.0386
  297MPD2    C1 4525   1.909   4.532  15.864 -0.5561 -0.0612  0.0324
  297MPD2    C2 4526   1.994   4.644  15.855  0.0001  0.0513 -0.2681
  297MPD2    C3 4527   2.111   4.643  15.924 -0.3433  0.0515 -0.3697
  297MPD2    C4 4528   2.149   4.529  15.997  0.0002 -0.0859  0.1260
  297MPD2    C5 4529   2.068   4.415  15.993  0.2076  0.2464  0.4879
  297MPD2     H 4530   1.966   4.735  15.804  0.4192 -0.2419 -1.0170
  297MPD2    H1 4531   2.244   4.526  16.049 -0.2157  0.8722  0.5691
  297MPD2    H2 4532   1.882   4.328  15.937 -1.9773  0.2089  0.0223
  297MPD2    H3 4533   2.111   4.324  16.032 -1.9520 -0.4538  1.1941
  297MPD2     N 4534   2.205   0.013  15.919 -0.0011  0.1445  0.2925
  297MPD2    H5 4535   2.280   0.009  15.987  0.7028 -2.3109 -0.6354
  297MPD2    N1 4536   1.784   4.543  15.795 -0.4392  0.5034  0.5850
  297MPD2    H7 4537   1.776   4.629  15.742  2.3205  1.1413  1.2043
  298TMC3    C1 4538   1.549   4.510  15.756  0.3441 -0.5129  0.0356
  298TMC3    C2 4539   1.538   4.560  15.634 -0.0505  0.4818  0.3122
  298TMC3    C3 4540   1.421   4.630  15.604  0.0269  0.5703 -0.5684
  298TMC3    C4 4541   1.438   4.514  15.842  0.7387  0.4726 -0.0678
  298TMC3    C5 4542   1.320   4.562  15.800 -0.3935  0.0898  0.3200
  298TMC3    C6 4543   1.308   4.623  15.678 -0.4928 -0.2486  0.4142
  298TMC3     C 4544   1.671   4.465  15.814 -0.5194 -0.2420  0.6959
  298TMC3     O 4545   1.650   4.369  15.887 -0.0658  0.1668  0.1270
  298TMC3     H 4546   1.620   4.551  15.565  0.3882 -2.5661  1.2483
  298TMC3    H1 4547   1.447   4.470  15.941  0.0813 -0.2454 -0.3295
  298TMC3    H2 4548   1.224   4.687  15.654 -0.3020 -1.0670 -2.4064
  298TMC3    C7 4549   1.218   4.578  15.904  0.2981 -0.5512 -0.2967
  298TMC3    C8 4550   1.408   4.689  15.478  1.1279  0.2229 -0.4083
  298TMC3    O1 4551   1.254   4.575  16.021  0.8096  0.3472 -0.5795
  298TMC3    O2 4552   1.296   4.704  15.432  0.2830  0.1210  0.2122
  299MPD2     C 4553   1.977   3.968  10.166 -0.0240 -0.2613  0.0160
  299MPD2    C1 4554   2.032   3.870  10.246  0.1869 -0.2847  0.0791
  299MPD2    C2 4555   2.008   3.737  10.206  0.1551  0.2796 -0.0646
  299MPD2    C3 4556   1.915   3.706  10.107 -0.6336  0.8501 -0.2592
  299MPD2    C4 4557   1.846   3.806  10.044  0.3303  0.3420  0.5247
  299MPD2    C5 4558   1.887   3.933  10.063 -0.4492 -0.4312  0.3310
  299MPD2     H 4559   2.055   3.665  10.272 -0.9031  0.5171  0.9466
  299MPD2    H1 4560   1.770   3.776   9.973 -0.4036  1.8652  0.6595
  299MPD2    H2 4561   1.986   4.075  10.183  1.0731 -1.0076  3.9663
  299MPD2    H3 4562   1.825   4.011  10.019  0.3190  0.6232  1.1280
  299MPD2     N 4563   1.863   3.577  10.077 -0.2166  0.0142 -0.2717
  299MPD2    H5 4564   1.782   3.571  10.017  0.3165  0.1047 -1.0043
  299MPD2    N1 4565   2.120   3.898  10.359 -0.4151  0.5427  0.0079
  299MPD2    H7 4566   2.170   3.820  10.401  1.2163  2.0420  0.9223
  300TMC3    C1 4567   1.806   3.367  10.132 -0.3073 -0.1098 -0.2472
  300TMC3    C2 4568   1.711   3.392  10.031 -0.7022  0.5320 -0.4968
  300TMC3    C3 4569   1.582   3.415  10.072 -0.1654  0.2505 -0.5203
  300TMC3    C4 4570   1.768   3.343  10.260 -0.2921 -0.1207  0.0712
  300TMC3    C5 4571   1.634   3.365  10.293 -0.1343 -0.2722  0.1812
  300TMC3    C6 4572   1.544   3.409  10.207  0.2545 -0.7555 -1.0527
  300TMC3     C 4573   1.909   3.464  10.135  0.2221 -0.6748  0.1140
  300TMC3     O 4574   2.001   3.455  10.211 -0.7649 -0.0975  0.8478
  300TMC3     H 4575   1.722   3.435   9.932  0.6498  0.6770 -0.2780
  300TMC3    H1 4576   1.836   3.311  10.339 -0.2434  0.1514  0.1392
  300TMC3    H2 4577   1.445   3.448  10.229  0.4056  0.2422 -2.1383
  300TMC3    C7 4578   1.592   3.318  10.419 -0.0890 -0.6695 -0.4608
  300TMC3    C8 4579   1.516   3.524  10.004 -0.5294  0.7872  0.4172
  300TMC3    O1 4580   1.650   3.223  10.469 -0.0097  0.2203 -0.8798
  300TMC3    O2 4581   1.462   3.502   9.897 -0.3728 -0.1327  0.2511
  301MPD2     C 4582   0.342   1.039   0.784 -0.7062  0.3377 -0.0588
  301MPD2    C1 4583   0.217   1.009   0.735 -0.3112 -0.5473  0.9829
  301MPD2    C2 4584   0.179   0.877   0.713  0.1520  0.5377  0.5389
  301MPD2    C3 4585   0.267   0.773   0.735 -0.3436 -0.1886 -0.3862
  301MPD2    C4 4586   0.395   0.805   0.785  0.0251  0.6032 -0.2728
  301MPD2    C5 4587   0.432   0.933   0.803 -0.7196  0.6324  0.1732
  301MPD2     H 4588   0.074   0.861   0.689 -0.0031  0.4902  1.2565
  301MPD2    H1 4589   0.466   0.723   0.788 -2.5462 -1.5300  3.1301
  301MPD2    H2 4590   0.377   1.142   0.791  0.7391 -0.2138  0.8250
  301MPD2    H3 4591   0.536   0.945   0.830 -0.7168  0.0906  0.4130
  301MPD2     N 4592   0.232   0.634   0.723  0.1239  0.1725  0.4155
  301MPD2    H5 4593   0.303   0.576   0.766 -1.0736 -1.1316  0.6307
  301MPD2    N1 4594   0.118   1.104   0.693 -0.0735  0.6608  0.3083
  301MPD2    H7 4595   0.029   1.059   0.672  0.9596 -1.5449  0.5936
  302TMC3    C1 4596   0.095   0.444   0.671  0.0253 -0.0478  0.3200
  302TMC3    C2 4597   0.196   0.354   0.706  0.3781 -0.3790  0.5909
  302TMC3    C3 4598   0.166   0.223   0.689 -0.3096 -0.7097 -0.0106
  302TMC3    C4 4599   4.710   0.398   0.628  0.1922 -0.5432  0.9137
  302TMC3    C5 4600   4.675   0.269   0.638 -0.3607  0.0913 -0.0016
  302TMC3    C6 4601   0.034   0.173   0.657  0.0827 -0.4493 -0.3079
  302TMC3     C 4602   0.126   0.587   0.651 -0.1877 -0.0629  0.5860
  302TMC3     O 4603   0.038   0.653   0.600  0.1559  0.3104 -0.1447
  302TMC3     H 4604   0.297   0.387   0.725 -0.1085  1.6066 -0.2852
  302TMC3    H1 4605   4.641   0.465   0.578 -1.0401  0.8509  4.4659
  302TMC3    H2 4606   0.014   0.068   0.638 -1.2866 -0.3229  0.3956
  302TMC3    C7 4607   4.569   0.219   0.547  0.0147 -0.1046 -0.0350
  302TMC3    C8 4608   0.272   0.139   0.753 -0.3333  0.1258  0.4380
  302TMC3    O1 4609   4.609   0.127   0.479 -0.1470  0.0259 -0.2072
  302TMC3    O2 4610   0.350   0.190   0.827 -0.2884 -0.5394 -0.3708
  303MPD2     C 4611   4.318   4.340  10.309  0.5747 -0.4989 -0.6335
  303MPD2    C1 4612   4.205   4.267  10.299 -0.0142 -0.1104  0.3299
  303MPD2    C2 4613   4.211   4.151  10.234 -0.1586  0.4842  0.8061
  303MPD2    C3 4614   4.328   4.104  10.179  0.1496 -0.0940 -0.3389
  303MPD2    C4 4615   4.437   4.184  10.193  0.2456  0.6453 -0.1394
  303MPD2    C5 4616   4.434   4.298  10.264  0.2452 -0.5841  0.0833
  303MPD2     H 4617   4.117   4.105  10.209  1.1632 -2.3733  1.0609
  303MPD2    H1 4618   4.533   4.159  10.150  0.1508 -0.9654  0.5813
  303MPD2    H2 4619   4.304   4.437  10.354 -0.3556 -0.0030 -1.9897
  303MPD2    H3 4620   4.520   4.365  10.266  0.6590 -0.9239 -4.4425
  303MPD2     N 4621   4.342   3.983  10.100  0.9982  0.0581  0.5333
  303MPD2    H5 4622   4.437   3.948  10.089  0.7870 -0.7979  1.4466
  303MPD2    N1 4623   4.082   4.322  10.347  0.4056 -0.1811 -0.3371
  303MPD2    H7 4624   4.068   4.421  10.364 -0.8119 -0.1933 -1.3396
  304TMC3    C1 4625   3.851   4.355  10.353 -0.3846  0.0568  0.1777
  304TMC3    C2 4626   3.863   4.433  10.240  0.3188 -0.1678 -0.3669
  304TMC3    C3 4627   3.746   4.468  10.180  0.3925  0.2445 -0.5076
  304TMC3    C4 4628   3.736   4.331  10.415  0.5054  0.1557  0.5756
  304TMC3    C5 4629   3.617   4.371  10.365 -0.1455  0.2793 -0.3268
  304TMC3    C6 4630   3.622   4.448  10.250  0.3127 -0.5312 -0.9665
  304TMC3     C 4631   3.958   4.256  10.347 -0.2082  0.0324 -0.2481
  304TMC3     O 4632   3.931   4.138  10.358 -0.4597 -0.1056 -0.6286
  304TMC3     H 4633   3.956   4.444  10.186 -1.3954 -0.4327 -3.3572
  304TMC3    H1 4634   3.738   4.248  10.485  1.6998  0.0719  0.4443
  304TMC3    H2 4635   3.529   4.476  10.202  0.0730  0.1551 -0.0971
  304TMC3    C7 4636   3.516   4.277  10.356 -0.0262  0.2548  0.5805
  304TMC3    C8 4637   3.747   4.440  10.036  0.1295  0.2887  0.1972
  304TMC3    O1 4638   3.482   4.259  10.239 -0.4227 -0.4684 -0.0777
  304TMC3    O2 4639   3.827   4.493   9.957  0.3284  0.0786 -0.1263
  305MPD2     C 4640   3.233   1.258  13.849 -0.5410 -0.4219  1.1969
  305MPD2    C1 4641   3.217   1.143  13.920  0.3084  0.4110  0.1967
  305MPD2    C2 4642   3.152   1.042  13.854 -0.3124 -0.0702  0.5649
  305MPD2    C3 4643   3.100   1.063  13.723  0.4316 -0.6236 -0.1370
  305MPD2    C4 4644   3.115   1.183  13.656  0.0059 -0.1564 -1.1005
  305MPD2    C5 4645   3.181   1.280  13.726 -0.0309  0.1351 -0.3402
  305MPD2     H 4646   3.132   0.946  13.899 -2.3961 -0.1814 -0.5847
  305MPD2    H1 4647   3.081   1.204  13.555  1.0547 -0.6790 -1.5611
  305MPD2    H2 4648   3.303   1.334  13.883 -0.1560 -0.2453  0.0094
  305MPD2    H3 4649   3.203   1.370  13.670  0.8889 -0.3002 -0.6796
  305MPD2     N 4650   3.035   0.963  13.651 -0.3122 -0.2323 -0.1885
  305MPD2    H5 4651   3.002   0.987  13.558 -0.7137 -1.9819 -0.5134
  305MPD2    N1 4652   3.276   1.135  14.053 -0.2476 -0.6897  0.0284
  305MPD2    H7 4653   3.314   1.223  14.088 -1.2161 -0.2034 -0.1476
  306TMC3    C1 4654   3.321   1.057  14.281  0.9218 -0.0123  0.5074
  306TMC3    C2 4655   3.353   0.950  14.362 -0.3792 -0.5488  0.3985
  306TMC3    C3 4656   3.397   0.974  14.490 -0.0535 -0.4681  0.1180
  306TMC3    C4 4657   3.328   1.185  14.332  1.0626 -0.0654 -0.2913
  306TMC3    C5 4658   3.371   1.202  14.460 -0.3412  0.1508 -0.2290
  306TMC3    C6 4659   3.413   1.100  14.543 -0.0583 -0.4688 -0.2720
  306TMC3     C 4660   3.289   1.028  14.137  0.1382  0.3471  0.3855
  306TMC3     O 4661   3.267   0.910  14.102 -0.3392  0.2958  0.2756
  306TMC3     H 4662   3.335   0.851  14.320 -0.0526 -0.7994  0.8525
  306TMC3    H1 4663   3.319   1.267  14.262  0.6836  1.4786  1.5788
  306TMC3    H2 4664   3.455   1.110  14.642  1.5694  1.7960 -1.1900
  306TMC3    C7 4665   3.370   1.343  14.500  0.2789  0.6136  0.8558
  306TMC3    C8 4666   3.498   0.873  14.520 -0.4189  0.0315 -0.2979
  306TMC3    O1 4667   3.363   1.425  14.414 -0.2410 -0.5789 -1.0018
  306TMC3    O2 4668   3.522   0.793  14.430  0.7004 -0.3524  0.3588
  307MPD2     C 4669   1.034   4.214  17.553 -0.5082  0.5527  0.8423
  307MPD2    C1 4670   0.945   4.318  17.587  0.5937 -0.0033  0.9012
  307MPD2    C2 4671   0.880   4.315  17.711  0.1147  0.0622  0.6360
  307MPD2    C3 4672   0.893   4.202   0.050 -0.0310 -0.0554  0.1418
  307MPD2    C4 4673   0.986   4.101   0.015  1.1874 -0.1357  0.6058
  307MPD2    C5 4674   1.051   4.109  17.634  0.2811  0.6379 -0.2494
  307MPD2     H 4675   0.827   4.404   0.000 -0.3179 -0.1287  0.4461
  307MPD2    H1 4676   1.016   4.017   0.076  0.6456 -0.7361  0.0488
  307MPD2    H2 4677   1.102   4.218  17.469 -1.5063  0.2812  0.0269
  307MPD2    H3 4678   1.111   4.023  17.605 -1.0207 -1.0408  1.9987
  307MPD2     N 4679   0.818   4.198   0.167 -0.4007  0.5142  0.0238
  307MPD2    H5 4680   0.745   4.269   0.176 -1.7819 -0.6072 -2.5137
  307MPD2    N1 4681   0.920   4.434  17.511 -0.4974 -1.0673  0.3142
  307MPD2    H7 4682   0.835   4.479  17.542 -1.9292 -2.7910 -1.1638
  308TMC3    C1 4683   0.517   4.165   0.443 -0.9326  0.4677  0.0145
  308TMC3    C2 4684   0.550   4.282   0.515 -0.5293  0.0984  0.0508
  308TMC3    C3 4685   0.674   4.335   0.498  0.0438  0.3451  0.6412
  308TMC3    C4 4686   0.616   4.092   0.378  0.3085  0.3071 -0.0971
  308TMC3    C5 4687   0.738   4.141   0.381 -0.7012 -0.1092 -0.2765
  308TMC3    C6 4688   0.770   4.261   0.438  0.1516 -0.3453  0.0532
  308TMC3     C 4689   0.393   4.104   0.487  0.3572  0.4646 -0.2575
  308TMC3     O 4690   0.385   3.981   0.505 -0.0032 -0.1956  0.5573
  308TMC3     H 4691   0.477   4.333   0.577  0.3024  2.2223 -0.7244
  308TMC3    H1 4692   0.604   3.993   0.334 -1.8473  1.0538 -1.1656
  308TMC3    H2 4693   0.867   4.304   0.417  0.3751 -0.3903  1.0056
  308TMC3    C7 4694   0.826   4.106   0.270  0.0053  0.2805  0.5857
  308TMC3    C8 4695   0.706   4.472   0.526  0.0399 -0.2532  0.2018
  308TMC3    O1 4696   0.901   4.010   0.282  0.1099  0.2879  0.3362
  308TMC3    O2 4697   0.817   4.491   0.569  0.4646 -0.4086  0.3317
  309MPD2     C 4698   4.611   4.223  17.147 -0.0679 -0.2857 -0.5465
  309MPD2    C1 4699   4.526   4.220  17.037 -0.1103 -0.5009  0.0306
  309MPD2    C2 4700   4.404   4.279  17.041  0.1316  0.0127  0.2883
  309MPD2    C3 4701   4.353   4.342  17.154  0.0633  0.4940 -0.6772
  309MPD2    C4 4702   4.434   4.338  17.268 -0.0317  0.3011 -0.3843
  309MPD2    C5 4703   4.560   4.287  17.256 -0.1248 -0.4191  0.1313
  309MPD2     H 4704   4.363   4.283  16.941  1.0965  0.1769 -0.0965
  309MPD2    H1 4705   4.409   4.399  17.354 -1.7219  0.2910 -0.8807
  309MPD2    H2 4706   4.709   4.178  17.151  0.6464  1.0587 -2.9562
  309MPD2    H3 4707   4.627   4.298  17.341 -1.0915 -3.0284  1.2639
  309MPD2     N 4708   4.240   4.424  17.153  0.0653  0.0223  0.1203
  309MPD2    H5 4709   4.223   4.469  17.242  2.3990  0.9029  0.1189
  309MPD2    N1 4710   4.557   4.165  16.910 -0.3321  0.4735  0.2450
  309MPD2    H7 4711   4.490   4.164  16.834 -0.6057 -0.8434  0.5109
  310TMC3    C1 4712   4.695   4.109  16.743  0.1318  0.2907  0.1483
  310TMC3    C2 4713   4.600   4.162  16.656 -0.1993 -0.3944  0.4966
  310TMC3    C3 4714   4.612   4.131  16.520 -0.0067  0.7871 -0.0489
  310TMC3    C4 4715   0.067   4.038  16.692  1.0763  0.4901  0.8939
  310TMC3    C5 4716   0.081   4.038  16.554  0.0688 -0.0691  0.9007
  310TMC3    C6 4717   4.721   4.067  16.462 -0.7209  0.8577 -0.2491
  310TMC3     C 4718   4.680   4.114  16.888 -0.5948  0.0102 -0.1085
  310TMC3     O 4719   0.045   4.095  16.954 -0.5114  0.4126  0.3708
  310TMC3     H 4720   4.534   4.244  16.683  0.7280  1.3601 -2.4938
  310TMC3    H1 4721   0.146   3.999  16.755  1.0035 -1.7511 -0.4077
  310TMC3    H2 4722   0.008   4.069  16.356  0.2110  2.0974 -0.0167
  310TMC3    C7 4723   0.191   3.964  16.498 -0.0586 -0.2975 -0.7497
  310TMC3    C8 4724   4.527   4.201  16.431  0.1354 -0.3053  0.4859
  310TMC3    O1 4725   0.224   3.866  16.560 -0.3600  0.0560 -0.5192
  310TMC3    O2 4726   4.555   4.203  16.313  0.0682 -0.4771 -0.2362
  311MPD2     C 4727   1.989   0.743  12.425 -0.5559 -0.0871 -0.3013
  311MPD2    C1 4728   2.006   0.840  12.524 -1.0320  0.0121  0.1371
  311MPD2    C2 4729   1.948   0.837  12.648 -0.7361 -0.2525 -0.1725
  311MPD2    C3 4730   1.844   0.751  12.678  0.7560 -1.0734  0.0699
  311MPD2    C4 4731   1.812   0.669  12.571  0.2056 -0.2900  1.0075
  311MPD2    C5 4732   1.890   0.653  12.462  0.3141  0.2594  0.0529
  311MPD2     H 4733   1.970   0.916  12.718 -0.3566 -0.2763 -0.2671
  311MPD2    H1 4734   1.735   0.592  12.574  0.1298 -0.2961 -1.1924
  311MPD2    H2 4735   2.048   0.728  12.336  0.7166  3.4404 -0.0742
  311MPD2    H3 4736   1.863   0.566  12.404  0.6748 -0.3682  0.8299
  311MPD2     N 4737   1.774   0.753  12.795 -0.2296  0.4317 -0.2613
  311MPD2    H5 4738   1.802   0.823  12.863 -0.7742  0.8160 -0.4324
  311MPD2    N1 4739   2.102   0.947  12.499  0.5709  0.0688  0.2487
  311MPD2    H7 4740   2.124   1.008  12.577 -0.1328  1.9587 -1.0498
  312TMC3    C1 4741   1.578   0.756  12.929 -0.0765  0.0431  0.6110
  312TMC3    C2 4742   1.446   0.714  12.939 -0.0424 -1.0606 -0.2261
  312TMC3    C3 4743   1.359   0.788  13.022 -0.0455 -0.8265 -0.5497
  312TMC3    C4 4744   1.629   0.861  12.997 -0.0457  0.5331  0.1726
  312TMC3    C5 4745   1.534   0.935  13.069  0.1850  0.1797 -0.5434
  312TMC3    C6 4746   1.398   0.908  13.079  0.3479  0.4241 -0.4702
  312TMC3     C 4747   1.651   0.695  12.823 -0.5662 -0.0872  0.4252
  312TMC3     O 4748   1.583   0.617  12.750  0.3129  0.4056 -0.4362
  312TMC3     H 4749   1.418   0.616  12.903 -1.5600 -1.4386  2.0080
  312TMC3    H1 4750   1.730   0.899  13.001 -0.2828  1.1525  0.2465
  312TMC3    H2 4751   1.334   0.975  13.135 -0.2043 -0.8905  0.4660
  312TMC3    C7 4752   1.564   1.071  13.108  0.5681 -0.2161  0.2167
  312TMC3    C8 4753   1.222   0.739  13.031 -0.3812 -0.2177  0.7069
  312TMC3    O1 4754   1.478   1.160  13.102 -0.6849 -0.2403 -0.3028
  312TMC3    O2 4755   1.171   0.668  12.942  0.0945  0.0232  0.1841
  313MPD2     C 4756   0.752   3.933  10.655  0.9191  0.4301 -0.8596
  313MPD2    C1 4757   0.846   4.032  10.642 -0.0028 -0.2480  0.0113
  313MPD2    C2 4758   0.962   4.013  10.567 -0.1047  0.3958  0.7442
  313MPD2    C3 4759   0.994   3.888  10.511 -0.1109 -0.1371  0.1294
  313MPD2    C4 4760   0.896   3.784  10.527 -0.2066 -0.2596 -0.2788
  313MPD2    C5 4761   0.777   3.812  10.598 -0.7129  0.0252  0.2650
  313MPD2     H 4762   1.017   4.106  10.559 -0.9311  0.7159 -1.1688
  313MPD2    H1 4763   0.912   3.686  10.485 -1.6606 -0.9685  0.8409
  313MPD2    H2 4764   0.650   3.943  10.691  0.7095  0.2416 -1.4043
  313MPD2    H3 4765   0.706   3.730  10.601 -1.2945  0.4777 -0.7881
  313MPD2     N 4766   1.113   3.882  10.441 -0.0649  0.5211 -0.2657
  313MPD2    H5 4767   1.159   3.970  10.421  0.3684  0.3150 -0.1886
  313MPD2    N1 4768   0.836   4.162  10.696  0.8892 -0.1471  0.3993
  313MPD2    H7 4769   0.913   4.225  10.677  2.3756 -2.8050 -2.6160
  314TMC3    C1 4770   0.735   4.343  10.803  0.0574  0.2597  0.0522
  314TMC3    C2 4771   0.848   4.419  10.803  0.0105  0.0573  0.3549
  314TMC3    C3 4772   0.846   4.554  10.787  0.1580  0.0431  0.2828
  314TMC3    C4 4773   0.618   4.413  10.792 -0.4874  1.0409  0.1159
  314TMC3    C5 4774   0.611   4.550  10.772  0.1078  0.0908  0.6694
  314TMC3    C6 4775   0.729   4.621  10.768  0.1273 -0.4029  0.7138
  314TMC3     C 4776   0.730   4.207  10.774 -0.4574  0.1308  0.1277
  314TMC3     O 4777   0.627   4.143  10.793  0.2897 -0.0906 -0.0597
  314TMC3     H 4778   0.937   4.370  10.842 -0.8624 -0.3639  1.8261
  314TMC3    H1 4779   0.529   4.352  10.780  1.1400 -1.4772  0.8333
  314TMC3    H2 4780   0.736   4.728  10.757  1.5637 -0.4124  1.5703
  314TMC3    C7 4781   0.518   4.582  10.664  0.0215 -0.0588 -0.1664
  314TMC3    C8 4782   0.971   4.634  10.795  0.1218  0.4302 -0.0682
  314TMC3    O1 4783   0.426   4.502  10.643  0.3034 -0.0940 -0.3821
  314TMC3    O2 4784   0.956   0.019  10.816  0.3284  0.6171 -0.5570
  315MPD2     C 4785   0.960   0.133   0.036 -0.9954  0.4523 -0.4351
  315MPD2    C1 4786   1.061   0.062  17.720  0.4223 -0.3486 -0.8220
  315MPD2    C2 4787   1.128   0.117  17.610 -0.2942  0.3546 -0.1762
  315MPD2    C3 4788   1.096   0.237  17.558  0.1084  0.3548  0.1525
  315MPD2    C4 4789   1.000   0.312  17.619  0.2741  0.5815 -0.3129
  315MPD2    C5 4790   0.938   0.261  17.732  0.4911  0.0150  0.6378
  315MPD2     H 4791   1.191   0.050  17.553 -0.1611 -1.5822  2.2203
  315MPD2    H1 4792   0.970   0.409  17.581  0.8093  1.8496  2.4410
  315MPD2    H2 4793   0.907   0.106   0.127  0.7939  0.2648  0.5633
  315MPD2    H3 4794   0.861   0.324   0.034  0.4282  1.2496 -1.2834
  315MPD2     N 4795   1.175   0.280  17.447  0.3738  0.0922  0.4103
  315MPD2    H5 4796   1.227   0.213  17.391  2.3065  2.0326 -0.1110
  315MPD2    N1 4797   1.102   4.669   0.025  0.0642 -0.7076  0.2215
  315MPD2    H7 4798   1.175   4.613  17.724  1.6954  0.9988  0.8047
  316TMC3    C1 4799   1.325   0.420  17.359 -1.3800 -0.4693  1.3763
  316TMC3    C2 4800   1.414   0.387  17.457  0.2252 -0.1468 -0.1196
  316TMC3    C3 4801   1.533   0.322  17.423 -0.7344 -0.3677 -0.5876
  316TMC3    C4 4802   1.336   0.359  17.232  0.1513 -0.0588  0.0609
  316TMC3    C5 4803   1.456   0.304  17.204  0.3730  0.4471 -0.4793
  316TMC3    C6 4804   1.564   0.298  17.291 -0.1947  0.0385  0.2626
  316TMC3     C 4805   1.195   0.416  17.420  0.5903 -0.3714 -0.5465
  316TMC3     O 4806   1.161   0.514  17.484  0.5044 -0.5666  0.0576
  316TMC3     H 4807   1.397   0.425  17.557 -2.2601  0.2205 -0.6850
  316TMC3    H1 4808   1.246   0.352  17.172  0.8118  2.0823 -1.1544
  316TMC3    H2 4809   1.655   0.246  17.263 -0.5385 -1.3898  1.7698
  316TMC3    C7 4810   1.481   0.238  17.074 -0.6828  0.1307 -0.3798
  316TMC3    C8 4811   1.597   0.239  17.517  0.5087  0.1304  0.0518
  316TMC3    O1 4812   1.585   0.180  17.058 -0.0904  0.0061  0.1817
  316TMC3    O2 4813   1.690   0.170  17.473 -0.0804 -0.1811  0.3795
  317MPD2     C 4814   2.954   3.015  13.400  0.2107 -0.4361 -1.0371
  317MPD2    C1 4815   3.039   2.939  13.312  0.5184 -0.1922 -0.0882
  317MPD2    C2 4816   3.097   2.824  13.368  0.5360 -0.0005 -0.3137
  317MPD2    C3 4817   3.071   2.780  13.493  0.5902 -0.1240 -0.0892
  317MPD2    C4 4818   2.986   2.848  13.574  0.4398 -0.4024  0.4874
  317MPD2    C5 4819   2.920   2.957  13.520 -1.3614  0.3102  1.3404
  317MPD2     H 4820   3.160   2.760  13.308 -2.7508 -0.8329 -2.9014
  317MPD2    H1 4821   2.962   2.823  13.677 -0.1929 -1.8199 -0.0095
  317MPD2    H2 4822   2.904   3.108  13.376 -1.2087 -0.6184  1.2715
  317MPD2    H3 4823   2.848   3.009  13.582 -0.4673  2.3910  0.6283
  317MPD2     N 4824   3.155   2.672  13.537  0.0857 -0.8206 -0.0079
  317MPD2    H5 4825   3.219   2.630  13.470  1.4185 -1.3623  1.6105
  317MPD2    N1 4826   3.090   2.982  13.190 -0.0563 -0.2425  0.3882
  317MPD2    H7 4827   3.143   2.913  13.138  0.7167  0.7130 -0.0771
  318TMC3    C1 4828   3.226   2.502  13.696 -0.1668  0.7820 -0.1036
  318TMC3    C2 4829   3.206   2.402  13.612 -0.3596  0.3743  0.5147
  318TMC3    C3 4830   3.283   2.289  13.630 -0.2052 -0.5722 -0.0903
  318TMC3    C4 4831   3.332   2.500  13.785  1.0423  0.4534 -0.1561
  318TMC3    C5 4832   3.399   2.383  13.795 -0.2256  0.8409 -0.5777
  318TMC3    C6 4833   3.376   2.272  13.721  0.2178  0.4412  0.2453
  318TMC3     C 4834   3.160   2.627  13.665  0.0208  0.6973  0.2216
  318TMC3     O 4835   3.113   2.676  13.763  0.2673  0.5485  0.3733
  318TMC3     H 4836   3.125   2.409  13.540  0.9756  0.4284 -1.0007
  318TMC3    H1 4837   3.348   2.578  13.859  0.3980 -1.2244  1.7387
  318TMC3    H2 4838   3.436   2.183  13.740 -0.4648 -0.3629 -1.4189
  318TMC3    C7 4839   3.488   2.367  13.905  0.4732  0.1766  0.4471
  318TMC3    C8 4840   3.254   2.174  13.550 -1.0520  0.2202 -0.1596
  318TMC3    O1 4841   3.455   2.426  14.009  0.2434 -0.5926  0.0043
  318TMC3    O2 4842   3.323   2.077  13.575 -0.1086 -0.4486  0.4867
  319MPD2     C 4843   4.011   4.138  16.902  0.5148  0.3721 -0.0674
  319MPD2    C1 4844   3.992   4.004  16.893 -0.2209 -0.3646 -0.5947
  319MPD2    C2 4845   3.921   3.948  16.785  0.2975  0.3056 -0.2717
  319MPD2    C3 4846   3.875   4.036  16.685  0.1067 -0.1128  0.3077
  319MPD2    C4 4847   3.900   4.169  16.700  0.9242 -0.2008  0.7558
  319MPD2    C5 4848   3.971   4.220  16.804  0.2999  0.2166  0.0098
  319MPD2     H 4849   3.892   3.844  16.784 -2.3958  1.0452  0.9345
  319MPD2    H1 4850   3.864   4.240  16.626 -0.8846 -1.1589  0.7025
  319MPD2    H2 4851   4.058   4.192  16.984 -1.2609 -0.5326  1.5719
  319MPD2    H3 4852   4.004   4.323  16.810  0.4582 -0.0477  4.1066
  319MPD2     N 4853   3.795   3.999  16.570 -0.4121  0.1789  0.7501
  319MPD2    H5 4854   3.742   4.074  16.528  1.6279  0.7297 -0.7987
  319MPD2    N1 4855   4.017   3.921  17.008 -0.3346 -0.4783  0.1913
  319MPD2    H7 4856   3.996   3.823  16.994 -1.8805 -0.2383  0.8334
  320TMC3    C1 4857   3.690   3.856  16.431 -1.4313 -0.3025 -0.2409
  320TMC3    C2 4858   3.686   3.941  16.324  0.4068  0.2142  0.1255
  320TMC3    C3 4859   3.589   3.918  16.234 -0.1291  0.1491  0.0037
  320TMC3    C4 4860   3.602   3.758  16.454  0.2241 -0.1184  0.8955
  320TMC3    C5 4861   3.516   3.726  16.354 -0.0196  0.2819 -0.3553
  320TMC3    C6 4862   3.511   3.801  16.234  0.0769  0.4364  0.7524
  320TMC3     C 4863   3.791   3.872  16.529 -0.3545  0.0397 -0.2778
  320TMC3     O 4864   3.852   3.773  16.573  0.4354 -0.0868  0.3203
  320TMC3     H 4865   3.748   4.029  16.312  1.2725 -0.6143 -1.4131
  320TMC3    H1 4866   3.612   3.704  16.548  0.7362  0.7477  1.3296
  320TMC3    H2 4867   3.425   3.789  16.169 -0.6227 -0.5230  1.8682
  320TMC3    C7 4868   3.424   3.616  16.369 -0.6338 -0.2030 -0.1972
  320TMC3    C8 4869   3.568   4.009  16.121  0.5457  0.6695 -0.3689
  320TMC3    O1 4870   3.360   3.570  16.274 -0.2995  0.1024 -0.5091
  320TMC3    O2 4871   3.625   4.117  16.118 -0.3775  0.3431 -0.2586
  321TMC3    C1 4872   4.023   3.871  17.237 -0.3476 -0.5269  0.6551
  321TMC3    C2 4873   4.058   3.737  17.221  0.1940 -0.1355  0.0571
  321TMC3    C3 4874   4.011   3.648  17.314 -1.0505 -0.5927  0.1953
  321TMC3    C4 4875   3.978   3.916  17.356  0.2578  0.1919 -0.0246
  321TMC3    C5 4876   3.966   3.825  17.458  0.4840 -0.3817 -0.6180
  321TMC3    C6 4877   3.961   3.688  17.436 -0.0674 -0.8231  0.1257
  321TMC3     C 4878   4.052   3.967  17.132  0.5758 -0.5100 -0.6312
  321TMC3     O 4879   4.089   4.075  17.174  0.2091  0.0949 -0.5846
  321TMC3     H 4880   4.094   3.705  17.124  2.0901  0.2111  0.6632
  321TMC3    H1 4881   3.962   4.023  17.366  1.3499  0.4483 -0.9403
  321TMC3    H2 4882   3.944   3.619  17.517  2.5635 -0.7305  0.7470
  321TMC3    C7 4883   4.074   3.846  17.557  1.2256  0.5537  0.8469
  321TMC3    C8 4884   4.089   3.524  17.317 -0.1212 -0.4688  0.1082
  321TMC3    O1 4885   4.076   3.758  17.638  0.2486 -0.8566 -0.1639
  321TMC3    O2 4886   4.204   3.531  17.274  0.5429 -0.2607  0.1158
  322MPD2     C 4887   2.823   0.454  13.668  0.7071 -0.3642  1.1867
  322MPD2    C1 4888   2.888   0.375  13.755  0.3558  0.1957 -0.4572
  322MPD2    C2 4889   2.922   0.246  13.716 -0.9602 -0.6241  0.9514
  322MPD2    C3 4890   2.896   0.198  13.580 -0.7801 -0.4568 -0.1146
  322MPD2    C4 4891   2.853   0.295  13.491  0.0869 -0.2597 -0.2142
  322MPD2    C5 4892   2.804   0.414  13.541 -0.0281 -0.3087  0.0064
  322MPD2     H 4893   2.983   0.188  13.784 -0.7401 -0.2326  1.0904
  322MPD2    H1 4894   2.833   0.267  13.388  1.6918 -2.3680  0.0403
  322MPD2    H2 4895   2.779   0.551  13.686  1.2957 -0.4202  2.8705
  322MPD2    H3 4896   2.746   0.481  13.480  1.1028  0.6152 -0.0684
  322MPD2     N 4897   2.934   0.066  13.548  0.1284  0.2768  0.5813
  322MPD2    H5 4898   2.963   0.003  13.622 -0.0732 -0.4078  0.0722
  322MPD2    N1 4899   2.930   0.434  13.878  0.9519 -0.2656  0.1536
  322MPD2    H7 4900   2.932   0.535  13.885 -1.0696 -0.1706 -0.4228
  323TMC3    C1 4901   3.025   0.433  14.092 -0.0702 -0.3731 -1.0298
  323TMC3    C2 4902   3.115   0.526  14.053 -0.1877 -0.2707  0.0620
  323TMC3    C3 4903   3.221   0.547  14.144 -0.0174  0.5724  0.1289
  323TMC3    C4 4904   3.014   0.385  14.216 -0.3939  0.4636  0.5033
  323TMC3    C5 4905   3.115   0.422  14.303  0.6392 -0.1540 -0.6795
  323TMC3    C6 4906   3.217   0.493  14.271  0.1884 -0.3632  0.5140
  323TMC3     C 4907   2.956   0.364  13.987 -0.2994  0.0533  0.2331
  323TMC3     O 4908   2.934   0.245  14.013 -0.7406 -0.6868  0.1679
  323TMC3     H 4909   3.124   0.555  13.949  1.2612  1.3603  0.6482
  323TMC3    H1 4910   2.937   0.317  14.251 -0.3945  0.1002 -0.2020
  323TMC3    H2 4911   3.313   0.492  14.321 -0.0383 -0.6395  0.9430
  323TMC3    C7 4912   3.123   0.355  14.428 -0.2645 -1.0921 -0.0497
  323TMC3    C8 4913   3.350   0.553  14.082 -0.1033  0.0965  1.0201
  323TMC3    O1 4914   3.089   0.237  14.430  0.6042  0.0644 -0.0648
  323TMC3    O2 4915   3.430   0.465  14.122 -0.5435 -0.2021  0.0180
  324MPD2     C 4916   0.278   1.142  14.402 -0.3276  0.8005 -0.3563
  324MPD2    C1 4917   0.303   1.275  14.422 -0.3088  0.4947  0.6828
  324MPD2    C2 4918   0.194   1.362  14.448 -0.3107 -0.0326  0.7326
  324MPD2    C3 4919   0.067   1.315  14.447 -0.1124  0.7599 -0.4401
  324MPD2    C4 4920   0.044   1.178  14.419 -0.5890  0.2954 -0.5035
  324MPD2    C5 4921   0.144   1.096  14.399  1.2669 -0.6233 -0.7140
  324MPD2     H 4922   0.218   1.464  14.477 -3.8310  1.5842 -2.1476
  324MPD2    H1 4923   4.680   1.138  14.429  0.4802 -1.7931  1.6881
  324MPD2    H2 4924   0.355   1.067  14.392 -1.3196 -0.6793  3.3268
  324MPD2    H3 4925   0.117   0.994  14.376  1.9139 -0.6825 -1.1869
  324MPD2     N 4926   4.686   1.395  14.475  0.6632 -0.1096  0.4452
  324MPD2    H5 4927   4.603   1.338  14.486 -0.0139  0.6520 -0.7075
  324MPD2    N1 4928   0.431   1.335  14.421 -0.1571 -0.2358  0.0873
  324MPD2    H7 4929   0.441   1.422  14.472 -1.2711 -0.0708  0.0091
  325TMC3    C1 4930   4.541   1.575  14.520 -0.3411 -0.7639  0.2931
  325TMC3    C2 4931   4.442   1.482  14.501  0.4607  0.5744 -0.2814
  325TMC3    C3 4932   4.311   1.526  14.512 -0.0762 -0.0651  0.7713
  325TMC3    C4 4933   4.515   1.704  14.557  0.8662 -0.1008  0.2426
  325TMC3    C5 4934   4.381   1.733  14.586 -0.1925 -0.3498  0.0279
  325TMC3    C6 4935   4.276   1.649  14.561 -0.3160 -1.1236 -0.3280
  325TMC3     C 4936   4.678   1.528  14.493 -0.4379  0.5399 -0.6376
  325TMC3     O 4937   0.031   1.608  14.472  0.7737  0.4631  0.4988
  325TMC3     H 4938   4.462   1.386  14.455 -0.1788  1.0020 -1.4496
  325TMC3    H1 4939   4.597   1.774  14.570  1.4051 -0.8787  1.0168
  325TMC3    H2 4940   4.177   1.681  14.590 -1.2345 -1.9094 -2.5847
  325TMC3    C7 4941   4.347   1.861  14.639  0.7446 -0.2540 -0.5450
  325TMC3    C8 4942   4.213   1.437  14.463 -0.4583  0.5257 -0.1006
  325TMC3    O1 4943   4.438   1.940  14.662  0.2402  0.4360  0.4127
  325TMC3    O2 4944   4.251   1.321  14.443  0.6119  0.5898  0.0608
  326MPD2     C 4945   0.166   1.913  10.951 -0.0742 -0.4373 -0.0822
  326MPD2    C1 4946   0.241   1.916  10.840  0.1178  0.4838 -0.0849
  326MPD2    C2 4947   0.369   1.970  10.854  0.1696  0.1795 -1.0162
  326MPD2    C3 4948   0.418   2.016  10.972  0.5677 -0.0191  0.3024
  326MPD2    C4 4949   0.327   2.027  11.074  0.0333 -0.5807 -0.0915
  326MPD2    C5 4950   0.200   1.975  11.072  0.0240 -0.5249 -0.4824
  326MPD2     H 4951   0.433   1.959  10.767  1.0577  0.6498 -0.4178
  326MPD2    H1 4952   0.358   2.066  11.170 -0.1127 -1.8952  0.4927
  326MPD2    H2 4953   0.068   1.869  10.940  1.5180 -3.2122 -3.2561
  326MPD2    H3 4954   0.131   1.974  11.156 -0.3656  0.6715 -0.7915
  326MPD2     N 4955   0.553   2.066  10.971  0.0206 -0.2686  0.6931
  326MPD2    H5 4956   0.581   2.121  11.051  0.3930 -2.6245  2.1925
  326MPD2    N1 4957   0.202   1.861  10.711  0.0328 -0.2669  0.3471
  326MPD2    H7 4958   0.276   1.865  10.642 -0.4963  2.0483 -0.0771
  327TMC3    C1 4959   0.104   1.775  10.528 -0.4755 -0.5000  0.1994
  327TMC3    C2 4960   0.023   1.829  10.436 -0.6010  0.2941  0.9678
  327TMC3    C3 4961   0.073   1.895  10.326  0.7750  0.1547  1.5615
  327TMC3    C4 4962   0.235   1.750  10.499 -0.0046 -0.4396  0.3409
  327TMC3    C5 4963   0.284   1.805  10.383  0.4794 -0.2204 -0.2264
  327TMC3    C6 4964   0.203   1.873  10.298 -0.6364 -0.1607  0.0978
  327TMC3     C 4965   0.084   1.807  10.665 -0.2146  0.1064  0.6670
  327TMC3     O 4966   4.706   1.835  10.705  0.3618  0.2152 -0.0200
  327TMC3     H 4967   4.655   1.848  10.460 -0.1516 -0.7593  3.6971
  327TMC3    H1 4968   0.294   1.691  10.569 -1.6583 -0.7136  1.4953
  327TMC3    H2 4969   0.249   1.922  10.212 -1.5556 -1.1691 -0.9691
  327TMC3    C7 4970   0.420   1.821  10.352 -0.0574  0.5325  0.3368
  327TMC3    C8 4971   0.026   2.027  10.304  0.8073 -0.0704  0.0667
  327TMC3    O1 4972   0.444   1.845  10.237 -0.6437 -0.4534  0.7561
  327TMC3    O2 4973   0.046   2.061  10.187  0.5798  0.4390 -0.3424
  328MPD2     C 4974   3.528   2.705  17.184 -0.5634 -0.0220  0.4681
  328MPD2    C1 4975   3.401   2.660  17.197 -0.6711  0.0802 -0.0158
  328MPD2    C2 4976   3.295   2.722  17.138 -0.0926  0.0997  0.2686
  328MPD2    C3 4977   3.318   2.839  17.065  0.1431  0.3734  0.4426
  328MPD2    C4 4978   3.443   2.899  17.061 -0.4013  0.0485 -0.1362
  328MPD2    C5 4979   3.548   2.816  17.105 -0.4481 -0.2691 -0.2899
  328MPD2     H 4980   3.192   2.688  17.139 -0.6948  1.9051 -0.5244
  328MPD2    H1 4981   3.475   2.985  17.004 -2.1286  1.8760  1.6529
  328MPD2    H2 4982   3.612   2.658  17.234  0.8173 -0.8789 -2.6466
  328MPD2    H3 4983   3.650   2.852  17.094 -1.1623  1.0115 -2.7773
  328MPD2     N 4984   3.214   2.906  17.002  0.2250  0.2253  0.4746
  328MPD2    H5 4985   3.234   2.999  16.967  0.0367 -0.5960 -1.8413
  328MPD2    N1 4986   3.377   2.556  17.289 -0.1958  0.1809 -0.1375
  328MPD2    H7 4987   3.451   2.532  17.355  2.0454  0.7750 -2.4684
  329TMC3    C1 4988   3.253   2.412  17.428  0.2514  0.5409  0.4091
  329TMC3    C2 4989   3.287   2.480  17.542  0.2174  0.8780 -0.0311
  329TMC3    C3 4990   3.274   2.422  17.665  0.0267 -1.1111 -0.2934
  329TMC3    C4 4991   3.193   2.287  17.431  0.0297 -0.2366 -0.7430
  329TMC3    C5 4992   3.167   2.230  17.552  0.1955  0.5681 -0.2484
  329TMC3    C6 4993   3.221   2.293  17.665  0.1014 -0.7168  0.2242
  329TMC3     C 4994   3.254   2.490  17.305 -0.0513 -0.2063 -0.1447
  329TMC3     O 4995   3.155   2.493  17.231  0.6949  0.4316 -0.5718
  329TMC3     H 4996   3.321   2.582  17.528 -0.1390  1.1416  0.9730
  329TMC3    H1 4997   3.148   2.251  17.339  1.0656 -2.3197 -0.4431
  329TMC3    H2 4998   3.225   2.253   0.025 -1.8123  0.9591  0.9763
  329TMC3    C7 4999   3.086   2.107  17.546 -0.9233 -0.6022  0.1284
  329TMC3    C8 5000   3.306   2.499   0.040 -0.7028  0.5405 -0.2458
  329TMC3    O1 5001   3.060   2.064  17.435  0.3144 -0.0896  0.2490
  329TMC3    O2 5002   3.401   2.459   0.112 -0.2653 -0.0132 -0.1004
  330TMC3    C1 5003   0.478   2.038   8.782  0.1454 -0.3227  0.4200
  330TMC3    C2 5004   0.359   1.993   8.846 -0.1657  0.6618  0.2266
  330TMC3    C3 5005   0.385   1.930   8.970  0.3125 -0.3641 -0.1098
  330TMC3    C4 5006   0.599   2.015   8.831  0.2040 -0.7061  0.1156
  330TMC3    C5 5007   0.618   1.959   8.954  0.2430 -0.1740 -0.5450
  330TMC3    C6 5008   0.509   1.922   9.029  0.5491 -0.3003  0.3495
  330TMC3     C 5009   0.463   2.121   8.661 -0.2202  0.3658  0.3165
  330TMC3     O 5010   0.561   2.124   8.590 -0.9019 -0.0327 -0.2737
  330TMC3     H 5011   0.264   1.986   8.795 -0.1239 -1.0160  0.3828
  330TMC3    H1 5012   0.680   2.058   8.773 -1.4827  0.2583 -1.5055
  330TMC3    H2 5013   0.521   1.867   9.122  3.1703 -2.3809 -1.2255
  330TMC3    C7 5014   0.745   1.904   8.976 -0.5433  0.5908 -0.2580
  330TMC3    C8 5015   0.282   1.831   9.002  0.3773 -0.2706  0.1618
  330TMC3    O1 5016   0.804   1.833   8.896  0.3362 -0.5388  0.1099
  330TMC3    O2 5017   0.175   1.850   8.955  0.0467  0.4266  0.2133
  331MPD2     C 5018   4.696   1.066  13.186 -0.0786  0.0445  0.1640
  331MPD2    C1 5019   4.654   1.065  13.060  0.1184 -0.8358 -0.4995
  331MPD2    C2 5020   4.560   0.974  13.012  0.0981  0.0070 -0.8349
  331MPD2    C3 5021   4.499   0.889  13.103 -0.6474 -0.2787 -0.2563
  331MPD2    C4 5022   4.553   0.887  13.230  0.1888  0.2465 -0.1669
  331MPD2    C5 5023   4.654   0.969  13.266  0.4467 -0.4338  0.5612
  331MPD2     H 5024   4.528   0.968  12.908 -1.2958  0.6071 -0.4372
  331MPD2    H1 5025   4.518   0.825  13.312 -0.5867 -0.1014 -0.7645
  331MPD2    H2 5026   0.026   1.145  13.221 -0.6595  0.3141  0.6490
  331MPD2    H3 5027   4.694   0.966  13.367  2.2331 -1.7127 -0.1896
  331MPD2     N 5028   4.403   0.799  13.050 -0.1567 -0.1623  0.3331
  331MPD2    H5 5029   4.386   0.823  12.953  1.9956 -0.2070 -0.0588
  331MPD2    N1 5030   4.703   1.164  12.973 -1.0405  0.6430 -0.6611
  331MPD2    H7 5031   4.723   1.254  13.017  0.9703 -0.7179  1.2074
  332TMC3    C1 5032   4.246   0.640  13.015  0.0870 -0.2030  0.4770
  332TMC3    C2 5033   4.213   0.723  12.913 -0.0146 -0.0821  0.3904
  332TMC3    C3 5034   4.165   0.668  12.802  0.2983 -0.3500 -0.1803
  332TMC3    C4 5035   4.282   0.506  12.992  1.1300  0.2802 -0.2751
  332TMC3    C5 5036   4.235   0.458  12.879 -0.1091 -0.3529  0.6591
  332TMC3    C6 5037   4.166   0.531  12.789  0.1096  0.0042 -0.3154
  332TMC3     C 5038   4.343   0.694  13.110 -0.2510  0.0361 -0.3467
  332TMC3     O 5039   4.358   0.649  13.222 -0.3886 -0.7538  0.3969
  332TMC3     H 5040   4.192   0.829  12.921  1.2314  0.4187 -2.9603
  332TMC3    H1 5041   4.321   0.447  13.074  3.2911 -1.1176 -2.3195
  332TMC3    H2 5042   4.136   0.485  12.696 -0.0541  1.0462 -0.7872
  332TMC3    C7 5043   4.310   0.351  12.822 -0.3384  0.2734 -0.0444
  332TMC3    C8 5044   4.096   0.749  12.705  0.5774 -0.8040 -0.4772
  332TMC3    O1 5045   4.261   0.293  12.728  0.9635 -0.2094 -0.0515
  332TMC3    O2 5046   4.112   0.870  12.691  0.5226 -0.3095 -0.2735
  333MPD2     C 5047   3.673   0.538  10.918  0.4712 -0.4031  0.6745
  333MPD2    C1 5048   3.801   0.499  10.950 -0.1352 -0.0015  0.5165
  333MPD2    C2 5049   3.827   0.425  11.070 -0.0072  0.4616  0.5577
  333MPD2    C3 5050   3.734   0.431  11.176 -0.2601 -0.3578  0.7598
  333MPD2    C4 5051   3.611   0.495  11.145  0.6985 -0.4399  0.0742
  333MPD2    C5 5052   3.583   0.541  11.016 -0.3075  0.5777  0.3866
  333MPD2     H 5053   3.925   0.381  11.087 -0.7562 -1.4276 -0.0319
  333MPD2    H1 5054   3.531   0.505  11.218  0.1024  0.6273 -0.7394
  333MPD2    H2 5055   3.635   0.581  10.825  0.0705 -0.1284  0.9665
  333MPD2    H3 5056   3.487   0.590  11.010 -1.1941 -1.3085 -0.7138
  333MPD2     N 5057   3.770   0.378  11.301 -0.0975  0.0447  0.1891
  333MPD2    H5 5058   3.846   0.312  11.307  0.6772  1.1345  2.2013
  333MPD2    N1 5059   3.891   0.530  10.846  0.2423  0.1297 -0.2664
  333MPD2    H7 5060   3.848   0.581  10.769 -0.5019  0.4527  0.3728
  334TMC3    C1 5061   4.090   0.570  10.741 -0.2651 -0.3146  0.3679
  334TMC3    C2 5062   4.207   0.513  10.697  0.4621  0.1869 -0.2486
  334TMC3    C3 5063   4.269   0.558  10.583  0.0710  0.5083 -1.0137
  334TMC3    C4 5064   4.027   0.675  10.669 -0.2997  0.5104 -0.3566
  334TMC3    C5 5065   4.104   0.721  10.564 -0.5778  0.3040  0.1488
  334TMC3    C6 5066   4.222   0.667  10.523  0.1314 -0.3544  0.2713
  334TMC3     C 5067   4.025   0.504  10.854  0.1895 -0.0019  0.3166
  334TMC3     O 5068   4.072   0.403  10.909  0.1380  0.1303  0.4393
  334TMC3     H 5069   4.256   0.439  10.759  0.4393 -1.6029 -2.3455
  334TMC3    H1 5070   3.944   0.735  10.704 -0.7737  0.0263 -0.6321
  334TMC3    H2 5071   4.273   0.705  10.435 -2.0058 -0.8909 -1.1981
  334TMC3    C7 5072   4.080   0.852  10.503  0.9542  0.7291  0.3698
  334TMC3    C8 5073   4.418   0.550  10.574 -0.1195  0.3401 -0.8061
  334TMC3    O1 5074   4.177   0.910  10.445 -0.1997  0.4330  0.1258
  334TMC3    O2 5075   4.490   0.643  10.544  0.0578  0.0636  0.1510
  335TMC3    C1 5076   4.066   2.657  17.158  0.0923 -0.2011 -0.7053
  335TMC3    C2 5077   4.016   2.577  17.056 -0.6258 -0.8770 -0.3103
  335TMC3    C3 5078   4.108   2.505  16.985  0.6759 -0.1435 -0.5733
  335TMC3    C4 5079   4.201   2.666  17.192  0.0266  0.6639  0.0691
  335TMC3    C5 5080   4.285   2.584  17.118 -0.5130 -0.0080 -0.3247
  335TMC3    C6 5081   4.240   2.497  17.020  0.2864  0.6555  0.4320
  335TMC3     C 5082   3.985   2.780  17.157 -0.0073 -0.5701  0.5017
  335TMC3     O 5083   3.867   2.773  17.187 -0.3076  0.2630  0.3777
  335TMC3     H 5084   3.921   2.595  17.008  0.2825  0.3848 -1.6411
  335TMC3    H1 5085   4.237   2.706  17.286  1.4574 -1.5810  0.4699
  335TMC3    H2 5086   4.297   2.424  16.966 -1.7299 -0.9795  0.5183
  335TMC3    C7 5087   4.425   2.562  17.157  0.2894 -1.1071 -0.0133
  335TMC3    C8 5088   4.067   2.414  16.879  0.1687 -0.1472 -0.1053
  335TMC3    O1 5089   4.484   2.457  17.134  0.5278 -0.3702 -0.3160
  335TMC3    O2 5090   4.145   2.409  16.791 -0.2330  0.7491 -0.2783
  336MPD2     C 5091   3.890   0.414  16.098 -0.0205  0.6130  1.2640
  336MPD2    C1 5092   3.877   0.328  15.995  0.1369  0.2823  0.4265
  336MPD2    C2 5093   3.866   0.190  16.029  0.6620  0.1374 -0.1396
  336MPD2    C3 5094   3.870   0.149  16.158 -0.2654 -0.4984 -0.1678
  336MPD2    C4 5095   3.891   0.244  16.258 -0.2668 -0.2836  0.3695
  336MPD2    C5 5096   3.906   0.375  16.228  0.0892 -0.0089 -0.0895
  336MPD2     H 5097   3.856   0.110  15.957  0.8847 -0.2661  0.2843
  336MPD2    H1 5098   3.891   0.219  16.364  0.4728  3.0351  1.1797
  336MPD2    H2 5099   3.893   0.521  16.084  0.2229  0.4993  0.4392
  336MPD2    H3 5100   3.916   0.449  16.306 -1.6201  1.3001 -1.1058
  336MPD2     N 5101   3.864   0.017  16.193  0.0531  0.5187  0.3954
  336MPD2    H5 5102   3.855   0.005  16.293 -1.7143  0.1498  0.1861
  336MPD2    N1 5103   3.876   0.372  15.861  0.0082  0.0290 -0.3550
  336MPD2    H7 5104   3.864   0.304  15.786  1.3106  1.4982 -1.8671
  337TMC3    C1 5105   3.870   0.506  15.675 -0.0519  0.0641  0.0854
  337TMC3    C2 5106   3.774   0.430  15.616 -0.1276  0.4765  0.1007
  337TMC3    C3 5107   3.719   0.477  15.499 -0.4000 -0.3614 -0.2144
  337TMC3    C4 5108   3.911   0.626  15.616 -0.0271 -0.2369 -0.1388
  337TMC3    C5 5109   3.862   0.671  15.497 -0.1005 -0.7007 -0.1749
  337TMC3    C6 5110   3.767   0.591  15.441  1.2428 -0.6850 -0.5041
  337TMC3     C 5111   3.888   0.500  15.820  0.0085 -0.4860  0.3250
  337TMC3     O 5112   3.905   0.608  15.876  0.1400 -0.5085  0.5957
  337TMC3     H 5113   3.719   0.360  15.677 -0.3617  0.6884  0.1356
  337TMC3    H1 5114   3.986   0.685  15.667 -0.0008  2.6005 -3.4711
  337TMC3    H2 5115   3.706   0.636  15.363  1.5224  0.1744 -0.2225
  337TMC3    C7 5116   3.863   0.816  15.473  0.4109 -0.3041  0.0915
  337TMC3    C8 5117   3.572   0.456  15.478  0.3522  0.0836  0.6512
  337TMC3    O1 5118   3.896   0.892  15.563  0.3280 -0.0063  0.2871
  337TMC3    O2 5119   3.540   0.339  15.461 -0.4159  0.1199 -0.0903
  338MPD2     C 5120   4.119   0.183   0.822 -0.4951 -0.5212  0.4293
  338MPD2    C1 5121   4.047   0.109   0.735  0.9506 -0.3995 -0.2682
  338MPD2    C2 5122   3.905   0.108   0.731  0.1965 -0.2855  0.3828
  338MPD2    C3 5123   3.833   0.185   0.825  0.5677 -0.3901  0.5334
  338MPD2    C4 5124   3.915   0.258   0.915  0.1936  0.0897  0.0369
  338MPD2    C5 5125   4.052   0.245   0.918  0.7621 -0.6555  0.8525
  338MPD2     H 5126   3.851   0.044   0.661 -2.0906  2.1038 -0.0377
  338MPD2    H1 5127   3.876   0.320   0.995  0.1957  0.0691  0.0539
  338MPD2    H2 5128   4.227   0.191   0.815 -0.5171 -1.4122 -0.9638
  338MPD2    H3 5129   4.108   0.293   0.997 -0.9960  1.2808  0.9024
  338MPD2     N 5130   3.695   0.192   0.815 -0.0013  0.2855 -0.5183
  338MPD2    H5 5131   3.656   0.136   0.740  2.9825 -2.0655 -0.2976
  338MPD2    N1 5132   4.114   0.023   0.643  0.4067  0.5858  0.6582
  338MPD2    H7 5133   4.058   4.711   0.573 -1.4016  2.1037  1.0595
  339TMC3    C1 5134   3.480   0.241   0.865  0.1530 -0.1219  0.7087
  339TMC3    C2 5135   3.406   0.137   0.917 -0.6400  0.1011 -0.1615
  339TMC3    C3 5136   3.319   0.075   0.839  0.8949 -0.1598 -0.1553
  339TMC3    C4 5137   3.470   0.273   0.737 -0.8475  0.2895  0.6131
  339TMC3    C5 5138   3.392   0.200   0.652  0.1044  0.1564 -0.3690
  339TMC3    C6 5139   3.320   0.094   0.704  0.1970  0.2531 -0.1626
  339TMC3     C 5140   3.616   0.248   0.913 -0.1741  0.5774  0.5657
  339TMC3     O 5141   3.642   0.291   1.027 -0.7364 -0.2991  0.4761
  339TMC3     H 5142   3.434   0.109   1.018 -2.0275 -0.1191  0.1612
  339TMC3    H1 5143   3.528   0.352   0.690 -1.7356 -0.4713 -1.7588
  339TMC3    H2 5144   3.262   0.028   0.640  0.1441 -0.7075  0.8711
  339TMC3    C7 5145   3.377   0.242   0.514  0.3067  0.2998  0.4344
  339TMC3    C8 5146   3.293   4.677   0.885 -0.1277 -0.4642 -0.4721
  339TMC3    O1 5147   3.466   0.309   0.462 -0.0651  0.1442 -0.3520
  339TMC3    O2 5148   3.280   4.590   0.797  0.0560 -0.1991 -0.3545
  340MPD2     C 5149   4.182   2.040  10.327 -0.3767  0.4068  0.2136
  340MPD2    C1 5150   4.160   1.908  10.284  0.0896 -0.2554 -0.2674
  340MPD2    C2 5151   4.255   1.833  10.218 -0.1885  0.0987 -0.0861
  340MPD2    C3 5152   4.378   1.894  10.196  0.3915  0.2097 -0.0823
  340MPD2    C4 5153   4.407   2.025  10.243 -0.1557 -1.0540 -0.3968
  340MPD2    C5 5154   4.300   2.098  10.301 -0.2083 -0.5489  0.3503
  340MPD2     H 5155   4.231   1.738  10.173  1.6383 -1.3031  1.9179
  340MPD2    H1 5156   4.498   2.082  10.229 -1.7702  1.3249 -1.2264
  340MPD2    H2 5157   4.110   2.096  10.384  1.6300 -0.0454  3.1859
  340MPD2    H3 5158   4.313   2.201  10.331 -0.4568 -0.4639  0.1555
  340MPD2     N 5159   4.473   1.837  10.114 -0.6198  0.7814 -0.3116
  340MPD2    H5 5160   4.544   1.906  10.091 -1.4395  0.6213 -3.2297
  340MPD2    N1 5161   4.028   1.858  10.314 -0.7553  0.0309  0.2688
  340MPD2    H7 5162   3.964   1.919  10.364 -0.6087 -2.0081  2.8902
  341TMC3    C1 5163   3.840   1.737  10.258  0.0653 -0.2276  0.2963
  341TMC3    C2 5164   3.771   1.621  10.278 -0.3358  0.2634  0.3648
  341TMC3    C3 5165   3.634   1.636  10.293 -0.2380 -0.6815  0.5492
  341TMC3    C4 5166   3.779   1.863  10.239  0.4808 -0.1696  0.0162
  341TMC3    C5 5167   3.640   1.869  10.240 -0.5252 -0.0568 -0.1523
  341TMC3    C6 5168   3.565   1.754  10.285 -0.0875  0.6609 -0.1849
  341TMC3     C 5169   3.983   1.737  10.272 -1.1709 -0.0608  0.4318
  341TMC3     O 5170   4.038   1.640  10.227 -0.0259  0.0554 -0.1127
  341TMC3     H 5171   3.827   1.533  10.306 -0.0852  0.2069 -0.2958
  341TMC3    H1 5172   3.833   1.952  10.207 -2.0808  1.1873 -0.5376
  341TMC3    H2 5173   3.457   1.748  10.278 -0.1267  0.8122  0.2599
  341TMC3    C7 5174   3.565   1.972  10.161 -0.4891  0.4394 -0.2287
  341TMC3    C8 5175   3.557   1.514  10.272  0.1562  0.0636  0.2533
  341TMC3    O1 5176   3.452   1.928  10.142  0.7113 -0.0512 -0.9046
  341TMC3    O2 5177   3.624   1.429  10.207  0.2400 -0.0771  0.3894
  342MPD2     C 5178   2.002   0.682  17.622 -0.0048  0.3958 -1.0644
  342MPD2    C1 5179   2.080   0.733  17.518  0.0344  0.1611 -0.6268
  342MPD2    C2 5180   2.089   0.875  17.506  0.9241 -0.4015  0.1938
  342MPD2    C3 5181   2.034   0.956  17.598 -0.0162  0.4736 -0.2488
  342MPD2    C4 5182   1.956   0.908  17.698 -0.1104  0.2028 -0.1230
  342MPD2    C5 5183   1.936   0.775  17.707  0.2281  0.0092 -0.6873
  342MPD2     H 5184   2.147   0.922  17.426  0.1803 -0.2937 -0.2835
  342MPD2    H1 5185   1.912   0.978   0.027 -0.4339  0.1359 -0.2562
  342MPD2    H2 5186   1.993   0.576  17.640  3.1246  0.1725 -0.8081
  342MPD2    H3 5187   1.868   0.734   0.040  0.7604 -1.6742 -1.1134
  342MPD2     N 5188   2.066   1.095  17.627  0.0721  1.4656 -0.2657
  342MPD2    H5 5189   2.015   1.139  17.703 -1.4615  0.5960 -0.7748
  342MPD2    N1 5190   2.160   0.654  17.432  0.3167 -0.2788 -0.3611
  342MPD2    H7 5191   2.202   0.699  17.351 -3.0525  0.0287 -1.9337
  343TMC3    C1 5192   2.265   0.465  17.344  0.4240 -0.0826 -0.2578
  343TMC3    C2 5193   2.338   0.541  17.260  0.2283 -1.4345 -0.6184
  343TMC3    C3 5194   2.384   0.496  17.142 -0.0858  0.7998 -0.0887
  343TMC3    C4 5195   2.258   0.329  17.321  0.0898 -0.0846 -0.1870
  343TMC3    C5 5196   2.298   0.284  17.201 -0.2672 -0.1318 -0.7269
  343TMC3    C6 5197   2.368   0.365  17.112  0.0259 -0.4114  0.1331
  343TMC3     C 5198   2.181   0.521  17.450  0.6836  0.0916 -0.0118
  343TMC3     O 5199   2.149   0.443  17.540  0.0592 -0.0161 -0.0427
  343TMC3     H 5200   2.345   0.647  17.283 -1.1480 -1.3592 -0.5207
  343TMC3    H1 5201   2.205   0.266  17.392  0.6186  1.0103  1.1775
  343TMC3    H2 5202   2.425   0.311  17.037 -1.5541 -0.0384 -1.3657
  343TMC3    C7 5203   2.268   0.144  17.171  0.3080  0.4034 -0.1635
  343TMC3    C8 5204   2.457   0.572  17.041 -0.5279 -0.5881  0.2419
  343TMC3    O1 5205   2.221   0.068  17.256 -0.4826 -0.0768 -0.6291
  343TMC3    O2 5206   2.483   0.689  17.065 -0.0398  0.2909  0.2620
  344MPD2     C 5207   2.576   4.423  10.839  0.4012 -0.0922  0.1032
  344MPD2    C1 5208   2.532   4.425  10.706  0.0911 -0.4248 -0.3133
  344MPD2    C2 5209   2.514   4.553  10.646  0.7359 -0.2237 -0.0245
  344MPD2    C3 5210   2.561   4.664  10.716 -0.1631  0.3507 -0.3998
  344MPD2    C4 5211   2.598   4.667  10.854  0.4079  0.5570  0.6714
  344MPD2    C5 5212   2.599   4.540  10.909 -0.1789 -0.9098  0.0544
  344MPD2     H 5213   2.474   4.570  10.547 -2.0577 -2.8983  0.6437
  344MPD2    H1 5214   2.626   0.018  10.912  0.9892 -0.2448  1.5919
  344MPD2    H2 5215   2.586   4.333  10.898 -2.6976  0.4690  1.4882
  344MPD2    H3 5216   2.637   4.538  11.010 -1.7788 -0.9096  0.6602
  344MPD2     N 5217   2.584   0.048  10.656  0.8413  0.0562  0.3691
  344MPD2    H5 5218   2.594   0.124  10.723 -0.5353 -0.4747  1.1967
  344MPD2    N1 5219   2.499   4.306  10.635  0.1042  0.5308 -0.6176
  344MPD2    H7 5220   2.472   4.323  10.538 -2.7145  1.3218  0.3199
  345TMC3    C1 5221   2.621   0.224  10.500 -0.2366  0.3503 -0.3228
  345TMC3    C2 5222   2.714   0.279  10.577  0.8031 -0.1753 -0.1317
  345TMC3    C3 5223   2.762   0.401  10.550 -0.6232  0.3714 -0.3863
  345TMC3    C4 5224   2.576   0.296  10.394 -0.0818 -0.1353  0.1835
  345TMC3    C5 5225   2.631   0.416  10.369  0.2264 -0.2094  0.2125
  345TMC3    C6 5226   2.724   0.467  10.437  0.5859  0.4249  0.1198
  345TMC3     C 5227   2.575   0.087  10.526  0.0062 -0.0037 -0.1296
  345TMC3     O 5228   2.550   0.017  10.427 -0.0527  0.1311 -0.3581
  345TMC3     H 5229   2.730   0.232  10.674 -1.1331  2.1068  1.3052
  345TMC3    H1 5230   2.499   0.252  10.331 -0.9235 -0.7800  1.6672
  345TMC3    H2 5231   2.800   0.537  10.402  1.8219 -0.3357  1.2719
  345TMC3    C7 5232   2.575   0.506  10.277 -0.1803 -0.4359  0.4653
  345TMC3    C8 5233   2.827   0.480  10.650  0.2813 -0.3122  0.1510
  345TMC3    O1 5234   2.625   0.621  10.281  0.7015  0.6823 -0.5798
  345TMC3    O2 5235   2.857   0.424  10.756 -0.1282  0.1066 -0.0506
  346MPD2     C 5236   3.064   1.615  14.379 -0.3644 -0.0735 -1.6787
  346MPD2    C1 5237   3.135   1.692  14.287  0.6097 -0.4370 -0.0189
  346MPD2    C2 5238   3.196   1.810  14.336 -0.2422 -0.3480  1.0596
  346MPD2    C3 5239   3.182   1.857  14.467  0.1878  0.5018 -0.1217
  346MPD2    C4 5240   3.110   1.773  14.552  0.4889 -0.0998 -0.3847
  346MPD2    C5 5241   3.056   1.651  14.511 -0.6875 -0.4297  0.6038
  346MPD2     H 5242   3.258   1.865  14.266 -3.0234 -0.9056 -1.8479
  346MPD2    H1 5243   3.107   1.802  14.656  1.3716  1.1036 -0.6862
  346MPD2    H2 5244   3.014   1.521  14.356 -1.5200 -0.1780  1.2703
  346MPD2    H3 5245   3.021   1.579  14.585 -2.2746 -0.4372 -0.1704
  346MPD2     N 5246   3.245   1.971  14.520 -0.3284  0.5513  0.3248
  346MPD2    H5 5247   3.229   1.995  14.617 -1.5780  0.0914  0.2298
  346MPD2    N1 5248   3.157   1.655  14.152  0.3107 -0.2763  0.5033
  346MPD2    H7 5249   3.227   1.712  14.106 -0.5345 -0.7926 -1.4100
  347TMC3    C1 5250   3.396   2.141  14.534 -0.3922  0.3607  0.2247
  347TMC3    C2 5251   3.534   2.138  14.531  0.2781  0.5458  0.5442
  347TMC3    C3 5252   3.610   2.204  14.622  0.7625  0.3067 -0.9473
  347TMC3    C4 5253   3.341   2.188  14.650  0.2996 -0.3706  0.4484
  347TMC3    C5 5254   3.423   2.264  14.736  0.0304 -0.1047 -0.1330
  347TMC3    C6 5255   3.555   2.271  14.722 -0.0536  0.3834  0.1192
  347TMC3     C 5256   3.332   2.049  14.449 -0.1428 -0.2005  0.6539
  347TMC3     O 5257   3.387   2.023  14.344 -0.0562 -0.2026 -0.4361
  347TMC3     H 5258   3.570   2.099  14.437  1.5118  0.5206  1.0333
  347TMC3    H1 5259   3.235   2.210  14.639  0.1262 -1.4127  0.0675
  347TMC3    H2 5260   3.614   2.311  14.803  0.5852 -0.1061 -0.1041
  347TMC3    C7 5261   3.353   2.369  14.806  0.0402 -0.0159  0.1972
  347TMC3    C8 5262   3.756   2.165  14.620  0.4306  0.0718 -0.0762
  347TMC3    O1 5263   3.236   2.355  14.826  0.0158 -0.0054  0.6464
  347TMC3    O2 5264   3.777   2.088  14.528  0.2593  0.2911  0.6293
  348MPD2     C 5265   1.322   0.861  12.091  0.3635  0.1706  0.0820
  348MPD2    C1 5266   1.326   0.810  11.967 -0.4609  0.5200 -0.5644
  348MPD2    C2 5267   1.303   0.886  11.858  0.9158 -0.1508 -0.1604
  348MPD2    C3 5268   1.273   1.014  11.868  0.2589 -0.4296  0.1991
  348MPD2    C4 5269   1.274   1.074  11.992 -0.3412 -0.3687 -0.2669
  348MPD2    C5 5270   1.303   0.995  12.103  0.2486  0.7774 -0.1904
  348MPD2     H 5271   1.313   0.840  11.760  0.1775  0.9776 -0.7681
  348MPD2    H1 5272   1.251   1.179  12.009 -0.7206 -0.4930 -0.0084
  348MPD2    H2 5273   1.329   0.798  12.179 -0.6881 -2.8617 -2.0336
  348MPD2    H3 5274   1.307   1.041  12.201  0.2785  0.8622 -0.2317
  348MPD2     N 5275   1.270   1.087  11.747  0.5488  0.0876 -0.5815
  348MPD2    H5 5276   1.268   1.032  11.662  2.7484  1.0349 -1.2153
  348MPD2    N1 5277   1.348   0.675  11.938  0.5314 -0.6334  0.0249
  348MPD2    H7 5278   1.347   0.652  11.839 -0.3274  0.5527 -0.2344
  349TMC3    C1 5279   1.445   0.475  11.952  0.6009  0.1025  1.1098
  349TMC3    C2 5280   1.549   0.432  12.026 -0.0738  0.7050  0.3914
  349TMC3    C3 5281   1.671   0.430  11.967 -0.3439  0.5835 -0.1154
  349TMC3    C4 5282   1.451   0.493  11.816  0.0015 -0.3091  0.1126
  349TMC3    C5 5283   1.573   0.476  11.754 -0.7177  0.1680  0.4821
  349TMC3    C6 5284   1.679   0.456  11.834  0.0064  0.0225  0.0739
  349TMC3     C 5285   1.358   0.572  12.020  0.7040  0.1422 -0.1853
  349TMC3     O 5286   1.352   0.564  12.143  0.1617 -0.0897 -0.0790
  349TMC3     H 5287   1.536   0.425  12.134  1.9910 -0.5450  0.5512
  349TMC3    H1 5288   1.366   0.518  11.753 -0.5373  1.2472  1.4551
  349TMC3    H2 5289   1.774   0.460  11.783  0.0022 -0.3266  0.0451
  349TMC3    C7 5290   1.592   0.555  11.639 -0.1034 -0.1508 -0.8163
  349TMC3    C8 5291   1.785   0.388  12.047  0.4882 -0.0550 -0.1944
  349TMC3    O1 5292   1.516   0.521  11.550 -0.1163 -0.1386  0.8802
  349TMC3    O2 5293   1.773   0.370  12.168  0.1480 -0.1705 -0.2890
  350MPD2     C 5294   0.549   4.090   9.959  0.5570 -0.3855 -0.9632
  350MPD2    C1 5295   0.558   3.954   9.961  0.2747  0.2017 -0.2717
  350MPD2    C2 5296   0.678   3.896   9.963 -0.5506 -0.3182 -0.5049
  350MPD2    C3 5297   0.794   3.972   9.967 -0.0276  0.6287  0.2834
  350MPD2    C4 5298   0.778   4.112   9.983 -0.0228 -0.3089  0.8270
  350MPD2    C5 5299   0.655   4.168   9.978 -0.3572 -0.3969  0.6421
  350MPD2     H 5300   0.691   3.789   9.961  0.6957 -0.1835  0.0627
  350MPD2    H1 5301   0.870   4.170   9.988  0.0198  0.1023 -4.3855
  350MPD2    H2 5302   0.454   4.141   9.951  0.7522  0.1539  0.1263
  350MPD2    H3 5303   0.650   4.275   9.992 -1.7874 -0.2926 -0.6431
  350MPD2     N 5304   0.919   3.909   9.985  1.0431 -0.1550  0.9148
  350MPD2    H5 5305   0.920   3.809   9.966 -0.9639  0.0588 -0.2780
  350MPD2    N1 5306   0.446   3.871   9.952 -0.1709  0.7932 -0.6256
  350MPD2    H7 5307   0.463   3.772   9.969 -0.5202  0.7734 -0.3870
  351TMC3    C1 5308   0.232   3.805   9.992  0.1317  0.3502  0.0868
  351TMC3    C2 5309   0.280   3.676   9.974 -1.0373  0.3255 -0.0160
  351TMC3    C3 5310   0.215   3.572  10.039 -0.2317 -0.3298  0.0445
  351TMC3    C4 5311   0.111   3.830  10.050  0.3219 -0.4053  0.3376
  351TMC3    C5 5312   0.038   3.720  10.090  0.2462  0.3808  0.0090
  351TMC3    C6 5313   0.093   3.595  10.096  0.8328  0.4762 -0.2980
  351TMC3     C 5314   0.316   3.913   9.954  0.1836 -0.1185 -0.2122
  351TMC3     O 5315   0.267   4.021   9.922 -0.3115  0.2708  0.0143
  351TMC3     H 5316   0.363   3.655   9.908  0.0974  0.6233  1.3282
  351TMC3    H1 5317   0.075   3.932  10.042 -2.2881 -1.5011 -1.7776
  351TMC3    H2 5318   0.040   3.518  10.151  1.1766  1.3300  1.2368
  351TMC3    C7 5319   4.645   3.756  10.145 -0.2628 -0.0978 -0.1633
  351TMC3    C8 5320   0.248   3.436  10.002 -0.1842  0.2824 -0.0580
  351TMC3    O1 5321   4.619   3.873  10.131  0.2160  0.4993 -0.1928
  351TMC3    O2 5322   0.290   3.415   9.887  0.2150  0.2365  0.1033
  352MPD2     C 5323   4.683   2.090   0.807  0.5903 -0.5216  0.0407
  352MPD2    C1 5324   4.585   2.007   0.851  0.4305 -0.3680 -0.6588
  352MPD2    C2 5325   4.588   1.876   0.808  0.7033 -0.0576 -0.0266
  352MPD2    C3 5326   4.690   1.835   0.720 -0.1183 -0.2854  0.0712
  352MPD2    C4 5327   0.053   1.921   0.681 -0.8696 -0.2249 -0.1722
  352MPD2    C5 5328   0.051   2.049   0.723  0.0050  0.1551  0.4070
  352MPD2     H 5329   4.527   1.798   0.853  0.3584 -0.1776 -0.6998
  352MPD2    H1 5330   0.130   1.888   0.613 -1.2177  2.4712 -1.8961
  352MPD2    H2 5331   4.678   2.195   0.833 -1.8432 -0.9117  1.1470
  352MPD2    H3 5332   0.126   2.123   0.696 -0.0678 -0.2041 -0.7907
  352MPD2     N 5333   4.683   1.703   0.668  0.6591  0.0412  0.5040
  352MPD2    H5 5334   0.034   1.665   0.631  0.0353  0.5563 -1.4982
  352MPD2    N1 5335   4.476   2.064   0.921  0.0721 -0.2941 -0.2761
  352MPD2    H7 5336   4.477   2.165   0.931  1.2738 -0.1287 -2.1674
  353TMC3    C1 5337   4.595   1.485   0.637 -0.3330 -0.0768  0.2323
  353TMC3    C2 5338   4.724   1.434   0.649 -0.1997  0.7398 -0.6230
  353TMC3    C3 5339   4.732   1.295   0.648  0.1456 -0.4524  0.2036
  353TMC3    C4 5340   4.488   1.400   0.608 -0.3770 -0.3969  0.3868
  353TMC3    C5 5341   4.498   1.266   0.634 -0.2380  0.4295 -0.0617
  353TMC3    C6 5342   4.621   1.210   0.635  0.3140  0.5213 -0.5507
  353TMC3     C 5343   4.571   1.625   0.662 -0.1253  0.3921  0.6280
  353TMC3     O 5344   4.453   1.664   0.664 -0.4878 -0.1999 -0.0472
  353TMC3     H 5345   0.074   1.500   0.661 -1.9374  2.7429  0.8026
  353TMC3    H1 5346   4.395   1.453   0.590  0.5413  1.2177  0.3909
  353TMC3    H2 5347   4.619   1.103   0.620  0.3898 -0.0840  3.5458
  353TMC3    C7 5348   4.384   1.182   0.643  0.3134 -0.3629 -0.7220
  353TMC3    C8 5349   0.125   1.238   0.687 -0.9679 -0.7449  0.1278
  353TMC3    O1 5350   4.403   1.061   0.616 -0.0900  0.1424 -0.0638
  353TMC3    O2 5351   0.222   1.317   0.686 -0.4067  0.2034 -0.6501
  354TMC3    C1 5352   0.587   2.522  13.198 -0.4631  0.1565  0.1463
  354TMC3    C2 5353   0.525   2.619  13.118  0.3003  0.3734 -0.1791
  354TMC3    C3 5354   0.554   2.621  12.986  0.7116 -0.3630 -0.4640
  354TMC3    C4 5355   0.663   2.426  13.140  0.0405 -0.3653 -0.1976
  354TMC3    C5 5356   0.704   2.440  13.014 -0.2303  0.0465  0.1754
  354TMC3    C6 5357   0.639   2.525  12.932  0.2714 -0.0723 -0.9326
  354TMC3     C 5358   0.616   2.549  13.331 -0.2746  0.4152 -0.0559
  354TMC3     O 5359   0.668   2.455  13.385 -0.5339  0.4436 -0.3278
  354TMC3     H 5360   0.455   2.689  13.162  0.8542  0.6801  0.2174
  354TMC3    H1 5361   0.718   2.356  13.201 -1.3871 -1.3129  0.0122
  354TMC3    H2 5362   0.680   2.534  12.832 -0.5023  2.3384 -1.0508
  354TMC3    C7 5363   0.846   2.429  12.999  0.7307 -0.1019  0.1742
  354TMC3    C8 5364   0.492   2.707  12.887 -0.4420 -0.2063  0.2738
  354TMC3    O1 5365   0.895   2.322  13.043 -0.5175 -0.0952  0.0780
  354TMC3    O2 5366   0.501   2.656  12.774 -0.1857 -0.1390  0.5472
  355MPD2     C 5367   0.565   2.737  11.556  0.1698  0.2474 -0.1467
  355MPD2    C1 5368   0.516   2.864  11.576  0.0478 -0.0036  0.1859
  355MPD2    C2 5369   0.527   2.912  11.702 -0.3720  0.6040 -0.3798
  355MPD2    C3 5370   0.584   2.839  11.805  0.3166  0.0752  0.2050
  355MPD2    C4 5371   0.632   2.715  11.779  0.7211  0.3198 -0.0257
  355MPD2    C5 5372   0.626   2.663  11.654  0.0447 -0.3367  0.0213
  355MPD2     H 5373   0.492   3.014  11.712 -3.7918 -0.4792 -1.3461
  355MPD2    H1 5374   0.665   2.651  11.859 -1.8875  1.0303  1.6206
  355MPD2    H2 5375   0.552   2.695  11.457 -1.2320 -0.5152  0.3784
  355MPD2    H3 5376   0.663   2.563  11.637  0.0033 -0.4074  0.3445
  355MPD2     N 5377   0.606   2.917  11.919 -0.8340  0.1761 -0.1141
  355MPD2    H5 5378   0.575   3.013  11.911 -2.3892 -0.2159  0.9765
  355MPD2    N1 5379   0.477   2.944  11.466  0.1000 -0.3123 -0.1721
  355MPD2    H7 5380   0.460   2.904  11.375  1.9136 -0.9188 -0.2507
  356TMC3    C1 5381   0.753   3.001  12.070 -0.8263 -0.3662  0.2111
  356TMC3    C2 5382   0.761   3.109  11.981 -0.1860  0.0361  0.3296
  356TMC3    C3 5383   0.823   3.218  12.028  0.2800 -0.8069  0.1803
  356TMC3    C4 5384   0.803   3.001  12.196 -0.0747 -0.9740  0.4928
  356TMC3    C5 5385   0.875   3.113  12.235  0.0411 -0.2899  0.8881
  356TMC3    C6 5386   0.878   3.223  12.157  0.5369 -0.2872 -0.0929
  356TMC3     C 5387   0.691   2.879  12.020 -0.6460  0.1353 -0.2097
  356TMC3     O 5388   0.751   2.775  12.046 -0.0088 -0.4001  0.1402
  356TMC3     H 5389   0.744   3.094  11.874 -1.5795 -0.2591  0.5837
  356TMC3    H1 5390   0.785   2.910  12.250  0.2594 -0.6603  1.1343
  356TMC3    H2 5391   0.926   3.316  12.186  1.0066  0.3080 -2.7671
  356TMC3    C7 5392   0.934   3.106  12.367  0.8717  0.6070 -0.1389
  356TMC3    C8 5393   0.834   3.331  11.938 -0.4443 -0.7346  0.1001
  356TMC3    O1 5394   0.908   3.005  12.434  0.2200  0.2623 -0.1971
  356TMC3    O2 5395   0.766   3.320  11.833 -0.2757  0.2808  0.2877
  357MPD2     C 5396   0.535   3.243   0.858 -0.2380  0.3626  1.0890
  357MPD2    C1 5397   0.659   3.288   0.905 -0.0891 -0.1694  0.1804
  357MPD2    C2 5398   0.672   3.417   0.954  0.2477  1.1005 -0.0760
  357MPD2    C3 5399   0.563   3.509   0.942 -0.0626  0.0970  0.4184
  357MPD2    C4 5400   0.435   3.455   0.904 -0.3543 -0.5875  0.5952
  357MPD2    C5 5401   0.424   3.328   0.863 -0.4363 -0.1601 -0.0389
  357MPD2     H 5402   0.771   3.449   0.985 -0.6706  4.0699 -0.1581
  357MPD2    H1 5403   0.356   3.529   0.902  1.7281  1.5772 -0.4456
  357MPD2    H2 5404   0.522   3.138   0.836 -1.7315  1.0330 -1.2313
  357MPD2    H3 5405   0.325   3.301   0.826 -0.9112  2.4569 -0.6762
  357MPD2     N 5406   0.573   3.652   0.969 -0.4079 -0.2611  0.4285
  357MPD2    H5 5407   0.496   3.717   0.961  1.1247  1.7929  2.3917
  357MPD2    N1 5408   0.765   3.195   0.913 -0.0008 -0.3121 -0.1859
  357MPD2    H7 5409   0.742   3.105   0.873  0.7596 -1.2740  1.5331
  358TMC3    C1 5410   0.985   3.104   0.931 -0.7763 -0.0807 -0.6010
  358TMC3    C2 5411   0.957   3.021   0.824  0.0961  1.0050 -0.2278
  358TMC3    C3 5412   1.027   2.899   0.817 -0.0156  0.6644  0.0558
  358TMC3    C4 5413   1.086   3.088   1.013 -0.8127 -0.4154 -0.0202
  358TMC3    C5 5414   1.156   2.971   1.002 -0.3489  0.0452  0.8974
  358TMC3    C6 5415   1.129   2.876   0.905  0.1801 -0.2775  0.0595
  358TMC3     C 5416   0.899   3.219   0.947  0.5338 -0.2513 -0.6415
  358TMC3     O 5417   0.952   3.323   0.980 -0.4389  0.6855  0.3459
  358TMC3     H 5418   0.868   3.038   0.765 -2.3296  0.3919  3.2747
  358TMC3    H1 5419   1.106   3.168   1.084 -1.4805 -2.1438  2.1198
  358TMC3    H2 5420   1.159   2.775   0.929 -0.2628 -0.7116 -1.2534
  358TMC3    C7 5421   1.279   2.946   1.076 -0.1440 -0.3108 -0.1788
  358TMC3    C8 5422   1.001   2.815   0.707  0.4114 -0.4614  0.4250
  358TMC3    O1 5423   1.358   2.866   1.034 -0.2286 -0.5581 -0.0356
  358TMC3    O2 5424   0.915   2.857   0.625 -0.1355 -0.2674  0.0926
  359MPD2     C 5425   0.684   2.037  12.211 -0.6220 -0.2989  0.3143
  359MPD2    C1 5426   0.723   1.901  12.196  0.7255  0.5770  0.1663
  359MPD2    C2 5427   0.683   1.818  12.298 -0.1206  0.0394  0.4347
  359MPD2    C3 5428   0.619   1.864  12.415  0.3749  0.5935  0.2342
  359MPD2    C4 5429   0.583   1.994  12.418 -0.3199  0.0220 -0.0448
  359MPD2    C5 5430   0.620   2.083  12.321 -0.1127  0.0362 -0.0115
  359MPD2     H 5431   0.721   1.717  12.303 -0.0333 -0.0434 -1.9029
  359MPD2    H1 5432   0.531   2.024  12.509  2.7197  0.7625  1.4215
  359MPD2    H2 5433   0.717   2.110  12.137 -2.0231  0.5319  0.5185
  359MPD2    H3 5434   0.585   2.185  12.331 -0.2522  0.0171 -0.3121
  359MPD2     N 5435   0.580   1.776  12.515  0.1575  0.4085 -0.8399
  359MPD2    H5 5436   0.534   1.823  12.593 -2.0714 -0.6894 -1.5145
  359MPD2    N1 5437   0.795   1.855  12.083  0.2965  0.1722  0.5109
  359MPD2    H7 5438   0.819   1.924  12.012 -0.6517 -2.5288 -2.4233
  360TMC3    C1 5439   0.936   1.723  11.952 -0.3314 -0.4754 -0.2496
  360TMC3    C2 5440   1.031   1.825  11.961  0.4131 -0.3557 -0.9702
  360TMC3    C3 5441   1.158   1.789  11.926 -1.0768 -0.5538 -0.0886
  360TMC3    C4 5442   0.968   1.610  11.895 -0.4172  0.3282  0.5413
  360TMC3    C5 5443   1.091   1.587  11.841  0.0401  0.1015 -0.4513
  360TMC3    C6 5444   1.186   1.684  11.853  0.3364  0.2954 -0.1105
  360TMC3     C 5445   0.825   1.727  12.052 -0.1839 -0.3605  0.1838
  360TMC3     O 5446   0.781   1.618  12.093  0.3907  0.0494 -0.5663
  360TMC3     H 5447   1.016   1.920  12.011 -0.4596 -0.1344 -1.6554
  360TMC3    H1 5448   0.894   1.531  11.888 -0.5032  0.4714 -0.1341
  360TMC3    H2 5449   1.287   1.657  11.824  0.3501 -0.6555  0.8013
  360TMC3    C7 5450   1.094   1.527  11.706 -0.2424 -0.5732  0.2959
  360TMC3    C8 5451   1.241   1.901  11.877  0.3748 -0.3396 -0.5861
  360TMC3    O1 5452   1.179   1.582  11.638 -0.0264 -0.2708  0.2164
  360TMC3    O2 5453   1.182   2.001  11.837  0.2434  0.2314  0.3465
  361MPD2     C 5454   3.208   1.617  17.065  0.5319  0.1343  0.4920
  361MPD2    C1 5455   3.153   1.511  16.988 -0.2401 -0.3542  0.8485
  361MPD2    C2 5456   3.197   1.387  17.010  0.1841  0.5348 -0.2907
  361MPD2    C3 5457   3.310   1.365  17.086  0.1907 -1.0034  0.4020
  361MPD2    C4 5458   3.363   1.468  17.158  0.6991 -0.2763  0.2226
  361MPD2    C5 5459   3.304   1.592  17.151 -0.3363 -0.4268 -0.1454
  361MPD2     H 5460   3.170   1.302  16.948 -0.8458  0.7778 -0.1615
  361MPD2    H1 5461   3.454   1.452  17.215  0.1238 -0.3783  1.1232
  361MPD2    H2 5462   3.164   1.716  17.067 -1.6246 -0.8121 -0.0500
  361MPD2    H3 5463   3.351   1.671  17.208  0.9770 -2.3661  1.4736
  361MPD2     N 5464   3.382   1.242  17.093  0.2241 -0.1052  0.4971
  361MPD2    H5 5465   3.473   1.258  17.136  0.5188 -1.6992  0.4347
  361MPD2    N1 5466   3.045   1.538  16.911 -0.0851 -0.3764  0.4040
  361MPD2    H7 5467   3.027   1.638  16.906  0.4231 -0.2127  1.7142
  362TMC3    C1 5468   2.841   1.506  16.804  0.5625  0.3622 -0.2252
  362TMC3    C2 5469   2.735   1.460  16.872  0.4669  0.1926  0.3221
  362TMC3    C3 5470   2.628   1.420  16.798 -0.0945  0.1773  0.3870
  362TMC3    C4 5471   2.840   1.518  16.666 -0.3804  0.4879 -0.6239
  362TMC3    C5 5472   2.724   1.482  16.602  0.4824 -0.4982  0.4394
  362TMC3    C6 5473   2.619   1.426  16.662 -0.4778  1.1512  0.2288
  362TMC3     C 5474   2.956   1.442  16.855  1.0708 -0.1757  0.2390
  362TMC3     O 5475   2.953   1.320  16.869 -0.2879  0.1167 -0.0866
  362TMC3     H 5476   2.737   1.437  16.978 -3.0081 -1.1794  0.0836
  362TMC3    H1 5477   2.931   1.531  16.609  0.9998 -2.2678  0.9687
  362TMC3    H2 5478   2.528   1.382  16.622  0.4275 -0.2709 -0.2443
  362TMC3    C7 5479   2.709   1.539  16.474 -0.0304 -0.0465 -0.3355
  362TMC3    C8 5480   2.504   1.398  16.866 -0.3025 -0.1444 -0.5414
  362TMC3    O1 5481   2.794   1.622  16.444  0.2167 -0.3869  0.3095
  362TMC3    O2 5482   2.417   1.327  16.814  0.0589  1.0493  0.2171
  363TMC3    C1 5483   0.465   3.182   9.065  0.9342  0.3030 -0.2045
  363TMC3    C2 5484   0.490   3.113   9.179 -0.3750 -0.9801  0.5642
  363TMC3    C3 5485   0.443   3.157   9.297 -0.3280 -0.1817  0.0738
  363TMC3    C4 5486   0.397   3.301   9.071  0.2013  0.1583  0.0241
  363TMC3    C5 5487   0.357   3.346   9.192 -0.4034 -0.0752 -0.3201
  363TMC3    C6 5488   0.387   3.277   9.309 -0.7099 -0.1187 -0.6476
  363TMC3     C 5489   0.504   3.133   8.932  0.0642  0.1080  0.3672
  363TMC3     O 5490   0.443   3.181   8.839 -0.5606 -0.7313  0.4316
  363TMC3     H 5491   0.524   3.010   9.168  2.4865 -0.2531  2.5068
  363TMC3    H1 5492   0.367   3.357   8.982  0.2002 -0.9722 -0.6860
  363TMC3    H2 5493   0.343   3.308   9.403  0.1742  2.2803 -1.0140
  363TMC3    C7 5494   0.314   3.489   9.207  0.3245  0.4669 -0.3044
  363TMC3    C8 5495   0.502   3.102   9.422 -0.4810 -0.6057 -0.3647
  363TMC3    O1 5496   0.349   3.573   9.124 -0.0435 -1.4654  0.5338
  363TMC3    O2 5497   0.460   3.161   9.524 -0.0447 -0.9763 -0.2408
  364MPD2     C 5498   4.537   2.456  10.483 -0.5190 -0.2405 -0.2096
  364MPD2    C1 5499   4.586   2.428  10.356  0.2725  0.8351 -0.6400
  364MPD2    C2 5500   4.650   2.305  10.337 -0.0513  0.2953 -0.4168
  364MPD2    C3 5501   4.653   2.209  10.441 -0.4398 -0.3862 -0.2565
  364MPD2    C4 5502   4.604   2.244  10.564  0.4032 -0.4737  0.6291
  364MPD2    C5 5503   4.545   2.365  10.583 -0.2950 -0.0566 -0.3592
  364MPD2     H 5504   4.667   2.270  10.236 -0.4346  1.2511 -0.8117
  364MPD2    H1 5505   4.605   2.172  10.644 -0.9076 -1.9635 -0.6989
  364MPD2    H2 5506   4.490   2.551  10.504 -0.2199 -0.5105  1.6651
  364MPD2    H3 5507   4.501   2.382  10.681  0.5763  0.7664 -0.1155
  364MPD2     N 5508   4.713   2.084  10.421  0.0248 -0.1274 -0.0292
  364MPD2    H5 5509   4.705   2.027  10.505  2.4798 -1.4593 -0.6805
  364MPD2    N1 5510   4.588   2.534  10.262 -0.4186  0.1289  0.7866
  364MPD2    H7 5511   4.554   2.619  10.305  0.9497  1.8889 -1.6334
  365TMC3    C1 5512   4.637   2.671  10.073  0.6568  0.1916  0.0117
  365TMC3    C2 5513   4.656   2.681   9.938 -0.3043  0.3889  0.3332
  365TMC3    C3 5514   4.645   2.808   9.882  0.1214 -0.6634  0.2670
  365TMC3    C4 5515   4.611   2.781  10.147  0.3742  0.2002 -0.1038
  365TMC3    C5 5516   4.601   2.905  10.087 -0.5995  0.0899  0.1907
  365TMC3    C6 5517   4.612   2.919   9.952 -0.0209 -0.1964 -0.2813
  365TMC3     C 5518   4.648   2.537  10.135  1.2517 -0.0563  0.5020
  365TMC3     O 5519   4.689   2.437  10.074 -0.0730  0.5381  0.4885
  365TMC3     H 5520   4.676   2.593   9.878  1.9324  0.1898  1.3548
  365TMC3    H1 5521   4.609   2.781  10.255  0.1338 -1.8646 -0.1084
  365TMC3    H2 5522   4.601   3.016   9.904  3.0712 -0.6748 -1.9141
  365TMC3    C7 5523   4.601   3.027  10.168  0.1593  0.3041 -0.1841
  365TMC3    C8 5524   4.620   2.827   9.740 -0.5304 -0.5811 -0.7932
  365TMC3    O1 5525   4.603   3.130  10.099 -0.3059 -0.3129 -0.2362
  365TMC3    O2 5526   4.571   2.932   9.701  0.1022  0.0841 -0.2145
  366MPD2     C 5527   3.784   3.720  15.194  0.4245 -0.0476  0.1204
  366MPD2    C1 5528   3.805   3.810  15.300 -0.4537  0.2415  0.0308
  366MPD2    C2 5529   3.933   3.824  15.344 -0.0333  0.0383  0.3633
  366MPD2    C3 5530   4.037   3.764  15.275  0.5507  1.2919  0.8199
  366MPD2    C4 5531   4.015   3.668  15.177  0.1081 -0.5188 -0.5534
  366MPD2    C5 5532   3.887   3.649  15.140 -0.4573  0.7931  0.1830
  366MPD2     H 5533   3.965   3.893  15.421 -0.4879  0.0273  0.5593
  366MPD2    H1 5534   4.089   3.601  15.134 -1.4783 -3.9645  2.0316
  366MPD2    H2 5535   3.689   3.709  15.143  0.5516  0.5641 -0.2480
  366MPD2    H3 5536   3.863   3.576  15.064  2.4883 -0.2152  0.2166
  366MPD2     N 5537   4.165   3.800  15.309  0.0612  0.6356 -0.8665
  366MPD2    H5 5538   4.166   3.857  15.394  0.5457 -2.1813  1.0111
  366MPD2    N1 5539   3.709   3.894  15.362 -0.2195  0.6695 -0.3308
  366MPD2    H7 5540   3.733   3.951  15.442 -1.8481  0.4203  0.3457
  367TMC3    C1 5541   3.523   4.035  15.379  0.0601 -0.3328  0.1982
  367TMC3    C2 5542   3.593   4.109  15.473  0.3471 -0.1155 -0.2532
  367TMC3    C3 5543   3.552   4.242  15.488  1.2936  0.2011 -1.3721
  367TMC3    C4 5544   3.422   4.090  15.302 -0.1707  0.2840 -0.3812
  367TMC3    C5 5545   3.394   4.223  15.318 -0.0318  0.1073  0.6542
  367TMC3    C6 5546   3.455   4.301  15.412 -0.8500  0.1819  0.0572
  367TMC3     C 5547   3.594   3.926  15.306 -0.7128  0.0745  0.0494
  367TMC3     O 5548   3.548   3.892  15.198  0.1491 -0.5577  0.1561
  367TMC3     H 5549   3.671   4.074  15.539 -0.9731  3.3256  3.1062
  367TMC3    H1 5550   3.389   4.039  15.213  0.7826  1.4132 -1.3782
  367TMC3    H2 5551   3.417   4.398  15.439 -0.9630  0.3250 -0.6184
  367TMC3    C7 5552   3.308   4.289  15.228 -0.0399  0.5340 -0.1645
  367TMC3    C8 5553   3.652   4.339  15.536 -0.2201  0.0476 -0.0377
  367TMC3    O1 5554   3.325   4.409  15.234 -1.0587 -0.6407 -0.3723
  367TMC3    O2 5555   3.745   4.300  15.600 -0.0789  0.2472  0.0249
  368MPD2     C 5556   0.116   1.198  13.621 -0.4365 -0.6830  0.3391
  368MPD2    C1 5557   0.173   1.308  13.556 -0.4349 -0.2793 -0.3312
  368MPD2    C2 5558   0.306   1.343  13.583  0.3879 -0.2568 -0.7026
  368MPD2    C3 5559   0.392   1.260  13.663  0.2869  0.6678  0.0888
  368MPD2    C4 5560   0.336   1.138  13.702 -0.1971 -0.0547  0.1901
  368MPD2    C5 5561   0.202   1.114  13.685 -0.4129  0.1421 -0.4558
  368MPD2     H 5562   0.343   1.438  13.545  0.2266  0.9944  2.2392
  368MPD2    H1 5563   0.390   1.066  13.763 -1.1755  0.2964  1.4836
  368MPD2    H2 5564   0.015   1.165  13.601 -1.2147  2.1368 -0.2604
  368MPD2    H3 5565   0.158   1.019  13.715 -0.1667  0.4182  0.7691
  368MPD2     N 5566   0.520   1.301  13.702  0.1754 -0.7097 -0.6355
  368MPD2    H5 5567   0.572   1.241  13.765 -1.3159 -0.8748  0.4377
  368MPD2    N1 5568   0.077   1.391  13.487 -0.1658  0.3649 -0.7529
  368MPD2    H7 5569   4.716   1.361  13.490 -0.4022  1.3164  1.4492
  369TMC3    C1 5570   4.730   1.550  13.328  0.1936  0.7838 -0.0134
  369TMC3    C2 5571   0.012   1.576  13.194  0.5416 -0.2010  0.1712
  369TMC3    C3 5572   4.639   1.600  13.114  0.4174  0.2857  0.2703
  369TMC3    C4 5573   4.606   1.560  13.386  0.0820  0.1230  0.4274
  369TMC3    C5 5574   4.502   1.585  13.304  0.3699 -0.2230  0.4594
  369TMC3    C6 5575   4.513   1.612  13.168 -0.3514 -0.1035 -0.1335
  369TMC3     C 5576   0.110   1.492  13.405 -0.5098 -0.4280  0.3004
  369TMC3     O 5577   0.220   1.528  13.366 -0.4465 -0.3790 -0.3413
  369TMC3     H 5578   0.108   1.588  13.145 -0.7400  1.2059 -2.0468
  369TMC3    H1 5579   4.584   1.548  13.492  1.4039  2.4272  0.9756
  369TMC3    H2 5580   4.428   1.640  13.107 -0.3792  1.2749  0.5359
  369TMC3    C7 5581   4.373   1.541  13.362 -0.9715  0.4713  0.0582
  369TMC3    C8 5582   4.643   1.653  12.979  0.4205 -0.2287 -0.3109
  369TMC3    O1 5583   4.360   1.565  13.483 -0.1912 -0.6070 -0.2046
  369TMC3    O2 5584   4.545   1.707  12.930 -0.2083 -0.0838 -0.1522
  370TMC3    C1 5585   4.190   2.122  16.375 -0.4910 -0.0450  0.2502
  370TMC3    C2 5586   4.155   2.011  16.453 -0.0371 -0.5577  0.4134
  370TMC3    C3 5587   4.121   1.894  16.387 -0.9128 -1.0746 -0.6064
  370TMC3    C4 5588   4.193   2.108  16.235 -0.3076 -0.5008  0.6338
  370TMC3    C5 5589   4.178   1.986  16.177 -0.7427 -0.2286  0.1254
  370TMC3    C6 5590   4.134   1.879  16.252  0.0507 -0.0937  0.1316
  370TMC3     C 5591   4.286   2.210  16.440 -0.4843  0.4440 -0.5742
  370TMC3     O 5592   4.331   2.165  16.548  0.0613  0.7545 -0.1190
  370TMC3     H 5593   4.148   2.031  16.560 -0.8515 -0.0086  0.2528
  370TMC3    H1 5594   4.222   2.187  16.167  1.9743 -1.6976  0.2232
  370TMC3    H2 5595   4.124   1.778  16.212  0.5523  0.7109 -2.0472
  370TMC3    C7 5596   4.260   1.959  16.056 -0.7260  0.6644  0.0856
  370TMC3    C8 5597   4.076   1.772  16.457 -0.1320 -0.1727  0.2102
  370TMC3    O1 5598   4.271   2.053  15.977  0.3072 -0.1637  0.4300
  370TMC3    O2 5599   4.073   1.657  16.413 -0.4661 -0.0879 -0.5321
  371TMC3    C1 5600   0.626   0.264  15.601 -0.8911  0.0121  0.0672
  371TMC3    C2 5601   0.493   0.274  15.612 -0.1862 -0.1665  0.3859
  371TMC3    C3 5602   0.443   0.399  15.648 -1.1541  1.2493 -0.5485
  371TMC3    C4 5603   0.713   0.378  15.618 -0.0526 -0.4447  0.2958
  371TMC3    C5 5604   0.652   0.494  15.645  1.1107 -0.2284  0.5256
  371TMC3    C6 5605   0.520   0.504  15.669  0.2180  0.2176 -0.1669
  371TMC3     C 5606   0.694   0.138  15.570 -0.1512 -0.2569  0.6250
  371TMC3     O 5607   0.812   0.140  15.531 -0.0387 -0.1866 -0.2433
  371TMC3     H 5608   0.428   0.187  15.604 -0.0056 -0.2653  0.0110
  371TMC3    H1 5609   0.817   0.373  15.588  0.1944  1.7513  0.7590
  371TMC3    H2 5610   0.480   0.605  15.665  0.4186  0.2706 -0.9376
  371TMC3    C7 5611   0.730   0.619  15.640 -0.3365 -0.0177  0.2019
  371TMC3    C8 5612   0.297   0.408  15.628 -0.7350  0.3409  0.7962
  371TMC3    O1 5613   0.673   0.724  15.605 -0.2618  0.2145 -0.1260
  371TMC3    O2 5614   0.238   0.307  15.603 -0.9090 -0.4145 -0.5740
  372MPD2     C 5615   4.544   1.474  13.752 -0.2331  0.3873 -0.0638
  372MPD2    C1 5616   4.662   1.442  13.821  0.3234 -0.0730 -0.9723
  372MPD2    C2 5617   4.671   1.317  13.882  0.2156 -0.0770 -0.1589
  372MPD2    C3 5618   4.564   1.227  13.860  0.3922 -0.0837 -0.5392
  372MPD2    C4 5619   4.444   1.267  13.793 -0.4883  0.0128  0.1625
  372MPD2    C5 5620   4.430   1.390  13.742  0.7897  0.0826  0.1413
  372MPD2     H 5621   0.025   1.286  13.934  1.1684  1.0629 -1.1312
  372MPD2    H1 5622   4.359   1.202  13.774  0.4807 -1.8243  2.1080
  372MPD2    H2 5623   4.540   1.567  13.696 -0.5685 -0.4729 -1.4869
  372MPD2    H3 5624   4.342   1.411  13.683  0.4085 -0.8318  0.3953
  372MPD2     N 5625   4.578   1.099  13.917 -0.4261 -0.3430 -0.0875
  372MPD2    H5 5626   4.660   1.096  13.977  0.0197  0.5145 -0.6542
  372MPD2    N1 5627   0.034   1.536  13.832  0.1125 -0.4596  0.2196
  372MPD2    H7 5628   0.117   1.510  13.883  1.4212  1.3893 -0.9627
  373TMC3    C1 5629   4.502   0.878  13.981  0.3501 -0.0732 -0.3462
  373TMC3    C2 5630   4.564   0.899  14.100  0.0584  0.1466  0.0894
  373TMC3    C3 5631   4.580   0.786  14.181 -0.1891  0.5419  0.2178
  373TMC3    C4 5632   4.445   0.761  13.941 -0.3844 -0.5841  0.1448
  373TMC3    C5 5633   4.455   0.653  14.027 -0.2093  0.3014  0.8435
  373TMC3    C6 5634   4.515   0.668  14.151 -0.0557  0.2529  0.2698
  373TMC3     C 5635   4.488   0.994  13.895  0.4126  0.1854 -0.1286
  373TMC3     O 5636   4.396   0.987  13.812 -0.1082 -0.3764  0.3135
  373TMC3     H 5637   4.598   0.999  14.127  1.4049 -0.4436  0.5956
  373TMC3    H1 5638   4.394   0.753  13.846  1.6898  2.7207 -1.2535
  373TMC3    H2 5639   4.548   0.588  14.216  2.4492  0.0797 -1.1946
  373TMC3    C7 5640   4.415   0.525  13.973  0.1774 -0.3807  0.1379
  373TMC3    C8 5641   4.721   0.785  14.231  0.0562  0.6850  0.0409
  373TMC3    O1 5642   4.396   0.519  13.857  0.3427  0.0531 -0.3480
  373TMC3    O2 5643   0.063   0.859  14.173  0.2869 -0.1625  0.0041
  374TMC3    C1 5644   0.304   0.902   9.747 -0.5952  0.4177 -0.0097
  374TMC3    C2 5645   0.400   0.998   9.771  0.5210  0.9016  0.0113
  374TMC3    C3 5646   0.400   1.110   9.693  0.2715 -0.0406 -0.2725
  374TMC3    C4 5647   0.215   0.913   9.647  0.2693 -0.5120 -0.6375
  374TMC3    C5 5648   0.217   1.026   9.570  0.2600 -0.1655 -0.4042
  374TMC3    C6 5649   0.307   1.127   9.596 -0.0520 -0.2118 -0.1545
  374TMC3     C 5650   0.284   0.798   9.843 -0.5643  0.6303  0.2352
  374TMC3     O 5651   0.175   0.739   9.841 -0.3310 -0.3841  0.3192
  374TMC3     H 5652   0.457   0.987   9.863 -1.5537  2.4176  1.4701
  374TMC3    H1 5653   0.141   0.835   9.637 -1.3565  0.9230  0.0540
  374TMC3    H2 5654   0.319   1.220   9.541 -0.0052  1.2511  2.2887
  374TMC3    C7 5655   0.107   1.041   9.473 -0.2415 -0.2748 -1.1235
  374TMC3    C8 5656   0.514   1.206   9.697 -0.1016 -0.0696  0.2209
  374TMC3    O1 5657   0.126   1.120   9.383  0.2828  0.4178 -0.4789
  374TMC3    O2 5658   0.518   1.298   9.611  0.2447  0.3864 -0.0205
  375MPD2     C 5659   0.934   2.201  17.081 -0.3553  0.0534 -0.4903
  375MPD2    C1 5660   0.883   2.238  16.960 -0.4311 -0.6679 -0.1062
  375MPD2    C2 5661   0.925   2.178  16.844  0.5580 -0.5617 -0.5309
  375MPD2    C3 5662   1.019   2.074  16.848 -0.7792  0.0657 -0.3700
  375MPD2    C4 5663   1.068   2.031  16.975 -0.1016  0.0749  0.1356
  375MPD2    C5 5664   1.020   2.094  17.088 -0.1260 -0.1055 -0.1267
  375MPD2     H 5665   0.883   2.213  16.751  0.4185  0.0605 -0.2328
  375MPD2    H1 5666   1.131   1.942  16.984  1.0016  0.8836  0.4291
  375MPD2    H2 5667   0.912   2.253  17.173  0.1845 -2.8267  1.2668
  375MPD2    H3 5668   1.042   2.055  17.186  0.3805  1.7234  0.4724
  375MPD2     N 5669   1.067   2.013  16.725  0.1616  0.6673  0.1922
  375MPD2    H5 5670   1.140   1.945  16.744 -0.0463  0.4268  0.1289
  375MPD2    N1 5671   0.780   2.337  16.954 -0.0902  0.6753  1.0045
  375MPD2    H7 5672   0.755   2.369  16.861 -0.6571  0.0490  0.9421
  376TMC3    C1 5673   1.108   1.961  16.506  0.0273  0.0932  0.1109
  376TMC3    C2 5674   1.243   1.951  16.533  0.2023 -0.3452 -0.4017
  376TMC3    C3 5675   1.329   1.949  16.425  0.3339 -0.1899  0.1523
  376TMC3    C4 5676   1.061   1.976  16.385 -0.3581  1.2415 -0.1187
  376TMC3    C5 5677   1.149   1.960  16.281 -0.1634  0.3544  0.0273
  376TMC3    C6 5678   1.282   1.959  16.296  0.0021  0.1854  0.5320
  376TMC3     C 5679   1.030   2.038  16.600 -0.3146  0.4016  0.1304
  376TMC3     O 5680   0.955   2.126  16.561  0.4896  0.4321 -0.0835
  376TMC3     H 5681   1.287   1.972  16.630 -1.1245 -0.8013  0.2892
  376TMC3    H1 5682   0.954   1.985  16.378 -0.4613  0.6314  0.6513
  376TMC3    H2 5683   1.354   1.958  16.215 -1.0840  2.3827 -0.4803
  376TMC3    C7 5684   1.091   1.942  16.144 -0.1473  0.3346 -0.1793
  376TMC3    C8 5685   1.475   1.975  16.442 -0.3783  0.0479 -0.2213
  376TMC3    O1 5686   0.972   1.963  16.128  0.4358  0.3365 -1.0122
  376TMC3    O2 5687   1.517   2.068  16.370  0.1549 -0.0808 -0.4335
  377MPD2     C 5688   4.086   1.770  13.055 -1.2256  0.4149 -0.2716
  377MPD2    C1 5689   3.988   1.718  12.979  0.3341 -0.1607 -0.0104
  377MPD2    C2 5690   3.887   1.659  13.053 -0.7413  0.3161 -1.0023
  377MPD2    C3 5691   3.888   1.664  13.193 -0.2168 -0.1839  0.5594
  377MPD2    C4 5692   3.984   1.722  13.268 -0.3276  0.5945 -0.3309
  377MPD2    C5 5693   4.082   1.782  13.190 -0.0060 -0.0414  0.3024
  377MPD2     H 5694   3.803   1.606  13.009 -2.1810  1.1245  0.7558
  377MPD2    H1 5695   3.990   1.732  13.375  1.0522 -0.5286 -0.3019
  377MPD2    H2 5696   4.166   1.818  13.000  0.3341 -2.7183 -0.7839
  377MPD2    H3 5697   4.164   1.832  13.241  0.1212  0.5432 -0.4873
  377MPD2     N 5698   3.797   1.584  13.268 -0.2216  0.7904  0.4785
  377MPD2    H5 5699   3.819   1.589  13.367  2.1257 -2.2563  0.1185
  377MPD2    N1 5700   4.001   1.709  12.840 -0.5849  0.2044 -0.0070
  377MPD2    H7 5701   4.093   1.739  12.811  0.5827 -1.9775  1.4731
  378TMC3    C1 5702   3.916   1.659  12.381 -0.0569  0.5443  0.1899
  378TMC3    C2 5703   3.863   1.659  12.512  0.0079 -0.1332 -0.2568
  378TMC3    C3 5704   3.960   1.669  12.615 -0.6040  0.3508 -0.3247
  378TMC3    C4 5705   4.048   1.661  12.353  0.4887  0.5352  0.2617
  378TMC3    C5 5706   4.135   1.677  12.456 -0.0422  0.4391  0.3620
  378TMC3    C6 5707   4.098   1.678  12.589  0.1632 -0.0065 -0.2883
  378TMC3     C 5708   3.819   1.638  12.274 -0.0103 -0.4441  0.0974
  378TMC3     O 5709   3.859   1.678  12.165  0.5554 -0.2369  0.0557
  378TMC3     H 5710   3.759   1.664  12.543  0.2279 -0.1972  0.4926
  378TMC3    H1 5711   4.085   1.662  12.251 -0.4938  0.3321 -0.0954
  378TMC3    H2 5712   4.174   1.706  12.661 -0.1812 -4.0949  1.6324
  378TMC3    C7 5713   4.278   1.690  12.425 -0.7527 -0.1752 -0.8562
  378TMC3    C8 5714   3.907   1.674  12.747  0.5946  0.5783 -0.6481
  378TMC3    O1 5715   4.350   1.738  12.513 -0.4716  0.3828  0.0736
  378TMC3    O2 5716   3.790   1.658  12.769 -0.6342 -0.5393 -0.5906
  379MPD2     C 5717   4.152   4.536  16.332 -0.7987 -0.6387  0.0891
  379MPD2    C1 5718   4.241   4.473  16.243  0.4642  0.6888  0.2955
  379MPD2    C2 5719   4.329   4.374  16.284  0.2710 -0.5191  0.4302
  379MPD2    C3 5720   4.325   4.344  16.422  0.1246 -0.1024 -0.0552
  379MPD2    C4 5721   4.227   4.399  16.502  0.1940 -0.0543 -0.0691
  379MPD2    C5 5722   4.139   4.493  16.459 -0.4026  0.3141 -0.7852
  379MPD2     H 5723   4.384   4.321  16.207 -0.0169  0.8143 -0.6935
  379MPD2    H1 5724   4.221   4.372  16.607  2.2360  1.2201  0.3865
  379MPD2    H2 5725   4.102   4.627  16.300 -0.3603  0.5979  2.9483
  379MPD2    H3 5726   4.083   4.543  16.537 -4.3605 -3.1242 -1.3924
  379MPD2     N 5727   4.412   4.250  16.488 -0.1879 -0.5392  0.4948
  379MPD2    H5 5728   4.396   4.223  16.585 -1.5888  0.2673  0.4826
  379MPD2    N1 5729   4.238   4.523  16.112  0.1323  0.3072 -0.6607
  379MPD2    H7 5730   4.172   4.597  16.093 -1.0892 -0.4248  0.6919
  380TMC3    C1 5731   4.307   4.594  15.897 -0.0903  0.2444 -0.3675
  380TMC3    C2 5732   4.425   4.640  15.844 -0.0909  0.1732 -0.6225
  380TMC3    C3 5733   4.415   0.020  15.778 -0.1566  0.5261 -0.3453
  380TMC3    C4 5734   4.191   4.670  15.891  0.6540 -0.0488 -0.5552
  380TMC3    C5 5735   4.187   0.056  15.823  0.4798  0.1940  0.4155
  380TMC3    C6 5736   4.301   0.100  15.763  0.2876  0.2539  0.2360
  380TMC3     C 5737   4.329   4.504  16.011 -0.1432 -0.0266 -0.5335
  380TMC3     O 5738   4.436   4.451  16.021 -0.5467 -0.4428  0.3075
  380TMC3     H 5739   4.520   4.601  15.879 -1.1200 -2.0664 -0.3353
  380TMC3    H1 5740   4.099   4.623  15.924  0.7858  1.0432  1.4077
  380TMC3    H2 5741   4.297   0.196  15.713  4.1967  1.3872  2.1308
  380TMC3    C7 5742   4.067   0.079  15.739  0.6129 -0.0734  0.3501
  380TMC3    C8 5743   4.531   0.064  15.703  0.1392  0.2495  0.0303
  380TMC3    O1 5744   4.050   0.195  15.702  0.8073  0.9357  0.7180
  380TMC3    O2 5745   4.539   0.177  15.657 -0.3761  0.5607  0.3842
  381TMC3    C1 5746   4.286   1.019  16.197  0.0545 -0.1234  0.9126
  381TMC3    C2 5747   4.362   1.127  16.200  0.1333  0.4324 -0.1699
  381TMC3    C3 5748   4.322   1.220  16.297  0.0413 -0.5955 -0.5200
  381TMC3    C4 5749   4.182   0.997  16.278 -0.2912 -0.3439  0.4966
  381TMC3    C5 5750   4.144   1.091  16.363  0.2018 -0.0449  0.4621
  381TMC3    C6 5751   4.214   1.203  16.382 -0.1978 -0.4478 -0.0879
  381TMC3     C 5752   4.332   0.917  16.106 -0.4509 -0.5344  0.3307
  381TMC3     O 5753   4.423   0.943  16.026 -0.0727  0.1324  0.0482
  381TMC3     H 5754   4.445   1.152  16.135  0.9911  0.5498  0.9573
  381TMC3    H1 5755   4.139   0.897  16.273 -0.1496 -0.4201  0.7670
  381TMC3    H2 5756   4.176   1.280  16.447 -1.7605  0.1623 -1.7531
  381TMC3    C7 5757   4.073   1.039  16.471 -0.8066  0.3021 -0.5056
  381TMC3    C8 5758   4.402   1.341  16.294  0.2988 -0.0052 -0.0923
  381TMC3    O1 5759   4.087   0.919  16.492 -0.5114  0.4310 -0.4827
  381TMC3    O2 5760   4.446   1.372  16.187  0.0396 -0.0306  0.2639
  382MPD2     C 5761   3.599   3.617  16.957 -0.4947  0.9077  0.7910
  382MPD2    C1 5762   3.562   3.651  17.090  1.5854 -0.2048  0.2756
  382MPD2    C2 5763   3.503   3.556  17.169 -0.7238  0.7082 -0.7479
  382MPD2    C3 5764   3.467   3.429  17.131  0.3939 -0.6219 -0.0804
  382MPD2    C4 5765   3.498   3.394  17.002 -0.5999 -0.3294  0.1962
  382MPD2    C5 5766   3.565   3.484  16.919 -0.4149  1.0962 -0.3786
  382MPD2     H 5767   3.463   3.592  17.264 -1.1435  0.4317 -0.8176
  382MPD2    H1 5768   3.468   3.299  16.959  0.7283 -0.2008 -0.9991
  382MPD2    H2 5769   3.662   3.680  16.895 -0.1525 -0.4602 -0.2432
  382MPD2    H3 5770   3.595   3.448  16.820  0.6942  0.0666  0.3260
  382MPD2     N 5771   3.390   3.351  17.217  0.6436  0.2492 -0.0097
  382MPD2    H5 5772   3.392   3.380  17.314 -0.0739  1.2413 -0.3019
  382MPD2    N1 5773   3.588   3.784  17.134  0.5312  0.4628 -0.0658
  382MPD2    H7 5774   3.557   3.790  17.231 -2.3141  0.7864 -0.9947
  383TMC3    C1 5775   3.249   3.167  17.284 -0.4281  0.7739 -0.9186
  383TMC3    C2 5776   3.136   3.096  17.245 -0.1671 -0.1536  0.1990
  383TMC3    C3 5777   3.112   2.977  17.308 -0.2929 -0.2078 -0.4873
  383TMC3    C4 5778   3.343   3.111  17.364 -0.6773 -0.0823 -0.3008
  383TMC3    C5 5779   3.314   2.987  17.415 -0.9997 -0.3397  0.0939
  383TMC3    C6 5780   3.196   2.927  17.397  0.3688 -0.3235  0.7863
  383TMC3     C 5781   3.304   3.249  17.176  0.2164  0.3835 -0.2189
  383TMC3     O 5782   3.270   3.215  17.064 -0.3104 -0.4118 -0.4754
  383TMC3     H 5783   3.058   3.134  17.180 -0.9914  1.4744  2.1317
  383TMC3    H1 5784   3.442   3.156  17.356 -0.0030 -1.4187  0.3940
  383TMC3    H2 5785   3.177   2.834  17.449 -1.9877  0.1787  0.8292
  383TMC3    C7 5786   3.406   2.908  17.494 -0.3578  0.0012 -0.2011
  383TMC3    C8 5787   2.984   2.910  17.277  0.1479 -0.5151  0.3938
  383TMC3    O1 5788   3.363   2.804  17.550 -0.1326 -0.2022  0.0853
  383TMC3    O2 5789   2.902   2.979  17.225  0.0387 -0.4866  0.3601
  384MPD2     C 5790   4.594   4.551  11.408 -0.1428 -0.3453  0.2763
  384MPD2    C1 5791   4.577   4.473  11.517  0.4710  0.0991 -0.5024
  384MPD2    C2 5792   4.603   4.333  11.512  0.0266 -0.4545  0.2544
  384MPD2    C3 5793   4.654   4.279  11.397  0.0571  0.5411 -0.0898
  384MPD2    C4 5794   4.685   4.365  11.289 -0.6453 -0.1153 -0.0771
  384MPD2    C5 5795   4.649   4.497  11.296  0.1394  0.4511 -0.1558
  384MPD2     H 5796   4.569   4.267  11.591  0.1320  0.1611  0.8222
  384MPD2    H1 5797   4.732   4.329  11.198 -0.7939  0.0407 -0.2170
  384MPD2    H2 5798   4.562   4.654  11.411  0.7029 -0.1338  2.2400
  384MPD2    H3 5799   4.671   4.565  11.214 -0.2793 -0.6924 -1.2070
  384MPD2     N 5800   4.702   4.148  11.388 -0.2264  0.1715 -0.4853
  384MPD2    H5 5801   0.022   4.114  11.310  0.1287 -2.1162  0.7676
  384MPD2    N1 5802   4.531   4.550  11.626 -0.3888 -0.9089  0.5894
  384MPD2    H7 5803   4.508   4.649  11.616 -2.3310 -1.4474 -0.2847
  385TMC3    C1 5804   0.067   3.979  11.504 -0.1705  0.4034  0.1006
  385TMC3    C2 5805   0.066   3.851  11.555  1.0045 -0.3164  0.0490
  385TMC3    C3 5806   0.177   3.800  11.614 -0.6852 -0.8771 -0.5323
  385TMC3    C4 5807   0.178   4.055  11.493 -0.0416  0.3573  0.1372
  385TMC3    C5 5808   0.291   3.997  11.549  0.5470  0.2605 -0.5823
  385TMC3    C6 5809   0.288   3.874  11.611  0.2365  0.1852 -0.2994
  385TMC3     C 5810   4.675   4.051  11.485 -0.3742  0.2298  0.2568
  385TMC3     O 5811   4.563   4.021  11.521 -0.5161 -0.1820 -0.6794
  385TMC3     H 5812   4.708   3.798  11.565  2.0443 -2.4019 -1.0819
  385TMC3    H1 5813   0.173   4.152  11.445 -0.5227  0.6804  0.8233
  385TMC3    H2 5814   0.379   3.830  11.649  1.8770  3.8956  0.1121
  385TMC3    C7 5815   0.364   4.088  11.640  0.4354  0.4895 -0.1615
  385TMC3    C8 5816   0.193   3.663  11.661  0.2231  0.6874 -0.1312
  385TMC3    O1 5817   0.474   4.056  11.680 -0.0317  0.1133 -0.1656
  385TMC3    O2 5818   0.280   3.635  11.738 -0.5677 -0.1031 -0.6959
  386TMC3    C1 5819   0.277   1.465  11.391  0.3041 -0.7275  0.6528
  386TMC3    C2 5820   0.271   1.495  11.259  0.1530  0.0358 -0.3495
  386TMC3    C3 5821   0.205   1.613  11.226 -1.6080  0.6581  0.0236
  386TMC3    C4 5822   0.208   1.528  11.496 -0.1413  0.2865 -0.3442
  386TMC3    C5 5823   0.144   1.643  11.458 -0.0204 -0.1198 -0.5807
  386TMC3    C6 5824   0.141   1.687  11.323 -0.7650 -0.6332  0.3064
  386TMC3     C 5825   0.375   1.368  11.425 -0.2125 -0.8373  0.3502
  386TMC3     O 5826   0.452   1.330  11.339 -0.4860  0.4054  0.0713
  386TMC3     H 5827   0.311   1.436  11.178 -0.3585 -3.4458  1.9207
  386TMC3    H1 5828   0.216   1.501  11.600 -2.8116 -1.5564 -0.6304
  386TMC3    H2 5829   0.093   1.778  11.290 -0.4929 -1.4393 -2.3139
  386TMC3    C7 5830   0.084   1.723  11.561  0.0963  0.6833  0.4601
  386TMC3    C8 5831   0.139   1.625  11.105 -0.7616 -0.0151  0.2185
  386TMC3    O1 5832   0.109   1.697  11.678 -0.1915 -0.2435 -0.2756
  386TMC3    O2 5833   0.027   1.674  11.105 -0.0481  0.5724  0.3624
  387MPD2     C 5834   2.206   1.858  10.033 -0.0009 -0.3890  0.0990
  387MPD2    C1 5835   2.271   1.773  10.115 -1.0450 -0.0978  0.2487
  387MPD2    C2 5836   2.297   1.644  10.079 -0.6233  0.3269  0.2082
  387MPD2    C3 5837   2.267   1.603   9.955  0.2976  0.8241 -0.1189
  387MPD2    C4 5838   2.223   1.692   9.864  0.2975 -0.2374  0.3653
  387MPD2    C5 5839   2.192   1.812   9.906  0.0966  0.6410  0.6486
  387MPD2     H 5840   2.347   1.575  10.145  2.8204  1.7346 -0.9143
  387MPD2    H1 5841   2.204   1.665   9.761 -0.0829  2.8146 -0.3581
  387MPD2    H2 5842   2.180   1.960  10.057 -0.6170 -0.9328  1.7350
  387MPD2    H3 5843   2.151   1.877   9.829  0.4353 -1.0170 -0.9168
  387MPD2     N 5844   2.283   1.462   9.926 -0.0368  0.3641 -0.4083
  387MPD2    H5 5845   2.320   1.397   9.994  0.0320  2.3954  1.4810
  387MPD2    N1 5846   2.296   1.798  10.252  0.7376  0.2561 -0.3205
  387MPD2    H7 5847   2.325   1.713  10.300 -1.4325 -0.4162 -0.1850
  388TMC3    C1 5848   2.368   1.934  10.426  0.0603 -0.3381 -0.6317
  388TMC3    C2 5849   2.399   2.069  10.447  0.3645  0.3906 -0.7371
  388TMC3    C3 5850   2.516   2.114  10.497 -0.6048  0.1557 -0.2757
  388TMC3    C4 5851   2.457   1.842  10.461 -0.0028 -0.4837 -0.8930
  388TMC3    C5 5852   2.579   1.891  10.495  0.2972  0.1157 -0.2973
  388TMC3    C6 5853   2.616   2.022  10.526 -0.5031 -0.2369 -0.2855
  388TMC3     C 5854   2.285   1.923  10.308  0.5103 -0.2315  0.2947
  388TMC3     O 5855   2.264   2.030  10.251  0.4159 -0.5299 -0.0026
  388TMC3     H 5856   2.321   2.144  10.444 -0.9691 -1.0176 -1.1445
  388TMC3    H1 5857   2.425   1.739  10.468  0.2250 -0.2912  2.8416
  388TMC3    H2 5858   2.718   2.040  10.558 -0.5295  0.2546 -0.4775
  388TMC3    C7 5859   2.682   1.796  10.475  0.5769  1.4911 -0.0876
  388TMC3    C8 5860   2.518   2.242  10.559 -0.4224  0.4767  0.7691
  388TMC3    O1 5861   2.789   1.812  10.531  0.1177  0.1421  0.1661
  388TMC3    O2 5862   2.413   2.306  10.549  0.2488  0.1522  0.0395
  389MPD2     C 5863   1.828   4.274  10.931 -0.2037  0.3176 -0.0020
  389MPD2    C1 5864   1.756   4.189  10.849 -0.3364 -0.3819 -0.2951
  389MPD2    C2 5865   1.682   4.086  10.911 -0.0195 -0.0488 -0.1615
  389MPD2    C3 5866   1.681   4.071  11.053  0.3889  0.2245 -0.2504
  389MPD2    C4 5867   1.759   4.158  11.126 -0.4746  0.4170  0.1264
  389MPD2    C5 5868   1.834   4.260  11.070  0.1305  0.5631 -0.1550
  389MPD2     H 5869   1.613   4.028  10.851 -0.7324 -0.3594  0.9556
  389MPD2    H1 5870   1.753   4.154  11.235  1.0131  0.1113  0.2076
  389MPD2    H2 5871   1.876   4.362  10.888  0.5526  0.8925  1.9933
  389MPD2    H3 5872   1.882   4.334  11.134  0.4294  0.8520 -0.7178
  389MPD2     N 5873   1.608   3.972  11.125  0.4159 -0.6983  0.4603
  389MPD2    H5 5874   1.622   3.961  11.225  2.2858 -1.1619  0.1398
  389MPD2    N1 5875   1.750   4.238  10.716  0.4429  0.4372  0.1275
  389MPD2    H7 5876   1.825   4.301  10.689 -1.1655  1.7279 -1.2957
  390TMC3    C1 5877   1.421   3.860  11.197  0.3293 -0.4434 -0.1711
  390TMC3    C2 5878   1.288   3.823  11.170  0.8542  0.6362  0.1309
  390TMC3    C3 5879   1.198   3.838  11.269 -0.2906 -0.3129  0.2138
  390TMC3    C4 5880   1.453   3.900  11.326  0.6524  0.2448  0.1740
  390TMC3    C5 5881   1.358   3.935  11.419  0.6166  0.2856 -0.0074
  390TMC3    C6 5882   1.230   3.892  11.396 -0.6175  0.0510  0.0479
  390TMC3     C 5883   1.494   3.912  11.086 -0.3950 -0.1660  0.0258
  390TMC3     O 5884   1.438   3.924  10.978  0.8009 -0.0699 -1.6195
  390TMC3     H 5885   1.258   3.768  11.082  0.8192  0.8829 -0.0115
  390TMC3    H1 5886   1.558   3.902  11.353  0.9161 -1.5843 -0.6829
  390TMC3    H2 5887   1.154   3.885  11.473  1.1184 -2.3614  1.5551
  390TMC3    C7 5888   1.401   3.954  11.554 -0.7259 -0.4650  0.2533
  390TMC3    C8 5889   1.061   3.798  11.251 -0.0194  0.3392  0.2457
  390TMC3    O1 5890   1.520   3.945  11.580 -0.2616 -0.0352 -0.2040
  390TMC3    O2 5891   1.050   3.702  11.176  0.0651 -0.0379 -0.8791
  391MPD2     C 5892   0.996   0.945  11.176 -0.9089 -0.4742  0.8501
  391MPD2    C1 5893   1.078   1.056  11.152 -0.7574 -0.2994 -0.3197
  391MPD2    C2 5894   1.060   1.128  11.036  0.2513 -0.2124  0.2176
  391MPD2    C3 5895   0.976   1.094  10.937 -0.0149 -0.1439  0.2614
  391MPD2    C4 5896   0.884   0.989  10.966 -0.7273  1.0920 -0.4059
  391MPD2    C5 5897   0.899   0.919  11.082  0.9129 -0.8630  0.1417
  391MPD2     H 5898   1.115   1.219  11.013 -1.5940  0.5607 -1.1122
  391MPD2    H1 5899   0.806   0.957  10.899  0.2630 -1.1515 -0.4820
  391MPD2    H2 5900   0.999   0.887  11.268  0.1976 -0.3223  0.9127
  391MPD2    H3 5901   0.834   0.833  11.088  1.1280 -1.0519 -0.2176
  391MPD2     N 5902   0.983   1.165  10.814 -0.0850  0.1769 -0.2891
  391MPD2    H5 5903   1.040   1.249  10.808 -1.0342  0.7942 -0.5806
  391MPD2    N1 5904   1.162   1.092  11.257 -1.0407  0.2413 -1.0598
  391MPD2    H7 5905   1.162   1.039  11.343 -1.6255  0.1652 -1.1093
  392TMC3    C1 5906   0.961   1.227  10.593 -0.1704 -0.0389 -0.1374
  392TMC3    C2 5907   0.907   1.200  10.476 -0.2330  0.0969  0.2657
  392TMC3    C3 5908   0.905   1.298  10.383  0.0813  0.0584  0.7611
  392TMC3    C4 5909   1.039   1.340  10.611 -0.1837 -0.4826  0.5545
  392TMC3    C5 5910   1.044   1.431  10.507  1.1339 -0.9175  0.5116
  392TMC3    C6 5911   0.965   1.415  10.396 -0.0169 -0.2745 -0.3448
  392TMC3     C 5912   0.923   1.131  10.696  0.8082 -0.7606 -0.0039
  392TMC3     O 5913   0.865   1.027  10.681  0.5230  0.1359 -0.0575
  392TMC3     H 5914   0.851   1.109  10.459 -1.9106  1.5773 -1.9689
  392TMC3    H1 5915   1.099   1.355  10.701 -0.8032 -1.6350  1.1648
  392TMC3    H2 5916   0.966   1.477  10.307  2.4417 -1.2048 -0.9660
  392TMC3    C7 5917   1.138   1.546  10.524  0.4148 -1.0578  0.0701
  392TMC3    C8 5918   0.839   1.264  10.257  0.3942  0.4222  0.6361
  392TMC3    O1 5919   1.205   1.545  10.627 -0.1720  0.2852 -0.2258
  392TMC3    O2 5920   0.744   1.187  10.262 -0.0128 -0.3153  0.0953
  393TMC3    C1 5921   0.226   4.150  10.301 -0.5546 -0.0094 -0.1695
  393TMC3    C2 5922   0.108   4.147  10.369 -0.6603 -0.2687 -0.6342
  393TMC3    C3 5923   0.074   4.034  10.437  0.5231  0.1653 -0.0372
  393TMC3    C4 5924   0.318   4.055  10.309 -0.2371  0.0652 -0.4696
  393TMC3    C5 5925   0.284   3.934  10.362  0.4711 -0.7236 -0.2016
  393TMC3    C6 5926   0.161   3.925  10.422 -1.0626  0.0672  0.1135
  393TMC3     C 5927   0.233   4.249  10.196  0.3749  0.0575 -0.3518
  393TMC3     O 5928   0.120   4.282  10.163  0.4684  0.0467  0.0513
  393TMC3     H 5929   0.042   4.233  10.377  2.0658  1.8961 -1.5336
  393TMC3    H1 5930   0.400   4.067  10.238  0.1952  0.8309  0.1600
  393TMC3    H2 5931   0.133   3.829  10.464 -2.3892 -0.6254 -2.2797
  393TMC3    C7 5932   0.341   3.804  10.328 -0.0920 -0.2266  0.4339
  393TMC3    C8 5933   4.683   4.018  10.508 -0.3109  0.5351  0.7828
  393TMC3    O1 5934   0.266   3.704  10.338 -0.3943 -0.2913 -0.0436
  393TMC3    O2 5935   4.654   3.903  10.533  0.3409  0.0898 -0.2144
  394TMC3    C1 5936   1.704   4.228  10.472 -0.2911  0.5115  0.4695
  394TMC3    C2 5937   1.606   4.211  10.376 -0.1598  0.1580 -0.5030
  394TMC3    C3 5938   1.607   4.272  10.260 -0.1502  0.8649  0.8279
  394TMC3    C4 5939   1.809   4.308  10.443 -0.5591  0.2154  0.2658
  394TMC3    C5 5940   1.825   4.362  10.318 -0.7600  0.0571  1.1062
  394TMC3    C6 5941   1.715   4.354  10.233 -0.0908  0.4407  0.3795
  394TMC3     C 5942   1.668   4.185  10.610 -0.1955 -0.2908 -0.0672
  394TMC3     O 5943   1.582   4.094  10.616 -0.5138 -0.3961 -0.1622
  394TMC3     H 5944   1.513   4.160  10.397  0.7734 -1.9033 -1.3437
  394TMC3    H1 5945   1.886   4.305  10.519 -0.7930 -0.3407  0.4846
  394TMC3    H2 5946   1.718   4.408  10.139 -0.5392  0.1594  0.2029
  394TMC3    C7 5947   1.909   4.478  10.300  0.6418  0.2496  0.8120
  394TMC3    C8 5948   1.538   4.223  10.142 -0.8170  0.4510 -0.0514
  394TMC3    O1 5949   1.870   4.548  10.205  0.0530  0.3621  0.2937
  394TMC3    O2 5950   1.544   4.287  10.039 -0.6290  0.2353  0.0185
  395TMC3    C1 5951   1.879   2.080  14.862 -0.1631  0.1242 -0.2008
  395TMC3    C2 5952   1.946   1.974  14.810 -0.9472 -0.1050 -0.4455
  395TMC3    C3 5953   2.066   2.000  14.745  0.0387  0.2585  0.2978
  395TMC3    C4 5954   1.936   2.209  14.840 -0.2175  0.3327  0.2924
  395TMC3    C5 5955   2.052   2.229  14.775  0.5345  0.4224 -0.0232
  395TMC3    C6 5956   2.122   2.127  14.729 -0.4626 -0.4499  0.0632
  395TMC3     C 5957   1.759   2.070  14.945  0.1201 -0.7269  0.2215
  395TMC3     O 5958   1.712   2.180  14.985  0.0091 -0.0736  0.2266
  395TMC3     H 5959   1.912   1.873  14.831 -0.3689 -0.3538 -0.7179
  395TMC3    H1 5960   1.901   2.300  14.889 -0.0645  0.9735 -0.8012
  395TMC3    H2 5961   2.218   2.145  14.683 -0.4624 -1.2609 -0.2667
  395TMC3    C7 5962   2.116   2.356  14.797  0.0744 -0.0802 -1.1135
  395TMC3    C8 5963   2.146   1.887  14.699  0.0576  0.5332 -0.4428
  395TMC3    O1 5964   2.084   2.420  14.899 -0.4052  0.1799 -0.0805
  395TMC3    O2 5965   2.267   1.916  14.697 -0.8003  0.1781  0.1134
  396MPD2     C 5966   1.497   3.042  17.136  0.1216 -0.0387  0.4464
  396MPD2    C1 5967   1.600   3.128  17.167  0.3643 -0.2541  0.0564
  396MPD2    C2 5968   1.654   3.218  17.080 -0.3607  0.6318 -0.6111
  396MPD2    C3 5969   1.587   3.237  16.961  0.0763  0.0531 -0.5509
  396MPD2    C4 5970   1.496   3.146  16.924  0.3758  0.4425  0.5841
  396MPD2    C5 5971   1.456   3.043  17.007  0.7398 -0.0526  0.5008
  396MPD2     H 5972   1.737   3.284  17.104 -0.1898  1.0326 -2.3089
  396MPD2    H1 5973   1.455   3.154  16.824 -1.0725  1.2157  1.2444
  396MPD2    H2 5974   1.465   2.963  17.203  1.0976 -0.4343  0.4399
  396MPD2    H3 5975   1.398   2.958  16.973 -2.6833  1.1046  3.4112
  396MPD2     N 5976   1.637   3.337  16.874 -0.4038 -0.4932  0.1813
  396MPD2    H5 5977   1.717   3.393  16.902 -1.2941  0.6393  0.4805
  396MPD2    N1 5978   1.658   3.100  17.297 -0.2172  0.5612  0.3833
  396MPD2    H7 5979   1.613   3.034  17.360  0.6679  1.4930  2.0104
  397TMC3    C1 5980   1.847   3.077  17.425  0.2711 -0.1046  0.6685
  397TMC3    C2 5981   1.966   3.061  17.355  0.1951  0.3778  0.5266
  397TMC3    C3 5982   1.976   2.952  17.265 -0.3972 -0.4534  0.0231
  397TMC3    C4 5983   1.771   2.971  17.460 -0.6549 -0.5107  0.1463
  397TMC3    C5 5984   1.806   2.851  17.400  0.5814 -0.4771  0.5577
  397TMC3    C6 5985   1.908   2.840  17.308 -0.0897  0.5700 -0.2918
  397TMC3     C 5986   1.763   3.174  17.351  0.8148  0.1905  0.1185
  397TMC3     O 5987   1.805   3.286  17.316 -0.2286  0.8371 -0.3486
  397TMC3     H 5988   2.005   3.155  17.318  1.5860 -0.6015 -0.5215
  397TMC3    H1 5989   1.678   2.986  17.513 -0.1829  0.8098  0.5846
  397TMC3    H2 5990   1.910   2.745  17.256 -2.3876 -0.3305  1.2859
  397TMC3    C7 5991   1.708   2.744  17.405 -0.1172 -0.0319 -0.1373
  397TMC3    C8 5992   1.959   2.978  17.123 -0.0457  0.3467  0.2584
  397TMC3    O1 5993   1.683   2.685  17.304 -0.1818  0.1376  0.5846
  397TMC3    O2 5994   1.891   2.902  17.051  0.1787 -0.0322  0.1187
  398MPD2     C 5995   4.496   4.643  17.700 -0.2648  0.4875 -0.4806
  398MPD2    C1 5996   4.560   4.624   0.088  0.3009 -0.1522  0.0470
  398MPD2    C2 5997   4.607   4.735   0.159 -0.4752 -0.2735  0.0711
  398MPD2    C3 5998   4.578   0.126   0.120  0.4630 -0.0558  0.1980
  398MPD2    C4 5999   4.511   0.142   0.001  0.0502  0.2543  0.0982
  398MPD2    C5 6000   4.463   0.036  17.664  0.1384  0.3952  0.4863
  398MPD2     H 6001   4.664   4.723   0.251 -3.3657  0.3041  1.9341
  398MPD2    H1 6002   4.485   0.240  17.706 -1.3978 -0.2522 -0.2253
  398MPD2    H2 6003   4.456   4.562  17.640  0.3616 -0.1558 -0.0349
  398MPD2    H3 6004   4.401   0.045  17.576 -0.4199  0.6342  0.9027
  398MPD2     N 6005   4.656   0.228   0.185 -0.0757  0.2585  0.2614
  398MPD2    H5 6006   4.710   0.193   0.264  1.3184  1.7884 -0.0069
  398MPD2    N1 6007   4.610   4.498   0.117  0.2207  0.2916 -1.0106
  398MPD2    H7 6008   4.678   4.495   0.192  0.6689 -0.1544 -1.4386
  399TMC3    C1 6009   4.633   4.266   0.148  0.1130  0.5099 -0.1643
  399TMC3    C2 6010   0.034   4.251   0.150 -0.2477 -0.9367  0.2862
  399TMC3    C3 6011   0.088   4.134   0.201 -0.4163  0.4157 -0.3668
  399TMC3    C4 6012   4.554   4.166   0.193  0.1437 -0.3238  0.2612
  399TMC3    C5 6013   4.605   4.051   0.257 -0.4566 -0.1334 -0.2348
  399TMC3    C6 6014   0.012   4.032   0.257  0.0534  0.2311 -0.9265
  399TMC3     C 6015   4.575   4.370   0.063  0.0308 -0.3113 -0.1289
  399TMC3     O 6016   4.491   4.344  17.728 -0.0772 -0.1542  0.8107
  399TMC3     H 6017   0.094   4.327   0.101  1.6589 -3.0128 -0.5929
  399TMC3    H1 6018   4.447   4.181   0.185  0.0539 -2.5219 -2.9997
  399TMC3    H2 6019   0.059   3.939   0.286 -2.4021 -0.9453 -0.7363
  399TMC3    C7 6020   4.510   3.950   0.300 -0.3030 -0.0223 -0.8882
  399TMC3    C8 6021   0.223   4.122   0.159  0.0354 -0.1744 -0.2702
  399TMC3    O1 6022   4.391   3.957   0.263 -0.3790  0.0749  0.0018
  399TMC3    O2 6023   0.294   4.223   0.145 -0.2676 -0.5424 -0.6370
  400TMC3    C1 6024   3.022   2.939  16.872 -0.1992 -0.3987 -0.2989
  400TMC3    C2 6025   2.932   2.897  16.778 -0.0648  0.4482  0.4969
  400TMC3    C3 6026   2.846   2.979  16.707  0.1877  0.7689  1.3266
  400TMC3    C4 6027   3.012   3.072  16.900  0.2104 -0.2243 -0.1825
  400TMC3    C5 6028   2.926   3.146  16.827  0.4583 -0.2395  0.7363
  400TMC3    C6 6029   2.845   3.109  16.729  0.0053 -0.4088 -0.3230
  400TMC3     C 6030   3.105   2.848  16.942 -0.0237 -0.4404  0.0570
  400TMC3     O 6031   3.070   2.730  16.934  0.4777 -0.5856  0.5525
  400TMC3     H 6032   2.935   2.795  16.742 -1.6609  0.4894  0.2821
  400TMC3    H1 6033   3.072   3.112  16.981 -1.5389  1.2357  0.3684
  400TMC3    H2 6034   2.771   3.173  16.684  0.0129  1.6422  2.6307
  400TMC3    C7 6035   2.932   3.290  16.862 -0.2961  0.3946  0.8931
  400TMC3    C8 6036   2.728   2.923  16.639 -0.2653  0.4587 -0.7327
  400TMC3    O1 6037   2.950   3.318  16.982 -0.6900  0.2250  0.2057
  400TMC3    O2 6038   2.624   2.985  16.658 -0.1296 -0.4707 -0.3711
  401MPD2     C 6039   1.429   1.678   0.371  0.0039  0.1234 -0.3082
  401MPD2    C1 6040   1.458   1.660   0.505 -0.4607 -0.1474  0.3640
  401MPD2    C2 6041   1.505   1.536   0.552  0.1192  0.3117  0.3201
  401MPD2    C3 6042   1.543   1.446   0.455 -0.0249  0.9020  0.3693
  401MPD2    C4 6043   1.509   1.462   0.325 -0.7287  0.4175 -1.0255
  401MPD2    C5 6044   1.457   1.585   0.278 -0.1138 -0.0064  0.0368
  401MPD2     H 6045   1.510   1.520   0.659 -1.5978  0.5127  0.4406
  401MPD2    H1 6046   1.523   1.383   0.253  0.7671 -1.5953  1.4779
  401MPD2    H2 6047   1.376   1.763   0.330 -0.3012  0.1144  0.0684
  401MPD2    H3 6048   1.444   1.599   0.171 -2.7190  1.6343  0.5778
  401MPD2     N 6049   1.620   1.336   0.501 -0.1449 -0.6621 -0.2279
  401MPD2    H5 6050   1.634   1.333   0.601  1.8292  0.2618 -0.4831
  401MPD2    N1 6051   1.437   1.754   0.604  0.7534 -0.3673  0.5704
  401MPD2    H7 6052   1.466   1.720   0.696 -1.8977  0.5586  1.7448
  402TMC3    C1 6053   1.777   1.164   0.523  0.2777  0.1358  0.6185
  402TMC3    C2 6054   1.765   1.183   0.658  0.1150 -0.4714  0.7857
  402TMC3    C3 6055   1.790   1.073   0.735  0.0847  1.0201  0.0549
  402TMC3    C4 6056   1.826   1.051   0.470 -0.4143 -0.3437  0.1637
  402TMC3    C5 6057   1.862   0.947   0.554  0.2018 -0.1997 -1.1516
  402TMC3    C6 6058   1.840   0.957   0.688  0.3231 -0.5877  0.1722
  402TMC3     C 6059   1.685   1.234   0.435 -0.2077  0.0765  0.2932
  402TMC3     O 6060   1.669   1.199   0.319 -0.0945  0.2492  0.8149
  402TMC3     H 6061   1.734   1.277   0.704  0.8253  0.1566 -0.0105
  402TMC3    H1 6062   1.851   1.035   0.365 -0.6166  0.5625 -0.0248
  402TMC3    H2 6063   1.874   0.884   0.760 -2.5176 -1.6060  0.4909
  402TMC3    C7 6064   1.873   0.817   0.490  0.0009 -0.0072 -0.0555
  402TMC3    C8 6065   1.809   1.100   0.878  0.3534  0.3273 -0.5956
  402TMC3    O1 6066   1.818   0.795   0.383  0.0664  0.0834 -0.0515
  402TMC3    O2 6067   1.894   1.027   0.928  0.3114  0.9508  0.0171
  403MPD2     C 6068   4.642   4.116  12.979 -0.2969 -0.0872  0.0333
  403MPD2    C1 6069   4.557   4.112  13.084  1.0235 -0.3566  0.3250
  403MPD2    C2 6070   4.612   4.113  13.217  0.3190 -0.2576  0.3112
  403MPD2    C3 6071   0.011   4.123  13.238  0.4342  0.6288  0.5695
  403MPD2    C4 6072   0.090   4.131  13.128 -0.2229  0.2319 -0.4975
  403MPD2    C5 6073   0.046   4.127  12.997  0.1340 -0.2854  0.2241
  403MPD2     H 6074   4.549   4.090  13.302  0.6529  1.4010  0.9947
  403MPD2    H1 6075   0.195   4.128  13.155 -1.1028 -1.4667  2.6374
  403MPD2    H2 6076   4.603   4.118  12.878 -1.3139 -0.0651  0.4283
  403MPD2    H3 6077   0.104   4.110  12.908  0.5011 -2.0494  0.7997
  403MPD2     N 6078   0.073   4.119  13.366  0.1315  0.2651 -0.1575
  403MPD2    H5 6079   0.171   4.094  13.372  0.0347  0.3167  1.6002
  403MPD2    N1 6080   4.418   4.084  13.060 -0.2394  0.0062 -0.1731
  403MPD2    H7 6081   4.399   4.100  12.961 -0.8409  0.0644 -0.0456
  404TMC3    C1 6082   4.188   4.034  13.086 -0.8746 -0.0262 -0.4780
  404TMC3    C2 6083   4.078   4.033  13.171 -0.6240  0.3040 -0.5083
  404TMC3    C3 6084   3.960   4.007  13.109  0.2744 -0.0265 -0.3529
  404TMC3    C4 6085   4.176   3.999  12.951 -0.1855 -0.1587  0.2853
  404TMC3    C5 6086   4.049   3.971  12.899 -0.6803 -0.0477 -0.0061
  404TMC3    C6 6087   3.937   3.979  12.974  0.2356 -0.4212 -0.1302
  404TMC3     C 6088   4.315   4.064  13.147  0.2732 -0.2350 -0.7949
  404TMC3     O 6089   4.324   4.068  13.267  0.3040  0.4868  0.3600
  404TMC3     H 6090   4.091   4.082  13.267 -1.4643 -0.0718 -0.2070
  404TMC3    H1 6091   4.258   3.969  12.887  0.4528 -0.4972  1.2683
  404TMC3    H2 6092   3.840   3.939  12.943  1.0342 -2.3048 -0.2082
  404TMC3    C7 6093   4.036   4.017  12.758  0.3865  0.3264 -0.1451
  404TMC3    C8 6094   3.857   3.956  13.193 -0.0659  0.8414  0.2645
  404TMC3    O1 6095   4.122   4.088  12.707  0.2555 -0.6710  0.2901
  404TMC3    O2 6096   3.793   3.860  13.151 -0.5345  0.1338 -0.5268
  405MPD2     C 6097   4.678   0.301  14.742 -0.1016 -0.3398  0.0898
  405MPD2    C1 6098   4.544   0.279  14.763 -0.3671  0.3648 -0.5408
  405MPD2    C2 6099   4.474   0.389  14.779  0.7161 -0.1881 -0.0180
  405MPD2    C3 6100   4.511   0.522  14.766  0.0480 -0.0365  0.0799
  405MPD2    C4 6101   4.635   0.535  14.732  0.4019  0.2292 -0.4910
  405MPD2    C5 6102   4.718   0.427  14.720 -0.1467  0.1049  0.1024
  405MPD2     H 6103   4.369   0.382  14.805  0.9655  1.8793  1.5604
  405MPD2    H1 6104   4.677   0.633  14.712 -2.2323  1.8261  1.8130
  405MPD2    H2 6105   0.013   0.219  14.733  0.5944  0.7600 -4.3532
  405MPD2    H3 6106   0.084   0.442  14.685  1.2166 -4.1496  2.1962
  405MPD2     N 6107   4.422   0.622  14.803  0.4339  0.0573 -0.1484
  405MPD2    H5 6108   4.330   0.586  14.828  0.4493 -1.6304 -2.5201
  405MPD2    N1 6109   4.487   0.145  14.760  0.5885 -0.6396  0.2402
  405MPD2    H7 6110   4.549   0.065  14.745 -0.9559 -1.9865  0.9878
  406TMC3    C1 6111   4.117   0.926  14.781  0.3145  0.1601 -0.0820
  406TMC3    C2 6112   4.049   0.887  14.894 -0.0055 -1.0579 -0.1621
  406TMC3    C3 6113   4.114   0.796  14.973 -0.1192  0.7572 -0.7619
  406TMC3    C4 6114   4.255   0.895  14.759  0.3174 -0.2691  0.6427
  406TMC3    C5 6115   4.321   0.817  14.850  0.3484  0.2879  0.0572
  406TMC3    C6 6116   4.250   0.770  14.960 -0.8762  0.2900  0.4916
  406TMC3     C 6117   4.028   0.940  14.662  0.7372 -0.3910 -0.7554
  406TMC3     O 6118   3.911   0.971  14.686  0.0218  0.0140  0.0812
  406TMC3     H 6119   3.941   0.894  14.903  0.1205  2.2474 -1.1600
  406TMC3    H1 6120   4.309   0.920  14.668  0.1905 -1.2285  0.3099
  406TMC3    H2 6121   4.301   0.701  15.026  0.4194  0.7718 -0.0123
  406TMC3    C7 6122   4.446   0.759  14.806  0.1084  0.1459  0.0086
  406TMC3    C8 6123   4.041   0.695  15.052 -0.1305 -0.3993  0.2733
  406TMC3    O1 6124   4.541   0.825  14.761 -0.3837 -0.0071 -0.6696
  406TMC3    O2 6125   3.954   0.730  15.131  0.4168  0.1938  0.0929
  407MPD2     C 6126   1.816   1.162   9.836 -0.0351  0.1090  0.0645
  407MPD2    C1 6127   1.882   1.274   9.802 -0.3765  0.3522 -0.1926
  407MPD2    C2 6128   1.875   1.388   9.877 -0.4243 -0.0308  0.0493
  407MPD2    C3 6129   1.809   1.382   9.997 -0.4861  0.6988 -0.0440
  407MPD2    C4 6130   1.758   1.266  10.041  0.4576  0.2447  0.1560
  407MPD2    C5 6131   1.765   1.155   9.962 -0.1818 -0.2340 -0.1406
  407MPD2     H 6132   1.922   1.478   9.839  0.0413 -0.4585 -0.3769
  407MPD2    H1 6133   1.720   1.260  10.143 -1.8507 -0.3548 -0.7398
  407MPD2    H2 6134   1.810   1.071   9.778  1.1008  1.3909 -2.0853
  407MPD2    H3 6135   1.711   1.063   9.984 -1.6274  0.8282  0.7466
  407MPD2     N 6136   1.803   1.488  10.085  0.2267  0.6747 -0.0003
  407MPD2    H5 6137   1.765   1.471  10.178 -2.7098  0.1669 -1.3061
  407MPD2    N1 6138   1.959   1.283   9.687 -0.1249  0.4395  0.4066
  407MPD2    H7 6139   1.998   1.375   9.665 -0.5227 -0.0921 -2.5036
  408TMC3    C1 6140   2.039   1.225   9.462 -0.0930 -0.7069 -0.1794
  408TMC3    C2 6141   2.144   1.140   9.431  0.3521 -0.0314  0.4406
  408TMC3    C3 6142   2.264   1.187   9.375 -0.1827  0.5811 -0.0576
  408TMC3    C4 6143   2.051   1.352   9.434 -0.3011 -0.8739  0.0103
  408TMC3    C5 6144   2.171   1.401   9.380  0.5872  0.8187 -0.8661
  408TMC3    C6 6145   2.279   1.324   9.356 -0.6978  0.0595 -0.6883
  408TMC3     C 6146   1.970   1.185   9.590  0.0426 -0.5443 -1.0512
  408TMC3     O 6147   1.943   1.067   9.598  0.0004  0.6477  0.3563
  408TMC3     H 6148   2.145   1.035   9.458 -1.2937 -0.3347 -0.6984
  408TMC3    H1 6149   1.977   1.422   9.472 -0.1372  0.4302 -2.0521
  408TMC3    H2 6150   2.372   1.358   9.313  0.7927 -1.5481  1.2552
  408TMC3    C7 6151   2.192   1.549   9.380  0.0174  0.2541  0.1424
  408TMC3    C8 6152   2.370   1.094   9.353  0.5531  0.1167  0.1978
  408TMC3    O1 6153   2.102   1.625   9.353 -0.7478  0.1889  0.6289
  408TMC3    O2 6154   2.340   0.974   9.337 -0.0315 -0.0023 -0.1145
  409MPD2     C 6155   1.811   2.232  16.890 -0.0329 -0.3474 -0.2151
  409MPD2    C1 6156   1.936   2.201  16.933 -0.0185 -0.0678 -0.2743
  409MPD2    C2 6157   2.043   2.267  16.886 -0.2500  0.6105 -0.5061
  409MPD2    C3 6158   2.028   2.371  16.796  0.4870  0.3147 -0.2354
  409MPD2    C4 6159   1.904   2.410  16.770 -0.2595  0.3855  0.6416
  409MPD2    C5 6160   1.794   2.332  16.797  0.2269 -0.7053  0.8264
  409MPD2     H 6161   2.143   2.237  16.916 -0.8622 -3.1684 -2.2425
  409MPD2    H1 6162   1.894   2.497  16.706 -0.2307  0.7193  1.0855
  409MPD2    H2 6163   1.719   2.182  16.918  0.2849 -2.3390 -2.7753
  409MPD2    H3 6164   1.694   2.359  16.764  0.2280 -1.5855  0.0992
  409MPD2     N 6165   2.130   2.461  16.757 -0.2577  0.2596 -0.2860
  409MPD2    H5 6166   2.101   2.551  16.719  0.1700  1.3282  1.8786
  409MPD2    N1 6167   1.959   2.110  17.029  0.4701  0.8040 -0.3415
  409MPD2    H7 6168   2.056   2.105  17.059  1.0260 -0.0967 -2.2496
  410TMC3    C1 6169   2.330   2.574  16.774  0.1065  0.2602 -0.2744
  410TMC3    C2 6170   2.437   2.588  16.856 -0.3827 -0.1151  0.2884
  410TMC3    C3 6171   2.482   2.715  16.889  0.4808 -0.9357  0.5596
  410TMC3    C4 6172   2.264   2.678  16.724 -0.3771  0.7252  0.9082
  410TMC3    C5 6173   2.307   2.806  16.748  0.2540  0.3697  0.0784
  410TMC3    C6 6174   2.420   2.826  16.829  0.3001 -0.1967 -0.0650
  410TMC3     C 6175   2.258   2.457  16.797 -0.2688  0.6092 -0.1990
  410TMC3     O 6176   2.318   2.368  16.861 -0.2261  0.0176 -0.5309
  410TMC3     H 6177   2.491   2.500  16.889  1.9154  0.9076 -0.7914
  410TMC3    H1 6178   2.212   2.658  16.631  0.0589  0.7134  0.6690
  410TMC3    H2 6179   2.431   2.926  16.871 -1.3425 -0.6058  1.3796
  410TMC3    C7 6180   2.253   2.912  16.668 -0.2158 -0.2029  0.8855
  410TMC3    C8 6181   2.574   2.741  16.995  0.3436  0.2565  0.0675
  410TMC3    O1 6182   2.137   2.889  16.636  0.2699 -0.4154 -0.4901
  410TMC3    O2 6183   2.663   2.814  16.957 -0.2582 -0.2017 -0.2002
  411MPD2     C 6184   2.620   3.364  14.775 -0.3479 -0.0560 -0.6417
  411MPD2    C1 6185   2.492   3.375  14.830  0.1410 -0.9918 -0.8534
  411MPD2    C2 6186   2.407   3.265  14.828  0.5389 -0.5037 -0.5188
  411MPD2    C3 6187   2.457   3.148  14.771 -0.0108  0.2759  0.1150
  411MPD2    C4 6188   2.586   3.141  14.728  0.3206  0.2505 -1.0619
  411MPD2    C5 6189   2.674   3.243  14.747 -0.2461  0.2121  0.6613
  411MPD2     H 6190   2.304   3.269  14.862  0.8441  0.1151  0.3439
  411MPD2    H1 6191   2.633   3.044  14.719  1.3795  0.5542  1.1088
  411MPD2    H2 6192   2.688   3.448  14.766 -0.6009  0.3801  1.4511
  411MPD2    H3 6193   2.777   3.238  14.713  0.4101 -0.5410  2.7705
  411MPD2     N 6194   2.367   3.045  14.753  0.8221 -0.1894 -0.0397
  411MPD2    H5 6195   2.287   3.041  14.816  0.6608 -0.7086 -0.2788
  411MPD2    N1 6196   2.440   3.507  14.865 -0.3615  0.5276 -0.0788
  411MPD2    H7 6197   2.347   3.503  14.906 -0.0911 -0.7785  0.4216
  412TMC3    C1 6198   2.275   2.841  14.664 -0.5997  0.5981  0.5340
  412TMC3    C2 6199   2.212   2.804  14.779  0.0545  0.0828 -0.5206
  412TMC3    C3 6200   2.112   2.717  14.759 -0.4760 -0.2887  0.6306
  412TMC3    C4 6201   2.246   2.802  14.539 -0.3350  0.2578 -0.5984
  412TMC3    C5 6202   2.151   2.704  14.526  0.4033 -0.0103  0.1961
  412TMC3    C6 6203   2.076   2.666  14.634  0.5132  1.1898 -0.3842
  412TMC3     C 6204   2.385   2.938  14.668  0.0967 -0.8892  0.0086
  412TMC3     O 6205   2.471   2.924  14.588  1.4777 -0.0331  0.3276
  412TMC3     H 6206   2.223   2.855  14.873 -2.3236  1.6125 -1.0746
  412TMC3    H1 6207   2.314   2.826  14.459 -1.4796  2.5009 -0.9016
  412TMC3    H2 6208   1.999   2.590  14.630  2.9864 -1.3142 -0.2955
  412TMC3    C7 6209   2.073   2.708  14.404  0.1070 -0.7278 -0.2763
  412TMC3    C8 6210   2.000   2.726  14.844  0.2492  0.3655  0.1656
  412TMC3    O1 6211   1.966   2.657  14.421 -0.3171 -0.2666 -0.5655
  412TMC3    O2 6212   2.019   2.735  14.963  1.0710  0.3771  0.2107
  413MPD2     C 6213   3.905   1.760  15.659  0.1558 -0.1629 -0.1900
  413MPD2    C1 6214   3.864   1.726  15.535 -0.0916  0.0500 -0.1055
  413MPD2    C2 6215   3.959   1.712  15.437  0.0227 -0.0784 -0.9996
  413MPD2    C3 6216   4.096   1.699  15.471 -1.0836 -0.7385  0.1100
  413MPD2    C4 6217   4.133   1.735  15.599  0.1179  0.1853  0.2065
  413MPD2    C5 6218   4.033   1.769  15.696  0.0742  0.2074  0.4832
  413MPD2     H 6219   3.931   1.683  15.336 -1.9092  0.6691 -0.6918
  413MPD2    H1 6220   4.235   1.746  15.634 -0.4909 -0.8648  2.3136
  413MPD2    H2 6221   3.830   1.760  15.737 -0.1459 -0.0321 -0.4826
  413MPD2    H3 6222   4.054   1.775  15.802 -1.7653 -1.9485  0.9652
  413MPD2     N 6223   4.183   1.653  15.366 -0.6620 -0.4563  0.4860
  413MPD2    H5 6224   4.142   1.639  15.274 -0.3583  1.0245  0.1173
  413MPD2    N1 6225   3.726   1.706  15.515  0.6250  0.0230 -0.5646
  413MPD2    H7 6226   3.659   1.737  15.584 -0.3706  0.5143 -1.7318
  414TMC3    C1 6227   4.361   1.519  15.292 -0.2130 -0.4044  0.8169
  414TMC3    C2 6228   4.434   1.405  15.327  0.0616  0.7552  0.0961
  414TMC3    C3 6229   4.436   1.305  15.241 -0.0286  0.1510  0.0151
  414TMC3    C4 6230   4.311   1.539  15.166  0.3066  0.3305 -0.3093
  414TMC3    C5 6231   4.329   1.440  15.077 -0.1551 -1.0297  0.4978
  414TMC3    C6 6232   4.390   1.320  15.113 -0.1129 -0.4755  0.1968
  414TMC3     C 6233   4.307   1.603  15.394  0.3040 -0.2130  0.1522
  414TMC3     O 6234   4.363   1.594  15.501 -0.1602 -0.4540 -0.3566
  414TMC3     H 6235   4.466   1.384  15.428  1.0278  1.5118 -0.0603
  414TMC3    H1 6236   4.260   1.628  15.130 -0.5146  0.5622  1.4406
  414TMC3    H2 6237   4.381   1.234  15.046 -0.1969 -0.5321  0.2808
  414TMC3    C7 6238   4.259   1.470  14.948  0.0485  0.1046  0.1166
  414TMC3    C8 6239   4.504   1.180  15.258  0.3100 -0.6037 -0.1876
  414TMC3    O1 6240   4.184   1.565  14.949  0.0891 -0.4965 -0.1403
  414TMC3    O2 6241   4.465   1.080  15.199  0.0724  0.2421 -0.0954
  415TMC3    C1 6242   4.274   3.785   9.992 -0.0690  0.8496 -0.0662
  415TMC3    C2 6243   4.385   3.778   9.913 -0.2067  0.2675  0.4457
  415TMC3    C3 6244   4.413   3.662   9.850  0.1168  0.4291 -0.5393
  415TMC3    C4 6245   4.193   3.682  10.016  0.1712 -0.2882  0.2381
  415TMC3    C5 6246   4.227   3.559   9.957  0.0031  0.4019  0.0877
  415TMC3    C6 6247   4.337   3.547   9.874  0.5131  0.3091  0.2653
  415TMC3     C 6248   4.235   3.907  10.059 -0.4026 -0.0206 -0.0556
  415TMC3     O 6249   4.114   3.926  10.068 -0.0856  0.1838 -0.3798
  415TMC3     H 6250   4.443   3.869   9.898  0.6344 -0.6232 -1.6499
  415TMC3    H1 6251   4.104   3.697  10.075 -0.3581  0.1420 -0.6707
  415TMC3    H2 6252   4.354   3.453   9.823  0.2919  1.0417 -1.1663
  415TMC3    C7 6253   4.127   3.460   9.940 -0.2655  0.0830  0.0670
  415TMC3    C8 6254   4.534   3.650   9.781 -0.5869 -0.8029 -0.5300
  415TMC3    O1 6255   4.156   3.343   9.915  0.0167  0.0190  0.4971
  415TMC3    O2 6256   4.553   3.541   9.733  0.4257  0.0004  0.8422
  416MPD2     C 6257   0.799   1.933  11.538  0.5901 -1.5104  0.1407
  416MPD2    C1 6258   0.776   2.007  11.430  0.4489 -0.8546  0.0203
  416MPD2    C2 6259   0.860   1.991  11.315  0.5202 -1.2774  0.3860
  416MPD2    C3 6260   0.968   1.900  11.323 -0.4218  0.3763  0.3993
  416MPD2    C4 6261   0.980   1.816  11.436 -0.3749 -0.1340 -0.6797
  416MPD2    C5 6262   0.891   1.833  11.537  0.4461  0.8806  0.0093
  416MPD2     H 6263   0.830   2.039  11.223  0.4207 -0.9046  0.6137
  416MPD2    H1 6264   1.046   1.730  11.444  1.1350  1.1266  0.4053
  416MPD2    H2 6265   0.734   1.938  11.625 -0.9797 -0.9916 -1.0643
  416MPD2    H3 6266   0.897   1.760  11.618 -0.1519  1.7311  0.8213
  416MPD2     N 6267   1.053   1.868  11.212  0.2643 -0.3201  0.6559
  416MPD2    H5 6268   1.116   1.790  11.231  0.9528  0.6906  2.5454
  416MPD2    N1 6269   0.670   2.099  11.435 -0.1259  0.1542 -0.3526
  416MPD2    H7 6270   0.621   2.095  11.524 -2.5091  1.5740 -1.5922
  417TMC3    C1 6271   0.506   2.244  11.376  0.5236  0.2441  0.8768
  417TMC3    C2 6272   0.493   2.284  11.511  0.0310  0.4782  0.7750
  417TMC3    C3 6273   0.418   2.397  11.538  0.8287  0.8792 -0.4795
  417TMC3    C4 6274   0.436   2.317  11.278 -0.0358 -0.3334 -0.5821
  417TMC3    C5 6275   0.350   2.416  11.316 -1.0137  0.0205 -0.0926
  417TMC3    C6 6276   0.352   2.464  11.444 -0.8226  0.3289 -0.1217
  417TMC3     C 6277   0.619   2.166  11.331 -0.0311  0.7760  0.6368
  417TMC3     O 6278   0.637   2.155  11.211 -0.1623  0.5560  0.4583
  417TMC3     H 6279   0.537   2.220  11.587  0.2525 -1.2098 -0.7839
  417TMC3    H1 6280   0.454   2.281  11.177 -3.2141 -2.2072 -0.4970
  417TMC3    H2 6281   0.285   2.542  11.478 -1.8729 -0.7888  0.3802
  417TMC3    C7 6282   0.311   2.500  11.208 -0.5844 -0.0984 -0.3146
  417TMC3    C8 6283   0.362   2.418  11.674  0.1495  0.3777  0.2539
  417TMC3    O1 6284   0.317   2.623  11.220 -0.3268  0.3222  0.2524
  417TMC3    O2 6285   0.247   2.459  11.690 -0.3492  0.4361  0.1333
  418TMC3    C1 6286   0.245   0.501   0.142  0.1540 -0.3415  0.6137
  418TMC3    C2 6287   0.113   0.508   0.128 -0.5342 -0.0702 -0.1760
  418TMC3    C3 6288   0.039   0.424   0.210  0.5782 -0.2495  0.8871
  418TMC3    C4 6289   0.315   0.430   0.232  0.2070 -0.1701  0.7310
  418TMC3    C5 6290   0.240   0.360   0.321  0.0808 -1.2456  0.6207
  418TMC3    C6 6291   0.102   0.346   0.309 -0.2048  0.3720 -0.1849
  418TMC3     C 6292   0.309   0.555   0.023 -0.1525  0.1222 -0.2652
  418TMC3     O 6293   0.274   0.668  17.735  0.5632 -0.1835  0.2645
  418TMC3     H 6294   0.066   0.574   0.056  0.2440 -1.2293 -1.7259
  418TMC3    H1 6295   0.415   0.462   0.256 -0.4642  1.4362  1.3966
  418TMC3    H2 6296   0.043   0.287   0.378  1.1245 -0.3411  0.3337
  418TMC3    C7 6297   0.309   0.251   0.388 -0.4241  0.8872 -0.5601
  418TMC3    C8 6298   4.666   0.355   0.146  0.2697  0.2955 -0.5872
  418TMC3    O1 6299   0.241   0.155   0.423 -0.9199 -0.4679  0.4557
  418TMC3    O2 6300   4.623   0.417   0.050  0.3839  0.0579 -0.0437
  419MPD2     C 6301   3.641   2.711  12.850 -0.1845  0.3180  0.5944
  419MPD2    C1 6302   3.603   2.840  12.810 -0.1010  0.3786 -0.3378
  419MPD2    C2 6303   3.575   2.930  12.916 -0.2226 -0.1244  0.5174
  419MPD2    C3 6304   3.571   2.880  13.050 -0.0181  0.4150  0.2618
  419MPD2    C4 6305   3.612   2.751  13.077  0.9126  0.0662  0.4466
  419MPD2    C5 6306   3.636   2.665  12.975 -0.1409 -0.3569  1.5015
  419MPD2     H 6307   3.532   3.023  12.881  0.0727 -0.4138 -0.6290
  419MPD2    H1 6308   3.634   2.701  13.171  1.2043  0.1312  0.4153
  419MPD2    H2 6309   3.677   2.635  12.781  0.0557 -1.3922  2.6114
  419MPD2    H3 6310   3.674   2.569  13.006  0.9078 -0.2939  0.4225
  419MPD2     N 6311   3.514   2.966  13.152 -0.4786  0.1286 -0.4888
  419MPD2    H5 6312   3.489   3.059  13.121  0.0016  0.5543  0.4162
  419MPD2    N1 6313   3.591   2.881  12.678  0.0462 -0.2434  0.1670
  419MPD2    H7 6314   3.565   2.979  12.669 -2.4370 -0.8239  0.9783
  420TMC3    C1 6315   3.406   3.013  13.350  0.1283 -0.5225 -0.1351
  420TMC3    C2 6316   3.351   3.119  13.285 -0.0009  0.0396  0.5420
  420TMC3    C3 6317   3.276   3.195  13.364 -0.2399  0.0200 -0.4673
  420TMC3    C4 6318   3.385   2.980  13.481  0.0932 -0.1663  0.4895
  420TMC3    C5 6319   3.295   3.059  13.551  0.1910  0.0621  0.0877
  420TMC3    C6 6320   3.245   3.167  13.492 -0.3921  0.5270  0.9797
  420TMC3     C 6321   3.469   2.919  13.273 -0.2020  0.5571 -0.0690
  420TMC3     O 6322   3.459   2.799  13.306 -0.3362 -0.3020  0.6024
  420TMC3     H 6323   3.353   3.142  13.179  1.8621 -0.9606  0.3657
  420TMC3    H1 6324   3.419   2.886  13.522 -3.4955 -1.7263 -0.1004
  420TMC3    H2 6325   3.182   3.242  13.538 -1.5393 -0.7507  1.4856
  420TMC3    C7 6326   3.266   3.034  13.691 -0.2078 -0.2576  0.3234
  420TMC3    C8 6327   3.243   3.325  13.317 -0.3193  0.3269 -0.2456
  420TMC3    O1 6328   3.336   2.954  13.748  0.8969  0.3613  0.7266
  420TMC3    O2 6329   3.157   3.389  13.381 -0.1943 -0.2538 -0.7572
  421TMC3    C1 6330   0.092   4.137  13.599  0.3396 -0.7022 -0.7603
  421TMC3    C2 6331   0.053   4.201  13.710 -0.1415  0.1709  0.2150
  421TMC3    C3 6332   0.118   4.179  13.826 -0.0383 -0.2429 -0.1649
  421TMC3    C4 6333   0.198   4.047  13.599  0.6934 -0.5880 -0.3003
  421TMC3    C5 6334   0.247   4.020  13.729 -0.7637  0.4099  1.3190
  421TMC3    C6 6335   0.208   4.080  13.845 -0.1993 -0.1623  0.1131
  421TMC3     C 6336   0.003   4.143  13.484  0.3588  0.2155 -0.1001
  421TMC3     O 6337   4.633   4.199  13.504 -0.2277 -0.2013 -0.5634
  421TMC3     H 6338   4.706   4.271  13.716 -0.8497 -0.5484 -1.1043
  421TMC3    H1 6339   0.225   3.997  13.507  0.7135 -2.9582  0.9997
  421TMC3    H2 6340   0.254   4.057  13.940 -0.4013 -0.7591  0.0638
  421TMC3    C7 6341   0.387   3.975  13.741  0.1667 -0.6436  0.0137
  421TMC3    C8 6342   0.069   4.246  13.945  0.4785 -0.4887  0.4324
  421TMC3    O1 6343   0.445   4.000  13.842  0.5081 -0.1591 -0.4798
  421TMC3    O2 6344   0.076   4.178  14.047 -0.0322 -0.3599 -0.5915
  422TMC3    C1 6345   2.493   1.137  12.389  0.0297  1.3137 -0.2676
  422TMC3    C2 6346   2.490   1.210  12.503  0.5934 -0.0576  0.2349
  422TMC3    C3 6347   2.367   1.222  12.566 -0.4518  0.0385 -0.3785
  422TMC3    C4 6348   2.384   1.073  12.338 -0.6912 -0.0166  0.5164
  422TMC3    C5 6349   2.272   1.075  12.411 -0.0006  0.3128 -0.1680
  422TMC3    C6 6350   2.261   1.148  12.530  0.2587  0.6928  0.3867
  422TMC3     C 6351   2.590   1.196  12.296  0.3317 -0.0798 -0.3992
  422TMC3     O 6352   2.690   1.251  12.343  0.2001  0.2920  0.0229
  422TMC3     H 6353   2.580   1.250  12.547  1.2370  1.4241 -2.4383
  422TMC3    H1 6354   2.399   0.997  12.262  1.0213 -0.3502  1.1834
  422TMC3    H2 6355   2.162   1.158  12.574  0.3956 -1.2794  1.1646
  422TMC3    C7 6356   2.174   0.967  12.384  0.4033  0.2646 -0.3740
  422TMC3    C8 6357   2.345   1.330  12.660  0.4844  0.3017  0.4644
  422TMC3    O1 6358   2.169   0.909  12.278  0.0500 -0.5455 -0.0950
  422TMC3    O2 6359   2.449   1.377  12.706 -0.1079 -0.0330 -0.3018
  423MPD2     C 6360   3.727   1.842   0.742  0.6519  0.0476 -0.9420
  423MPD2    C1 6361   3.831   1.916   0.688  0.2634 -0.3749 -0.3441
  423MPD2    C2 6362   3.842   1.906   0.551 -0.5277 -0.6438  0.1693
  423MPD2    C3 6363   3.753   1.822   0.470  0.4804 -0.2064 -0.2316
  423MPD2    C4 6364   3.648   1.756   0.535  0.5528 -0.2567 -0.2303
  423MPD2    C5 6365   3.644   1.764   0.673  0.6666  0.4187 -0.1039
  423MPD2     H 6366   3.925   1.955   0.502 -0.3590 -1.8366 -0.7387
  423MPD2    H1 6367   3.574   1.692   0.489 -1.0509 -0.1187  2.1651
  423MPD2    H2 6368   3.713   1.842   0.850 -0.7040  0.5417 -1.1187
  423MPD2    H3 6369   3.569   1.708   0.727  2.0998 -0.6566  0.7805
  423MPD2     N 6370   3.763   1.809   0.329 -0.0266  0.5062  0.5931
  423MPD2    H5 6371   3.710   1.734   0.286  2.9900 -1.3139  0.0431
  423MPD2    N1 6372   3.927   1.989   0.766  0.1552 -0.3287  0.7710
  423MPD2    H7 6373   4.016   2.025   0.733 -0.6443  0.7005 -0.2812
  424TMC3    C1 6374   4.019   2.099   0.943  0.2903  0.5129  0.4122
  424TMC3    C2 6375   4.137   2.041   0.915 -0.0440  0.5114 -0.0705
  424TMC3    C3 6376   4.251   2.083   0.978  0.0493  0.5897  0.2652
  424TMC3    C4 6377   4.008   2.193   1.040  0.3562 -0.3006 -0.2472
  424TMC3    C5 6378   4.129   2.234   1.093  0.2028 -0.4599 -0.1892
  424TMC3    C6 6379   4.253   2.185   1.068  0.7127  0.1405  0.0025
  424TMC3     C 6380   3.897   2.040   0.889  0.2767  0.1698 -0.5603
  424TMC3     O 6381   3.789   2.039   0.944 -0.4999  0.5146  0.0820
  424TMC3     H 6382   4.154   1.962   0.843 -2.6158 -0.9697  0.9276
  424TMC3    H1 6383   3.908   2.203   1.080  1.0546 -0.2116  1.5114
  424TMC3    H2 6384   4.348   2.213   1.111  0.7184  2.1594 -1.3584
  424TMC3    C7 6385   4.124   2.346   1.188 -0.2383  0.4816  0.3150
  424TMC3    C8 6386   4.363   1.996   0.950  0.6341 -0.3378 -0.7332
  424TMC3    O1 6387   4.230   2.368   1.245  0.1509 -0.3150 -0.1635
  424TMC3    O2 6388   4.336   1.876   0.936  0.3362 -0.0446  0.2428
  425MPD2     C 6389   2.838   1.417  17.213 -0.2807  0.1337 -0.8390
  425MPD2    C1 6390   2.751   1.311  17.205 -0.5004 -0.5747 -0.3939
  425MPD2    C2 6391   2.635   1.312  17.279  0.2762 -0.8289 -0.7009
  425MPD2    C3 6392   2.609   1.424  17.354 -0.0375  0.7747 -0.1884
  425MPD2    C4 6393   2.694   1.533  17.357  0.5244  0.0056 -0.3862
  425MPD2    C5 6394   2.807   1.530  17.283  0.1025 -0.3079  0.3482
  425MPD2     H 6395   2.568   1.227  17.287 -0.6894 -0.0058 -0.0901
  425MPD2    H1 6396   2.676   1.625  17.411 -1.7275 -0.5774 -0.1385
  425MPD2    H2 6397   2.932   1.419  17.159  1.1375 -1.6541  1.5727
  425MPD2    H3 6398   2.860   1.623  17.300 -0.2384 -0.5737  2.8907
  425MPD2     N 6399   2.491   1.423  17.430  0.0394  0.9059 -0.1718
  425MPD2    H5 6400   2.426   1.347  17.413  2.4371 -1.1919  0.0287
  425MPD2    N1 6401   2.789   1.204  17.118 -0.1343 -0.2221  0.3682
  425MPD2    H7 6402   2.876   1.210  17.066 -1.3590  0.9538 -1.5186
  426TMC3    C1 6403   2.794   0.988  17.033 -0.2701 -0.3978 -0.1655
  426TMC3    C2 6404   2.885   1.013  16.931  0.5558  0.5477 -0.2924
  426TMC3    C3 6405   2.976   0.914  16.903  0.1187 -0.3112 -0.5256
  426TMC3    C4 6406   2.785   0.865  17.092  0.3015 -0.5723 -0.1505
  426TMC3    C5 6407   2.869   0.763  17.051  0.0253  0.3265 -1.0574
  426TMC3    C6 6408   2.960   0.783  16.953 -0.8426  0.2961  0.7461
  426TMC3     C 6409   2.722   1.087  17.110  0.5868  0.4669  0.1662
  426TMC3     O 6410   2.620   1.042  17.163  0.3008 -0.3953 -0.4145
  426TMC3     H 6411   2.875   1.108  16.878  1.5513  1.7102  1.6134
  426TMC3    H1 6412   2.716   0.842  17.173 -0.4729  1.8165 -0.1243
  426TMC3    H2 6413   3.018   0.699  16.916 -1.3556 -1.3444  3.5898
  426TMC3    C7 6414   2.850   0.624  17.102 -0.7504  0.1886  0.1263
  426TMC3    C8 6415   3.063   0.931  16.792 -0.1919 -0.4171 -0.1935
  426TMC3    O1 6416   2.899   0.537  17.031 -0.3903  0.7109  0.5857
  426TMC3    O2 6417   3.098   0.832  16.731 -0.0773  0.3913 -0.2217
  427MPD2     C 6418   1.667   3.196  14.776 -1.0121  0.0713 -0.6435
  427MPD2    C1 6419   1.602   3.137  14.881  0.0002  0.4096  0.1804
  427MPD2    C2 6420   1.466   3.104  14.868 -0.4835  0.1253  0.2835
  427MPD2    C3 6421   1.402   3.128  14.745 -0.9756 -0.2160  0.0732
  427MPD2    C4 6422   1.474   3.183  14.639  0.6420  0.7127 -0.0396
  427MPD2    C5 6423   1.602   3.212  14.654  0.1412 -0.3454 -0.5052
  427MPD2     H 6424   1.410   3.064  14.952 -0.7413  2.7303  1.3805
  427MPD2    H1 6425   1.425   3.206  14.545  0.9593 -0.3966 -0.4762
  427MPD2    H2 6426   1.772   3.223  14.782 -1.1609  0.3123  0.8735
  427MPD2    H3 6427   1.664   3.262  14.580 -0.0123  0.4795 -0.0748
  427MPD2     N 6428   1.262   3.114  14.738  0.3232  0.1105  0.1465
  427MPD2    H5 6429   1.213   3.087  14.824 -0.1468  3.8143  1.0314
  427MPD2    N1 6430   1.674   3.084  14.988 -0.2022 -0.2449 -0.2483
  427MPD2    H7 6431   1.629   3.000  15.023 -0.4088 -0.4348 -0.9617
  428TMC3    C1 6432   1.835   3.076  15.159  0.1316 -0.3106 -0.4389
  428TMC3    C2 6433   1.814   2.943  15.177  0.5380 -0.2834  0.6387
  428TMC3    C3 6434   1.866   2.887  15.291  0.3823  0.2358 -0.4997
  428TMC3    C4 6435   1.937   3.136  15.230 -0.1734 -0.3230  0.5206
  428TMC3    C5 6436   2.005   3.077  15.331 -0.2128  0.5068  0.4602
  428TMC3    C6 6437   1.958   2.952  15.376  0.2305 -0.0860 -0.6815
  428TMC3     C 6438   1.790   3.135  15.035  0.4238  0.8526 -0.0865
  428TMC3     O 6439   1.855   3.235  15.005 -0.1876 -0.3364  0.1553
  428TMC3     H 6440   1.743   2.893  15.112  0.7314  0.2184  0.0392
  428TMC3    H1 6441   1.947   3.244  15.226  1.2571 -0.4467  0.9122
  428TMC3    H2 6442   2.006   2.904  15.460 -0.5937  1.7129  0.8064
  428TMC3    C7 6443   2.092   3.155  15.413  0.3523 -0.1059  0.2303
  428TMC3    C8 6444   1.773   2.799  15.356 -0.4110  0.3170 -0.3726
  428TMC3    O1 6445   2.087   3.120  15.535  0.3292  0.7424  0.3816
  428TMC3    O2 6446   1.697   2.731  15.286 -0.2050 -0.2256  0.4068
  429MPD2     C 6447   2.508   3.555  17.474  0.4973  0.0052 -0.6751
  429MPD2    C1 6448   2.630   3.480  17.454 -0.0737  0.1447 -0.0890
  429MPD2    C2 6449   2.749   3.549  17.445  0.4126  0.5605 -0.7694
  429MPD2    C3 6450   2.745   3.691  17.439 -0.4593 -0.0692  0.1897
  429MPD2    C4 6451   2.635   3.764  17.466  0.1289  0.0721 -0.0414
  429MPD2    C5 6452   2.515   3.693  17.478  0.1407 -0.2668  0.5199
  429MPD2     H 6453   2.849   3.508  17.440 -0.1656 -1.1725  2.0076
  429MPD2    H1 6454   2.628   3.871  17.480  1.7378  0.0980  0.5915
  429MPD2    H2 6455   2.417   3.502  17.498  1.9509 -1.7626  0.8977
  429MPD2    H3 6456   2.427   3.748  17.509 -0.3548 -0.4103 -0.6131
  429MPD2     N 6457   2.870   3.753  17.416 -0.0243 -0.2001 -0.0955
  429MPD2    H5 6458   2.946   3.687  17.428 -0.6993 -0.8218  0.7713
  429MPD2    N1 6459   2.638   3.337  17.463 -0.1732  0.2088  0.4060
  429MPD2    H7 6460   2.729   3.298  17.444 -0.0513  2.2483 -3.2387
  430TMC3    C1 6461   3.020   3.914  17.349 -0.0748  0.4970 -0.2824
  430TMC3    C2 6462   3.035   4.041  17.295  0.1629 -0.1530 -0.0549
  430TMC3    C3 6463   3.105   4.057  17.178  0.2719  0.0341 -0.3172
  430TMC3    C4 6464   3.094   3.807  17.296 -0.4104 -0.8529 -0.6783
  430TMC3    C5 6465   3.175   3.826  17.187 -0.3032  0.0846  0.2404
  430TMC3    C6 6466   3.174   3.955  17.123  0.4567  0.0905  0.4692
  430TMC3     C 6467   2.886   3.888  17.399 -0.4282  0.0836 -0.0168
  430TMC3     O 6468   2.808   3.981  17.393 -0.0005 -0.2105 -0.1419
  430TMC3     H 6469   2.978   4.123  17.337 -1.5542 -0.2437 -2.1293
  430TMC3    H1 6470   3.091   3.711  17.347 -1.7948 -0.5911 -0.2798
  430TMC3    H2 6471   3.249   3.982  17.049  1.6970  0.2729  1.7826
  430TMC3    C7 6472   3.159   3.716  17.091  0.2400  0.2420  0.8177
  430TMC3    C8 6473   3.035   4.130  17.079  0.5480 -0.2481 -0.9109
  430TMC3    O1 6474   3.122   3.605  17.139 -0.1853 -0.4459  0.0041
  430TMC3    O2 6475   3.044   4.252  17.087 -0.3724  0.3997 -0.7117
  431MPD2     C 6476   2.991   3.443  12.449 -0.6248 -0.0522 -0.0185
  431MPD2    C1 6477   3.116   3.482  12.409 -0.3861 -0.3509  0.1494
  431MPD2    C2 6478   3.212   3.397  12.385 -0.2838 -0.8804 -0.5588
  431MPD2    C3 6479   3.192   3.266  12.421  0.5526 -0.2348  0.2397
  431MPD2    C4 6480   3.073   3.221  12.475 -0.1587  0.1343 -0.1171
  431MPD2    C5 6481   2.971   3.310  12.481  0.3516 -0.2423  0.1539
  431MPD2     H 6482   3.306   3.432  12.343 -1.3637  0.6736 -1.6449
  431MPD2    H1 6483   3.042   3.117  12.482 -0.3524  0.2634  0.9118
  431MPD2    H2 6484   2.908   3.506  12.475 -1.7613 -1.0668 -1.2121
  431MPD2    H3 6485   2.870   3.276  12.498  0.7716 -0.5102  2.2517
  431MPD2     N 6486   3.292   3.169  12.396  0.0815 -0.7469 -0.2050
  431MPD2    H5 6487   3.278   3.070  12.416  2.0263 -1.0953 -0.6240
  431MPD2    N1 6488   3.149   3.618  12.396 -0.2154  0.4960 -0.3751
  431MPD2    H7 6489   3.246   3.634  12.370 -0.0518 -1.4247 -0.9449
  432TMC3    C1 6490   3.481   3.068  12.353 -0.4001  0.1667  0.0357
  432TMC3    C2 6491   3.415   2.997  12.260 -0.2000 -0.0497 -0.0338
  432TMC3    C3 6492   3.431   2.866  12.257 -1.2447 -0.9218  0.0378
  432TMC3    C4 6493   3.554   3.011  12.453  0.7785  0.0568  0.1355
  432TMC3    C5 6494   3.563   2.878  12.455 -0.1524 -1.2195  0.4621
  432TMC3    C6 6495   3.509   2.802  12.350 -0.4093 -0.1231 -0.2388
  432TMC3     C 6496   3.420   3.198  12.367  0.3911 -0.0549 -0.5216
  432TMC3     O 6497   3.485   3.304  12.362  0.5586  0.1181  0.5068
  432TMC3     H 6498   3.355   3.036  12.179  0.2087 -1.6575 -1.1230
  432TMC3    H1 6499   3.606   3.070  12.527 -0.7985 -0.1202  1.3720
  432TMC3    H2 6500   3.511   2.694  12.354 -0.6225 -0.1246 -0.1517
  432TMC3    C7 6501   3.614   2.808  12.567  0.2541 -0.4116 -0.1485
  432TMC3    C8 6502   3.400   2.793  12.143 -0.2542  0.4020  0.1961
  432TMC3    O1 6503   3.667   2.698  12.553 -0.3451  0.7261 -0.3175
  432TMC3    O2 6504   3.469   2.698  12.117 -0.2161 -0.6385 -0.1776
  433MPD2     C 6505   1.784   1.584  10.650  0.2330  0.3027  0.1022
  433MPD2    C1 6506   1.867   1.497  10.713  0.6086  0.2662  0.4624
  433MPD2    C2 6507   1.909   1.515  10.842  0.2602 -0.2537 -1.1917
  433MPD2    C3 6508   1.851   1.618  10.910  0.6707 -0.0788  0.7679
  433MPD2    C4 6509   1.764   1.707  10.849  0.2523  0.5148 -0.0691
  433MPD2    C5 6510   1.723   1.686  10.718 -0.7072 -0.8629  0.0143
  433MPD2     H 6511   1.973   1.443  10.891 -0.2252 -0.9472 -1.5673
  433MPD2    H1 6512   1.730   1.796  10.901 -0.6454 -1.4134  2.6379
  433MPD2    H2 6513   1.740   1.573  10.551  1.0587  0.3997 -0.2762
  433MPD2    H3 6514   1.654   1.750  10.665  0.8476  0.5335 -0.3299
  433MPD2     N 6515   1.896   1.621  11.041  0.7151  0.3379 -0.3165
  433MPD2    H5 6516   1.956   1.545  11.070 -1.2551 -1.6037 -1.3239
  433MPD2    N1 6517   1.922   1.384  10.636  0.1140  0.6236 -0.2754
  433MPD2    H7 6518   1.984   1.332  10.698  0.1746  0.8934 -0.1082
  434TMC3    C1 6519   1.952   1.219  10.476 -0.4195  0.8906  0.2515
  434TMC3    C2 6520   2.040   1.156  10.562  0.7613  0.2096  0.3841
  434TMC3    C3 6521   2.036   1.019  10.570 -0.7072  0.4432 -0.5350
  434TMC3    C4 6522   1.872   1.147  10.387 -0.0959  0.1313  0.4421
  434TMC3    C5 6523   1.870   1.006  10.408 -0.4094 -0.2447 -0.5636
  434TMC3    C6 6524   1.956   0.939  10.497  0.0807 -0.0233  0.0365
  434TMC3     C 6525   1.901   1.348  10.505  0.9321  0.0800 -0.0835
  434TMC3     O 6526   1.847   1.415  10.417 -0.1282  0.6155  0.4214
  434TMC3     H 6527   2.076   1.203  10.653  0.3107  2.1672 -0.4355
  434TMC3    H1 6528   1.808   1.193  10.313 -2.0978 -3.9893 -0.3869
  434TMC3    H2 6529   1.953   0.831  10.509  0.2893 -0.0284  0.0416
  434TMC3    C7 6530   1.773   0.935  10.332 -0.2619  0.1944 -0.8522
  434TMC3    C8 6531   2.106   0.958  10.680 -0.7419  0.8831  0.0440
  434TMC3    O1 6532   1.715   0.992  10.239 -0.4013  0.8485  0.4385
  434TMC3    O2 6533   2.120   1.029  10.780 -0.4427 -0.6446 -0.2354
  435MPD2     C 6534   4.501   2.281  15.603  0.2303  0.1867  0.1095
  435MPD2    C1 6535   4.449   2.211  15.706  0.5474  0.2547  0.4468
  435MPD2    C2 6536   4.531   2.135  15.787  0.1126 -0.2019 -0.1881
  435MPD2    C3 6537   4.659   2.102  15.746  0.4047  0.4945  0.2639
  435MPD2    C4 6538   4.711   2.159  15.634 -0.6049  0.3657 -0.5095
  435MPD2    C5 6539   4.632   2.251  15.571  0.5430  0.3808 -0.3458
  435MPD2     H 6540   4.496   2.095  15.881  2.1531 -0.5760  0.3957
  435MPD2    H1 6541   0.074   2.147  15.593  0.1321  3.0848  0.4965
  435MPD2    H2 6542   4.449   2.357  15.546  0.3928  0.2312  0.0179
  435MPD2    H3 6543   4.683   2.315  15.500  0.3099  0.5848 -0.3324
  435MPD2     N 6544   4.725   2.007  15.821  0.1899 -0.0817  0.1678
  435MPD2    H5 6545   4.663   1.958  15.884  0.4620  1.7624  1.8404
  435MPD2    N1 6546   4.321   2.226  15.752 -0.0633 -0.2847 -0.1652
  435MPD2    H7 6547   4.315   2.195  15.848 -1.4011  0.4922 -0.0022
  436TMC3    C1 6548   4.015   2.374  15.970  0.0953 -0.1312  0.8715
  436TMC3    C2 6549   4.132   2.344  15.901 -0.0874 -0.0994  0.7338
  436TMC3    C3 6550   4.117   2.349  15.768 -0.8640  0.1650 -0.4294
  436TMC3    C4 6551   3.891   2.395  15.908  0.4389 -0.2046 -0.4760
  436TMC3    C5 6552   3.890   2.400  15.780  0.8386  0.3835  0.3176
  436TMC3    C6 6553   3.999   2.375  15.705  0.4345 -0.8239 -0.3204
  436TMC3     C 6554   4.020   2.391  16.116 -0.7858 -0.3020  0.2537
  436TMC3     O 6555   4.131   2.421  16.165 -0.0095 -0.5988 -0.2404
  436TMC3     H 6556   4.225   2.328  15.953 -0.1289 -0.4503  0.7005
  436TMC3    H1 6557   3.807   2.438  15.962  0.0543 -0.7988 -0.5975
  436TMC3    H2 6558   3.986   2.377  15.598 -0.2193 -1.3425 -0.2496
  436TMC3    C7 6559   3.764   2.431  15.707  0.3583  0.2995  0.0855
  436TMC3    C8 6560   4.223   2.296  15.682 -0.0571  0.0253 -0.2244
  436TMC3    O1 6561   3.685   2.512  15.759  0.8260 -1.5336 -0.1810
  436TMC3    O2 6562   4.207   2.315  15.564 -0.0691 -0.2379  0.2473
  437TMC3    C1 6563   2.725   4.616  12.131  0.5017  0.2661  0.5933
  437TMC3    C2 6564   2.608   4.597  12.063 -0.7208  0.2751  0.2309
  437TMC3    C3 6565   2.577   4.471  12.015  0.0495 -0.2411  0.0968
  437TMC3    C4 6566   2.825   4.528  12.137  0.2199  0.1414 -0.3487
  437TMC3    C5 6567   2.796   4.417  12.073 -0.1704  0.2198 -0.0811
  437TMC3    C6 6568   2.675   4.378  12.024  0.0389  0.0263 -0.1653
  437TMC3     C 6569   2.770   0.012  12.182 -0.0914  0.3372 -0.3914
  437TMC3     O 6570   2.845   0.006  12.279 -0.6365 -0.1093 -0.0761
  437TMC3     H 6571   2.525   4.667  12.061 -1.4796 -0.6409 -0.5541
  437TMC3    H1 6572   2.922   4.546  12.182 -0.8940  1.3426  1.5780
  437TMC3    H2 6573   2.666   4.283  11.973  2.2835 -0.2314 -0.0712
  437TMC3    C7 6574   2.907   4.343  12.017 -0.3969  0.1090 -0.5195
  437TMC3    C8 6575   2.466   4.445  11.923 -0.1487  0.0928 -0.0151
  437TMC3    O1 6576   2.897   4.283  11.912  0.1657 -0.0542  0.1079
  437TMC3    O2 6577   2.432   4.524  11.839  0.5861 -0.5441  0.6126
  438MPD2     C 6578   0.895   4.633  16.446 -0.0698 -0.3851 -0.4071
  438MPD2    C1 6579   0.964   4.589  16.560 -0.2325  0.6437  0.4155
  438MPD2    C2 6580   0.921   4.599  16.692  0.1439  0.1069 -0.8399
  438MPD2    C3 6581   0.791   4.661  16.707  1.0682  0.0692  0.4635
  438MPD2    C4 6582   0.731   4.720  16.594 -0.3649 -0.1012 -0.3854
  438MPD2    C5 6583   0.781   4.697  16.466 -0.0677 -0.0413  0.3609
  438MPD2     H 6584   0.988   4.582  16.775  0.7507 -0.2911 -1.4133
  438MPD2    H1 6585   0.638   0.038  16.601 -0.3667 -0.3862  1.7199
  438MPD2    H2 6586   0.922   4.598  16.348  1.0905 -0.5468 -0.0279
  438MPD2    H3 6587   0.717   4.708  16.379 -0.2423  1.0009  0.6099
  438MPD2     N 6588   0.729   4.671  16.834  0.5618  0.3021  0.3142
  438MPD2    H5 6589   0.643   4.722  16.849 -0.6471 -2.0556  1.2726
  438MPD2    N1 6590   1.083   4.511  16.538  0.5427  0.3351  0.1124
  438MPD2    H7 6591   1.107   4.451  16.616 -1.8103  1.0914  1.4166
  439TMC3    C1 6592   1.219   4.385  16.388  0.1660 -0.4703 -0.0836
  439TMC3    C2 6593   1.212   4.347  16.259 -1.1392 -0.6093 -0.5932
  439TMC3    C3 6594   1.253   4.214  16.236 -0.3682  1.1496  0.5954
  439TMC3    C4 6595   1.266   4.308  16.490 -0.1468 -0.1177 -0.2931
  439TMC3    C5 6596   1.293   4.178  16.465  0.3361  0.1650  0.0932
  439TMC3    C6 6597   1.287   4.126  16.342  0.4238 -0.4651 -0.0868
  439TMC3     C 6598   1.148   4.508  16.419 -0.2697  0.4899  0.0170
  439TMC3     O 6599   1.146   4.597  16.336  0.2530 -0.4167 -0.0712
  439TMC3     H 6600   1.189   4.429  16.191 -1.6021 -0.7758 -0.6322
  439TMC3    H1 6601   1.282   4.344  16.591 -0.7709 -0.1678 -0.1751
  439TMC3    H2 6602   1.301   4.021  16.316  0.5699 -0.9001  1.7311
  439TMC3    C7 6603   1.391   4.115  16.559 -0.1437  0.9871 -0.1286
  439TMC3    C8 6604   1.205   4.134  16.120 -0.0067  0.1367  0.4387
  439TMC3    O1 6605   1.483   4.189  16.597  0.2806 -0.0203  0.3961
  439TMC3    O2 6606   1.224   4.014  16.112 -0.6826  0.4109 -0.2644
  440MPD2     C 6607   4.226   0.724  15.442 -0.2276  0.1953 -0.2835
  440MPD2    C1 6608   4.298   0.802  15.360  0.2435 -0.2531  0.3110
  440MPD2    C2 6609   4.401   0.751  15.274  0.3993  0.4925  0.3777
  440MPD2    C3 6610   4.419   0.611  15.261 -0.2760 -0.2047 -0.6758
  440MPD2    C4 6611   4.346   0.530  15.348  0.1424  0.7183  0.1525
  440MPD2    C5 6612   4.259   0.591  15.442 -0.2640  0.2996  0.3903
  440MPD2     H 6613   4.465   0.822  15.223  0.5343 -0.6683 -1.0588
  440MPD2    H1 6614   4.358   0.422  15.346 -0.8466  0.6368 -1.8979
  440MPD2    H2 6615   4.146   0.768  15.500  0.0850 -0.0196  0.3061
  440MPD2    H3 6616   4.215   0.532  15.522 -0.0940  0.7343  0.8045
  440MPD2     N 6617   4.527   0.553  15.187 -0.2925 -0.4304 -0.0395
  440MPD2    H5 6618   4.548   0.454  15.198 -2.7355 -0.9224  0.2961
  440MPD2    N1 6619   4.279   0.938  15.365 -0.5981  0.4318 -0.3221
  440MPD2    H7 6620   4.308   0.985  15.279  0.8096 -2.9366 -1.6944
  441TMC3    C1 6621   4.729   0.539  15.073 -0.1738  0.2698  0.7869
  441TMC3    C2 6622   0.093   0.624  15.117 -0.5167  0.3789  0.1742
  441TMC3    C3 6623   0.168   0.582  15.220  0.1688 -0.1665  0.5489
  441TMC3    C4 6624   4.714   0.412  15.115 -0.8713  0.5676 -0.1385
  441TMC3    C5 6625   0.068   0.373  15.213 -0.3481 -0.8198 -0.9056
  441TMC3    C6 6626   0.156   0.457  15.270 -0.1924  0.2649  0.0449
  441TMC3     C 6627   4.610   0.617  15.103 -0.4314  0.0301 -0.0655
  441TMC3     O 6628   4.608   0.738  15.076  0.3724 -0.1610  0.3214
  441TMC3     H 6629   0.113   0.720  15.070  2.2410 -0.5613 -0.5807
  441TMC3    H1 6630   4.653   0.332  15.075  1.1381 -0.6649 -0.7194
  441TMC3    H2 6631   0.219   0.427  15.353  0.9693  0.3626 -0.8060
  441TMC3    C7 6632   0.021   0.263  15.284 -0.3478 -0.4436  0.3019
  441TMC3    C8 6633   0.203   0.684  15.314 -0.7909  0.0261 -0.0890
  441TMC3    O1 6634   4.638   0.269  15.315 -0.2410  0.0560  0.6393
  441TMC3    O2 6635   0.300   0.678  15.389 -0.3288  0.1994  0.2895
  442MPD2     C 6636   2.632   0.835  16.383 -0.3634 -0.2487 -0.0153
  442MPD2    C1 6637   2.515   0.773  16.407 -0.5876  0.2733  0.3526
  442MPD2    C2 6638   2.484   0.656  16.332 -0.6593 -0.3143 -0.0396
  442MPD2    C3 6639   2.542   0.629  16.210  0.6163  0.1150 -0.0095
  442MPD2    C4 6640   2.655   0.708  16.178 -0.2885 -0.5372 -0.3644
  442MPD2    C5 6641   2.697   0.808  16.264 -0.2937 -0.1905 -0.5161
  442MPD2     H 6642   2.399   0.595  16.363  1.1802 -2.0377  1.7015
  442MPD2    H1 6643   2.696   0.693  16.079  0.7634  2.6944 -0.4117
  442MPD2    H2 6644   2.672   0.913  16.446  0.5797  0.7501 -1.8737
  442MPD2    H3 6645   2.783   0.865  16.231  1.6848 -1.5462  2.2709
  442MPD2     N 6646   2.509   0.527  16.120 -0.3198  1.0230  0.2563
  442MPD2    H5 6647   2.567   0.519  16.037  0.9670  0.4895  1.2265
  442MPD2    N1 6648   2.443   0.799  16.527 -0.0975  0.3128 -0.4835
  442MPD2    H7 6649   2.374   0.729  16.553  0.7711 -1.0301 -1.7706
  443TMC3    C1 6650   2.346   0.921  16.702 -0.0858  0.3663 -1.0062
  443TMC3    C2 6651   2.261   1.023  16.700  0.1070  1.2461 -0.3746
  443TMC3    C3 6652   2.132   1.002  16.744 -0.6064  0.1839 -0.4922
  443TMC3    C4 6653   2.312   0.797  16.749 -0.2222 -0.0530  0.4986
  443TMC3    C5 6654   2.189   0.794  16.814  0.2186  0.5307  0.2405
  443TMC3    C6 6655   2.102   0.894  16.816 -0.1457 -0.0649 -0.4555
  443TMC3     C 6656   2.447   0.914  16.598 -0.4023 -0.0822  1.1737
  443TMC3     O 6657   2.486   1.024  16.559 -1.3709  0.3065 -0.7620
  443TMC3     H 6658   2.296   1.109  16.643  1.6304  1.5185  0.9758
  443TMC3    H1 6659   2.381   0.714  16.755 -1.1433 -0.8805 -0.4409
  443TMC3    H2 6660   2.000   0.872  16.843 -1.0885  1.3280 -2.9125
  443TMC3    C7 6661   2.156   0.661  16.862 -0.1703 -0.6504  0.1372
  443TMC3    C8 6662   2.047   0.991  16.627  0.0055  0.3837  0.1675
  443TMC3    O1 6663   2.210   0.560  16.811 -0.4589  0.4782  0.0058
  443TMC3    O2 6664   1.965   0.899  16.620 -0.9291  0.6880  0.0832
  444MPD2     C 6665   2.636   0.686  16.817  0.3099 -0.1062 -0.1423
  444MPD2    C1 6666   2.584   0.560  16.832  1.4019  0.2749 -0.3023
  444MPD2    C2 6667   2.622   0.463  16.738  0.4203  0.0499  0.2758
  444MPD2    C3 6668   2.715   0.492  16.639  1.1814 -0.6312  0.1165
  444MPD2    C4 6669   2.764   0.614  16.629 -0.4359 -0.2924  0.2995
  444MPD2    C5 6670   2.722   0.711  16.717  0.0592 -0.3628 -0.5777
  444MPD2     H 6671   2.595   0.358  16.750  0.6372 -0.0782 -0.3339
  444MPD2    H1 6672   2.830   0.647  16.549 -0.9367  1.5136  0.6362
  444MPD2    H2 6673   2.617   0.767  16.886  3.2732  0.4069  0.0683
  444MPD2    H3 6674   2.755   0.814  16.709 -1.3887  0.0492 -1.2060
  444MPD2     N 6675   2.750   0.391  16.544  0.1510  0.1314  0.5530
  444MPD2    H5 6676   2.697   0.305  16.551  0.3185  0.0011  0.2002
  444MPD2    N1 6677   2.488   0.507  16.926  0.1001  0.1646 -0.9107
  444MPD2    H7 6678   2.450   0.418  16.894 -0.2254  1.2928 -3.6521
  445TMC3    C1 6679   2.861   0.270  16.393 -0.0021  0.1769  0.6016
  445TMC3    C2 6680   2.757   0.230  16.310 -1.2579 -0.0850  0.0508
  445TMC3    C3 6681   2.772   0.105  16.249  0.3900 -0.1147  0.1029
  445TMC3    C4 6682   2.975   0.189  16.417  0.2724 -0.0070  0.3426
  445TMC3    C5 6683   2.988   0.069  16.349 -0.4158 -0.0053 -0.5001
  445TMC3    C6 6684   2.885   0.015  16.273  0.0605  0.0757  0.5057
  445TMC3     C 6685   2.853   0.399  16.458  0.3004  0.2596  0.3729
  445TMC3     O 6686   2.941   0.481  16.430 -0.2978 -0.0785 -0.1664
  445TMC3     H 6687   2.680   0.304  16.292 -0.5531  0.4181 -0.9233
  445TMC3    H1 6688   3.051   0.220  16.489  1.6441  1.1965 -1.6195
  445TMC3    H2 6689   2.902   4.657  16.221 -2.4521  0.7348 -1.5293
  445TMC3    C7 6690   3.100   4.728  16.398 -0.5725 -0.1551  0.3043
  445TMC3    C8 6691   2.675   0.064  16.152  0.1716 -0.1684  0.1266
  445TMC3    O1 6692   3.195   0.055  16.450  0.6982  0.7490 -0.6363
  445TMC3    O2 6693   2.609   0.154  16.110  0.0205 -0.6488 -0.2337
  446MPD2     C 6694   1.795   0.738  11.193  0.1909 -1.0649 -0.1561
  446MPD2    C1 6695   1.803   0.769  11.056 -0.2795 -0.0844 -0.3718
  446MPD2    C2 6696   1.905   0.850  11.014  0.1364  0.2906  0.7825
  446MPD2    C3 6697   1.984   0.914  11.100  0.7980 -0.4834  0.0415
  446MPD2    C4 6698   1.977   0.894  11.234  0.2050 -0.8336 -0.1504
  446MPD2    C5 6699   1.875   0.812  11.275  0.0022 -0.7179 -0.4423
  446MPD2     H 6700   1.900   0.886  10.912 -0.7647  2.2756  1.5262
  446MPD2    H1 6701   2.042   0.945  11.305 -0.9975  1.1349 -0.4572
  446MPD2    H2 6702   1.721   0.671  11.236  0.9231 -1.1318  0.9742
  446MPD2    H3 6703   1.861   0.793  11.380  0.6993  2.7691  0.2949
  446MPD2     N 6704   2.080   0.998  11.049  0.4765 -0.9569  0.0933
  446MPD2    H5 6705   2.067   1.021  10.950  1.8675  1.7550  0.5467
  446MPD2    N1 6706   1.716   0.718  10.959  0.6604 -0.0094 -0.1072
  446MPD2    H7 6707   1.732   0.755  10.866 -0.3564  1.6601  0.3727
  447TMC3    C1 6708   2.285   1.121  11.032  0.6076 -0.0783 -0.7094
  447TMC3    C2 6709   2.227   1.227  10.976  0.5160  0.0848  0.1320
  447TMC3    C3 6710   2.305   1.330  10.943  0.0738  0.4020 -0.1807
  447TMC3    C4 6711   2.412   1.117  11.073  0.0909  0.3060 -0.6261
  447TMC3    C5 6712   2.487   1.231  11.058 -0.8543 -0.6270  0.2624
  447TMC3    C6 6713   2.440   1.335  10.984  0.4565 -0.3826  0.5611
  447TMC3     C 6714   2.197   1.028  11.112  0.1000 -0.8862 -0.4816
  447TMC3     O 6715   2.250   0.972  11.205  0.5343  0.8562  0.4892
  447TMC3     H 6716   2.122   1.235  10.951  0.5667  0.5490  0.0562
  447TMC3    H1 6717   2.455   1.044  11.141 -0.0807  1.9339  1.2367
  447TMC3    H2 6718   2.499   1.425  10.967  1.1918 -0.8311  0.7550
  447TMC3    C7 6719   2.630   1.218  11.084  0.0076  0.3049  0.4538
  447TMC3    C8 6720   2.245   1.426  10.853 -0.4424  0.3857 -0.4580
  447TMC3    O1 6721   2.670   1.106  11.110 -0.0658  0.3897 -0.8161
  447TMC3    O2 6722   2.163   1.379  10.773  0.3321 -0.3097  0.3382
  448TMC3    C1 6723   0.662   1.421  16.922  0.4004  0.1353 -0.2354
  448TMC3    C2 6724   0.667   1.357  16.803  0.1866  0.3447 -0.1379
  448TMC3    C3 6725   0.773   1.270  16.780  0.1882 -0.4950 -0.3331
  448TMC3    C4 6726   0.757   1.414  17.016  1.0946 -0.1086 -0.1791
  448TMC3    C5 6727   0.865   1.324  16.989 -0.0483  0.0727  0.6220
  448TMC3    C6 6728   0.871   1.259  16.868  1.2023  0.2691  0.4177
  448TMC3     C 6729   0.591   1.547  16.927 -0.1778  0.8586 -0.0497
  448TMC3     O 6730   0.529   1.574  17.032 -0.2361  0.1313 -0.6792
  448TMC3     H 6731   0.596   1.386  16.726 -1.3438 -0.8413  0.8309
  448TMC3    H1 6732   0.738   1.459  17.112  0.8369 -0.4428 -0.0728
  448TMC3    H2 6733   0.950   1.186  16.851  1.3238  0.0094  2.0918
  448TMC3    C7 6734   0.965   1.287  17.091  0.5268  0.0624  0.0911
  448TMC3    C8 6735   0.746   1.152  16.706 -0.3853  0.4437 -0.1801
  448TMC3    O1 6736   1.038   1.197  17.059  0.8440  0.1255 -0.2828
  448TMC3    O2 6737   0.803   1.051  16.747  0.0274  0.5223  0.5392
  449MPD2     C 6738   2.028   0.070  14.160 -0.3800  0.4479 -0.3203
  449MPD2    C1 6739   1.940   0.112  14.059  0.0680  0.7230  0.1219
  449MPD2    C2 6740   1.840   0.029  14.025  0.6126  0.6623 -0.7354
  449MPD2    C3 6741   1.813   4.650  14.093 -0.6861 -0.6023 -0.1984
  449MPD2    C4 6742   1.898   4.605  14.190 -0.1257  0.5101  0.1244
  449MPD2    C5 6743   1.995   4.694  14.231 -0.5365 -0.2815 -0.3330
  449MPD2     H 6744   1.769   0.056  13.948 -1.0604  1.7177  1.1614
  449MPD2    H1 6745   1.885   4.514  14.248  0.0115  0.2413 -0.2628
  449MPD2    H2 6746   2.119   0.122  14.189  0.3951 -1.0487 -0.0776
  449MPD2    H3 6747   2.060   4.662  14.312  0.2524  0.9527 -0.4655
  449MPD2     N 6748   1.701   4.572  14.052  0.0080  0.3825  0.7343
  449MPD2    H5 6749   1.659   4.614  13.970  0.2557 -1.6604 -0.4577
  449MPD2    N1 6750   1.939   0.234  13.992  1.0450  0.4897  0.2242
  449MPD2    H7 6751   1.859   0.252  13.932  1.1050  0.4207  0.1210
  450TMC3    C1 6752   1.997   0.457  13.948  0.3291  0.0558  0.1443
  450TMC3    C2 6753   2.069   0.487  13.836  0.8768 -0.5534  0.1818
  450TMC3    C3 6754   2.006   0.511  13.716  0.7088 -0.3019 -0.0340
  450TMC3    C4 6755   1.862   0.446  13.933 -0.5031 -0.0411 -0.4923
  450TMC3    C5 6756   1.802   0.466  13.810 -0.7164  1.0183  1.0353
  450TMC3    C6 6757   1.866   0.517  13.702  0.5474 -0.1006  0.6484
  450TMC3     C 6758   2.035   0.331  14.010  1.1334  0.1775 -0.8024
  450TMC3     O 6759   2.153   0.318  14.042  0.3598 -0.0720  0.1911
  450TMC3     H 6760   2.176   0.482  13.851  0.9495 -1.2660 -0.6030
  450TMC3    H1 6761   1.798   0.409  14.012  1.2226 -0.5941  0.6484
  450TMC3    H2 6762   1.832   0.526  13.600  1.8998  1.6536  0.3543
  450TMC3    C7 6763   1.704   0.367  13.786 -0.0975  0.7222 -0.2402
  450TMC3    C8 6764   2.086   0.569  13.606 -0.0585  0.1492 -0.8455
  450TMC3    O1 6765   1.730   0.262  13.837 -0.0857 -0.1164  0.2922
  450TMC3    O2 6766   2.032   0.655  13.540  0.0541 -0.4207  0.1007
  451MPD2     C 6767   3.579   2.930   1.184 -0.1347  0.3662  0.0998
  451MPD2    C1 6768   3.473   2.931   1.101  0.3845 -0.2870  0.2234
  451MPD2    C2 6769   3.450   2.829   1.009 -0.0580  0.0902  0.4819
  451MPD2    C3 6770   3.544   2.723   1.001 -0.2017 -0.2863  0.1146
  451MPD2    C4 6771   3.663   2.730   1.077 -0.1836 -0.1122  0.2898
  451MPD2    C5 6772   3.682   2.833   1.165 -0.3383  0.0700  0.2260
  451MPD2     H 6773   3.370   2.836   0.935  2.2064 -0.7505 -2.0706
  451MPD2    H1 6774   3.741   2.657   1.057  0.5555  0.3085  1.6767
  451MPD2    H2 6775   3.606   3.004   1.259 -0.3711  0.7178 -0.1635
  451MPD2    H3 6776   3.767   2.826   1.231  0.6699  1.1815 -0.9782
  451MPD2     N 6777   3.535   2.626   0.905 -0.0585  0.0138 -0.7889
  451MPD2    H5 6778   3.616   2.565   0.898 -0.5456 -0.5928 -1.1609
  451MPD2    N1 6779   3.381   3.040   1.099  0.4001  0.0018  1.0212
  451MPD2    H7 6780   3.313   3.027   1.025 -0.4679  0.1438  1.7986
  452TMC3    C1 6781   3.453   2.521   0.709 -0.6083 -0.2969  0.0454
  452TMC3    C2 6782   3.341   2.508   0.628 -0.8057  0.2002  0.0155
  452TMC3    C3 6783   3.358   2.486   0.498  0.2288  0.0407 -0.5700
  452TMC3    C4 6784   3.573   2.552   0.647 -0.2837  0.7089  0.3477
  452TMC3    C5 6785   3.581   2.554   0.506 -0.0745  0.2228  0.2189
  452TMC3    C6 6786   3.470   2.517   0.435  0.0286 -0.3822  0.9580
  452TMC3     C 6787   3.425   2.607   0.822 -0.6636  0.0194  0.1947
  452TMC3     O 6788   3.308   2.645   0.839 -0.0439 -0.3747  1.5467
  452TMC3     H 6789   3.247   2.486   0.677 -0.9244 -2.2211 -1.3337
  452TMC3    H1 6790   3.661   2.586   0.701 -0.8215 -1.4683  2.6178
  452TMC3    H2 6791   3.474   2.501   0.328  0.1367 -0.9782  1.0501
  452TMC3    C7 6792   3.671   2.650   0.449  0.1615 -0.1053  0.0070
  452TMC3    C8 6793   3.232   2.502   0.431  0.2833  0.9713 -0.0238
  452TMC3    O1 6794   3.620   2.731   0.371 -0.3583 -0.1604  0.4668
  452TMC3    O2 6795   3.199   2.413   0.348  0.0243 -0.3293 -0.1476
  453TMC3    C1 6796   4.248   0.229  11.991  0.3689  0.0747 -0.5495
  453TMC3    C2 6797   4.230   0.095  12.000  0.5528  0.9200 -0.6624
  453TMC3    C3 6798   4.162   0.019  11.900  0.0352  0.0117  0.0660
  453TMC3    C4 6799   4.235   0.294  11.870  0.5436 -0.1453 -0.4005
  453TMC3    C5 6800   4.171   0.218  11.774 -0.1039 -0.8062 -0.4682
  453TMC3    C6 6801   4.146   0.081  11.781  0.9988 -0.0970  0.1113
  453TMC3     C 6802   4.334   0.285  12.088  0.2910  0.5499 -0.0612
  453TMC3     O 6803   4.422   0.212  12.129  0.5412  0.1644 -0.8039
  453TMC3     H 6804   4.263   0.047  12.092 -0.9617  0.2559 -0.4698
  453TMC3    H1 6805   4.234   0.402  11.875  4.1719 -0.0838 -1.3024
  453TMC3    H2 6806   4.085   0.039  11.702 -0.4032  0.8699  0.6833
  453TMC3    C7 6807   4.150   0.280  11.646 -0.1436  0.1486  0.2987
  453TMC3    C8 6808   4.163   4.613  11.904 -0.9284 -0.8049  0.7379
  453TMC3    O1 6809   4.069   0.245  11.565  0.4060  0.0429  0.1366
  453TMC3    O2 6810   4.182   4.570  12.020 -0.0246  0.4268 -0.5064
  454MPD2     C 6811   3.552   0.259  16.049 -0.0376 -0.3991 -0.1492
  454MPD2    C1 6812   3.507   0.305  15.927  0.4588 -0.7057 -0.2091
  454MPD2    C2 6813   3.467   0.435  15.905  0.9412  0.2150  0.6115
  454MPD2    C3 6814   3.469   0.523  16.016  0.8734 -0.7975  0.3051
  454MPD2    C4 6815   3.514   0.480  16.140  0.9371  0.7392 -0.3107
  454MPD2    C5 6816   3.555   0.346  16.160  0.5884  0.3784  0.0688
  454MPD2     H 6817   3.434   0.461  15.806 -3.2098  0.4259  2.0762
  454MPD2    H1 6818   3.512   0.541  16.230  0.7662  1.6452 -0.9284
  454MPD2    H2 6819   3.584   0.157  16.065  1.5183  0.1096 -0.0006
  454MPD2    H3 6820   3.600   0.318  16.254  0.5044  2.4621  0.7179
  454MPD2     N 6821   3.406   0.647  16.011 -0.4928  0.1175  0.3377
  454MPD2    H5 6822   3.407   0.701  16.097 -2.2225 -0.5493  0.7707
  454MPD2    N1 6823   3.483   0.219  15.818 -0.2358  0.0760  0.2411
  454MPD2    H7 6824   3.470   0.269  15.730 -0.3697 -0.5473 -0.0946
  455TMC3    C1 6825   3.208   0.749  15.939 -0.6800  0.5414 -0.0097
  455TMC3    C2 6826   3.204   0.807  16.063  0.7202 -0.2322  0.3100
  455TMC3    C3 6827   3.088   0.794  16.130 -0.0029 -0.2143 -1.1895
  455TMC3    C4 6828   3.107   0.669  15.890  0.2416  0.0494 -0.2757
  455TMC3    C5 6829   3.001   0.642  15.965 -0.2225  0.3126  0.1600
  455TMC3    C6 6830   2.993   0.709  16.086  0.1187 -0.2961  0.1912
  455TMC3     C 6831   3.336   0.689  15.905 -1.4158  0.0162 -0.3953
  455TMC3     O 6832   3.349   0.655  15.791  0.4428  0.8753 -0.1674
  455TMC3     H 6833   3.287   0.873  16.084  1.2254 -0.7158 -0.1763
  455TMC3    H1 6834   3.126   0.590  15.819  4.0885 -0.3985  1.2615
  455TMC3    H2 6835   2.917   0.682  16.159  0.4377  1.1555  1.0363
  455TMC3    C7 6836   2.973   0.501  15.971  0.4527 -0.4300 -0.5503
  455TMC3    C8 6837   3.084   0.847  16.264  0.0656 -0.6938 -0.0786
  455TMC3    O1 6838   2.857   0.473  15.942  0.1600 -0.0783  0.0429
  455TMC3    O2 6839   3.014   0.786  16.342 -0.3995  0.0161  0.3006
  456MPD2     C 6840   0.863   4.632  15.851  0.5073  0.4878 -0.8544
  456MPD2    C1 6841   0.981   4.648  15.915  0.1701  0.6593  0.3587
  456MPD2    C2 6842   0.990   4.729  16.030  0.0636  0.2856  0.3839
  456MPD2    C3 6843   0.887   0.077  16.060 -0.5847 -0.0679  0.5099
  456MPD2    C4 6844   0.772   0.059  15.999  0.1793 -0.8195  0.0723
  456MPD2    C5 6845   0.756   4.695  15.904  0.1320  0.0677  0.0531
  456MPD2     H 6846   1.082   0.011  16.083  0.4857  1.1700 -0.6442
  456MPD2    H1 6847   0.686   0.121  16.022 -0.2460 -1.9050  1.3274
  456MPD2    H2 6848   0.840   4.557  15.776  1.3195  0.1703 -0.7778
  456MPD2    H3 6849   0.659   4.682  15.858 -0.4808 -1.8731  1.8305
  456MPD2     N 6850   0.896   0.173  16.165  0.5909  0.1860 -0.8497
  456MPD2    H5 6851   0.982   0.178  16.218  0.2779 -0.3150 -0.2882
  456MPD2    N1 6852   1.094   4.591  15.858 -0.2403 -0.2069  0.0657
  456MPD2    H7 6853   1.073   4.536  15.775  0.0661  0.2890 -0.3372
  457TMC3    C1 6854   0.842   0.337  16.304  0.2455 -0.2072 -0.0562
  457TMC3    C2 6855   0.778   0.462  16.319 -0.2451  0.2644  0.5281
  457TMC3    C3 6856   0.792   0.516  16.444 -0.8359  0.3903 -0.0933
  457TMC3    C4 6857   0.903   0.262  16.398 -0.1041  0.2161  0.2402
  457TMC3    C5 6858   0.907   0.323  16.522 -0.3912  1.0528 -0.0745
  457TMC3    C6 6859   0.854   0.449  16.550 -0.2701  0.4724 -0.3205
  457TMC3     C 6860   0.810   0.270  16.184 -0.0315 -0.3285  0.4771
  457TMC3     O 6861   0.738   0.322  16.098 -0.3080 -0.4962 -0.3367
  457TMC3     H 6862   0.719   0.510  16.242  1.3234 -1.2039 -1.5954
  457TMC3    H1 6863   0.931   0.158  16.388  1.5011  0.9586 -2.7897
  457TMC3    H2 6864   0.864   0.497  16.647  1.2585  0.8727 -0.6704
  457TMC3    C7 6865   0.997   0.279  16.625 -0.8000 -0.1382  0.2559
  457TMC3    C8 6866   0.757   0.657  16.478  0.2189 -0.2323 -0.0049
  457TMC3    O1 6867   0.975   0.323  16.735  0.6421  0.3517 -0.1090
  457TMC3    O2 6868   0.805   0.706  16.583 -1.0271 -0.1156 -0.1814
  458MPD2     C 6869   3.410   4.272  12.020 -0.0785  0.5178 -0.2973
  458MPD2    C1 6870   3.368   4.279  12.152 -0.5855  0.0228 -0.3332
  458MPD2    C2 6871   3.231   4.296  12.181 -0.5823  0.0674 -0.2811
  458MPD2    C3 6872   3.144   4.308  12.073  0.3749 -0.5034 -0.7790
  458MPD2    C4 6873   3.190   4.294  11.945  0.5002 -0.0588 -0.3234
  458MPD2    C5 6874   3.323   4.274  11.917  0.1579 -0.5467  0.5561
  458MPD2     H 6875   3.205   4.323  12.283  0.4540  0.3325 -0.0794
  458MPD2    H1 6876   3.129   4.298  11.855  0.6051 -0.3828 -0.4088
  458MPD2    H2 6877   3.512   4.249  11.988 -0.7753 -3.0040 -0.0079
  458MPD2    H3 6878   3.351   4.251  11.815 -3.1514 -2.2752  0.0385
  458MPD2     N 6879   3.011   4.354  12.105  0.0658 -0.8372  0.2552
  458MPD2    H5 6880   2.991   4.371  12.203  0.6525 -1.5317  0.5018
  458MPD2    N1 6881   3.471   4.267  12.249 -0.3078  0.1907 -0.2884
  458MPD2    H7 6882   3.568   4.272  12.221  0.1498  0.0393  1.2643
  459TMC3    C1 6883   3.567   4.272  12.466  0.8180  0.3275  0.7020
  459TMC3    C2 6884   3.687   4.307  12.404 -0.3854  0.3006 -0.3652
  459TMC3    C3 6885   3.798   4.322  12.484  0.4671 -0.0262 -0.1940
  459TMC3    C4 6886   3.559   4.260  12.604  0.0427 -0.3734 -0.9073
  459TMC3    C5 6887   3.671   4.256  12.676 -0.3919 -0.0869  0.1644
  459TMC3    C6 6888   3.791   4.304  12.625  0.2883  0.6022 -0.0283
  459TMC3     C 6889   3.450   4.257  12.387  0.2244 -0.4035  0.5124
  459TMC3     O 6890   3.347   4.234  12.449  0.0296 -0.6651 -0.4573
  459TMC3     H 6891   3.689   4.350  12.305 -0.3485 -0.7714 -0.8344
  459TMC3    H1 6892   3.462   4.231  12.643  1.1679 -1.1741  1.3152
  459TMC3    H2 6893   3.870   4.325  12.695 -0.3540  0.3586  0.7671
  459TMC3    C7 6894   3.657   4.236  12.814 -0.7862  0.2015  0.8809
  459TMC3    C8 6895   3.918   4.392  12.437  0.1887 -0.0325 -0.0503
  459TMC3    O1 6896   3.759   4.201  12.876 -0.1107  0.0568 -0.3397
  459TMC3    O2 6897   3.907   4.423  12.319  0.9033  0.0037  0.1751
  460MPD2     C 6898   2.318   1.793  10.828  0.2450  0.1159  0.3317
  460MPD2    C1 6899   2.262   1.672  10.797  0.0131  0.2090  1.1467
  460MPD2    C2 6900   2.174   1.671  10.690  0.8161  1.2719 -0.1629
  460MPD2    C3 6901   2.131   1.783  10.622  0.7727  0.4275  0.0755
  460MPD2    C4 6902   2.176   1.906  10.671 -0.0572  0.7262  0.3810
  460MPD2    C5 6903   2.274   1.906  10.771  0.2487  0.5180  0.9919
  460MPD2     H 6904   2.140   1.574  10.657  3.2690  0.3237  0.1291
  460MPD2    H1 6905   2.143   2.005  10.641 -0.9604  0.2617 -0.1411
  460MPD2    H2 6906   2.382   1.795  10.916 -0.8643 -0.5660  1.1513
  460MPD2    H3 6907   2.314   2.001  10.807 -0.3002  0.0240  2.8641
  460MPD2     N 6908   2.038   1.766  10.510  0.0119  0.2359  0.1609
  460MPD2    H5 6909   2.026   1.668  10.485 -1.1729  0.4248  0.0292
  460MPD2    N1 6910   2.304   1.552  10.866  0.0806 -0.4133  0.3932
  460MPD2    H7 6911   2.370   1.569  10.941  0.6464 -1.0744  0.0486
  461TMC3    C1 6912   1.877   1.830  10.341  0.1098 -0.7274 -0.0340
  461TMC3    C2 6913   1.878   1.715  10.273 -0.1866 -0.8815  0.2182
  461TMC3    C3 6914   1.803   1.704  10.153 -0.0423 -0.5990  0.7080
  461TMC3    C4 6915   1.810   1.937  10.286  0.1487 -0.2677  0.0651
  461TMC3    C5 6916   1.731   1.924  10.173  0.3624 -0.2024  0.1046
  461TMC3    C6 6917   1.733   1.810  10.100  0.3347 -0.5776 -0.0018
  461TMC3     C 6918   1.968   1.864  10.444  0.0856 -0.4053  0.0869
  461TMC3     O 6919   1.981   1.984  10.466 -0.2061 -0.9451 -0.1087
  461TMC3     H 6920   1.951   1.638  10.296 -0.0976 -0.0843  2.5952
  461TMC3    H1 6921   1.818   2.027  10.345 -0.2793  2.0380 -3.3612
  461TMC3    H2 6922   1.671   1.798  10.012 -1.0158  1.7151  0.6477
  461TMC3    C7 6923   1.664   2.039  10.112  0.4866 -0.1059  0.2624
  461TMC3    C8 6924   1.848   1.615  10.060  0.4311 -0.0979  0.1919
  461TMC3    O1 6925   1.622   2.028   9.998 -0.2576 -0.4909  0.0189
  461TMC3    O2 6926   1.873   1.665   9.950  0.4536  0.7572 -0.7066
  462TMC3    C1 6927   2.830   3.424   0.086  0.5972  0.1604 -0.0573
  462TMC3    C2 6928   2.948   3.371   0.127  0.0200  0.6266 -0.9702
  462TMC3    C3 6929   2.943   3.242   0.175 -0.3563 -0.6262  0.6570
  462TMC3    C4 6930   2.709   3.363   0.083 -0.2078  0.8853 -0.3582
  462TMC3    C5 6931   2.715   3.231   0.124  0.4556 -0.0706 -0.0223
  462TMC3    C6 6932   2.824   3.167   0.174 -0.2025  0.5498 -0.1860
  462TMC3     C 6933   2.828   3.566   0.059 -0.8836  0.9849 -0.1960
  462TMC3     O 6934   2.895   3.607  17.706 -0.5853  0.6695 -0.4307
  462TMC3     H 6935   3.036   3.433   0.137 -0.3274  0.8037  0.9136
  462TMC3    H1 6936   2.619   3.402   0.037 -0.6939 -1.4517 -1.3814
  462TMC3    H2 6937   2.814   3.063   0.202 -1.1449  1.1557  1.7037
  462TMC3    C7 6938   2.598   3.146   0.101  0.9193  0.4409 -0.0786
  462TMC3    C8 6939   3.070   3.178   0.174 -0.6832  0.2056 -0.1641
  462TMC3    O1 6940   2.618   3.033   0.130 -0.4190  0.0077  0.4958
  462TMC3    O2 6941   3.171   3.248   0.152 -0.0480  0.7227  0.2062
  463MPD2     C 6942   4.399   0.949   0.941  0.2806 -0.5144 -0.1134
  463MPD2    C1 6943   4.326   1.047   1.005  0.2759  0.5665 -0.0100
  463MPD2    C2 6944   4.386   1.170   1.031  0.6521  0.4326 -0.5011
  463MPD2    C3 6945   4.519   1.196   0.997 -0.0097  0.1563  0.3653
  463MPD2    C4 6946   4.596   1.092   0.942  0.6833  0.1270  0.0418
  463MPD2    C5 6947   4.534   0.971   0.918 -0.1541 -0.0425  0.3174
  463MPD2     H 6948   4.333   1.236   1.099 -1.3217  1.6302 -3.1825
  463MPD2    H1 6949   4.704   1.094   0.934  0.4731 -0.1175 -2.6158
  463MPD2    H2 6950   4.349   0.859   0.908  1.2119 -0.9686 -0.2661
  463MPD2    H3 6951   4.591   0.888   0.878  1.1965  1.3567 -0.5996
  463MPD2     N 6952   4.582   1.314   1.036  0.3480  0.3022 -0.1621
  463MPD2    H5 6953   4.682   1.315   1.022  0.4555  1.5745  0.7165
  463MPD2    N1 6954   4.186   1.031   1.038  0.3473 -0.3417 -0.1354
  463MPD2    H7 6955   4.134   1.114   1.065 -0.0973 -0.6258 -0.1274
  464TMC3    C1 6956   3.976   0.919   1.070 -0.1316 -0.1390 -0.6933
  464TMC3    C2 6957   3.930   1.036   1.131  0.2217 -0.1009  0.3268
  464TMC3    C3 6958   3.794   1.048   1.122  1.2421 -0.5597 -0.3763
  464TMC3    C4 6959   3.896   0.828   1.011  0.0469 -0.4812  0.1537
  464TMC3    C5 6960   3.762   0.856   0.996 -0.3533  0.6588  0.1933
  464TMC3    C6 6961   3.705   0.963   1.065 -0.6016 -0.0628  0.5985
  464TMC3     C 6962   4.117   0.911   1.030 -0.9555 -0.0464  0.4660
  464TMC3     O 6963   4.154   0.799   1.001  0.4636  0.2624  0.0812
  464TMC3     H 6964   3.990   1.104   1.190  0.4885  0.5304 -0.6731
  464TMC3    H1 6965   3.941   0.751   0.949  0.6151 -1.2315  1.4960
  464TMC3    H2 6966   3.600   0.992   1.070 -1.3058 -2.7639  1.7111
  464TMC3    C7 6967   3.683   0.767   0.917  1.1330  0.0711  0.6117
  464TMC3    C8 6968   3.728   1.172   1.156  1.1169 -0.2382  1.4190
  464TMC3    O1 6969   3.734   0.665   0.873  0.4475 -0.5639 -0.0457
  464TMC3    O2 6970   3.640   1.215   1.084  0.5574  0.1987  0.1749
  465MPD2     C 6971   0.051   4.523  17.062 -0.6166 -0.1130  0.4415
  465MPD2    C1 6972   4.683   4.615  17.103  1.0720 -0.1967 -0.5506
  465MPD2    C2 6973   4.586   4.643  17.011  0.1849 -0.5105 -0.1062
  465MPD2    C3 6974   4.593   4.603  16.882  0.0680 -0.6104 -0.1513
  465MPD2    C4 6975   4.695   4.515  16.845 -0.3360  0.0124 -0.2299
  465MPD2    C5 6976   0.049   4.470  16.939 -0.5561 -0.2967  0.6124
  465MPD2     H 6977   4.504   4.710  17.032 -0.9338 -2.1947  1.0055
  465MPD2    H1 6978   4.696   4.466  16.748 -0.1566 -0.5043  0.0305
  465MPD2    H2 6979   0.132   4.485  17.122  0.5842 -0.9093 -1.7260
  465MPD2    H3 6980   0.134   4.410  16.909 -2.4191 -3.2523  1.2338
  465MPD2     N 6981   4.497   4.654  16.792 -0.4025 -0.1895 -0.0354
  465MPD2    H5 6982   4.423   4.715  16.826 -0.2203 -1.1263  1.9919
  465MPD2    N1 6983   4.676   4.677  17.227  0.1889  0.5903 -0.2462
  465MPD2    H7 6984   4.594   4.734  17.245  1.2054  1.4112  1.8058
  466TMC3    C1 6985   4.190   0.127  16.657  0.2932 -0.4235 -0.7604
  466TMC3    C2 6986   4.225   0.220  16.558 -0.5525  0.0196  0.0568
  466TMC3    C3 6987   4.342   0.207  16.484 -0.0018  0.0965  0.9050
  466TMC3    C4 6988   4.281   0.029  16.675 -0.1090  0.2040  0.3005
  466TMC3    C5 6989   4.401   0.012  16.605 -0.0898  0.4820 -0.2105
  466TMC3    C6 6990   4.432   0.108  16.514  0.5480 -0.1441  0.1257
  466TMC3     C 6991   4.140   0.187  16.778  0.5357 -0.3503  0.6036
  466TMC3     O 6992   4.172   0.139  16.883  0.0568  0.8292  0.0383
  466TMC3     H 6993   4.156   0.294  16.518 -0.2499  1.6982  2.6590
  466TMC3    H1 6994   4.248   4.679  16.733 -1.6105 -0.3482 -1.3607
  466TMC3    H2 6995   4.518   0.100  16.449  0.6705 -0.3211  0.3100
  466TMC3    C7 6996   4.508   4.663  16.655 -0.1632 -0.2882 -0.0596
  466TMC3    C8 6997   4.402   0.335  16.437  0.3317  1.0174  0.4333
  466TMC3    O1 6998   4.606   4.646  16.587 -0.2533  0.3996  0.1808
  466TMC3    O2 6999   4.500   0.323  16.362 -0.6333 -0.0084  0.2999
  467TMC3    C1 7000   0.723   3.463  13.915  0.0024  0.2606 -0.0721
  467TMC3    C2 7001   0.697   3.454  13.781  0.3700  0.0578 -0.4140
  467TMC3    C3 7002   0.562   3.432  13.746  0.3121 -0.9322  0.5845
  467TMC3    C4 7003   0.629   3.452  14.007  0.3887 -0.4112  0.1446
  467TMC3    C5 7004   0.502   3.421  13.967  0.1745  0.0863 -0.3038
  467TMC3    C6 7005   0.462   3.405  13.837  0.2282 -0.0316  0.2187
  467TMC3     C 7006   0.857   3.488  13.956  0.5459 -0.2338 -0.5330
  467TMC3     O 7007   0.861   3.539  14.066  0.1475 -0.8667 -0.1895
  467TMC3     H 7008   0.772   3.461  13.703  0.1003  2.2492 -0.4899
  467TMC3    H1 7009   0.656   3.452  14.112  0.3738 -3.3340  0.1403
  467TMC3    H2 7010   0.376   3.342  13.817 -0.6063  0.5798  1.8678
  467TMC3    C7 7011   0.406   3.368  14.066  0.1551 -0.1573  0.6061
  467TMC3    C8 7012   0.540   3.407  13.603 -0.1673 -0.2906 -0.1545
  467TMC3    O1 7013   0.447   3.317  14.166  0.0562  0.7061 -0.9036
  467TMC3    O2 7014   0.639   3.367  13.537  0.2026 -0.3110  0.1946
  468MPD2     C 7015   3.825   1.297  10.515  0.3740  0.2414 -0.4314
  468MPD2    C1 7016   3.958   1.275  10.494 -0.3957  0.2340  0.1968
  468MPD2    C2 7017   4.004   1.144  10.508 -0.2152  0.1183  0.2507
  468MPD2    C3 7018   3.916   1.037  10.530  0.7336 -1.0718 -0.3737
  468MPD2    C4 7019   3.785   1.062  10.554 -0.1643  0.5363 -1.3366
  468MPD2    C5 7020   3.741   1.191  10.550  0.4009  0.8181 -0.1588
  468MPD2     H 7021   4.111   1.131  10.496 -0.3105  0.0786 -0.5617
  468MPD2    H1 7022   3.713   0.981  10.563  2.3825 -1.6712 -0.7898
  468MPD2    H2 7023   3.779   1.394  10.504 -0.4798 -0.1164 -0.0968
  468MPD2    H3 7024   3.635   1.209  10.560  0.4404  0.8498  0.1917
  468MPD2     N 7025   3.957   0.899  10.532 -0.1456  0.0920 -0.0266
  468MPD2    H5 7026   3.893   0.824  10.554 -1.4082  1.8024  2.1108
  468MPD2    N1 7027   4.051   1.379  10.490  0.0816  0.5856  0.2051
  468MPD2    H7 7028   4.143   1.343  10.466 -0.6281 -0.7742 -0.4974
  469TMC3    C1 7029   4.157   1.573  10.544 -0.6110 -0.6849 -0.7259
  469TMC3    C2 7030   4.275   1.506  10.528  0.1380 -1.2129 -0.1044
  469TMC3    C3 7031   4.393   1.577  10.560  0.2309  1.3889  0.2656
  469TMC3    C4 7032   4.147   1.702  10.585 -0.8042 -0.1749  0.3792
  469TMC3    C5 7033   4.262   1.767  10.615 -0.6480  0.1207  0.3131
  469TMC3    C6 7034   4.386   1.703  10.607  0.6328 -0.0876 -0.6336
  469TMC3     C 7035   4.030   1.508  10.517  0.0238 -0.0279  0.2213
  469TMC3     O 7036   3.922   1.560  10.542 -0.0445 -0.2392  0.2251
  469TMC3     H 7037   4.274   1.401  10.498  0.5451 -1.2583  0.0343
  469TMC3    H1 7038   4.050   1.750  10.594 -0.4512  0.0181  3.1707
  469TMC3    H2 7039   4.480   1.748  10.638  0.8852 -2.5852  2.2527
  469TMC3    C7 7040   4.266   1.908  10.654  0.3429  0.1220  0.3475
  469TMC3    C8 7041   4.510   1.494  10.587 -0.7940 -0.0392 -0.2109
  469TMC3    O1 7042   4.378   1.954  10.661 -0.2737  0.1848 -0.3138
  469TMC3    O2 7043   4.526   1.393  10.524 -0.6328 -0.1406  0.2897
  470TMC3    C1 7044   2.188   3.133   0.362 -0.4820  0.7225  0.3297
  470TMC3    C2 7045   2.169   3.258   0.408  0.1504 -0.6189  0.5215
  470TMC3    C3 7046   2.262   3.321   0.475  0.2940  0.1882 -0.0948
  470TMC3    C4 7047   2.306   3.073   0.374 -0.8785 -0.3012 -0.1054
  470TMC3    C5 7048   2.393   3.124   0.466  0.1043  0.0160 -0.3097
  470TMC3    C6 7049   2.374   3.251   0.519  0.1221  0.3679 -0.1800
  470TMC3     C 7050   2.068   3.059   0.321 -0.1634  1.2213  0.1996
  470TMC3     O 7051   1.963   3.122   0.307 -0.1903  0.3558  0.0279
  470TMC3     H 7052   2.070   3.299   0.393  0.1814  0.1375  2.3942
  470TMC3    H1 7053   2.321   2.974   0.331 -2.0916 -1.2045  1.5329
  470TMC3    H2 7054   2.448   3.298   0.582 -1.1032  1.4378  0.4488
  470TMC3    C7 7055   2.489   3.035   0.521  0.5729 -0.1077  0.3137
  470TMC3    C8 7056   2.234   3.451   0.541 -0.1181 -0.0049  0.3935
  470TMC3    O1 7057   2.536   2.944   0.453 -0.0159 -0.5476  0.1461
  470TMC3    O2 7058   2.307   3.495   0.629 -0.5827  0.1432 -0.7711
  471MPD2     C 7059   2.828   4.155  16.630 -0.5951  0.4643  0.4953
  471MPD2    C1 7060   2.800   4.024  16.684  0.1151  0.9440  0.3854
  471MPD2    C2 7061   2.840   4.002  16.809  0.5678 -0.3956  0.2169
  471MPD2    C3 7062   2.905   4.095  16.885  0.8062  0.1516 -0.7454
  471MPD2    C4 7063   2.943   4.211  16.825  0.3936  0.7083  0.3176
  471MPD2    C5 7064   2.904   4.248  16.698 -0.0124 -0.4740 -0.0367
  471MPD2     H 7065   2.824   3.901  16.846  2.3858 -1.0645 -0.8362
  471MPD2    H1 7066   2.993   4.288  16.883  3.7942 -1.2051 -0.0472
  471MPD2    H2 7067   2.799   4.181  16.529 -2.0914  1.7264  1.2463
  471MPD2    H3 7068   2.948   4.339  16.658 -1.7331  1.4551  2.4424
  471MPD2     N 7069   2.953   4.051  17.007 -0.1139  0.2325 -1.1425
  471MPD2    H5 7070   2.943   3.954  17.033  1.9142  0.3182 -0.0437
  471MPD2    N1 7071   2.719   3.925  16.616  0.0853 -0.3027 -0.2228
  471MPD2    H7 7072   2.714   3.835  16.663  0.2082  0.1191  0.5978
  472TMC3    C1 7073   2.520   3.862  16.517 -0.3731 -0.1571 -0.5934
  472TMC3    C2 7074   2.405   3.906  16.461  0.5672  0.0855 -0.6098
  472TMC3    C3 7075   2.302   3.823  16.443 -0.0567  0.1657 -0.5876
  472TMC3    C4 7076   2.533   3.731  16.561  0.1531  0.1109  0.1113
  472TMC3    C5 7077   2.422   3.657  16.552 -0.3242  0.0625 -0.4071
  472TMC3    C6 7078   2.307   3.698  16.492  0.4716 -0.5177  0.1624
  472TMC3     C 7079   2.615   3.965  16.538 -0.7982  0.2564 -0.1154
  472TMC3     O 7080   2.587   4.078  16.494 -0.3861  0.0404  0.1099
  472TMC3     H 7081   2.396   4.005  16.417  0.1087  0.9616  1.4531
  472TMC3    H1 7082   2.633   3.694  16.585 -0.3387 -1.0588  0.3704
  472TMC3    H2 7083   2.222   3.633  16.503 -0.3423  0.5574  0.2694
  472TMC3    C7 7084   2.438   3.516  16.556 -0.4460 -0.6638 -0.6196
  472TMC3    C8 7085   2.194   3.864  16.360 -1.0670 -0.3417  0.5661
  472TMC3    O1 7086   2.516   3.473  16.639 -0.4677  0.0768  0.0885
  472TMC3    O2 7087   2.204   3.953  16.281  0.4214 -0.4974  0.2005
  473MPD2     C 7088   2.595   1.255  13.769  0.1132  0.3924 -0.3950
  473MPD2    C1 7089   2.544   1.376  13.730 -0.2498 -0.3563 -0.3215
  473MPD2    C2 7090   2.561   1.492  13.800 -0.1051  0.4658  0.7002
  473MPD2    C3 7091   2.635   1.494  13.911 -0.9017 -0.6400  0.2451
  473MPD2    C4 7092   2.682   1.371  13.957 -0.1858 -0.2433 -0.3511
  473MPD2    C5 7093   2.673   1.256  13.883 -0.4615 -0.5847 -0.5245
  473MPD2     H 7094   2.508   1.580  13.765  0.1031 -0.6165 -2.3595
  473MPD2    H1 7095   2.750   1.372  14.041 -0.4866  1.6936 -0.1254
  473MPD2    H2 7096   2.578   1.163  13.714 -0.0477 -0.3761  0.9349
  473MPD2    H3 7097   2.718   1.165  13.922  0.1901 -0.5696 -1.2388
  473MPD2     N 7098   2.676   1.605  13.984 -0.2477  0.2557 -0.1398
  473MPD2    H5 7099   2.739   1.595  14.062 -1.5605  0.7478  0.9759
  473MPD2    N1 7100   2.456   1.396  13.615  0.3293  0.1831 -0.4648
  473MPD2    H7 7101   2.416   1.489  13.609  0.2584  0.1334 -0.7478
  474TMC3    C1 7102   2.727   1.839  14.003 -0.1169  0.2600  0.3065
  474TMC3    C2 7103   2.676   1.967  13.977  0.1605 -0.0809  1.1123
  474TMC3    C3 7104   2.661   2.060  14.083 -0.0187  0.2815  0.1716
  474TMC3    C4 7105   2.769   1.815  14.131 -0.2443  0.7095 -0.0378
  474TMC3    C5 7106   2.742   1.905  14.235 -0.5907  0.4362  0.1781
  474TMC3    C6 7107   2.687   2.030  14.213 -0.4335 -0.0446  0.4563
  474TMC3     C 7108   2.669   1.730  13.931  0.6795  0.3790  0.6832
  474TMC3     O 7109   2.604   1.772  13.842  0.1088 -0.5017  0.2227
  474TMC3     H 7110   2.639   1.989  13.877 -0.6513 -0.1072  1.4045
  474TMC3    H1 7111   2.817   1.720  14.152 -1.4458 -0.1415 -1.0704
  474TMC3    H2 7112   2.658   2.089  14.299 -0.4672  0.1527  0.3094
  474TMC3    C7 7113   2.702   1.841  14.357  0.8212 -0.1199 -0.5255
  474TMC3    C8 7114   2.585   2.181  14.046  0.0054 -0.0068  0.1173
  474TMC3    O1 7115   2.646   1.735  14.341  0.3060  0.0579  0.5263
  474TMC3    O2 7116   2.520   2.176  13.942  0.1718  0.1598  0.0796
  475MPD2     C 7117   0.727   3.483  10.176 -0.3008 -0.3552 -0.1624
  475MPD2    C1 7118   0.775   3.609  10.197  0.1379 -0.3213 -0.7046
  475MPD2    C2 7119   0.693   3.710  10.236  0.7035  0.3999 -0.0836
  475MPD2    C3 7120   0.560   3.695  10.248 -0.0881 -0.5878 -0.0962
  475MPD2    C4 7121   0.506   3.566  10.231 -0.0341  1.0593 -0.5285
  475MPD2    C5 7122   0.592   3.461  10.193  0.4416  0.0350  0.5007
  475MPD2     H 7123   0.729   3.811  10.253 -0.7792  0.8761  0.1729
  475MPD2    H1 7124   0.401   3.548  10.254 -0.3690  0.7762 -2.2894
  475MPD2    H2 7125   0.783   3.391  10.165  0.6329  0.4066 -1.8019
  475MPD2    H3 7126   0.547   3.363  10.183  0.4947 -0.1134  1.6353
  475MPD2     N 7127   0.478   3.804  10.287  0.0861  0.0688  0.3797
  475MPD2    H5 7128   0.531   3.890  10.300 -1.5612  1.1873 -0.2351
  475MPD2    N1 7129   0.911   3.635  10.171  0.0350  0.2047 -0.1605
  475MPD2    H7 7130   0.943   3.728  10.197 -0.2515 -0.2671  1.9237
  476TMC3    C1 7131   1.125   3.624  10.082  0.3153  0.2135  0.7051
  476TMC3    C2 7132   1.106   3.739  10.005  0.3845  0.1185 -0.0232
  476TMC3    C3 7133   1.138   3.865  10.064  0.7726 -0.8985 -0.4044
  476TMC3    C4 7134   1.178   3.645  10.207  0.2246  0.1230 -0.1812
  476TMC3    C5 7135   1.212   3.772  10.264 -0.0001  0.0805 -0.3574
  476TMC3    C6 7136   1.183   3.881  10.193  0.5056 -0.4345  0.4930
  476TMC3     C 7137   0.998   3.549  10.107 -0.6676 -0.4005  0.1207
  476TMC3     O 7138   0.983   3.447  10.047 -0.0079  0.1860  0.4501
  476TMC3     H 7139   1.082   3.729   9.900 -2.0127 -0.5409  0.5915
  476TMC3    H1 7140   1.185   3.553  10.263 -1.3015  1.8243  2.8820
  476TMC3    H2 7141   1.203   3.980  10.233 -1.1001  0.6621 -1.3941
  476TMC3    C7 7142   1.175   3.770  10.403 -0.7186  0.6739 -0.3105
  476TMC3    C8 7143   1.037   3.965  10.037 -0.0382  0.0833  0.8708
  476TMC3    O1 7144   1.167   3.660  10.456 -0.1719 -0.7214  0.0772
  476TMC3    O2 7145   1.063   4.072  10.090 -0.0160  0.1600 -0.0778
  477MPD2     C 7146   2.794   1.084  11.558 -0.0823  0.9495  0.0146
  477MPD2    C1 7147   2.777   0.954  11.613  0.4267 -0.0401  0.5872
  477MPD2    C2 7148   2.841   0.921  11.734  0.3780 -0.4679  0.7642
  477MPD2    C3 7149   2.906   1.018  11.802 -0.3892  0.1218  0.2470
  477MPD2    C4 7150   2.918   1.146  11.750 -0.2705 -0.7892  0.1015
  477MPD2    C5 7151   2.858   1.182  11.634  0.2092 -0.8656  0.7449
  477MPD2     H 7152   2.840   0.820  11.773  2.2361 -1.0088 -0.6242
  477MPD2    H1 7153   2.968   1.226  11.803 -1.3180 -0.6265  0.8443
  477MPD2    H2 7154   2.749   1.105  11.462  1.6032  1.4841 -0.6665
  477MPD2    H3 7155   2.877   1.277  11.587  1.1911 -0.7041  1.4563
  477MPD2     N 7156   2.962   0.981  11.931 -0.4850 -0.1109 -0.6293
  477MPD2    H5 7157   2.976   0.883  11.956  1.4811 -0.2026 -2.0800
  477MPD2    N1 7158   2.708   0.854  11.541 -0.4564  0.4224  0.0222
  477MPD2    H7 7159   2.669   0.880  11.451 -1.5430  2.2662  1.0137
  478TMC3    C1 7160   2.548   0.686  11.501  0.5878 -0.3452  0.4124
  478TMC3    C2 7161   2.431   0.677  11.562  0.0654  0.1260 -0.8097
  478TMC3    C3 7162   2.314   0.688  11.490 -1.1689  0.8868 -0.2248
  478TMC3    C4 7163   2.564   0.709  11.368 -0.0075  0.7147  0.0015
  478TMC3    C5 7164   2.450   0.738  11.295 -0.4844 -0.1634  0.4996
  478TMC3    C6 7165   2.320   0.732  11.358 -0.3525 -0.2037  0.8767
  478TMC3     C 7166   2.660   0.730  11.589  0.0639  0.1742 -0.0044
  478TMC3     O 7167   2.659   0.678  11.698 -0.5549 -0.1926 -0.0095
  478TMC3     H 7168   2.428   0.664  11.670  0.4298 -2.0932 -1.0742
  478TMC3    H1 7169   2.661   0.695  11.323 -0.8170 -0.6936 -1.3092
  478TMC3    H2 7170   2.230   0.750  11.300  1.0246 -2.5722 -1.9546
  478TMC3    C7 7171   2.467   0.695  11.156  0.7020 -0.0852  0.0066
  478TMC3    C8 7172   2.208   0.746  11.567 -0.6537 -0.3518  0.5771
  478TMC3    O1 7173   2.556   0.610  11.137 -0.1160 -0.7511 -0.1574
  478TMC3    O2 7174   2.191   0.692  11.673  0.6373  0.2546  0.4510
  479MPD2     C 7175   2.304   3.433  15.315  0.0108  0.4032 -0.2856
  479MPD2    C1 7176   2.247   3.340  15.394 -0.0488 -0.2651 -0.2716
  479MPD2    C2 7177   2.279   3.345  15.526 -0.3108  0.9716 -0.2630
  479MPD2    C3 7178   2.362   3.441  15.576  0.4329  0.1960 -0.1217
  479MPD2    C4 7179   2.432   3.517  15.492 -0.6091  0.0724 -0.4939
  479MPD2    C5 7180   2.398   3.521  15.362  0.0323 -0.1119 -0.1735
  479MPD2     H 7181   2.241   3.272  15.597  0.9078 -0.8442 -1.4481
  479MPD2    H1 7182   2.508   3.587  15.524 -1.4711  2.0117 -2.7285
  479MPD2    H2 7183   2.293   3.436  15.207  0.3633 -0.3414 -0.3453
  479MPD2    H3 7184   2.446   3.597  15.301 -0.0653  1.1880  1.3740
  479MPD2     N 7185   2.389   3.467  15.718  0.5355 -0.0816  0.4158
  479MPD2    H5 7186   2.473   3.519  15.744  0.0069  0.3314  1.3315
  479MPD2    N1 7187   2.164   3.244  15.339 -0.3127 -0.5975  0.1425
  479MPD2    H7 7188   2.137   3.252  15.242  1.0842  2.1424 -0.0372
  480TMC3    C1 7189   2.022   3.198  15.883 -0.0239 -0.2589 -0.1258
  480TMC3    C2 7190   1.935   3.258  15.797 -0.5924 -0.0875  0.0765
  480TMC3    C3 7191   1.960   3.378  15.737 -0.5342  0.3628  0.0807
  480TMC3    C4 7192   2.146   3.257  15.887 -0.0634  0.4466 -0.3309
  480TMC3    C5 7193   2.171   3.371  15.812  0.7243  0.5799  0.9283
  480TMC3    C6 7194   2.079   3.445  15.745  0.3135  0.2523  0.4692
  480TMC3     C 7195   2.006   3.068  15.951 -0.4397  0.4950 -0.0243
  480TMC3     O 7196   2.110   3.013  15.975 -0.3562 -0.2897  0.4313
  480TMC3     H 7197   1.838   3.211  15.788 -1.1618  1.2360 -0.6370
  480TMC3    H1 7198   2.227   3.220  15.947  0.9743  2.5172 -0.4704
  480TMC3    H2 7199   2.097   3.535  15.688 -0.8960  0.6661  0.7502
  480TMC3    C7 7200   2.318   3.413  15.831  0.2668  0.4050 -0.0620
  480TMC3    C8 7201   1.877   3.405  15.621 -0.6959 -0.3926 -0.7053
  480TMC3    O1 7202   2.345   3.426  15.950  0.3372 -0.1447 -0.1324
  480TMC3    O2 7203   1.772   3.346  15.615 -0.2715  0.4228  0.2837
  481MPD2     C 7204   3.682   2.550  14.193 -0.1239  0.4139  0.5518
  481MPD2    C1 7205   3.588   2.541  14.296 -0.7176 -0.6848  0.4626
  481MPD2    C2 7206   3.640   2.566  14.426 -0.5793  0.0125  0.8045
  481MPD2    C3 7207   3.772   2.596  14.449  0.3363 -0.7039 -0.1719
  481MPD2    C4 7208   3.862   2.603  14.346  0.5076 -0.1444  0.4171
  481MPD2    C5 7209   3.811   2.579  14.215 -0.0156 -0.4282  0.0838
  481MPD2     H 7210   3.576   2.565  14.514  0.7113  0.8108  1.7516
  481MPD2    H1 7211   3.966   2.625  14.364  0.6609  2.0060 -3.0100
  481MPD2    H2 7212   3.657   2.522  14.091  2.1904  2.1521 -0.4933
  481MPD2    H3 7213   3.881   2.579  14.132  1.2391  3.5481  1.0951
  481MPD2     N 7214   3.832   2.621  14.576 -0.0808 -0.0413 -0.1972
  481MPD2    H5 7215   3.926   2.658  14.577  0.0187 -0.2825 -0.9506
  481MPD2    N1 7216   3.454   2.521  14.262 -0.1207 -0.4473 -0.3029
  481MPD2    H7 7217   3.442   2.508  14.162 -0.1202 -1.6251 -0.1494
  482TMC3    C1 7218   3.226   2.500  14.283  0.2716  0.4796 -0.4177
  482TMC3    C2 7219   3.196   2.389  14.209  0.2745  0.2103  0.1011
  482TMC3    C3 7220   3.090   2.392  14.120 -0.0662 -0.7932 -0.2455
  482TMC3    C4 7221   3.161   2.615  14.270 -0.2830 -0.3335  0.7185
  482TMC3    C5 7222   3.049   2.606  14.194  0.1330  0.0923 -0.1195
  482TMC3    C6 7223   3.013   2.501  14.114 -0.1742  1.0022  0.7205
  482TMC3     C 7224   3.351   2.516  14.354 -0.2519  0.0934 -0.6114
  482TMC3     O 7225   3.352   2.541  14.476 -0.1095 -0.3735 -0.8425
  482TMC3     H 7226   3.261   2.302  14.210 -0.6165 -0.4433  0.9429
  482TMC3    H1 7227   3.179   2.711  14.318  1.0691  0.7506 -1.9299
  482TMC3    H2 7228   2.920   2.506  14.059  0.5831  0.3052 -0.6247
  482TMC3    C7 7229   2.983   2.729  14.162 -0.2802  0.1105  0.3639
  482TMC3    C8 7230   3.050   2.268  14.053 -0.7177 -0.4248 -0.1444
  482TMC3    O1 7231   2.862   2.729  14.150  0.3286 -0.8519  0.5299
  482TMC3    O2 7232   3.121   2.170  14.082  0.1034  0.0833 -0.4252
  483TMC3    C1 7233   1.483   1.965   0.684  0.1408 -0.2799  0.4586
  483TMC3    C2 7234   1.562   2.067   0.640  0.3224  0.1943 -0.1677
  483TMC3    C3 7235   1.682   2.094   0.696  0.5468 -0.1720  0.5476
  483TMC3    C4 7236   1.516   1.902   0.797 -0.4040  0.4887  0.3312
  483TMC3    C5 7237   1.638   1.928   0.859  0.1986  0.3363  0.5504
  483TMC3    C6 7238   1.723   2.021   0.806  1.0302 -0.4754 -0.5375
  483TMC3     C 7239   1.419   1.888   0.579  0.0225  0.0125 -0.9269
  483TMC3     O 7240   1.394   1.949   0.478  0.0696  0.0741 -0.6692
  483TMC3     H 7241   1.529   2.128   0.556  1.2197 -1.5326 -1.7760
  483TMC3    H1 7242   1.471   1.812   0.838  1.5406 -0.6685 -0.0732
  483TMC3    H2 7243   1.817   2.038   0.858  0.8057 -0.0258 -0.2855
  483TMC3    C7 7244   1.701   1.822   0.932 -0.9464 -0.0484  0.0187
  483TMC3    C8 7245   1.785   2.169   0.618 -0.3687  0.2222  1.0062
  483TMC3    O1 7246   1.663   1.707   0.908  0.3754  0.3853  0.5307
  483TMC3    O2 7247   1.758   2.199   0.501  0.0243  0.3286 -0.1630
  484MPD2     C 7248   4.194   4.537  12.616  0.1500  0.4982 -0.3389
  484MPD2    C1 7249   4.127   4.495  12.503 -0.1161  0.2795 -0.3285
  484MPD2    C2 7250   4.184   4.518  12.378 -0.0926 -0.8354 -0.4974
  484MPD2    C3 7251   4.312   4.571  12.356  0.4069 -0.2529 -1.0051
  484MPD2    C4 7252   4.380   4.595  12.475 -0.3306 -0.2177 -0.4570
  484MPD2    C5 7253   4.321   4.581  12.596 -0.1271 -0.1652 -0.2935
  484MPD2     H 7254   4.129   4.490  12.289 -0.3738  2.3401 -1.3303
  484MPD2    H1 7255   4.487   4.613  12.483 -0.2210 -1.3118  0.6536
  484MPD2    H2 7256   4.153   4.522  12.715 -0.6722 -0.9962 -0.9102
  484MPD2    H3 7257   4.374   4.593  12.690  0.3047 -1.5255 -0.3558
  484MPD2     N 7258   4.371   4.574  12.224 -0.1123 -0.6877 -0.9254
  484MPD2    H5 7259   4.310   4.548  12.148  0.4487  0.0289 -1.6161
  484MPD2    N1 7260   4.002   4.436  12.528 -0.6033  0.1474  0.8148
  484MPD2    H7 7261   3.974   4.430  12.626  0.3241 -1.2738  0.9837
  485TMC3    C1 7262   4.546   4.643  12.071  0.5040  0.9260 -0.2638
  485TMC3    C2 7263   4.666   4.717  12.055 -0.6356  0.7227 -0.3792
  485TMC3    C3 7264   4.707   0.013  11.931 -1.1875 -0.4029 -0.1063
  485TMC3    C4 7265   4.490   4.581  11.964 -0.1908 -0.8128 -0.3243
  485TMC3    C5 7266   4.529   4.615  11.841  0.0976 -0.8253  0.3307
  485TMC3    C6 7267   4.633   4.700  11.824 -0.1114  0.1919 -0.2682
  485TMC3     C 7268   4.502   4.620  12.205 -0.2182  0.1742  0.3767
  485TMC3     O 7269   4.583   4.659  12.287  0.7026  0.2492  0.2676
  485TMC3     H 7270   4.722   0.017  12.141 -1.2875  0.6357  0.0764
  485TMC3    H1 7271   4.420   4.500  11.980 -0.6455  0.2512  3.1787
  485TMC3    H2 7272   4.666   4.731  11.725  0.7884  0.6865  0.1824
  485TMC3    C7 7273   4.535   4.499  11.750  0.7797 -0.0230  0.8192
  485TMC3    C8 7274   0.116   4.715  11.918  0.0781 -0.0622  0.3934
  485TMC3    O1 7275   4.562   4.392  11.804  0.3397 -0.2278 -0.7048
  485TMC3    O2 7276   0.181   0.023  12.011  0.8896  0.0620 -0.4475
  486MPD2     C 7277   1.487   3.579  13.621 -0.3054  0.7698  1.1775
  486MPD2    C1 7278   1.423   3.538  13.507  0.2525  0.1458  0.0049
  486MPD2    C2 7279   1.363   3.639  13.432  0.8093 -0.4437 -0.2263
  486MPD2    C3 7280   1.351   3.770  13.477 -0.2893  0.0318 -0.3169
  486MPD2    C4 7281   1.422   3.806  13.591 -0.4163  0.4853 -0.2116
  486MPD2    C5 7282   1.483   3.711  13.659  0.5561  0.1208 -0.6533
  486MPD2     H 7283   1.295   3.612  13.352  0.1328 -0.4806  0.3583
  486MPD2    H1 7284   1.421   3.907  13.630 -2.1806  0.1155  0.6961
  486MPD2    H2 7285   1.536   3.512  13.691  0.6098  0.7148  0.4776
  486MPD2    H3 7286   1.533   3.748  13.749  0.4943  1.2405 -1.0803
  486MPD2     N 7287   1.276   3.863  13.399  0.3014  0.6651  0.8201
  486MPD2    H5 7288   1.230   3.828  13.315  1.4436 -0.2992  0.5921
  486MPD2    N1 7289   1.405   3.397  13.475 -0.0434  0.7550 -0.3737
  486MPD2    H7 7290   1.453   3.336  13.541 -1.3849 -1.2307 -1.2491
  487TMC3    C1 7291   1.335   3.194  13.362  0.1463  0.1120 -0.4781
  487TMC3    C2 7292   1.295   3.141  13.241  0.3134 -0.2103 -0.0286
  487TMC3    C3 7293   1.290   3.005  13.234 -0.4694 -0.3158 -0.1444
  487TMC3    C4 7294   1.379   3.121  13.468  0.7003  0.3937 -0.1694
  487TMC3    C5 7295   1.359   2.988  13.455 -0.5521  0.2199 -1.0186
  487TMC3    C6 7296   1.309   2.933  13.344  0.4552  0.2401  0.4267
  487TMC3     C 7297   1.339   3.333  13.363  0.2143 -0.2589 -0.4071
  487TMC3     O 7298   1.274   3.386  13.275  0.2101 -0.0729  0.0983
  487TMC3     H 7299   1.269   3.199  13.154  0.3785  0.8756  0.6733
  487TMC3    H1 7300   1.403   3.169  13.563 -0.3565  3.0460 -1.2481
  487TMC3    H2 7301   1.333   2.828  13.334 -1.4626 -0.1767  0.1275
  487TMC3    C7 7302   1.333   2.924  13.582  0.7389  0.0068 -0.7532
  487TMC3    C8 7303   1.231   2.944  13.119 -0.6921  0.2008 -0.2822
  487TMC3    O1 7304   1.404   2.959  13.672 -0.2965  0.3355 -0.4199
  487TMC3    O2 7305   1.158   3.012  13.040  0.3396 -0.6461 -0.7073
  488MPD2     C 7306   1.827   4.733  16.124  0.5226 -0.3941  0.4601
  488MPD2    C1 7307   1.893   0.092  16.193 -0.3755 -0.0099 -0.0074
  488MPD2    C2 7308   1.923   0.063  16.325  0.2860 -0.4738 -0.1312
  488MPD2    C3 7309   1.898   4.676  16.375 -1.0601  0.3724  1.0152
  488MPD2    C4 7310   1.827   4.585  16.299  0.3988  0.4608 -0.3017
  488MPD2    C5 7311   1.782   4.618  16.177  0.8472 -0.0521  0.1622
  488MPD2     H 7312   1.983   0.135  16.379  1.6844  0.3573 -2.8225
  488MPD2    H1 7313   1.798   4.488  16.339  0.0412  1.1524  1.1334
  488MPD2    H2 7314   1.809   0.017  16.018  1.8379 -1.9936 -0.0504
  488MPD2    H3 7315   1.725   4.547  16.119  2.8603 -0.7618 -0.9441
  488MPD2     N 7316   1.938   4.656  16.510 -0.1427  0.0816 -0.4490
  488MPD2    H5 7317   1.986   0.002  16.548  0.7501 -0.0262 -1.3669
  488MPD2    N1 7318   1.939   0.213  16.145 -0.0339  0.6359 -0.1607
  488MPD2    H7 7319   1.995   0.263  16.214  1.8083 -0.2758 -0.9844
  489TMC3    C1 7320   1.914   4.573  16.730 -0.4181  0.0611 -0.1692
  489TMC3    C2 7321   1.973   4.690  16.770  0.3429  0.8227  0.0378
  489TMC3    C3 7322   1.922   0.017  16.883  0.1885  0.1061  0.0813
  489TMC3    C4 7323   1.831   4.502  16.813  0.2221 -0.6903  0.1122
  489TMC3    C5 7324   1.789   4.571  16.932  0.4698  0.4323  0.0579
  489TMC3    C6 7325   1.831   4.692  16.968 -0.9262  0.0551  0.2215
  489TMC3     C 7326   1.893   4.549  16.592  0.0025  0.3107  0.1016
  489TMC3     O 7327   1.809   4.465  16.565 -0.3132 -0.1274 -0.3608
  489TMC3     H 7328   2.045   0.012  16.714 -0.4005  0.0478 -1.7316
  489TMC3    H1 7329   1.796   4.401  16.797  0.3804 -0.0900 -4.1198
  489TMC3    H2 7330   1.779   0.008  17.048 -0.9587  1.1733 -0.5322
  489TMC3    C7 7331   1.701   4.508  17.023  0.5458 -0.1045  0.3830
  489TMC3    C8 7332   1.949   0.160  16.893  0.0022 -0.3494  0.1535
  489TMC3    O1 7333   1.724   4.544  17.138 -0.2372  0.2243 -0.3052
  489TMC3    O2 7334   1.988   0.220  16.793 -0.5110 -0.4825  0.7390
  490MPD2     C 7335   2.677   4.651  16.682 -1.1177  0.2277  0.2035
  490MPD2    C1 7336   2.704   4.604  16.813  0.5156  0.8463 -0.2855
  490MPD2    C2 7337   2.779   4.680  16.905  0.8169  0.4825  0.3550
  490MPD2    C3 7338   2.841   0.064  16.858 -0.5112 -0.6639  0.1113
  490MPD2    C4 7339   2.816   0.111  16.731  0.1597 -0.1671 -0.0597
  490MPD2    C5 7340   2.735   0.036  16.643  0.1122 -0.2404  0.5968
  490MPD2     H 7341   2.789   4.645  17.008 -0.7904 -0.9827  0.0103
  490MPD2    H1 7342   2.864   0.204  16.700 -3.2543  0.4479 -3.4497
  490MPD2    H2 7343   2.609   4.600  16.614 -0.9955 -0.9419  0.9541
  490MPD2    H3 7344   2.714   0.079  16.546  2.8022 -3.8608 -1.5987
  490MPD2     N 7345   2.929   0.142  16.937  0.2966  0.2818 -0.8243
  490MPD2    H5 7346   2.964   0.232  16.906 -1.5699  1.8074  1.5000
  490MPD2    N1 7347   2.648   4.487  16.861 -0.7659 -0.1680 -0.3178
  490MPD2    H7 7348   2.677   4.461  16.955 -2.7922  0.9308  0.6044
  491TMC3    C1 7349   2.500   4.308  16.893 -0.2926  0.0672  0.7477
  491TMC3    C2 7350   2.483   4.340  17.026  0.4998  0.1235  0.1376
  491TMC3    C3 7351   2.429   4.247  17.106 -0.0478 -0.3161 -0.6671
  491TMC3    C4 7352   2.472   4.186  16.839  0.1586  0.1355 -0.4507
  491TMC3    C5 7353   2.431   4.091  16.927 -0.3941  0.8823 -0.3307
  491TMC3    C6 7354   2.407   4.122  17.058 -0.1084 -0.4071 -0.0200
  491TMC3     C 7355   2.562   4.403  16.794  0.6508  0.1215 -0.9017
  491TMC3     O 7356   2.528   4.393  16.677 -0.3041  0.1005  0.0274
  491TMC3     H 7357   2.504   4.440  17.063  1.3620  0.3281 -0.8942
  491TMC3    H1 7358   2.458   4.175  16.732  2.0802 -0.3358 -0.6592
  491TMC3    H2 7359   2.372   4.054  17.135 -0.1054  0.4002  0.6926
  491TMC3    C7 7360   2.384   3.963  16.884  0.6952  0.2381 -0.2708
  491TMC3    C8 7361   2.387   4.289  17.240  0.6118 -0.6422 -0.1379
  491TMC3    O1 7362   2.320   3.953  16.775 -0.5548 -0.7204 -0.1471
  491TMC3    O2 7363   2.356   4.191  17.310 -0.0875  0.4605  0.6036
  492MPD2     C 7364   2.067   3.546  10.868 -0.2608  0.5833  1.0009
  492MPD2    C1 7365   2.165   3.639  10.891  0.5057  0.3966 -0.2768
  492MPD2    C2 7366   2.206   3.662  11.020  0.1651 -0.0413 -0.4175
  492MPD2    C3 7367   2.154   3.588  11.122  0.9089  0.6685 -0.2085
  492MPD2    C4 7368   2.077   3.480  11.091  0.1100  0.1425 -0.5955
  492MPD2    C5 7369   2.024   3.470  10.969  0.4531  0.4742 -0.5447
  492MPD2     H 7370   2.281   3.739  11.036  0.0780 -0.7353  3.3209
  492MPD2    H1 7371   2.040   3.410  11.165 -0.5928 -0.2557 -1.3159
  492MPD2    H2 7372   2.026   3.534  10.769  2.4023  1.2374 -0.1901
  492MPD2    H3 7373   1.962   3.382  10.960  1.4825 -0.2661 -0.3423
  492MPD2     N 7374   2.188   3.612  11.254 -0.0650 -0.8053 -0.5661
  492MPD2    H5 7375   2.132   3.563  11.322  1.6196 -0.9456  0.7189
  492MPD2    N1 7376   2.228   3.696  10.782 -0.5367  0.4638 -0.3790
  492MPD2    H7 7377   2.195   3.665  10.691  1.2288  1.8086 -1.4938
  493TMC3    C1 7378   2.349   3.859  10.652  0.3664  0.2523 -0.0087
  493TMC3    C2 7379   2.458   3.946  10.665 -0.0082 -0.6487 -0.1149
  493TMC3    C3 7380   2.444   4.076  10.613  0.2947  0.0727 -0.1141
  493TMC3    C4 7381   2.238   3.888  10.583 -0.3861  0.4843  0.3565
  493TMC3    C5 7382   2.237   4.013  10.525  0.1614  0.5161  0.2182
  493TMC3    C6 7383   2.336   4.111  10.539 -0.5594 -0.7532  0.8380
  493TMC3     C 7384   2.328   3.795  10.784  0.7605 -0.1397 -0.6540
  493TMC3     O 7385   2.400   3.832  10.873  0.3339  0.1314 -0.0773
  493TMC3     H 7386   2.537   3.920  10.735  0.6847 -1.6016 -1.2595
  493TMC3    H1 7387   2.148   3.827  10.594 -0.9547  1.2009 -0.3338
  493TMC3    H2 7388   2.322   4.215  10.509  0.5460 -0.2068  2.1808
  493TMC3    C7 7389   2.144   4.026  10.417 -0.0608 -0.4490 -0.1670
  493TMC3    C8 7390   2.522   4.175  10.681 -0.1616  0.0335 -0.2025
  493TMC3    O1 7391   2.085   4.129  10.386 -0.3716 -0.5063  0.0320
  493TMC3    O2 7392   2.585   4.136  10.777  0.1635  0.4643  0.4150
  494TMC3    C1 7393   3.117   1.582   0.304 -0.6403  0.0462 -0.4688
  494TMC3    C2 7394   3.148   1.446   0.310 -0.3046 -0.4653  0.3865
  494TMC3    C3 7395   3.170   1.374   0.195 -0.0106  0.2490 -0.5508
  494TMC3    C4 7396   3.152   1.649   0.190 -0.5917  0.1655 -0.1979
  494TMC3    C5 7397   3.213   1.578   0.090  0.8839 -0.0780  1.2892
  494TMC3    C6 7398   3.209   1.438   0.081 -0.4978 -0.3836  0.7201
  494TMC3     C 7399   3.166   1.663   0.410  0.1224  0.0791 -0.5107
  494TMC3     O 7400   3.273   1.627   0.464  0.8160 -0.0433 -0.2775
  494TMC3     H 7401   3.112   1.394   0.399 -0.5838 -0.8449  0.0507
  494TMC3    H1 7402   3.150   1.757   0.174  1.2598  0.6024  2.4564
  494TMC3    H2 7403   3.238   1.397  17.727  2.3806  0.0174  1.4146
  494TMC3    C7 7404   3.285   1.650  17.723  0.5388 -0.8259  0.4323
  494TMC3    C8 7405   3.193   1.231   0.202 -0.6797  0.1959 -0.4519
  494TMC3    O1 7406   3.328   1.575  17.637 -0.6026  0.5345  0.7019
  494TMC3    O2 7407   3.158   1.177   0.306  0.1716 -0.4508  0.1483
  495TMC3    C1 7408   2.375   3.719  14.843  0.2192 -0.5165  0.1394
  495TMC3    C2 7409   2.295   3.743  14.735  0.3282 -0.4232 -0.1210
  495TMC3    C3 7410   2.165   3.782  14.742 -0.3228  0.1745  0.3328
  495TMC3    C4 7411   2.313   3.734  14.963  0.1496 -0.2026 -0.4743
  495TMC3    C5 7412   2.182   3.779  14.977  0.1083  0.0919 -0.2774
  495TMC3    C6 7413   2.109   3.810  14.869 -0.4032  0.7096 -0.2333
  495TMC3     C 7414   2.494   3.629  14.830 -0.5599 -0.1896  0.5165
  495TMC3     O 7415   2.574   3.645  14.736 -0.4842 -0.4284  0.3331
  495TMC3     H 7416   2.338   3.706  14.642 -1.2098 -2.2845 -0.0937
  495TMC3    H1 7417   2.369   3.710  15.053  0.4415 -0.4461 -0.7242
  495TMC3    H2 7418   2.005   3.840  14.879 -0.4983  0.1678  0.3947
  495TMC3    C7 7419   2.121   3.737  15.102  0.4602 -0.0275  0.0191
  495TMC3    C8 7420   2.072   3.753  14.637  0.6437  0.1088 -0.0464
  495TMC3    O1 7421   2.189   3.737  15.205 -0.0855 -0.2808 -0.0271
  495TMC3    O2 7422   1.952   3.761  14.664  0.0341 -0.5344  0.1145
  496MPD2     C 7423   4.725   3.664  15.747  0.7481  0.7276  0.2874
  496MPD2    C1 7424   4.633   3.671  15.638 -0.2228 -0.1965 -0.1688
  496MPD2    C2 7425   4.497   3.664  15.659 -0.4516  0.1167 -0.2413
  496MPD2    C3 7426   4.451   3.694  15.789 -0.3674 -0.0980 -0.4147
  496MPD2    C4 7427   4.544   3.685  15.895  0.4689 -0.4661  0.6019
  496MPD2    C5 7428   4.677   3.657  15.878 -0.0722  1.0037  0.3596
  496MPD2     H 7429   4.429   3.638  15.579 -1.6963 -1.1957  1.2524
  496MPD2    H1 7430   4.517   3.690  16.000  0.1434 -0.2999  0.5124
  496MPD2    H2 7431   0.093   3.644  15.724  0.4733 -0.6315  0.2521
  496MPD2    H3 7432   0.006   3.636  15.962 -1.3514 -0.1176  1.0628
  496MPD2     N 7433   4.311   3.715  15.821  0.6393 -0.6434  0.2650
  496MPD2    H5 7434   4.288   3.733  15.918  2.6432  1.0712  0.4224
  496MPD2    N1 7435   4.691   3.675  15.508  0.3979  0.1343 -0.8606
  496MPD2    H7 7436   0.054   3.694  15.519 -0.0553  1.7135  0.5726
  497TMC3    C1 7437   4.094   3.788  15.817 -0.0436 -0.1366 -0.4315
  497TMC3    C2 7438   4.003   3.869  15.762 -0.5368 -0.0017 -0.5359
  497TMC3    C3 7439   3.894   3.908  15.830 -0.8778 -0.2681 -0.0641
  497TMC3    C4 7440   4.081   3.750  15.946 -0.7025  0.4516  1.0952
  497TMC3    C5 7441   3.979   3.796  16.017 -0.3219 -0.2093  0.0179
  497TMC3    C6 7442   3.881   3.875  15.965  0.1325 -1.0449  0.1570
  497TMC3     C 7443   4.200   3.740  15.739 -0.3794  0.5627  0.1568
  497TMC3     O 7444   4.190   3.729  15.618 -0.3004 -0.4783 -0.4268
  497TMC3     H 7445   4.005   3.885  15.654 -1.1365  0.0169 -0.5437
  497TMC3    H1 7446   4.140   3.666  15.981 -3.1454 -1.8962 -0.3165
  497TMC3    H2 7447   3.804   3.917  16.028  0.4050 -0.2162 -0.0543
  497TMC3    C7 7448   3.917   3.702  16.105 -0.1445 -0.2244  0.0829
  497TMC3    C8 7449   3.775   3.880  15.752 -0.4446 -0.5542  0.1723
  497TMC3    O1 7450   3.798   3.691  16.089 -0.3627 -0.2007  0.0633
  497TMC3    O2 7451   3.775   3.906  15.635 -0.0962 -0.6220  0.2933
  498MPD2     C 7452   0.278   3.739   9.620 -0.4060 -0.3838 -0.1464
  498MPD2    C1 7453   0.213   3.860   9.643  0.2239  0.2962 -0.1814
  498MPD2    C2 7454   0.093   3.857   9.709 -0.1864 -0.1611 -0.0032
  498MPD2    C3 7455   0.024   3.739   9.734 -0.7298 -0.4919  0.0554
  498MPD2    C4 7456   0.088   3.625   9.698  0.1308 -0.3733  0.8014
  498MPD2    C5 7457   0.216   3.623   9.647 -0.4734  0.2586  0.5669
  498MPD2     H 7458   0.050   3.950   9.744 -1.3327 -1.5855  2.3090
  498MPD2    H1 7459   0.036   3.531   9.707 -0.7428  0.0550  0.2413
  498MPD2    H2 7460   0.377   3.735   9.575 -1.0210 -1.3736 -1.4300
  498MPD2    H3 7461   0.270   3.531   9.626  0.0428  0.3772  1.3577
  498MPD2     N 7462   4.624   3.745   9.784 -0.0815 -0.3604 -0.7512
  498MPD2    H5 7463   4.600   3.839   9.813 -0.3321 -1.2337  1.8975
  498MPD2    N1 7464   0.276   3.978   9.622 -0.3488  0.7111 -0.2215
  498MPD2    H7 7465   0.231   4.058   9.666 -0.2484 -0.6681  2.3741
  499TMC3    C1 7466   0.453   4.141   9.590  0.3435  0.2044 -0.4668
  499TMC3    C2 7467   0.576   4.162   9.655  1.2135  0.2410 -0.1117
  499TMC3    C3 7468   0.600   4.299   9.677  0.2825 -0.1071  0.3059
  499TMC3    C4 7469   0.358   4.233   9.571  0.2400  0.1453  0.2856
  499TMC3    C5 7470   0.388   4.364   9.593  0.1470 -0.5361  0.2105
  499TMC3    C6 7471   0.513   4.399   9.639 -0.2317 -0.2807 -0.9679
  499TMC3     C 7472   0.411   4.002   9.578 -0.0010  1.1782 -0.1716
  499TMC3     O 7473   0.503   3.923   9.564 -1.1170 -0.2718 -0.3459
  499TMC3     H 7474   0.641   4.080   9.685  1.8712  1.2005  1.1353
  499TMC3    H1 7475   0.265   4.198   9.527 -0.0931  0.6297  0.6024
  499TMC3    H2 7476   0.531   4.505   9.650 -3.0170  0.2088 -1.1232
  499TMC3    C7 7477   0.315   4.468   9.526  0.1609 -0.1397  0.3389
  499TMC3    C8 7478   0.735   4.349   9.685  0.5059  0.5696 -1.3037
  499TMC3    O1 7479   0.389   4.540   9.457 -0.3808  0.5920  0.0742
  499TMC3    O2 7480   0.756   4.464   9.655  0.0088  0.4243 -0.5941
  500MPD2     C 7481   1.312   4.489  10.185 -0.5940  0.3459 -0.9510
  500MPD2    C1 7482   1.315   4.622  10.211 -1.0660  0.1241 -0.5609
  500MPD2    C2 7483   1.234   4.704  10.133 -0.0514 -0.1027 -1.2901
  500MPD2    C3 7484   1.153   4.652  10.031  0.4718  0.0073  0.1952
  500MPD2    C4 7485   1.147   4.520  10.016 -0.2993  0.5421 -0.2922
  500MPD2    C5 7486   1.224   4.438  10.090 -0.5582 -0.7832 -0.2092
  500MPD2     H 7487   1.227   0.072  10.164  2.0471 -0.8234  1.5868
  500MPD2    H1 7488   1.067   4.479   9.955 -0.0474 -1.5869  0.8113
  500MPD2    H2 7489   1.365   4.423  10.252 -0.6099  0.8502 -0.4461
  500MPD2    H3 7490   1.199   4.332  10.091  1.3031 -1.2325  0.7025
  500MPD2     N 7491   1.058   0.004   9.978  0.0810  0.2649  0.0535
  500MPD2    H5 7492   0.988   4.695   9.921 -1.2571  1.9569  0.3536
  500MPD2    N1 7493   1.394   4.678  10.311  0.0976  0.0227  0.2855
  500MPD2    H7 7494   1.389   0.043  10.322 -0.0806  0.0933 -0.4659
  501TMC3    C1 7495   1.561   4.706  10.478  0.5153 -0.4364 -0.4363
  501TMC3    C2 7496   1.566   0.105  10.446  0.0271 -0.1697 -0.6715
  501TMC3    C3 7497   1.685   0.159  10.481  0.0756 -0.8351  0.3718
  501TMC3    C4 7498   1.652   4.646  10.556  0.0285  0.7586 -0.3154
  501TMC3    C5 7499   1.761   4.711  10.601  0.2373 -0.1123  0.3232
  501TMC3    C6 7500   1.786   0.097  10.555  0.7928  0.0914 -0.2555
  501TMC3     C 7501   1.470   4.616  10.403 -0.5189  0.2106 -0.1367
  501TMC3     O 7502   1.481   4.498  10.432  0.2652  0.0047 -0.0112
  501TMC3     H 7503   1.484   0.151  10.392 -0.4036 -1.9790 -1.5660
  501TMC3    H1 7504   1.628   4.545  10.587 -1.9403  0.6399 -2.2219
  501TMC3    H2 7505   1.883   0.145  10.555  0.6986  0.2829 -0.1148
  501TMC3    C7 7506   1.859   4.641  10.681  0.6622 -0.6499  0.1804
  501TMC3    C8 7507   1.694   0.307  10.469 -0.3230  0.4130 -0.5050
  501TMC3    O1 7508   1.843   4.521  10.697 -0.1190 -0.2843  0.3107
  501TMC3    O2 7509   1.778   0.359  10.545 -0.0384 -0.1546 -0.0740
  502TMC3    C1 7510   1.435   4.495  14.955 -0.8531 -0.0439 -0.0876
  502TMC3    C2 7511   1.398   4.612  14.899 -0.4327  0.4760  0.3038
  502TMC3    C3 7512   1.268   4.641  14.860  0.4633 -0.4623 -0.1561
  502TMC3    C4 7513   1.339   4.406  14.975  0.2304 -0.1714  0.1400
  502TMC3    C5 7514   1.212   4.436  14.938  0.8825  0.3977 -0.4023
  502TMC3    C6 7515   1.168   4.552  14.887 -0.6472  0.7577 -0.4960
  502TMC3     C 7516   1.542   4.489  15.045  0.2699 -0.3657  0.4575
  502TMC3     O 7517   1.646   4.547  15.021  0.0897  0.1714  0.0108
  502TMC3     H 7518   1.480   4.683  14.891  0.1823 -0.6605 -3.7867
  502TMC3    H1 7519   1.364   4.311  15.020 -1.3434 -0.3284  0.6926
  502TMC3    H2 7520   1.069   4.559  14.843 -0.8027  1.1474 -0.0753
  502TMC3    C7 7521   1.117   4.340  14.983  0.5431 -0.6656 -0.0302
  502TMC3    C8 7522   1.249   0.046  14.837  0.3518 -1.2128 -0.0211
  502TMC3    O1 7523   1.153   4.224  14.994 -0.3201  0.1136 -0.1045
  502TMC3    O2 7524   1.343   0.115  14.800 -0.3525  0.0834  0.1440
  503MPD2     C 7525   3.611   0.476  16.751 -0.6351 -0.9216  0.0355
  503MPD2    C1 7526   3.627   0.489  16.890  0.1578  0.4136 -0.7604
  503MPD2    C2 7527   3.691   0.378  16.949  1.4089  0.1583  0.4918
  503MPD2    C3 7528   3.740   0.274  16.879  0.0662 -0.3308  1.4727
  503MPD2    C4 7529   3.727   0.267  16.742 -0.3074  0.9538  0.4363
  503MPD2    C5 7530   3.657   0.372  16.677 -1.0077 -0.0478 -0.1070
  503MPD2     H 7531   3.697   0.394  17.056  1.3995 -0.3699  0.5691
  503MPD2    H1 7532   3.752   0.182  16.680 -1.4068 -0.6774  2.2651
  503MPD2    H2 7533   3.574   0.556  16.688  0.6553  0.7438  1.3962
  503MPD2    H3 7534   3.632   0.369  16.572  0.3494 -0.8833 -0.4126
  503MPD2     N 7535   3.799   0.171  16.958  0.7770 -0.4658  1.1614
  503MPD2    H5 7536   3.799   0.192  17.057  2.6978 -0.0939  1.0725
  503MPD2    N1 7537   3.595   0.600  16.968 -0.2469  0.3910  0.5359
  503MPD2    H7 7538   3.634   0.595  17.061  1.1517  1.6147  0.0177
  504TMC3    C1 7539   3.894   4.708  17.013  0.2028  0.5119  0.5506
  504TMC3    C2 7540   3.836   4.702  17.135 -0.9507  0.0980  0.4832
  504TMC3    C3 7541   3.896   4.624  17.230  0.3399 -0.0875 -0.4073
  504TMC3    C4 7542   3.996   4.623  16.984  0.3684  0.3685 -0.0521
  504TMC3    C5 7543   4.052   4.548  17.081 -0.2627  0.6965 -0.1549
  504TMC3    C6 7544   4.009   4.549  17.211  0.0981  0.4369  0.9725
  504TMC3     C 7545   3.833   0.046  16.907 -0.7102  0.0992  0.6907
  504TMC3     O 7546   3.845   4.735  16.795 -0.4340 -0.0721 -0.2409
  504TMC3     H 7547   3.748   0.025  17.160 -0.4429  1.0804 -0.0223
  504TMC3    H1 7548   4.038   4.625  16.884  1.4140  0.7350  0.3960
  504TMC3    H2 7549   4.035   4.473  17.284 -2.4462 -0.9078  0.4946
  504TMC3    C7 7550   4.167   4.471  17.042 -0.2468 -0.5096 -0.1846
  504TMC3    C8 7551   3.846   4.647  17.367 -0.3433  0.5721 -0.5717
  504TMC3    O1 7552   4.182   4.467  16.919  0.6032  0.5743  0.2693
  504TMC3    O2 7553   3.744   4.720  17.384  0.5843 -0.1983  0.0025
  505MPD2     C 7554   3.579   4.107   9.694  0.3649  0.6855  0.9580
  505MPD2    C1 7555   3.500   4.090   9.806 -0.5629 -0.2654  0.1454
  505MPD2    C2 7556   3.527   4.175   9.913  0.2324 -0.4216 -0.0754
  505MPD2    C3 7557   3.632   4.257   9.909 -0.1838  0.5632  0.5507
  505MPD2    C4 7558   3.715   4.271   9.798  0.2004 -0.7905 -0.2012
  505MPD2    C5 7559   3.679   4.196   9.691  0.4942 -0.3770  0.0847
  505MPD2     H 7560   3.461   4.171   9.999  0.1332 -1.2683 -0.1925
  505MPD2    H1 7561   3.799   4.339   9.795 -1.4658  1.2968 -0.0055
  505MPD2    H2 7562   3.561   4.045   9.607  0.1482  1.7921  0.2233
  505MPD2    H3 7563   3.739   4.205   9.602 -1.7333 -2.4382 -1.6078
  505MPD2     N 7564   3.658   4.338  10.027  0.4184 -0.4139  0.5560
  505MPD2    H5 7565   3.604   4.319  10.111  0.1607 -1.5615  0.1314
  505MPD2    N1 7566   3.410   3.981   9.804  0.5560  0.5842  0.0572
  505MPD2    H7 7567   3.410   3.918   9.724  2.1397  0.5182  0.1243
  506TMC3    C1 7568   3.267   3.827   9.900  0.0356 -0.0604  0.7094
  506TMC3    C2 7569   3.355   3.720   9.893 -0.0572 -0.0315 -0.0296
  506TMC3    C3 7570   3.323   3.608   9.965  0.1184  0.0611 -0.0426
  506TMC3    C4 7571   3.160   3.816   9.996  0.0418  0.0787 -0.0859
  506TMC3    C5 7572   3.148   3.711  10.078 -0.7796 -0.4497 -0.7568
  506TMC3    C6 7573   3.220   3.598  10.053  0.2443 -1.0509  1.0342
  506TMC3     C 7574   3.325   3.962   9.906 -0.4347  0.0714  0.1881
  506TMC3     O 7575   3.292   4.035   9.997  0.5027 -0.1010  0.6466
  506TMC3     H 7576   3.441   3.719   9.826 -0.2318  1.3699 -0.2737
  506TMC3    H1 7577   3.102   3.906  10.011  2.4132  2.0980 -3.0036
  506TMC3    H2 7578   3.194   3.510  10.110 -1.0636 -2.3221 -1.5253
  506TMC3    C7 7579   3.141   3.747  10.220 -0.5160 -0.5444 -0.1171
  506TMC3    C8 7580   3.408   3.489   9.972  0.6165 -0.1144 -0.1405
  506TMC3    O1 7581   3.114   3.651  10.298 -0.5290 -0.2822  0.0520
  506TMC3    O2 7582   3.360   3.384  10.010 -0.3342  0.4055 -0.4571
  507TMC3    C1 7583   4.397   4.607  15.014  0.2622 -0.8457 -0.0374
  507TMC3    C2 7584   4.266   4.599  15.059  0.2573  1.1761 -0.6231
  507TMC3    C3 7585   4.169   4.640  14.974 -0.2902 -0.3486 -0.5955
  507TMC3    C4 7586   4.435   4.678  14.903 -0.0490  0.1827  0.1675
  507TMC3    C5 7587   4.334   4.718  14.826 -0.1701  0.5152  0.8192
  507TMC3    C6 7588   4.200   4.700  14.856 -0.3963 -0.4093  0.0776
  507TMC3     C 7589   4.504   4.553  15.098 -0.1331  0.3777 -0.3466
  507TMC3     O 7590   4.610   4.532  15.043 -0.3461  0.2190  0.0277
  507TMC3     H 7591   4.229   4.555  15.151 -0.9999  1.4969 -0.9788
  507TMC3    H1 7592   4.540   4.694  14.881 -0.3722  0.6089 -1.0652
  507TMC3    H2 7593   4.123   0.001  14.789 -1.4510 -1.1272  0.8872
  507TMC3    C7 7594   4.354   0.119  14.780  0.1973 -0.5072 -0.3734
  507TMC3    C8 7595   4.062   4.709  15.041 -0.5977 -0.6938  0.0992
  507TMC3    O1 7596   4.267   0.202  14.812  0.4626 -0.0736  0.0066
  507TMC3    O2 7597   4.003   4.660  15.136 -0.3566 -0.3976  0.3015
  508MPD2     C 7598   1.211   1.730  15.870 -0.1050 -0.1053  0.0436
  508MPD2    C1 7599   1.142   1.833  15.928  0.0704  0.3312  0.2741
  508MPD2    C2 7600   1.048   1.904  15.853 -0.2368 -0.8950 -0.8222
  508MPD2    C3 7601   1.035   1.889  15.719 -0.2673  0.5012  0.8098
  508MPD2    C4 7602   1.095   1.780  15.666  0.3321  0.5049  0.8492
  508MPD2    C5 7603   1.176   1.697  15.736  0.0893 -0.1113 -0.1586
  508MPD2     H 7604   0.998   1.992  15.893  1.9999 -0.3821  0.8493
  508MPD2    H1 7605   1.092   1.766  15.559  0.1968 -0.5410  0.9914
  508MPD2    H2 7606   1.283   1.666  15.919 -1.0240  0.4598  2.1443
  508MPD2    H3 7607   1.221   1.611  15.688  1.0440 -0.8596  2.0678
  508MPD2     N 7608   0.978   1.993  15.642  0.3372 -0.3377  0.0343
  508MPD2    H5 7609   0.946   2.074  15.694  0.8250  1.7726 -2.9684
  508MPD2    N1 7610   1.171   1.872  16.061 -0.2140 -0.3089 -0.7966
  508MPD2    H7 7611   1.256   1.829  16.096 -1.9163 -2.0914  1.1910
  509TMC3    C1 7612   0.990   2.294  15.291 -0.3639  0.4691 -0.2372
  509TMC3    C2 7613   1.005   2.402  15.376  0.0307  0.1738 -0.2878
  509TMC3    C3 7614   1.016   2.375  15.505 -0.5376 -0.0648  0.2488
  509TMC3    C4 7615   0.985   2.162  15.330  0.0807  0.5659 -0.5952
  509TMC3    C5 7616   0.976   2.147  15.470  0.2533 -0.6387 -0.0666
  509TMC3    C6 7617   0.997   2.249  15.555  0.2381  0.2594  0.8944
  509TMC3     C 7618   0.974   2.302  15.145  0.1543  0.1610 -0.8198
  509TMC3     O 7619   1.008   2.205  15.081  0.2419 -0.3890  0.2109
  509TMC3     H 7620   1.031   2.497  15.332  0.2152 -0.5307 -1.7248
  509TMC3    H1 7621   0.983   2.080  15.259 -1.9985 -0.2801  0.4344
  509TMC3    H2 7622   0.996   2.226  15.661  1.4314 -0.2889  0.7765
  509TMC3    C7 7623   0.980   2.007  15.506  0.0348  0.3705 -0.1522
  509TMC3    C8 7624   1.034   2.477  15.603 -0.7354 -0.7364 -0.1796
  509TMC3    O1 7625   0.971   1.913  15.427  0.0871 -0.6277  0.0218
  509TMC3    O2 7626   1.012   2.438  15.717 -0.1611 -0.0700  0.3615
  510MPD2     C 7627   3.278   4.069  14.587 -0.2229 -0.0209 -0.1377
  510MPD2    C1 7628   3.368   3.983  14.631  0.6224 -0.0289  0.6269
  510MPD2    C2 7629   3.485   3.962  14.558 -0.6893 -0.9483 -0.5626
  510MPD2    C3 7630   3.504   4.017  14.432  0.0710 -1.0504 -0.1101
  510MPD2    C4 7631   3.403   4.092  14.381  0.0768  0.8660 -0.9265
  510MPD2    C5 7632   3.291   4.114  14.456  0.9249 -0.0343 -0.3650
  510MPD2     H 7633   3.572   3.907  14.592  1.2981  1.8468 -1.1087
  510MPD2    H1 7634   3.413   4.130  14.280  1.2679 -0.1807 -1.2043
  510MPD2    H2 7635   3.185   4.078  14.643 -0.6792  0.9330 -1.0496
  510MPD2    H3 7636   3.211   4.169  14.409  0.0018 -0.6421  0.4743
  510MPD2     N 7637   3.620   3.977  14.368  0.2272  0.1469  0.4676
  510MPD2    H5 7638   3.682   3.918  14.421 -0.6150 -0.0337  1.2552
  510MPD2    N1 7639   3.353   3.927  14.762  0.2618 -0.1504 -0.1658
  510MPD2    H7 7640   3.281   3.956  14.827 -0.7137 -1.8446 -0.4624
  511TMC3    C1 7641   3.335   3.746  14.913 -0.0641  0.2689 -0.2161
  511TMC3    C2 7642   3.258   3.817  15.003  0.5389  0.1697  0.6516
  511TMC3    C3 7643   3.176   3.753  15.088  0.0252  0.0755 -0.3315
  511TMC3    C4 7644   3.319   3.614  14.894 -0.9117 -0.1421 -0.4905
  511TMC3    C5 7645   3.238   3.549  14.982  0.1298 -0.1800 -1.3669
  511TMC3    C6 7646   3.162   3.615  15.076 -0.2634 -1.3183  0.9318
  511TMC3     C 7647   3.419   3.807  14.803  0.7476 -0.0023 -0.0251
  511TMC3     O 7648   3.485   3.733  14.728 -0.0097  0.0999  0.0287
  511TMC3     H 7649   3.272   3.925  15.012  3.3551 -0.0162 -1.3192
  511TMC3    H1 7650   3.371   3.553  14.820  0.7865 -0.4791  0.9675
  511TMC3    H2 7651   3.075   3.576  15.127  1.4102 -2.1201  3.2299
  511TMC3    C7 7652   3.187   3.422  14.930  0.5018  0.5449  0.2819
  511TMC3    C8 7653   3.131   3.821  15.213 -0.0320 -0.5202 -0.0534
  511TMC3    O1 7654   3.225   3.400  14.814  0.2167 -0.2832 -0.0998
  511TMC3    O2 7655   3.146   3.944  15.220 -0.0596 -0.0237  0.0528
  512TMC3    C1 7656   2.762   3.260  12.851 -0.1286  0.0524  0.4540
  512TMC3    C2 7657   2.689   3.260  12.964 -0.0178  0.8743 -0.4398
  512TMC3    C3 7658   2.638   3.144  13.004  0.5157  0.2723  0.2617
  512TMC3    C4 7659   2.799   3.149  12.778 -0.2996  0.3143  0.0144
  512TMC3    C5 7660   2.739   3.033  12.824  0.4833 -0.0948 -0.1080
  512TMC3    C6 7661   2.667   3.023  12.936  0.3123  0.0403 -0.3102
  512TMC3     C 7662   2.807   3.385  12.796  0.0386  0.4935 -0.3227
  512TMC3     O 7663   2.912   3.388  12.733  0.5670 -0.2137 -0.3185
  512TMC3     H 7664   2.665   3.352  13.015  0.5334  0.0531  1.3007
  512TMC3    H1 7665   2.833   3.163  12.676 -1.0651  0.1033 -0.2667
  512TMC3    H2 7666   2.645   2.930  12.988  0.5305  1.1394  1.7459
  512TMC3    C7 7667   2.814   2.915  12.785  0.6716 -0.3806  0.3262
  512TMC3    C8 7668   2.552   3.130  13.125 -0.4954 -0.7999  0.2618
  512TMC3    O1 7669   2.919   2.943  12.728  0.2141 -0.3799 -0.2068
  512TMC3    O2 7670   2.491   3.026  13.135 -0.1919 -0.4050  0.6732
  513MPD2     C 7671   4.224   3.774  12.565  0.1388 -0.1664 -0.0634
  513MPD2    C1 7672   4.126   3.685  12.547 -0.1489  0.3902  0.1523
  513MPD2    C2 7673   4.103   3.601  12.651 -0.1794  0.5693  0.2116
  513MPD2    C3 7674   4.165   3.613  12.773 -0.2744 -0.1171  0.3817
  513MPD2    C4 7675   4.273   3.693  12.793  0.6229 -0.9701  0.6930
  513MPD2    C5 7676   4.292   3.783  12.687 -0.1341  0.1430 -0.0102
  513MPD2     H 7677   4.018   3.535  12.640 -0.1031  0.5068  0.0014
  513MPD2    H1 7678   4.325   3.705  12.887  0.2493 -2.7908  1.1276
  513MPD2    H2 7679   4.257   3.840  12.486  0.6113 -0.1822  0.1241
  513MPD2    H3 7680   4.376   3.852  12.692 -0.2332  0.3221 -0.8061
  513MPD2     N 7681   4.122   3.523  12.872  0.0655  0.3106  0.5030
  513MPD2    H5 7682   4.048   3.462  12.838  0.4538  1.2028 -1.9131
  513MPD2    N1 7683   4.045   3.684  12.433  0.8372  0.0637  0.8795
  513MPD2    H7 7684   3.968   3.618  12.442  1.0289 -0.3930 -0.7330
  514TMC3    C1 7685   3.967   3.702  12.224  0.5561 -0.1603  0.0538
  514TMC3    C2 7686   4.018   3.675  12.104  0.2887  0.2557  0.0930
  514TMC3    C3 7687   3.980   3.555  12.048  0.2025  0.8253  0.0138
  514TMC3    C4 7688   3.872   3.619  12.282 -0.3761 -0.2760 -0.3757
  514TMC3    C5 7689   3.859   3.488  12.233 -0.4873 -1.1520  0.5299
  514TMC3    C6 7690   3.917   3.455  12.114 -0.5182  0.3021  0.3111
  514TMC3     C 7691   4.067   3.751  12.318 -0.0954  0.0192  0.5965
  514TMC3     O 7692   4.165   3.815  12.272 -0.3349  0.1046 -0.4586
  514TMC3     H 7693   4.087   3.742  12.054  0.6468 -0.1206  0.0844
  514TMC3    H1 7694   3.819   3.643  12.373  1.3922 -0.1856  0.6412
  514TMC3    H2 7695   3.906   3.356  12.072  3.0553  0.4381 -0.9325
  514TMC3    C7 7696   3.810   3.392  12.333  0.0396  0.0039 -0.1859
  514TMC3    C8 7697   4.032   3.524  11.915  0.5184  0.4158  0.3945
  514TMC3    O1 7698   3.795   3.434  12.445 -0.3120  0.7971 -0.6222
  514TMC3    O2 7699   4.128   3.590  11.881 -0.4335  0.5011 -0.0032
  515MPD2     C 7700   2.372   0.554  14.533  0.1284  0.3155 -0.1464
  515MPD2    C1 7701   2.358   0.424  14.585 -0.0217  0.1299 -0.0445
  515MPD2    C2 7702   2.454   0.367  14.661  0.0883  0.0570 -0.0846
  515MPD2    C3 7703   2.579   0.428  14.673  0.1927  0.4561  0.3920
  515MPD2    C4 7704   2.597   0.558  14.627  0.7113 -0.0197  0.2528
  515MPD2    C5 7705   2.489   0.620  14.562  0.5361 -0.0970  0.1139
  515MPD2     H 7706   2.437   0.268  14.702 -0.0254 -0.9433 -2.5513
  515MPD2    H1 7707   2.694   0.605  14.617  0.9330 -0.6614 -0.6148
  515MPD2    H2 7708   2.290   0.598  14.478 -0.8824  0.7242  1.7282
  515MPD2    H3 7709   2.505   0.721  14.527  0.0932 -0.1071 -0.1194
  515MPD2     N 7710   2.689   0.373  14.734  0.8329  0.2225 -0.4446
  515MPD2    H5 7711   2.770   0.435  14.736 -0.3951  1.8361 -2.0538
  515MPD2    N1 7712   2.237   0.359  14.568 -0.0510 -0.5213 -0.4565
  515MPD2    H7 7713   2.213   0.278  14.624 -0.2031 -2.2314 -2.9966
  516TMC3    C1 7714   2.030   0.295  14.458  0.9155 -0.3907  0.1902
  516TMC3    C2 7715   1.924   0.344  14.380 -0.0420 -0.6522 -0.0368
  516TMC3    C3 7716   1.802   0.284  14.386  0.1983 -1.0468 -0.8634
  516TMC3    C4 7717   2.017   0.171  14.519  0.4963  0.1483 -0.3854
  516TMC3    C5 7718   1.896   0.112  14.511  0.3085 -0.0549  0.4370
  516TMC3    C6 7719   1.780   0.169  14.456  0.4063 -0.3072 -0.6197
  516TMC3     C 7720   2.153   0.378  14.461 -0.0147  0.0253  0.7962
  516TMC3     O 7721   2.172   0.441  14.356  1.1106  0.6979  0.6071
  516TMC3     H 7722   1.938   0.438  14.328  0.6855  0.4454  2.1345
  516TMC3    H1 7723   2.102   0.119  14.562 -1.2108 -1.2313  1.3416
  516TMC3    H2 7724   1.680   0.127  14.453 -0.0320  0.5553  1.7815
  516TMC3    C7 7725   1.878   4.706  14.551 -0.3765 -0.0018 -0.0314
  516TMC3    C8 7726   1.710   0.323  14.288  0.6644 -0.7511 -0.1164
  516TMC3    O1 7727   1.971   4.657  14.616  0.3622 -0.1835 -1.0643
  516TMC3    O2 7728   1.640   0.235  14.244  0.0952  0.3669  0.1600
  517MPD2     C 7729   1.820   1.828  17.533 -0.3021 -0.3344 -0.5542
  517MPD2    C1 7730   1.932   1.838  17.611  0.0159  0.3415  0.9544
  517MPD2    C2 7731   1.961   1.961  17.665  0.4495  0.2509 -0.5764
  517MPD2    C3 7732   1.894   2.070  17.632  0.3594 -0.4924  0.2646
  517MPD2    C4 7733   1.784   2.059  17.550 -0.1327 -0.0911  0.2131
  517MPD2    C5 7734   1.751   1.940  17.502  0.9113  0.4243 -0.2734
  517MPD2     H 7735   2.058   1.974  17.712 -0.2992  0.4691  0.9081
  517MPD2    H1 7736   1.727   2.142  17.511  2.0169  0.3105 -2.1085
  517MPD2    H2 7737   1.782   1.732  17.501 -0.0212 -1.0401  1.2305
  517MPD2    H3 7738   1.661   1.923  17.443  0.4081  0.4081  0.4946
  517MPD2     N 7739   1.947   2.194  17.673  0.1409  0.0413  0.0486
  517MPD2    H5 7740   2.029   2.181  17.731  1.3244  1.4483 -1.3247
  517MPD2    N1 7741   2.015   1.731  17.627 -0.5632 -0.6426 -0.1976
  517MPD2    H7 7742   2.105   1.748  17.672 -0.9774  0.1457  0.3330
  518TMC3    C1 7743   2.103   1.515  17.624  0.1351 -0.2168 -0.1030
  518TMC3    C2 7744   2.077   1.383  17.637 -0.4307  0.0850 -0.3786
  518TMC3    C3 7745   2.187   1.296  17.637 -0.6387  0.0299  0.0568
  518TMC3    C4 7746   2.232   1.561  17.602 -0.3748 -1.0283 -0.1515
  518TMC3    C5 7747   2.335   1.471  17.599 -0.6476 -0.0470 -0.1370
  518TMC3    C6 7748   2.312   1.337  17.607  0.3917 -0.2157 -0.3918
  518TMC3     C 7749   1.987   1.602  17.608 -0.1718  0.1012  0.1536
  518TMC3     O 7750   1.884   1.551  17.586  0.6305 -0.5655 -0.2389
  518TMC3     H 7751   1.982   1.339  17.666 -0.3497  1.5687  2.1466
  518TMC3    H1 7752   2.247   1.667  17.588 -1.8769 -0.9154 -0.9391
  518TMC3    H2 7753   2.397   1.270  17.619 -0.6704 -1.5480 -0.3669
  518TMC3    C7 7754   2.453   1.519  17.524 -0.2313 -0.3992  0.0332
  518TMC3    C8 7755   2.168   1.169  17.572 -0.2322 -0.3715 -0.2936
  518TMC3    O1 7756   2.492   1.632  17.560  0.0556  0.6691  0.0958
  518TMC3    O2 7757   2.246   1.149  17.482  0.1030 -0.4401  0.2588
  519MPD2     C 7758   3.851   0.020  14.284  0.0739 -0.6319  0.5884
  519MPD2    C1 7759   3.824   0.039  14.151  0.4432 -0.2224  0.4252
  519MPD2    C2 7760   3.870   4.687  14.057 -0.0588  0.4522 -0.2558
  519MPD2    C3 7761   3.963   4.593  14.090 -0.6317  0.0429  0.1229
  519MPD2    C4 7762   3.984   4.574  14.222  0.2096 -0.3621  0.1413
  519MPD2    C5 7763   3.940   4.662  14.318 -0.6665  0.0119  0.0806
  519MPD2     H 7764   3.851   4.696  13.950 -1.9732  3.4109  0.3542
  519MPD2    H1 7765   4.051   4.496  14.255  1.7906  2.2044  3.0067
  519MPD2    H2 7766   3.805   0.086  14.357 -0.9458  1.8390 -2.3226
  519MPD2    H3 7767   3.980   4.644  14.417 -1.3211  0.6218  0.4535
  519MPD2     N 7768   4.012   4.501  13.996 -0.6391  0.1916 -0.8561
  519MPD2    H5 7769   3.995   4.525  13.899 -0.8318  2.0484 -0.3519
  519MPD2    N1 7770   3.724   0.135  14.119  0.1622 -0.4687  0.0272
  519MPD2    H7 7771   3.675   0.178  14.196 -0.9959 -1.9661  0.1229
  520TMC3    C1 7772   4.093   4.296  13.900  0.2681  0.0839 -0.0777
  520TMC3    C2 7773   4.025   4.320  13.783  0.3727  0.5838  0.1505
  520TMC3    C3 7774   4.068   4.246  13.677 -0.7740 -0.0258  0.2093
  520TMC3    C4 7775   4.192   4.206  13.912 -0.0496  0.0055 -0.4975
  520TMC3    C5 7776   4.229   4.130  13.805  0.4170 -0.5559  0.6236
  520TMC3    C6 7777   4.164   4.143  13.684  0.2924 -0.1169 -0.6886
  520TMC3     C 7778   4.068   4.375  14.021  0.6546  0.0024 -0.6680
  520TMC3     O 7779   4.088   4.309  14.126  0.1031 -0.5390 -0.0048
  520TMC3     H 7780   3.956   4.403  13.773  0.4349  0.4190 -1.5851
  520TMC3    H1 7781   4.247   4.205  14.005 -0.1193 -0.5504 -0.4613
  520TMC3    H2 7782   4.183   4.091  13.591 -0.7802 -2.2875  0.3144
  520TMC3    C7 7783   4.323   4.022  13.834  0.4700 -0.0826  0.4239
  520TMC3    C8 7784   4.008   4.267  13.546  0.3545 -0.1540 -0.2790
  520TMC3    O1 7785   4.353   4.008  13.953  0.4918 -0.4329  0.0071
  520TMC3    O2 7786   4.080   4.251  13.451  0.0023  0.0198  0.0878
  521MPD2     C 7787   4.619   2.742  17.409  0.5714  0.3210 -0.0567
  521MPD2    C1 7788   4.603   2.656  17.303  0.1264  0.4594 -0.0518
  521MPD2    C2 7789   4.713   2.602  17.241 -0.4810 -0.2552  0.4106
  521MPD2    C3 7790   0.101   2.638  17.287 -0.3997 -0.0936 -0.0152
  521MPD2    C4 7791   0.118   2.707  17.399  0.3901 -0.3960  0.0372
  521MPD2    C5 7792   0.009   2.772  17.457  0.6960 -0.5012 -0.7201
  521MPD2     H 7793   4.709   2.558  17.142  2.2243 -0.0431  0.2088
  521MPD2    H1 7794   0.209   2.722  17.458  0.3842 -2.8370  0.6640
  521MPD2    H2 7795   4.534   2.783  17.462  0.4600 -0.0143  0.0209
  521MPD2    H3 7796   0.020   2.831  17.547  0.8994 -2.2491  0.3995
  521MPD2     N 7797   0.209   2.605  17.205 -0.2773 -0.3081 -0.0904
  521MPD2    H5 7798   0.178   2.551  17.125 -0.8592  0.6772 -0.5243
  521MPD2    N1 7799   4.471   2.651  17.248  0.0805 -0.3212  1.0306
  521MPD2    H7 7800   4.406   2.724  17.277  0.3184  0.1050  0.4836
  522TMC3    C1 7801   0.424   2.602  17.101 -0.6639  0.2731  0.2229
  522TMC3    C2 7802   0.551   2.559  17.121  0.2841  0.9503  0.3909
  522TMC3    C3 7803   0.604   2.481  17.020  0.5561  0.0148 -0.1307
  522TMC3    C4 7804   0.349   2.577  16.988  0.0197  0.3129  0.0357
  522TMC3    C5 7805   0.398   2.484  16.901 -0.1497  0.4635  0.2361
  522TMC3    C6 7806   0.521   2.432  16.923 -0.4936  0.5753  0.2175
  522TMC3     C 7807   0.345   2.631  17.221 -0.0104 -0.1421  0.1396
  522TMC3     O 7808   0.399   2.670  17.326  0.0812  0.4078  0.1423
  522TMC3     H 7809   0.609   2.587  17.208 -0.5043 -0.6576  1.4332
  522TMC3    H1 7810   0.249   2.618  16.975  1.5383  2.8929 -3.5843
  522TMC3    H2 7811   0.549   2.345  16.866 -0.0172 -0.3486  1.8505
  522TMC3    C7 7812   0.304   2.397  16.836 -0.4340 -0.9631 -0.0731
  522TMC3    C8 7813   0.714   2.396  17.060  0.2223 -0.3470 -0.3118
  522TMC3    O1 7814   0.324   2.278  16.854  0.5162 -0.4891  0.5701
  522TMC3    O2 7815   0.746   2.387  17.179 -0.0468  0.0658 -0.3775
  523MPD2     C 7816   1.724   2.395  10.195 -0.0866  0.1945  0.1199
  523MPD2    C1 7817   1.666   2.293  10.126  0.8838  0.8659  0.4394
  523MPD2    C2 7818   1.591   2.326  10.016  0.1339 -0.0555  0.0867
  523MPD2    C3 7819   1.546   2.455   9.987  0.2870 -0.5992  0.1546
  523MPD2    C4 7820   1.598   2.552  10.064  0.5279  0.1666  0.6265
  523MPD2    C5 7821   1.693   2.523  10.158 -0.3293 -0.6591  0.2183
  523MPD2     H 7822   1.543   2.243   9.966  0.7280 -0.9924  1.0965
  523MPD2    H1 7823   1.566   2.655  10.052  0.3523  0.2438  1.7865
  523MPD2    H2 7824   1.794   2.383  10.276 -1.0178  1.2666  1.0764
  523MPD2    H3 7825   1.735   2.606  10.215 -0.5093  0.3398 -1.1028
  523MPD2     N 7826   1.461   2.491   9.884  0.0847 -0.6527 -0.3989
  523MPD2    H5 7827   1.449   2.591   9.872 -2.7734 -0.9311  0.1789
  523MPD2    N1 7828   1.695   2.159  10.182 -0.5974 -0.4189 -0.1774
  523MPD2    H7 7829   1.767   2.146  10.253 -1.9443 -1.2598  1.0299
  524TMC3    C1 7830   1.338   2.474   9.685  0.3159  0.2597  0.0909
  524TMC3    C2 7831   1.360   2.434   9.558  0.2202  0.1257  0.6185
  524TMC3    C3 7832   1.262   2.473   9.466 -0.0284 -0.0883 -0.8966
  524TMC3    C4 7833   1.237   2.553   9.723  0.7526  0.0199 -0.1447
  524TMC3    C5 7834   1.153   2.591   9.628 -0.6169 -0.2917 -0.1263
  524TMC3    C6 7835   1.155   2.559   9.498 -0.8158 -0.2255  0.9464
  524TMC3     C 7836   1.425   2.412   9.782 -0.0745  0.0313 -0.3537
  524TMC3     O 7837   1.433   2.292   9.778  0.1183 -0.2263 -0.1151
  524TMC3     H 7838   1.426   2.352   9.532 -1.0358 -0.8049  0.3345
  524TMC3    H1 7839   1.208   2.555   9.827  0.9753  0.4471 -0.0928
  524TMC3    H2 7840   1.077   2.580   9.425 -1.8613 -3.3629  1.1319
  524TMC3    C7 7841   1.038   2.673   9.673  0.0704 -0.6065 -0.4729
  524TMC3    C8 7842   1.266   2.416   9.333  1.0362 -0.4145  0.0821
  524TMC3    O1 7843   1.027   2.679   9.795 -0.2178  0.1458  0.1266
  524TMC3    O2 7844   1.333   2.312   9.323  0.3879  0.0663  0.0658
  525MPD2     C 7845   0.418   4.076  14.362 -1.3713  0.2783  0.4552
  525MPD2    C1 7846   0.512   4.131  14.440  0.4021 -0.2139  0.6931
  525MPD2    C2 7847   0.586   4.246  14.402  0.0890  0.0454  0.4087
  525MPD2    C3 7848   0.548   4.306  14.287  0.2973  0.1568  0.3377
  525MPD2    C4 7849   0.452   4.262  14.212 -0.1739  0.1503  0.6681
  525MPD2    C5 7850   0.389   4.145  14.245 -0.9521  0.0056  0.3511
  525MPD2     H 7851   0.665   4.293  14.460 -0.7008  0.5037  1.1075
  525MPD2    H1 7852   0.420   4.308  14.119 -0.2933 -0.2232  0.5239
  525MPD2    H2 7853   0.374   3.984  14.396 -0.4466 -0.0605  0.7457
  525MPD2    H3 7854   0.309   4.114  14.178 -0.5369  0.3290 -0.2950
  525MPD2     N 7855   0.598   4.429  14.252  0.4113  0.5080  0.2895
  525MPD2    H5 7856   0.553   4.475  14.173  1.9083  2.1427  0.3944
  525MPD2    N1 7857   0.548   4.079  14.564  0.2082 -0.0030  0.0739
  525MPD2    H7 7858   0.638   4.109  14.601  1.2273 -1.8095 -0.9407
  526TMC3    C1 7859   0.507   3.990  14.774 -0.1242 -0.3099  0.3705
  526TMC3    C2 7860   0.422   4.003  14.879  0.4706  0.4585  0.4046
  526TMC3    C3 7861   0.460   3.961  15.002 -0.0563 -0.3181  0.3575
  526TMC3    C4 7862   0.628   3.920  14.782  0.4743 -0.8315 -1.0912
  526TMC3    C5 7863   0.656   3.873  14.906  0.0549  0.4280  0.2612
  526TMC3    C6 7864   0.575   3.891  15.016  0.6937 -0.7273  0.1810
  526TMC3     C 7865   0.457   4.009  14.640  0.0030 -0.1544  0.4627
  526TMC3     O 7866   0.339   3.976  14.622  0.3865 -0.2605  0.6378
  526TMC3     H 7867   0.320   4.035  14.858  0.5618 -0.1328 -0.9139
  526TMC3    H1 7868   0.688   3.915  14.691 -0.1206 -0.1337 -1.5262
  526TMC3    H2 7869   0.594   3.830  15.103 -0.6293 -0.4898  0.6290
  526TMC3    C7 7870   0.761   3.782  14.930  0.3650 -0.0354 -0.1349
  526TMC3    C8 7871   0.363   3.958  15.116 -0.4258  0.5797  0.2313
  526TMC3    O1 7872   0.830   3.793  15.031  0.2310 -0.1230 -0.1467
  526TMC3    O2 7873   0.401   3.907  15.218 -0.1040  0.2987  0.1885
  527MPD2     C 7874   3.830   2.661   1.466 -0.3403  1.0721 -0.6255
  527MPD2    C1 7875   3.746   2.589   1.378 -0.6725 -0.1560 -0.0379
  527MPD2    C2 7876   3.807   2.504   1.286  0.6551 -0.5149  0.0625
  527MPD2    C3 7877   3.946   2.486   1.293 -0.6551  0.6049  0.1403
  527MPD2    C4 7878   4.025   2.541   1.390  0.0884 -0.5554  0.0515
  527MPD2    C5 7879   3.964   2.640   1.479 -0.8519  0.7476 -0.3438
  527MPD2     H 7880   3.748   2.444   1.218  1.1662 -1.8371  0.8005
  527MPD2    H1 7881   4.133   2.530   1.382  0.0578 -1.5612  0.9548
  527MPD2    H2 7882   3.785   2.737   1.529  1.3334 -0.4424  2.3854
  527MPD2    H3 7883   4.015   2.705   1.549 -0.4542  1.6749 -1.5013
  527MPD2     N 7884   3.993   2.395   1.196 -0.4792 -0.3336 -0.3102
  527MPD2    H5 7885   3.927   2.344   1.139 -0.2059  0.9866 -1.8046
  527MPD2    N1 7886   3.607   2.595   1.380 -0.2310 -1.3143 -0.5090
  527MPD2    H7 7887   3.565   2.524   1.321  0.1056 -0.4256 -1.8359
  528TMC3    C1 7888   3.395   2.658   1.402 -0.2909  0.9607 -0.8038
  528TMC3    C2 7889   3.323   2.762   1.349 -0.1197 -0.0247  0.7627
  528TMC3    C3 7890   3.207   2.722   1.286  0.0872  0.4248 -0.1828
  528TMC3    C4 7891   3.359   2.532   1.393 -0.4554 -0.3202  0.5710
  528TMC3    C5 7892   3.244   2.498   1.329 -0.2744  0.4912  0.2066
  528TMC3    C6 7893   3.169   2.591   1.268  0.4956 -1.0515 -0.1596
  528TMC3     C 7894   3.532   2.680   1.445 -0.0665 -0.9748 -0.0602
  528TMC3     O 7895   3.560   2.784   1.505 -0.4779 -0.6419  0.0561
  528TMC3     H 7896   3.355   2.866   1.350 -0.9080  0.2051  1.6131
  528TMC3    H1 7897   3.415   2.451   1.438 -0.0676  0.5030  1.5678
  528TMC3    H2 7898   3.076   2.567   1.218  0.3943  1.8348 -1.3871
  528TMC3    C7 7899   3.207   2.360   1.304 -0.5762 -0.1364 -0.5785
  528TMC3    C8 7900   3.115   2.820   1.232 -0.0303 -0.1840 -0.6780
  528TMC3    O1 7901   3.141   2.340   1.202 -0.0614 -0.7489  0.0445
  528TMC3    O2 7902   3.057   2.784   1.127  0.0051 -0.3230  0.4834
  529MPD2     C 7903   0.954   1.364   0.950  0.9919 -0.3092 -0.0996
  529MPD2    C1 7904   1.022   1.298   0.848  0.1607  0.2335  0.2599
  529MPD2    C2 7905   0.988   1.311   0.714 -0.2997  0.7678  0.1863
  529MPD2    C3 7906   0.887   1.400   0.680  0.1966  0.9313 -0.5170
  529MPD2    C4 7907   0.824   1.468   0.784 -0.2086 -0.5142 -0.0490
  529MPD2    C5 7908   0.857   1.454   0.916  0.3391 -0.1194  0.3354
  529MPD2     H 7909   1.030   1.243   0.641  2.1874  0.1304  2.1680
  529MPD2    H1 7910   0.744   1.537   0.760  1.1749  1.1755  0.2738
  529MPD2    H2 7911   0.964   1.343   1.055 -1.0848  0.2947  0.2094
  529MPD2    H3 7912   0.804   1.501   0.999  0.8362  0.3371  0.3947
  529MPD2     N 7913   0.843   1.401   0.544 -0.3604 -0.2215  0.7165
  529MPD2    H5 7914   0.887   1.345   0.471 -3.6343  0.6193 -1.9169
  529MPD2    N1 7915   1.124   1.201   0.884 -0.1586  0.3788  0.4277
  529MPD2    H7 7916   1.176   1.155   0.810  1.1495  1.7531  0.4796
  530TMC3    C1 7917   1.255   1.044   0.998  0.3927 -0.2147  0.2675
  530TMC3    C2 7918   1.325   1.008   1.113  0.6354 -0.2142  0.9018
  530TMC3    C3 7919   1.371   0.876   1.120  0.2714 -0.4528  0.0313
  530TMC3    C4 7920   1.201   0.945   0.917  0.3230  0.3760  0.1404
  530TMC3    C5 7921   1.222   0.812   0.952  0.3727  0.0515  0.4874
  530TMC3    C6 7922   1.312   0.774   1.044  0.3207 -0.5882  0.0604
  530TMC3     C 7923   1.167   1.159   1.009  0.7539 -0.1374 -0.4672
  530TMC3     O 7924   1.133   1.198   1.119  0.2179  0.1716 -0.3082
  530TMC3     H 7925   1.349   1.079   1.191  0.7027 -0.4468  1.0903
  530TMC3    H1 7926   1.137   0.969   0.833  1.0203 -0.1375 -0.5359
  530TMC3    H2 7927   1.328   0.670   1.071 -1.9205 -1.0433 -0.3780
  530TMC3    C7 7928   1.167   0.721   0.851 -0.5433 -0.1803 -0.2112
  530TMC3    C8 7929   1.422   0.841   1.249  0.5057 -0.4319  0.4663
  530TMC3    O1 7930   1.138   0.756   0.741 -0.1925  1.0131 -0.5301
  530TMC3    O2 7931   1.388   0.918   1.338 -0.2663  0.1112 -0.0640
  531MPD2     C 7932   3.917   2.947  12.553  0.2321  0.2913 -0.3108
  531MPD2    C1 7933   3.910   3.070  12.608 -0.1771 -0.3990 -0.3186
  531MPD2    C2 7934   3.886   3.176  12.526 -0.3024 -0.1995 -0.8095
  531MPD2    C3 7935   3.861   3.157  12.384  1.0347  1.3828 -0.2785
  531MPD2    C4 7936   3.880   3.030  12.335 -0.5557  0.4152 -0.3715
  531MPD2    C5 7937   3.903   2.926  12.420  0.3570 -0.1022  0.0004
  531MPD2     H 7938   3.891   3.279  12.558 -0.0961 -0.8205  1.1870
  531MPD2    H1 7939   3.885   3.012  12.228 -1.2805 -2.5297  0.0772
  531MPD2    H2 7940   3.941   2.866  12.621 -1.1531  0.6762  0.6376
  531MPD2    H3 7941   3.911   2.824  12.385  1.1342 -0.6589  1.8236
  531MPD2     N 7942   3.831   3.259  12.295 -0.5376 -1.1133 -0.2727
  531MPD2    H5 7943   3.812   3.229  12.200 -0.9141  0.5883 -0.7360
  531MPD2    N1 7944   3.953   3.090  12.748  0.6310  0.2501  0.3415
  531MPD2    H7 7945   3.997   3.010  12.792  0.1088 -1.0673 -1.5393
  532TMC3    C1 7946   4.038   3.228  12.923  0.5402  0.0851  0.2206
  532TMC3    C2 7947   4.024   3.352  12.991  0.1679 -0.4315 -0.6065
  532TMC3    C3 7948   4.129   3.392  13.063 -0.0483 -0.0502 -0.4291
  532TMC3    C4 7949   4.150   3.147  12.933 -0.0568 -0.1182  0.7675
  532TMC3    C5 7950   4.248   3.191  13.013 -0.7369  0.2036 -0.0950
  532TMC3    C6 7951   4.237   3.308  13.079 -0.5645 -0.2562 -0.0567
  532TMC3     C 7952   3.949   3.215  12.808 -0.9791  0.4514 -0.4606
  532TMC3     O 7953   3.879   3.312  12.785  0.1540  0.2747 -0.8180
  532TMC3     H 7954   3.939   3.419  12.985  0.4634 -0.0799 -0.8499
  532TMC3    H1 7955   4.155   3.050  12.885  0.8113  0.6504 -0.7175
  532TMC3    H2 7956   4.320   3.340  13.140  0.6137  1.3334 -2.4692
  532TMC3    C7 7957   4.336   3.092  13.076  0.7883 -0.3036 -0.0146
  532TMC3    C8 7958   4.178   3.508  13.001 -0.1759 -1.0243  0.1288
  532TMC3    O1 7959   4.362   3.121  13.192 -0.3337 -0.1330  0.6093
  532TMC3    O2 7960   4.271   3.562  13.060 -0.3997  0.1299  0.2261
  533TMC3    C1 7961   0.687   4.640  14.273 -0.9302  0.8018  0.5878
  533TMC3    C2 7962   0.791   4.731  14.278  0.7471 -0.1412 -0.3835
  533TMC3    C3 7963   0.773   0.130  14.281 -0.6857 -0.1560  0.2110
  533TMC3    C4 7964   0.561   4.692  14.282  0.1367 -0.3690 -0.2793
  533TMC3    C5 7965   0.543   0.099  14.289  0.6479 -0.1076  0.0461
  533TMC3    C6 7966   0.648   0.182  14.271  0.6858  0.8846  0.0681
  533TMC3     C 7967   0.695   4.502  14.314  0.3721 -0.1918  0.3184
  533TMC3     O 7968   0.780   4.472  14.395 -0.2287  0.2214 -0.3511
  533TMC3     H 7969   0.889   4.685  14.265  0.9054 -0.2795  1.2453
  533TMC3    H1 7970   0.481   4.625  14.311 -1.2696  0.5489 -2.0578
  533TMC3    H2 7971   0.632   0.288  14.289  0.1684  0.8061  0.0723
  533TMC3    C7 7972   0.467   0.132  14.411 -0.0289 -0.2827  0.9091
  533TMC3    C8 7973   0.891   0.220  14.293  0.3337  0.3940  0.3863
  533TMC3    O1 7974   0.376   0.053  14.441  0.1361  0.0550 -0.1526
  533TMC3    O2 7975   0.879   0.331  14.238 -0.1666 -0.3205  0.2928
  534MPD2     C 7976   3.475   0.664   0.736  0.0131  0.1782  0.1803
  534MPD2    C1 7977   3.452   0.754   0.833 -0.1530 -0.8920  0.0779
  534MPD2    C2 7978   3.322   0.800   0.842  0.3479  0.0284 -0.0629
  534MPD2    C3 7979   3.219   0.761   0.755 -0.1326  0.4796  0.1347
  534MPD2    C4 7980   3.256   0.674   0.653 -0.0325  0.0356 -0.3923
  534MPD2    C5 7981   3.379   0.633   0.647 -0.6242 -0.2667  0.2349
  534MPD2     H 7982   3.300   0.869   0.923 -1.7800  0.1882 -0.7909
  534MPD2    H1 7983   3.185   0.648   0.575  0.1819  1.3628 -1.0219
  534MPD2    H2 7984   3.567   0.606   0.741 -0.9471 -1.5485 -1.7801
  534MPD2    H3 7985   3.405   0.560   0.572  1.9470  1.2562 -0.3494
  534MPD2     N 7986   3.083   0.799   0.769  0.0270  0.0637  0.5646
  534MPD2    H5 7987   3.020   0.754   0.704 -0.6890  1.9169 -0.0102
  534MPD2    N1 7988   3.553   0.811   0.915  0.5657  0.3172 -0.4852
  534MPD2    H7 7989   3.529   0.883   0.983  0.2107 -1.3582  1.1601
  535TMC3    C1 7990   2.884   0.872   0.869 -0.1037  0.3195  0.0679
  535TMC3    C2 7991   2.810   0.901   0.981  0.2042 -0.3891 -0.4068
  535TMC3    C3 7992   2.674   0.911   0.966  0.4897  0.8838  0.3002
  535TMC3    C4 7993   2.829   0.864   0.738 -0.7583  0.5362 -0.2480
  535TMC3    C5 7994   2.690   0.874   0.740  0.1911 -0.0479 -0.1731
  535TMC3    C6 7995   2.611   0.889   0.850  0.1441 -0.2368  0.6006
  535TMC3     C 7996   3.028   0.857   0.880 -0.8765  0.6334  0.0955
  535TMC3     O 7997   3.086   0.895   0.982 -0.0809  0.2097 -0.1478
  535TMC3     H 7998   2.865   0.899   1.075  0.0231  2.0325 -0.2334
  535TMC3    H1 7999   2.883   0.867   0.645 -0.3608  1.5280  0.0178
  535TMC3    H2 8000   2.504   0.895   0.836  0.2354  0.7152  0.3164
  535TMC3    C7 8001   2.641   0.913   0.616  0.2240 -0.1545  0.2041
  535TMC3    C8 8002   2.588   0.928   1.081  0.4120  0.1159  0.1714
  535TMC3    O1 8003   2.702   0.870   0.522 -0.5532 -0.5433 -0.9113
  535TMC3    O2 8004   2.481   0.872   1.090 -0.0713 -0.0234 -0.2762
  536MPD2     C 8005   1.693   4.046  16.323  0.1140 -0.2873  0.3720
  536MPD2    C1 8006   1.652   3.918  16.318  0.2005 -0.5382 -0.0878
  536MPD2    C2 8007   1.587   3.881  16.201  0.0366  0.4699  0.0029
  536MPD2    C3 8008   1.568   3.973  16.098 -0.6941 -0.7895  0.0625
  536MPD2    C4 8009   1.606   4.100  16.109 -0.7024  0.0061  0.7417
  536MPD2    C5 8010   1.670   4.136  16.224 -0.1387  0.5177 -0.4551
  536MPD2     H 8011   1.548   3.781  16.181  2.1416 -0.0406 -1.5255
  536MPD2    H1 8012   1.577   4.177  16.038 -2.8825  0.1154  1.7547
  536MPD2    H2 8013   1.745   4.095  16.405 -0.4520 -0.2962  0.7380
  536MPD2    H3 8014   1.693   4.239  16.247  1.5696 -0.0476  0.3794
  536MPD2     N 8015   1.502   3.935  15.973 -0.2673  0.1886 -0.3790
  536MPD2    H5 8016   1.484   4.007  15.904 -0.9522  0.8518  0.4894
  536MPD2    N1 8017   1.667   3.845  16.436  0.6147 -0.2688  0.7406
  536MPD2    H7 8018   1.705   3.887  16.520  1.5615  0.4145 -0.0260
  537TMC3    C1 8019   1.668   3.668  16.576 -0.1357  0.1295 -0.0019
  537TMC3    C2 8020   1.790   3.700  16.622  0.4319 -0.1078 -0.1076
  537TMC3    C3 8021   1.846   3.620  16.709 -0.5180 -0.2136  0.0535
  537TMC3    C4 8022   1.607   3.549  16.604 -0.6249 -0.2917  0.0584
  537TMC3    C5 8023   1.675   3.461  16.687  0.3085 -0.0566  0.8257
  537TMC3    C6 8024   1.794   3.501  16.745  0.1811  0.4710  0.5306
  537TMC3     C 8025   1.635   3.717  16.446  0.3634 -0.2227 -0.1699
  537TMC3     O 8026   1.576   3.643  16.371 -0.3951  0.1682  0.2373
  537TMC3     H 8027   1.840   3.794  16.600 -1.3265  0.7720 -0.3628
  537TMC3    H1 8028   1.512   3.522  16.560  0.2316  1.9426 -3.0883
  537TMC3    H2 8029   1.851   3.422  16.792  0.0053 -0.3323 -0.6027
  537TMC3    C7 8030   1.585   3.364  16.748  0.0725 -0.0836 -0.2461
  537TMC3    C8 8031   1.981   3.641  16.743  0.9776  0.3281  0.3045
  537TMC3    O1 8032   1.486   3.318  16.692 -0.1769 -0.1976  0.6367
  537TMC3    O2 8033   2.047   3.709  16.671 -0.4782  0.1425  0.2929
  538TMC3    C1 8034   2.746   1.905  11.115 -0.0474 -0.0800 -0.5785
  538TMC3    C2 8035   2.830   1.913  10.999 -0.7463  0.2642 -0.4781
  538TMC3    C3 8036   2.801   2.006  10.904  0.1927 -0.0681 -0.5729
  538TMC3    C4 8037   2.640   1.993  11.135 -0.2065  0.0580 -0.5221
  538TMC3    C5 8038   2.612   2.078  11.034 -0.2324  0.3513  0.6269
  538TMC3    C6 8039   2.695   2.092  10.923 -0.4981  0.3781  0.2571
  538TMC3     C 8040   2.766   1.828  11.238 -0.3107 -0.1600  0.3509
  538TMC3     O 8041   2.665   1.804  11.306 -0.6760  0.4144 -0.2188
  538TMC3     H 8042   2.907   1.836  10.992 -0.6302  0.2563  0.8892
  538TMC3    H1 8043   2.568   1.986  11.216  0.3556 -0.4129 -0.0570
  538TMC3    H2 8044   2.662   2.161  10.847 -0.5699 -1.4396 -1.3680
  538TMC3    C7 8045   2.476   2.115  11.028 -0.0466  0.4992  0.0543
  538TMC3    C8 8046   2.903   2.030  10.802 -0.7668 -0.2441  0.4608
  538TMC3    O1 8047   2.392   2.050  11.089 -0.8785  0.6226  0.4129
  538TMC3    O2 8048   2.880   2.111  10.714 -0.0069 -0.5395 -0.2846
  539MPD2     C 8049   2.042   0.944  11.717  1.2670  0.2808 -0.0171
  539MPD2    C1 8050   2.081   0.962  11.585  0.1382  0.1409  0.0745
  539MPD2    C2 8051   2.064   1.082  11.531  0.4570  0.0508  0.0643
  539MPD2    C3 8052   2.013   1.192  11.603  0.4278  0.3922  0.1407
  539MPD2    C4 8053   1.962   1.170  11.730 -0.2717 -0.6403  0.1427
  539MPD2    C5 8054   1.970   1.045  11.780 -0.2896  0.3266 -0.1685
  539MPD2     H 8055   2.111   1.094  11.434 -0.7400  0.0829 -0.5215
  539MPD2    H1 8056   1.930   1.249  11.797  0.1851  0.6719 -1.1798
  539MPD2    H2 8057   2.045   0.844  11.759 -1.0523  0.0870 -0.3072
  539MPD2    H3 8058   1.945   1.019  11.883  4.2181  2.9528  1.5754
  539MPD2     N 8059   1.989   1.321  11.552 -0.7151 -0.2926 -0.0487
  539MPD2    H5 8060   1.930   1.382  11.607  0.0857  0.8258 -0.4434
  539MPD2    N1 8061   2.159   0.866  11.512  0.2504 -0.1188  0.0111
  539MPD2    H7 8062   2.195   0.904  11.425 -3.5547 -0.3212 -1.6362
  540TMC3    C1 8063   1.992   1.517  11.423  0.6258  0.6353  0.5255
  540TMC3    C2 8064   1.974   1.569  11.296 -0.2440  0.0232 -0.4495
  540TMC3    C3 8065   1.892   1.682  11.278 -0.1295  0.2711 -0.3235
  540TMC3    C4 8066   1.944   1.587  11.534 -0.8884  0.4363  0.2888
  540TMC3    C5 8067   1.870   1.700  11.507 -0.3029 -0.0073  0.3681
  540TMC3    C6 8068   1.839   1.751  11.383  0.3288 -0.3394  0.1774
  540TMC3     C 8069   2.027   1.370  11.430 -0.2826 -0.2267  0.3971
  540TMC3     O 8070   2.092   1.322  11.337 -0.7822 -0.1024 -0.0072
  540TMC3     H 8071   2.014   1.516  11.211 -0.1687 -5.4753  3.0275
  540TMC3    H1 8072   1.970   1.559  11.635 -0.4701 -0.6162 -0.1023
  540TMC3    H2 8073   1.760   1.822  11.362  0.3071  0.1934  2.0897
  540TMC3    C7 8074   1.801   1.756  11.621  0.5066  0.2684  0.0096
  540TMC3    C8 8075   1.840   1.705  11.141 -0.0150  0.4002  1.0071
  540TMC3    O1 8076   1.802   1.692  11.727 -0.1496  0.5902 -0.2732
  540TMC3    O2 8077   1.745   1.780  11.129 -0.6789  0.1945 -0.3999
  541MPD2     C 8078   0.344   3.045  12.908 -0.1529 -0.8729  0.0635
  541MPD2    C1 8079   0.374   2.923  12.850  0.4100 -0.6272  0.0436
  541MPD2    C2 8080   0.333   2.895  12.721 -0.0857 -0.1697 -0.3030
  541MPD2    C3 8081   0.259   2.992  12.653 -0.7253  0.7583 -0.8781
  541MPD2    C4 8082   0.219   3.109  12.710 -0.5932 -0.1885  0.4978
  541MPD2    C5 8083   0.263   3.134  12.837 -0.1066  0.0275  0.4416
  541MPD2     H 8084   0.352   2.805  12.663 -1.1015 -0.9339  0.5631
  541MPD2    H1 8085   0.156   3.185  12.665  1.8613  1.4681 -0.1289
  541MPD2    H2 8086   0.363   3.079  13.009  0.2849 -0.8166 -0.0381
  541MPD2    H3 8087   0.225   3.221  12.890 -0.9832 -1.3680  2.1007
  541MPD2     N 8088   0.211   2.946  12.530 -0.3344  0.2941  0.4166
  541MPD2    H5 8089   0.237   2.848  12.517  0.1487  0.5806 -0.7529
  541MPD2    N1 8090   0.435   2.825  12.931 -0.5759 -0.6809  0.0231
  541MPD2    H7 8091   0.454   2.856  13.026 -1.2273  0.2271 -0.1439
  542TMC3    C1 8092   0.067   2.926  12.344  0.4512 -0.0969  1.0691
  542TMC3    C2 8093   0.137   2.829  12.285 -0.1718 -0.6679 -0.0434
  542TMC3    C3 8094   0.075   2.770  12.176 -1.1741 -0.1215  0.0680
  542TMC3    C4 8095   4.669   2.951  12.317  0.5573 -1.2028 -0.0185
  542TMC3    C5 8096   4.626   2.899  12.197  0.0865  0.0168  0.6586
  542TMC3    C6 8097   4.692   2.809  12.126  0.1653  0.2151 -0.1987
  542TMC3     C 8098   0.124   3.015  12.446  0.1293  0.1638 -0.2934
  542TMC3     O 8099   0.077   3.127  12.442 -0.2158 -1.3814  0.7019
  542TMC3     H 8100   0.239   2.811  12.318  0.1703  1.1979 -0.0623
  542TMC3    H1 8101   4.616   3.031  12.369 -0.1185 -0.2692 -2.1517
  542TMC3    H2 8102   4.654   2.760  12.038 -1.1667  0.1575  0.3943
  542TMC3    C7 8103   4.493   2.937  12.149 -0.3363 -0.5001  0.0056
  542TMC3    C8 8104   0.143   2.671  12.092  0.3439  0.3461  0.1340
  542TMC3    O1 8105   4.433   2.987  12.242 -0.6444 -0.4203 -0.8240
  542TMC3    O2 8106   0.100   2.654  11.978 -0.2093 -0.1212  0.0575
  543TMC3    C1 8107   0.679   4.626  17.054 -0.6515 -0.2834  0.4003
  543TMC3    C2 8108   0.648   4.512  17.124 -0.7886  0.0062 -0.9058
  543TMC3    C3 8109   0.541   4.511  17.207  0.3615 -0.0388  0.1407
  543TMC3    C4 8110   0.597   4.735  17.058  0.5021  0.2144  0.2488
  543TMC3    C5 8111   0.482   4.731  17.144  0.0855  0.3001  0.2458
  543TMC3    C6 8112   0.458   4.617  17.222 -0.1657  0.5228  0.6236
  543TMC3     C 8113   0.759   4.599  16.940 -0.0629  0.3811 -0.7482
  543TMC3     O 8114   0.847   4.518  16.958 -0.1267  0.1960  0.6219
  543TMC3     H 8115   0.701   4.418  17.120 -2.5996 -1.0019 -0.9350
  543TMC3    H1 8116   0.632   0.087  17.004 -1.7740  0.4521 -0.8624
  543TMC3    H2 8117   0.370   4.620  17.285  2.6227  1.0497  4.5306
  543TMC3    C7 8118   0.426   0.116  17.191 -0.1893  0.0904 -0.0275
  543TMC3    C8 8119   0.491   4.380  17.266  1.0027  0.2850 -0.1187
  543TMC3    O1 8120   0.342   0.107  17.277 -0.5256  0.1956  0.0898
  543TMC3    O2 8121   0.562   4.283  17.241  0.4067 -0.2766 -0.3673
  544MPD2     C 8122   0.175   4.074  17.542 -0.0122 -0.3174 -0.4260
  544MPD2    C1 8123   0.299   4.050  17.478 -0.5596 -0.0896 -0.2807
  544MPD2    C2 8124   0.356   4.144  17.395 -0.2087  0.1378  0.2570
  544MPD2    C3 8125   0.304   4.270  17.388  0.3495  0.1204  0.5616
  544MPD2    C4 8126   0.189   4.295  17.461  0.3497  0.3278  0.3361
  544MPD2    C5 8127   0.127   4.202  17.537 -0.3909 -0.0250 -0.1137
  544MPD2     H 8128   0.445   4.120  17.338 -0.0106  0.3233  0.4866
  544MPD2    H1 8129   0.148   4.395  17.465 -0.1099  0.1549 -0.0351
  544MPD2    H2 8130   0.138   4.000  17.612  0.4465 -0.2536 -0.1105
  544MPD2    H3 8131   0.043   4.223  17.603 -1.4778  2.3689 -2.2722
  544MPD2     N 8132   0.366   4.381  17.329 -0.2438 -0.1894  0.2399
  544MPD2    H5 8133   0.317   4.470  17.334 -0.2434 -0.1018 -1.3373
  544MPD2    N1 8134   0.353   3.918  17.492  0.5951 -0.5291  0.7948
  544MPD2    H7 8135   0.294   3.844  17.527 -0.1410 -0.9919 -1.4118
  545TMC3    C1 8136   0.520   3.750  17.467  0.4431  0.0479 -0.3683
  545TMC3    C2 8137   0.624   3.713  17.386  0.3343 -0.2572 -0.0636
  545TMC3    C3 8138   0.658   3.582  17.389  0.3440 -0.6458  0.3848
  545TMC3    C4 8139   0.437   3.664  17.533 -0.1356 -0.5529 -0.0224
  545TMC3    C5 8140   0.481   3.537  17.542 -0.0601 -0.0764 -0.0635
  545TMC3    C6 8141   0.590   3.499  17.473  0.2674  0.6192  0.3679
  545TMC3     C 8142   0.484   3.887  17.458  0.5328  0.1052  0.6485
  545TMC3     O 8143   0.575   3.962  17.425  0.2729 -0.1933 -0.2964
  545TMC3     H 8144   0.694   3.787  17.348 -0.2668  0.2077 -0.2522
  545TMC3    H1 8145   0.364   3.703  17.603 -1.4543  1.0796 -2.2847
  545TMC3    H2 8146   0.621   3.395  17.473 -0.6316  0.3531 -0.2693
  545TMC3    C7 8147   0.383   3.437  17.584 -0.0309  0.3754  0.7383
  545TMC3    C8 8148   0.752   3.515  17.297 -0.0508  0.6614 -0.4878
  545TMC3    O1 8149   0.268   3.476  17.588 -0.7145  0.2964 -0.2997
  545TMC3    O2 8150   0.813   3.413  17.332  0.1590  0.2357 -0.1425
  546MPD2     C 8151   2.232   4.498  16.855  0.2403 -0.2090  0.1669
  546MPD2    C1 8152   2.172   4.503  16.982 -0.4491  0.5524  0.6636
  546MPD2    C2 8153   2.185   4.629  17.037  0.1457  0.2234 -0.2934
  546MPD2    C3 8154   2.259   4.732  16.977 -0.3838  0.0003  0.9078
  546MPD2    C4 8155   2.306   4.724  16.856 -0.2073 -0.1621  0.0313
  546MPD2    C5 8156   2.299   4.602  16.794  0.5912  0.0457 -0.5175
  546MPD2     H 8157   2.150   4.638  17.139 -0.3402 -1.3112 -0.3344
  546MPD2    H1 8158   2.371   0.058  16.806  1.2161 -0.6593  1.1828
  546MPD2    H2 8159   2.235   4.410  16.792  2.7015 -0.0652  0.0995
  546MPD2    H3 8160   2.354   4.588  16.702  2.0062 -0.4121  0.3901
  546MPD2     N 8161   2.287   0.115  17.044 -0.0389  0.9375 -0.0901
  546MPD2    H5 8162   2.323   0.188  16.983  1.8804 -0.8256 -1.0639
  546MPD2    N1 8163   2.113   4.386  17.038 -0.5567  0.6500 -0.0587
  546MPD2    H7 8164   2.112   4.305  16.977  0.4115 -0.5418  1.5193
  547TMC3    C1 8165   1.961   4.259  17.170 -0.6847 -0.2428 -0.2569
  547TMC3    C2 8166   1.918   4.196  17.053 -0.2257 -0.1902  0.4185
  547TMC3    C3 8167   1.817   4.097  17.064  0.2878  0.1909  0.4885
  547TMC3    C4 8168   1.910   4.234  17.295  0.7067  0.2439  0.5301
  547TMC3    C5 8169   1.814   4.139  17.301  0.5186  0.1934  0.4850
  547TMC3    C6 8170   1.766   4.078  17.189 -0.4206 -0.2520  0.6737
  547TMC3     C 8171   2.040   4.383  17.156 -0.0815  0.4305 -0.3733
  547TMC3     O 8172   2.044   4.464  17.245  0.4293  0.1056 -0.4672
  547TMC3     H 8173   1.935   4.241  16.956  0.1175  1.5570  1.2839
  547TMC3    H1 8174   1.931   4.294  17.383  2.4212 -1.0981  1.0378
  547TMC3    H2 8175   1.684   4.007  17.191 -0.3001 -0.3893  0.7392
  547TMC3    C7 8176   1.747   4.127  17.428 -0.3046  0.6174 -0.3177
  547TMC3    C8 8177   1.740   4.068  16.941 -0.8537  0.6046  0.7132
  547TMC3    O1 8178   1.759   4.218  17.509 -0.6586 -0.6372 -0.7634
  547TMC3    O2 8179   1.755   4.132  16.841  0.1056  0.2121 -0.0414
  548MPD2     C 8180   1.186   4.600  12.288  0.4793 -0.0028 -0.2828
  548MPD2    C1 8181   1.198   4.605  12.424  0.0185  0.8220  0.1284
  548MPD2    C2 8182   1.174   4.491  12.498 -0.4444 -0.3965 -0.1212
  548MPD2    C3 8183   1.160   4.367  12.433 -0.3017  1.0001 -0.1817
  548MPD2    C4 8184   1.166   4.368  12.295  0.0864  0.1207 -0.2958
  548MPD2    C5 8185   1.170   4.484  12.226 -0.0843  0.5697  0.0960
  548MPD2     H 8186   1.167   4.495  12.607 -1.8987 -0.8757 -0.1999
  548MPD2    H1 8187   1.186   4.272  12.248  2.0589  0.5870 -0.3985
  548MPD2    H2 8188   1.193   4.693  12.232 -0.0970  0.0782 -0.2153
  548MPD2    H3 8189   1.177   4.470  12.119  0.0846  0.9246  0.0601
  548MPD2     N 8190   1.152   4.254  12.517 -0.5369  0.2057  0.1745
  548MPD2    H5 8191   1.151   4.265  12.618  0.9163  0.4719  0.1496
  548MPD2    N1 8192   1.210   4.735  12.477 -0.0500 -0.2412  0.3147
  548MPD2    H7 8193   1.213   0.080  12.416  0.9289 -0.8298 -0.4075
  549TMC3    C1 8194   1.279   0.164  12.625 -0.4342 -0.4080  0.3557
  549TMC3    C2 8195   1.187   0.263  12.597  0.1755  0.3602  0.0196
  549TMC3    C3 8196   1.168   0.369  12.676  0.0290  0.1011  1.0711
  549TMC3    C4 8197   1.335   0.168  12.750 -0.2423 -0.3375 -0.5086
  549TMC3    C5 8198   1.321   0.281  12.827  0.0141 -0.4578 -0.0608
  549TMC3    C6 8199   1.233   0.387  12.796  0.3476  0.2585 -0.3476
  549TMC3     C 8200   1.243   0.025  12.609 -0.7027 -0.1840  0.0094
  549TMC3     O 8201   1.245   4.695  12.716 -0.1332 -0.3693 -0.3980
  549TMC3     H 8202   1.121   0.240  12.515  2.1464 -2.9166 -0.6287
  549TMC3    H1 8203   1.419   0.104  12.776  1.1315  1.4692 -0.5199
  549TMC3    H2 8204   1.213   0.470  12.862  2.4671  0.1617  0.4152
  549TMC3    C7 8205   1.363   0.263  12.966  0.1769  0.2104  0.4660
  549TMC3    C8 8206   1.038   0.424  12.657  0.0970 -0.2472 -0.1180
  549TMC3    O1 8207   1.401   0.361  13.023  0.2023  0.1188 -0.2946
  549TMC3    O2 8208   0.965   0.365  12.579 -0.8313  0.3716  0.1794
  550TMC3    C1 8209   4.471   2.618  12.448  0.6444  0.5192 -0.1724
  550TMC3    C2 8210   4.437   2.713  12.537 -0.4294  0.0366  0.0053
  550TMC3    C3 8211   4.326   2.783  12.504 -0.5573  0.2734  0.1651
  550TMC3    C4 8212   4.417   2.613  12.324 -0.0443 -0.1353 -0.1179
  550TMC3    C5 8213   4.308   2.692  12.288  0.2873  0.9064 -0.6492
  550TMC3    C6 8214   4.274   2.786  12.380  0.4158  0.5189 -0.1565
  550TMC3     C 8215   4.574   2.521  12.487 -0.1926  0.3387  0.1410
  550TMC3     O 8216   4.585   2.495  12.606  0.0266  0.1525 -0.1060
  550TMC3     H 8217   4.476   2.715  12.638  1.1809 -1.9917 -0.5639
  550TMC3    H1 8218   4.447   2.536  12.254  0.0196  0.0123 -0.2519
  550TMC3    H2 8219   4.189   2.850  12.358  1.0618  2.3019  2.5470
  550TMC3    C7 8220   4.232   2.688  12.161  0.6159 -0.5389 -0.0045
  550TMC3    C8 8221   4.294   2.902  12.586 -0.3217  0.6506  0.1701
  550TMC3    O1 8222   4.120   2.739  12.154  0.7923 -0.1444  0.5372
  550TMC3    O2 8223   4.290   2.900  12.712  0.1054 -0.6000  0.1104
  551TMC3    C1 8224   2.918   0.696  13.363  0.8594  0.0180 -0.3039
  551TMC3    C2 8225   3.022   0.616  13.335  0.4637  0.2718 -0.7443
  551TMC3    C3 8226   3.125   0.612  13.424  0.5700 -0.4202 -0.7316
  551TMC3    C4 8227   2.904   0.765  13.476 -0.2721 -0.3010  0.0977
  551TMC3    C5 8228   3.001   0.750  13.565 -0.2100  0.1609 -0.6925
  551TMC3    C6 8229   3.112   0.670  13.543 -0.6119  0.1246 -0.2263
  551TMC3     C 8230   2.825   0.722  13.258 -0.0785  0.2992  0.9917
  551TMC3     O 8231   2.809   0.628  13.181 -0.0004  0.8125  0.0022
  551TMC3     H 8232   3.042   0.575  13.236 -1.7160 -2.8349  0.1144
  551TMC3    H1 8233   2.817   0.825  13.502  0.5607 -0.2509  2.7560
  551TMC3    H2 8234   3.196   0.665  13.612 -1.1467 -1.5688  0.3253
  551TMC3    C7 8235   3.016   0.829  13.685  0.3948 -0.6552  0.1079
  551TMC3    C8 8236   3.250   0.652  13.361 -0.3629  0.0511  0.7533
  551TMC3    O1 8237   3.034   0.761  13.783 -0.3087 -0.2315  0.2675
  551TMC3    O2 8238   3.242   0.733  13.270  0.5119  0.8419  0.2615
  552MPD2     C 8239   0.117   2.876  13.799  1.2875 -0.0654 -0.2801
  552MPD2    C1 8240   0.152   2.756  13.841 -0.3923 -0.5249  0.1682
  552MPD2    C2 8241   0.247   2.734  13.932  0.3172  0.3968  0.7529
  552MPD2    C3 8242   0.328   2.833  13.978 -0.8068  0.5857  0.6462
  552MPD2    C4 8243   0.307   2.959  13.919  0.6414 -0.4673  0.3888
  552MPD2    C5 8244   0.201   2.978  13.839  0.2330 -0.1405 -0.1113
  552MPD2     H 8245   0.267   2.633  13.965 -0.1443  1.0670  3.0561
  552MPD2    H1 8246   0.358   3.051  13.946  0.0006  0.1042 -0.3584
  552MPD2    H2 8247   0.032   2.910  13.740 -0.4603 -1.0971  1.6768
  552MPD2    H3 8248   0.177   3.076  13.800  2.5411 -0.2250 -1.7572
  552MPD2     N 8249   0.424   2.824  14.084  0.4346  0.8961  0.4355
  552MPD2    H5 8250   0.480   2.908  14.093 -1.6182  2.2043  1.1304
  552MPD2    N1 8251   0.090   2.641  13.780 -0.0386 -0.2486  0.3051
  552MPD2    H7 8252   0.123   2.552  13.817  0.0065  0.9553  3.1863
  553TMC3    C1 8253   4.664   2.503  13.656 -0.2931 -0.1196 -0.1581
  553TMC3    C2 8254   4.543   2.482  13.613  0.3056  0.1798 -0.7202
  553TMC3    C3 8255   4.505   2.352  13.572  0.0737  0.3228  0.7248
  553TMC3    C4 8256   0.023   2.408  13.671 -0.4456  0.4256 -0.0099
  553TMC3    C5 8257   4.722   2.277  13.639 -0.2920  0.1442  0.0794
  553TMC3    C6 8258   4.591   2.249  13.597 -0.2048 -0.4697  0.3273
  553TMC3     C 8259   4.714   2.640  13.691 -0.1294 -0.2435 -0.3789
  553TMC3     O 8260   4.653   2.732  13.642 -0.1243 -0.1773 -0.1096
  553TMC3     H 8261   4.490   2.573  13.590  1.4524  0.7137 -1.2375
  553TMC3    H1 8262   0.128   2.423  13.691 -0.3320 -0.4164  0.0057
  553TMC3    H2 8263   4.573   2.148  13.564 -1.7625  0.4956 -1.7947
  553TMC3    C7 8264   0.087   2.174  13.638 -0.3148 -0.3720 -0.3972
  553TMC3    C8 8265   4.394   2.323  13.487 -0.0727 -0.6144 -0.5521
  553TMC3    O1 8266   0.095   2.113  13.530  0.4549 -0.0370  0.2363
  553TMC3    O2 8267   4.385   2.214  13.438 -0.6047 -0.3340 -0.3669
  554TMC3    C1 8268   1.307   1.272  11.605 -0.0427 -0.4266 -0.4053
  554TMC3    C2 8269   1.268   1.195  11.494  0.4013 -0.0668  0.0356
  554TMC3    C3 8270   1.329   1.219  11.372  0.0072 -0.3966  0.1395
  554TMC3    C4 8271   1.396   1.374  11.590 -0.3784 -0.6395  0.0981
  554TMC3    C5 8272   1.447   1.404  11.470 -0.7582 -0.0118  0.1090
  554TMC3    C6 8273   1.420   1.322  11.363  0.0858 -0.2079  0.0217
  554TMC3     C 8274   1.277   1.220  11.740 -0.4603 -0.3290  0.5653
  554TMC3     O 8275   1.296   1.310  11.822  0.1583 -0.2546 -0.2874
  554TMC3     H 8276   1.195   1.116  11.507  2.3348 -2.1729 -1.9562
  554TMC3    H1 8277   1.427   1.439  11.671 -0.0395  0.1811 -0.6779
  554TMC3    H2 8278   1.454   1.341  11.262 -1.5072  1.6736 -0.1362
  554TMC3    C7 8279   1.510   1.538  11.440  0.3803  0.2759  0.2780
  554TMC3    C8 8280   1.255   1.191  11.242 -0.9928  0.3115  0.8273
  554TMC3    O1 8281   1.585   1.544  11.341  0.7039 -0.4431 -0.1638
  554TMC3    O2 8282   1.296   1.241  11.137  0.4606 -0.1517 -0.0733
  555TMC3    C1 8283   0.840   1.450  15.486  0.2100 -0.4214  0.2409
  555TMC3    C2 8284   0.880   1.493  15.607 -0.4940 -0.6534  0.1787
  555TMC3    C3 8285   0.950   1.416  15.697  0.3935  0.3515  0.2355
  555TMC3    C4 8286   0.878   1.320  15.451 -0.5805  0.3143  0.3104
  555TMC3    C5 8287   0.963   1.244  15.532 -0.1990  0.2983  0.3281
  555TMC3    C6 8288   1.007   1.294  15.658 -0.2199 -0.5741  0.1949
  555TMC3     C 8289   0.748   1.527  15.406 -0.1659  0.5776 -0.2279
  555TMC3     O 8290   0.677   1.613  15.463  0.0218  0.1405 -0.4427
  555TMC3     H 8291   0.847   1.594  15.629 -1.8181 -0.9447 -0.4524
  555TMC3    H1 8292   0.858   1.268  15.358  0.7089  2.3226 -1.0766
  555TMC3    H2 8293   1.049   1.237  15.740  1.8252  2.7358  1.4572
  555TMC3    C7 8294   0.939   1.103  15.526 -0.3212  0.3672 -0.4729
  555TMC3    C8 8295   0.970   1.463  15.835  0.7174  0.3478 -0.2213
  555TMC3    O1 8296   0.823   1.065  15.507  0.4171  0.0328  0.4182
  555TMC3    O2 8297   0.897   1.556  15.875  0.0070  0.3085 -0.1827
  556MPD2     C 8298   3.314   2.913  10.395  0.0542 -0.5012 -0.4757
  556MPD2    C1 8299   3.278   2.814  10.488  0.1845 -0.1513 -0.2456
  556MPD2    C2 8300   3.227   2.699  10.428  0.2736  0.4574  0.4096
  556MPD2    C3 8301   3.230   2.669  10.293  0.2386 -0.3871 -0.4239
  556MPD2    C4 8302   3.287   2.765  10.208 -0.0943 -0.0418  0.7509
  556MPD2    C5 8303   3.337   2.883  10.263 -0.2356  0.4292  0.0957
  556MPD2     H 8304   3.180   2.634  10.500 -0.7921 -1.3338 -1.9040
  556MPD2    H1 8305   3.305   2.740  10.104  0.5209 -1.2961  1.1564
  556MPD2    H2 8306   3.339   3.011  10.434 -1.2415 -0.2595 -0.2376
  556MPD2    H3 8307   3.383   2.958  10.200 -2.7300  1.1887 -0.8611
  556MPD2     N 8308   3.203   2.535  10.252 -0.0081  0.2241 -0.0606
  556MPD2    H5 8309   3.179   2.463  10.319 -1.8464  2.4667  1.6908
  556MPD2    N1 8310   3.256   2.828  10.625  0.1611 -0.5462  0.0057
  556MPD2    H7 8311   3.218   2.745  10.669 -1.2009  0.8365  1.4127
  557TMC3    C1 8312   3.202   2.349  10.116  0.8509  0.5220  0.0475
  557TMC3    C2 8313   3.119   2.300  10.011  0.4866  0.2299 -0.4383
  557TMC3    C3 8314   3.101   2.166  10.006 -0.5376  0.2207  0.0477
  557TMC3    C4 8315   3.243   2.266  10.216 -0.2885 -0.0364  0.2893
  557TMC3    C5 8316   3.217   2.133  10.203  0.4785 -0.9179  0.0122
  557TMC3    C6 8317   3.148   2.083  10.101  0.1536  0.2643  0.2262
  557TMC3     C 8318   3.215   2.491  10.124  0.5729 -0.5507 -0.2006
  557TMC3     O 8319   3.211   2.552  10.018  0.3717 -0.1251  0.1030
  557TMC3     H 8320   3.079   2.369   9.938  0.9625  1.5002  0.5187
  557TMC3    H1 8321   3.303   2.309  10.296  0.9831 -1.2953  0.0113
  557TMC3    H2 8322   3.119   1.978  10.108 -1.0515  0.7273  2.2884
  557TMC3    C7 8323   3.198   2.069  10.330 -0.5681 -0.5971  0.1609
  557TMC3    C8 8324   3.017   2.115   9.891  0.1997  0.6133  0.9734
  557TMC3    O1 8325   3.095   2.003  10.336 -0.4289 -0.1138 -0.2305
  557TMC3    O2 8326   2.950   2.200   9.831 -0.8088 -0.0055  0.0991
  558TMC3    C1 8327   0.932   0.191   9.926  0.4584 -0.2774 -0.3202
  558TMC3    C2 8328   0.821   0.152   9.992  0.0385 -0.1458 -0.3637
  558TMC3    C3 8329   0.714   0.228   9.967 -0.1392  0.1854 -0.1111
  558TMC3    C4 8330   0.943   0.305   9.848 -0.0552  0.4082 -0.3163
  558TMC3    C5 8331   0.825   0.366   9.811  0.6021  0.3509 -1.7620
  558TMC3    C6 8332   0.708   0.331   9.876 -0.5636 -0.1827 -0.0147
  558TMC3     C 8333   1.051   0.142   9.985  0.2167 -0.3629  0.4112
  558TMC3     O 8334   1.126   0.231  10.025  0.2314 -0.2795 -0.3987
  558TMC3     H 8335   0.832   0.061  10.051 -1.0330 -0.3231 -0.4507
  558TMC3    H1 8336   1.034   0.334   9.797  2.3376 -2.5859  2.2529
  558TMC3    H2 8337   0.619   0.388   9.856 -0.0067 -0.0265 -2.0972
  558TMC3    C7 8338   0.826   0.441   9.686  0.6707  0.2243  0.4450
  558TMC3    C8 8339   0.583   0.184  10.027 -0.2673  0.4898  0.4848
  558TMC3    O1 8340   0.937   0.466   9.638  0.1730 -0.1844  0.0531
  558TMC3    O2 8341   0.479   0.216   9.973 -0.2627  0.2559 -0.6209
  559MPD2     C 8342   1.009   0.916  10.311  0.2780 -0.7774  0.0190
  559MPD2    C1 8343   0.957   0.804  10.371 -0.5511 -0.6454 -0.1048
  559MPD2    C2 8344   1.039   0.738  10.459 -0.2567  0.0033 -0.1366
  559MPD2    C3 8345   1.174   0.776  10.482 -0.0791  0.4994  0.1997
  559MPD2    C4 8346   1.218   0.886  10.415 -0.0302 -0.5995  0.7977
  559MPD2    C5 8347   1.142   0.958  10.329  0.2294  0.1467  0.2025
  559MPD2     H 8348   0.998   0.655  10.514  0.4382 -0.4502 -0.2962
  559MPD2    H1 8349   1.324   0.905  10.407 -0.2357  0.7246  1.3744
  559MPD2    H2 8350   0.952   0.969  10.235  2.8318  1.8405 -0.0515
  559MPD2    H3 8351   1.175   1.053  10.288 -1.9846  0.4260 -0.9194
  559MPD2     N 8352   1.252   0.697  10.577  0.1717  0.1576 -0.5811
  559MPD2    H5 8353   1.201   0.618  10.616 -0.4053  1.7643  1.9242
  559MPD2    N1 8354   0.819   0.775  10.343  0.1769 -0.0427 -0.3643
  559MPD2    H7 8355   0.771   0.841  10.283 -1.2254  0.0864  0.9231
  560TMC3    C1 8356   1.451   0.615  10.678  0.5376  0.4985  0.6405
  560TMC3    C2 8357   1.396   0.489  10.672  0.9834 -0.1581 -0.0597
  560TMC3    C3 8358   1.424   0.401  10.774  0.3530 -0.4965 -0.2465
  560TMC3    C4 8359   1.530   0.658  10.780  0.2205  0.5739  0.6677
  560TMC3    C5 8360   1.563   0.562  10.871  0.1013 -0.4032 -0.3588
  560TMC3    C6 8361   1.501   0.434  10.877 -0.0141 -0.2646  0.0305
  560TMC3     C 8362   1.384   0.727  10.613  0.0387 -0.3150  0.2736
  560TMC3     O 8363   1.455   0.825  10.587  0.0852  0.3574 -0.6435
  560TMC3     H 8364   1.329   0.466  10.590  0.8195 -0.5264  0.1723
  560TMC3    H1 8365   1.584   0.752  10.780  2.8033 -0.9105 -1.7638
  560TMC3    H2 8366   1.536   0.358  10.946  0.4376  0.9677  1.1707
  560TMC3    C7 8367   1.641   0.603  10.983  0.8009  0.2184 -0.0049
  560TMC3    C8 8368   1.348   0.277  10.759 -0.0377 -0.3560  0.4828
  560TMC3    O1 8369   1.626   0.530  11.088  0.0429  0.0830  0.8072
  560TMC3    O2 8370   1.250   0.284  10.687  0.3786  0.0579 -0.0738
  561TMC3    C1 8371   3.772   0.115  11.608 -0.0346 -0.5108  0.4183
  561TMC3    C2 8372   3.768   0.163  11.739  0.3851  0.0268  0.2410
  561TMC3    C3 8373   3.732   0.288  11.757 -0.4622  0.2585 -0.0528
  561TMC3    C4 8374   3.759   0.195  11.497 -0.4747  0.2892  0.2297
  561TMC3    C5 8375   3.730   0.325  11.525  0.1593 -0.1228 -0.1620
  561TMC3    C6 8376   3.714   0.372  11.655  0.6071 -0.5376 -0.2393
  561TMC3     C 8377   3.826   4.718  11.583 -0.3711 -0.3628  0.6014
  561TMC3     O 8378   3.888   4.664  11.674  0.3248  0.2353  0.3377
  561TMC3     H 8379   3.780   0.091  11.819  0.1667  0.7863  0.9614
  561TMC3    H1 8380   3.748   0.160  11.395 -0.6660 -0.1552  0.4063
  561TMC3    H2 8381   3.711   0.480  11.651  1.3845 -0.5533 -1.1502
  561TMC3    C7 8382   3.687   0.404  11.415 -0.1876  0.4416 -0.6171
  561TMC3    C8 8383   3.711   0.322  11.896  0.0137 -0.0169  0.1818
  561TMC3    O1 8384   3.634   0.512  11.436  0.0861 -0.1867  0.5937
  561TMC3    O2 8385   3.779   0.271  11.987 -0.2323 -0.2334  0.4157
  562TMC3    C1 8386   0.786   1.458  16.378 -0.8582  0.0677 -0.4734
  562TMC3    C2 8387   0.733   1.573  16.323  0.2377  0.1662  0.4374
  562TMC3    C3 8388   0.710   1.570  16.189 -0.1356  0.1235 -0.5330
  562TMC3    C4 8389   0.807   1.344  16.309 -0.7134 -0.4438 -0.8155
  562TMC3    C5 8390   0.792   1.349  16.176 -0.3899 -0.4322  0.1040
  562TMC3    C6 8391   0.749   1.458  16.116  0.0474 -0.6744  0.7046
  562TMC3     C 8392   0.843   1.474  16.508 -0.8418  0.6615  0.0430
  562TMC3     O 8393   0.784   1.544  16.586 -0.2582 -0.3988  0.2341
  562TMC3     H 8394   0.709   1.659  16.384  1.2083  1.0227 -0.4048
  562TMC3    H1 8395   0.840   1.257  16.364 -1.1359  0.4722  0.8741
  562TMC3    H2 8396   0.727   1.449  16.011  0.8918  2.0564  0.2902
  562TMC3    C7 8397   0.796   1.230  16.098 -0.0398 -0.6172  0.6426
  562TMC3    C8 8398   0.667   1.690  16.125 -0.0650  0.0290  0.3621
  562TMC3    O1 8399   0.778   1.231  15.979  1.1943  0.8123 -0.1317
  562TMC3    O2 8400   0.609   1.772  16.201 -0.3288  0.3471  0.1440
  563MPD2     C 8401   2.786   3.110  15.737 -0.0247  0.5491  0.1947
  563MPD2    C1 8402   2.779   3.170  15.863  0.4975 -0.7188 -0.8164
  563MPD2    C2 8403   2.892   3.154  15.942 -0.1783  0.4613  0.1264
  563MPD2    C3 8404   2.996   3.076  15.910  0.1769 -0.0023 -0.0254
  563MPD2    C4 8405   2.991   3.008  15.791  0.0069 -0.5813 -0.0121
  563MPD2    C5 8406   2.892   3.039  15.699  0.3380 -0.0695 -1.0777
  563MPD2     H 8407   2.907   3.202  16.038  0.0423 -1.2430  0.9484
  563MPD2    H1 8408   3.074   2.945  15.760  0.9768 -0.8312  3.1242
  563MPD2    H2 8409   2.701   3.123  15.671  1.4555  0.2628 -1.7781
  563MPD2    H3 8410   2.885   2.980  15.609 -1.5930  1.2461 -1.7954
  563MPD2     N 8411   3.095   3.060  16.004  0.4464  0.5217  0.3225
  563MPD2    H5 8412   3.080   3.115  16.088  1.5950 -1.1839  1.6369
  563MPD2    N1 8413   2.658   3.230  15.909  0.5548  0.3780 -0.0534
  563MPD2    H7 8414   2.576   3.195  15.863 -0.8533  1.3643  1.6976
  564TMC3    C1 8415   2.568   3.237  16.124  0.6213  0.4304  0.2752
  564TMC3    C2 8416   2.475   3.153  16.067 -0.2239 -0.0519 -0.6727
  564TMC3    C3 8417   2.438   3.046  16.148  0.7338  0.1371  0.5799
  564TMC3    C4 8418   2.641   3.200  16.236 -0.6487  0.6017  0.4619
  564TMC3    C5 8419   2.622   3.082  16.298  0.0878  0.1005  0.0437
  564TMC3    C6 8420   2.513   3.012  16.257  0.4287  1.1439  0.0567
  564TMC3     C 8421   2.657   3.296  16.031  0.4687 -1.1859  0.1950
  564TMC3     O 8422   2.749   3.359  16.081 -0.1659  0.1571 -0.1902
  564TMC3     H 8423   2.417   3.162  15.976  2.0575 -0.0582 -2.1119
  564TMC3    H1 8424   2.734   3.252  16.257  1.2122 -1.7129 -1.9347
  564TMC3    H2 8425   2.497   2.929  16.324  0.3421 -1.5330 -3.3135
  564TMC3    C7 8426   2.748   3.012  16.297  0.2589  0.6171  0.3597
  564TMC3    C8 8427   2.405   2.918  16.081  0.6822 -0.3709 -0.6840
  564TMC3    O1 8428   2.838   3.063  16.361 -0.1713 -0.1700  0.0571
  564TMC3    O2 8429   2.384   2.822  16.151  0.0806 -0.3854 -0.0123
  565TMC3    C1 8430   3.004   4.238  10.150 -0.9015  0.1989  0.1649
  565TMC3    C2 8431   2.994   4.139  10.238 -0.5287  0.0691 -0.2649
  565TMC3    C3 8432   2.902   4.035  10.218  0.6589  0.9379 -0.4174
  565TMC3    C4 8433   2.938   4.237  10.029 -0.1317 -0.2930  0.7551
  565TMC3    C5 8434   2.850   4.137  10.012  0.2353 -0.0972 -0.1710
  565TMC3    C6 8435   2.834   4.034  10.101  0.2429  0.3729  0.3359
  565TMC3     C 8436   3.126   4.324  10.162 -0.2742 -0.2728 -0.3328
  565TMC3     O 8437   3.174   4.375  10.061 -0.2291  0.0201  0.0009
  565TMC3     H 8438   3.065   4.138  10.320 -0.0696  3.6493 -0.6144
  565TMC3    H1 8439   2.949   4.325   9.967  0.9197 -1.2763 -0.4473
  565TMC3    H2 8440   2.745   3.972  10.096 -0.3464  1.4421 -2.6778
  565TMC3    C7 8441   2.767   4.138   9.897  0.6852 -0.8926 -0.1429
  565TMC3    C8 8442   2.874   3.919  10.304 -0.1299 -0.1404  0.2805
  565TMC3    O1 8443   2.700   4.039   9.889  0.1036  0.4163  0.1560
  565TMC3    O2 8444   2.810   3.824  10.258 -0.2764 -0.2234 -0.3748
  566MPD2     C 8445   0.380   0.494  14.381 -0.8702  0.3806  0.2748
  566MPD2    C1 8446   0.381   0.611  14.307  0.0283 -0.6380  0.0307
  566MPD2    C2 8447   0.255   0.678  14.289 -0.0200  0.1188  0.0674
  566MPD2    C3 8448   0.139   0.622  14.331 -0.0499 -0.4310 -0.1713
  566MPD2    C4 8449   0.144   0.496  14.389 -0.8421  0.2740  0.0144
  566MPD2    C5 8450   0.261   0.443  14.424 -0.3096  0.7626  0.1987
  566MPD2     H 8451   0.252   0.777  14.246  0.0833  0.7834  1.5989
  566MPD2    H1 8452   0.051   0.448  14.416 -0.2343 -1.0451 -0.2197
  566MPD2    H2 8453   0.467   0.431  14.398  0.5939  2.2873 -0.2269
  566MPD2    H3 8454   0.267   0.349  14.478 -0.5803  0.7236  0.1613
  566MPD2     N 8455   0.009   0.681  14.315  0.0797 -0.8545 -0.5569
  566MPD2    H5 8456   4.663   0.634  14.351  0.0064  1.3341  2.1940
  566MPD2    N1 8457   0.498   0.663  14.252 -0.2103  0.2699  0.1257
  566MPD2    H7 8458   0.586   0.614  14.260 -1.5092 -1.9694  0.8357
  567TMC3    C1 8459   0.624   0.827  14.143 -0.7996  0.3571 -0.2195
  567TMC3    C2 8460   0.633   0.920  14.043 -0.0573  0.3910 -0.6599
  567TMC3    C3 8461   0.736   1.015  14.050  0.2201 -0.0920 -0.2122
  567TMC3    C4 8462   0.714   0.828  14.249  0.5562 -0.2433 -0.2984
  567TMC3    C5 8463   0.820   0.914  14.239  0.5096  0.2240 -1.0957
  567TMC3    C6 8464   0.835   1.009  14.146 -0.0550  0.7038  0.2367
  567TMC3     C 8465   0.495   0.759  14.154 -0.1223  0.8326 -0.7193
  567TMC3     O 8466   0.405   0.793  14.079  0.1061  0.3239  0.2291
  567TMC3     H 8467   0.560   0.918  13.962 -0.0211 -1.4215 -0.6362
  567TMC3    H1 8468   0.694   0.770  14.339 -0.0759 -2.5172 -1.8953
  567TMC3    H2 8469   0.925   1.069  14.150  0.8261 -0.4969 -1.1939
  567TMC3    C7 8470   0.884   0.944  14.361 -0.0331 -0.1266  0.0037
  567TMC3    C8 8471   0.702   1.139  13.981  0.8126  0.0886 -0.2001
  567TMC3    O1 8472   1.007   0.928  14.366 -0.0420  0.0568 -0.1494
  567TMC3    O2 8473   0.594   1.142  13.923  0.2395  0.0661  0.3460
  568MPD2     C 8474   2.470   1.486  16.213  0.1581  0.8645  0.5646
  568MPD2    C1 8475   2.560   1.551  16.297  0.0224 -0.1616 -0.3677
  568MPD2    C2 8476   2.604   1.680  16.255 -0.4811  0.3116  1.3232
  568MPD2    C3 8477   2.560   1.735  16.134 -0.4447  0.7013  0.3166
  568MPD2    C4 8478   2.468   1.670  16.058 -0.0168  0.4316  0.4256
  568MPD2    C5 8479   2.428   1.543  16.098 -0.4435  0.7828 -0.1657
  568MPD2     H 8480   2.663   1.750  16.311  1.9903 -0.0442 -0.8465
  568MPD2    H1 8481   2.423   1.715  15.970  2.0834 -1.1477 -1.4708
  568MPD2    H2 8482   2.436   1.387  16.239  1.4039  0.3784  0.3319
  568MPD2    H3 8483   2.349   1.497  16.040 -0.4654  1.7335 -0.8814
  568MPD2     N 8484   2.611   1.859  16.103 -0.0705 -0.0552 -0.6638
  568MPD2    H5 8485   2.654   1.917  16.174  1.9330 -2.3014 -0.0330
  568MPD2    N1 8486   2.606   1.489  16.404 -0.0757 -0.0831 -0.7184
  568MPD2    H7 8487   2.574   1.396  16.429  0.0336  0.2601  0.7151
  569TMC3    C1 8488   2.636   2.058  16.012  0.8242  0.0947  0.1252
  569TMC3    C2 8489   2.623   2.109  16.135  0.4048  0.3294 -0.1896
  569TMC3    C3 8490   2.689   2.223  16.164 -0.0217  0.0188  0.4744
  569TMC3    C4 8491   2.683   2.141  15.912 -0.3376  0.0215  0.2886
  569TMC3    C5 8492   2.718   2.268  15.944 -0.6428  0.3315 -0.1372
  569TMC3    C6 8493   2.745   2.310  16.074  0.2344  0.2344  0.2166
  569TMC3     C 8494   2.597   1.925  15.985 -0.8401 -0.1587  0.1876
  569TMC3     O 8495   2.553   1.904  15.871 -0.2012 -0.3709  0.6369
  569TMC3     H 8496   2.553   2.069  16.209 -0.0571  4.7554  1.7950
  569TMC3    H1 8497   2.672   2.103  15.811 -1.1183  0.7837  0.0867
  569TMC3    H2 8498   2.790   2.404  16.105  2.5207 -0.2130 -1.7685
  569TMC3    C7 8499   2.673   2.366  15.845  0.2474 -0.3535 -0.2127
  569TMC3    C8 8500   2.629   2.298  16.281  0.7126  0.5379  0.8645
  569TMC3    O1 8501   2.662   2.331  15.729  0.1943  0.1595  0.0749
  569TMC3    O2 8502   2.521   2.267  16.318  0.2426 -0.4290  0.3843
  570TMC3    C1 8503   1.974   0.389  15.999  0.1188  0.1169 -0.2987
  570TMC3    C2 8504   2.017   0.418  15.872 -0.2520  0.5173 -0.4197
  570TMC3    C3 8505   2.055   0.547  15.842 -0.3014  0.2579  0.6425
  570TMC3    C4 8506   1.961   0.481  16.101  0.2518  0.3156 -0.1090
  570TMC3    C5 8507   1.995   0.603  16.065 -1.0216 -0.3915 -0.3971
  570TMC3    C6 8508   2.051   0.640  15.942 -0.2251  0.1789  1.0752
  570TMC3     C 8509   1.924   0.258  16.016 -0.3614  0.3069 -0.2718
  570TMC3     O 8510   1.887   0.202  15.913  0.0190  0.4773 -0.1733
  570TMC3     H 8511   2.027   0.337  15.800 -1.1083 -0.3700  0.4450
  570TMC3    H1 8512   1.905   0.465  16.193  0.3107  0.1745 -0.0993
  570TMC3    H2 8513   2.102   0.735  15.933  0.0102 -0.0204  0.3256
  570TMC3    C7 8514   1.983   0.706  16.165  0.0155 -0.6148  0.6976
  570TMC3    C8 8515   2.161   0.578  15.748  0.3745  0.8562  0.0384
  570TMC3    O1 8516   1.955   0.666  16.274 -0.2683  0.1429  0.6705
  570TMC3    O2 8517   2.208   0.692  15.748 -0.1333  0.2023  0.1428
  571MPD2     C 8518   0.187   1.783   0.290  0.1647  0.4808 -0.1304
  571MPD2    C1 8519   0.109   1.886   0.316 -0.1520  0.0351 -0.5466
  571MPD2    C2 8520   0.166   2.013   0.337  0.4077  0.0086 -0.2176
  571MPD2    C3 8521   0.297   2.036   0.322  0.2829 -0.0210 -0.5694
  571MPD2    C4 8522   0.373   1.922   0.304  0.4814 -0.5603  0.0294
  571MPD2    C5 8523   0.319   1.797   0.294  0.0144  0.6788  0.5749
  571MPD2     H 8524   0.101   2.095   0.365  0.0735 -0.8727  1.6029
  571MPD2    H1 8525   0.481   1.934   0.296  0.4364 -1.4947 -1.8856
  571MPD2    H2 8526   0.141   1.685   0.281 -1.4733  1.2757 -0.2571
  571MPD2    H3 8527   0.386   1.711   0.293 -0.0616  0.6246  0.2731
  571MPD2     N 8528   0.358   2.162   0.341  0.6650 -0.8927  0.0291
  571MPD2    H5 8529   0.459   2.162   0.345  0.6377 -0.9278  0.8371
  571MPD2    N1 8530   4.704   1.869   0.334 -0.0656  0.2700 -0.0499
  571MPD2    H7 8531   4.665   1.776   0.337 -0.0454  0.3635  2.7832
  572TMC3    C1 8532   0.373   2.398   0.372  0.2068 -0.5142 -0.6517
  572TMC3    C2 8533   0.478   2.379   0.451  0.5337 -1.2873 -0.9447
  572TMC3    C3 8534   0.551   2.480   0.509 -0.7388  0.4307 -0.5185
  572TMC3    C4 8535   0.325   2.527   0.356  0.1902 -0.2144 -0.2637
  572TMC3    C5 8536   0.410   2.626   0.401  0.0954  0.7111 -0.0721
  572TMC3    C6 8537   0.520   2.610   0.484 -0.3689 -0.6883 -0.3654
  572TMC3     C 8538   0.284   2.282   0.339 -0.2534 -0.4864 -0.0789
  572TMC3     O 8539   0.168   2.307   0.313  0.0900  0.5554 -0.0433
  572TMC3     H 8540   0.484   2.286   0.506 -1.2644 -0.7920  0.0847
  572TMC3    H1 8541   0.248   2.539   0.280  1.0710  0.8678 -0.9707
  572TMC3    H2 8542   0.576   2.697   0.519 -1.1194  0.1785 -1.3123
  572TMC3    C7 8543   0.376   2.758   0.358  0.0913  0.1706 -0.6866
  572TMC3    C8 8544   0.646   2.451   0.614  0.0345 -0.4343 -0.1515
  572TMC3    O1 8545   0.266   2.775   0.306 -0.2160  0.4482 -0.0777
  572TMC3    O2 8546   0.730   2.366   0.595 -0.6695  0.1508  0.3401
  573MPD2     C 8547   1.159   2.491   0.620  0.4062 -0.0739 -0.4232
  573MPD2    C1 8548   1.071   2.596   0.613 -0.0048 -0.6882  0.0667
  573MPD2    C2 8549   0.972   2.591   0.518 -0.2036  0.6921  0.6194
  573MPD2    C3 8550   0.978   2.494   0.413  1.2038 -0.3972  0.4774
  573MPD2    C4 8551   1.068   2.400   0.423  0.3724 -0.1937 -0.3591
  573MPD2    C5 8552   1.165   2.397   0.524 -0.0333  0.2374  0.0755
  573MPD2     H 8553   0.898   2.669   0.506  1.0926  1.6753 -1.1006
  573MPD2    H1 8554   1.075   2.320   0.350 -0.1805 -1.4545  0.9770
  573MPD2    H2 8555   1.234   2.484   0.698  0.7801 -0.1840 -0.7961
  573MPD2    H3 8556   1.220   2.306   0.543  0.6334  0.4944 -0.6200
  573MPD2     N 8557   0.885   2.492   0.300  0.1102 -0.6420 -0.2995
  573MPD2    H5 8558   0.901   2.425   0.225 -1.8517 -0.2171 -1.1025
  573MPD2    N1 8559   1.081   2.704   0.703  0.1141  0.2605  0.5536
  573MPD2    H7 8560   1.153   2.694   0.775 -1.4809 -1.4670  1.8886
  574TMC3    C1 8561   0.715   2.546   0.147  0.5476  0.2107  0.3517
  574TMC3    C2 8562   0.642   2.649   0.097 -0.4391  0.2458 -0.3367
  574TMC3    C3 8563   0.524   2.614   0.030  0.2298  0.5640 -0.9160
  574TMC3    C4 8564   0.673   2.414   0.141  0.3271 -1.1364  0.0459
  574TMC3    C5 8565   0.570   2.383   0.060  0.2988 -0.2631 -0.2526
  574TMC3    C6 8566   0.487   2.482   0.019 -0.6373 -0.3094  0.1520
  574TMC3     C 8567   0.794   2.592   0.264  0.3277 -0.0138  0.4269
  574TMC3     O 8568   0.764   2.697   0.316  0.0828 -0.4857  0.0550
  574TMC3     H 8569   0.661   2.755   0.113 -0.0254 -0.1024  1.4893
  574TMC3    H1 8570   0.744   2.334   0.159 -0.5231 -2.2637 -1.6281
  574TMC3    H2 8571   0.399   2.459  17.701 -1.5469  0.8189  1.0684
  574TMC3    C7 8572   0.534   2.243   0.052  0.0227  0.0859 -0.2808
  574TMC3    C8 8573   0.413   2.717   0.014  0.3342 -0.6579  0.3803
  574TMC3    O1 8574   0.580   2.159   0.131 -0.8315  0.2188 -0.1842
  574TMC3    O2 8575   0.302   2.664   0.019  0.2426 -0.2371 -0.6811
  575TMC3    C1 8576   2.624   3.145  10.686 -0.1204  0.3288  0.1373
  575TMC3    C2 8577   2.586   3.065  10.578 -0.2050 -0.3219  0.6872
  575TMC3    C3 8578   2.630   3.113  10.457  0.1572  0.6381  0.3641
  575TMC3    C4 8579   2.699   3.260  10.684  0.0287 -0.1237 -0.5306
  575TMC3    C5 8580   2.732   3.302  10.560 -0.1537 -0.9511 -0.4520
  575TMC3    C6 8581   2.693   3.235  10.450  0.5218  0.8570 -0.2496
  575TMC3     C 8582   2.582   3.091  10.813  0.2189 -0.2262 -0.2886
  575TMC3     O 8583   2.489   3.011  10.823  0.3775  0.5397 -0.0768
  575TMC3     H 8584   2.519   2.983  10.603 -0.9131 -0.0122 -0.2140
  575TMC3    H1 8585   2.730   3.316  10.772 -1.0282 -0.7771  0.2711
  575TMC3    H2 8586   2.716   3.275  10.352 -2.3574  1.7211 -0.5899
  575TMC3    C7 8587   2.784   3.434  10.540 -0.4773  0.4538  0.3379
  575TMC3    C8 8588   2.569   3.045  10.341  0.4150  0.4868  0.0831
  575TMC3    O1 8589   2.856   3.451  10.444 -0.0587  0.6666 -0.1651
  575TMC3    O2 8590   2.594   3.102  10.237  0.4447 -0.0784 -0.2216
  576MPD2     C 8591   2.729   1.074  12.698  0.4192 -0.5982 -0.2138
  576MPD2    C1 8592   2.847   1.117  12.646  0.0348  0.1946  0.4396
  576MPD2    C2 8593   2.920   1.206  12.720 -0.0782  0.3044  0.2729
  576MPD2    C3 8594   2.886   1.248  12.844  0.0273  0.1402  0.8800
  576MPD2    C4 8595   2.760   1.205  12.896 -0.0346 -0.1251 -0.0081
  576MPD2    C5 8596   2.688   1.114  12.822 -0.0479  0.3977  0.8498
  576MPD2     H 8597   3.015   1.242  12.684 -0.2418  0.9145  0.4507
  576MPD2    H1 8598   2.711   1.234  12.988 -0.7060  0.8414 -0.6775
  576MPD2    H2 8599   2.672   0.995  12.651 -1.1693  0.9173 -0.8052
  576MPD2    H3 8600   2.594   1.081  12.864  0.4564 -1.2699  0.6760
  576MPD2     N 8601   2.978   1.332  12.906  0.1638 -0.1935 -0.8720
  576MPD2    H5 8602   3.064   1.334  12.852  0.9216  0.3524  0.3455
  576MPD2    N1 8603   2.905   1.079  12.524 -0.1655 -0.1027 -0.2135
  576MPD2    H7 8604   2.985   1.133  12.491  2.6338 -1.6700  3.9823
  577TMC3    C1 8605   2.950   0.941  12.353  0.4084  0.2164  0.4987
  577TMC3    C2 8606   2.999   0.816  12.343 -0.5629 -0.4332  0.6897
  577TMC3    C3 8607   3.075   0.784  12.234  0.8657 -0.2378  1.0269
  577TMC3    C4 8608   2.969   1.040  12.259  0.2658 -0.4371  0.2696
  577TMC3    C5 8609   3.046   1.007  12.149  0.4796 -0.4400 -0.3841
  577TMC3    C6 8610   3.092   0.880  12.141  0.3047 -1.0425 -0.0678
  577TMC3     C 8611   2.865   0.965  12.465 -0.4916  0.6532 -0.4435
  577TMC3     O 8612   2.816   0.863  12.516 -0.4752  0.5097  0.4328
  577TMC3     H 8613   2.992   0.746  12.425 -2.6506  0.4955  1.3168
  577TMC3    H1 8614   2.919   1.136  12.267 -0.1977 -0.5195 -1.4690
  577TMC3    H2 8615   3.140   0.847  12.050  0.5396  1.0767 -0.7036
  577TMC3    C7 8616   3.001   1.077  12.026 -0.3836 -1.0145  0.0972
  577TMC3    C8 8617   3.146   0.662  12.233  0.3788  0.3533 -0.3234
  577TMC3    O1 8618   2.992   1.201  12.031  0.3854  0.1222  0.1747
  577TMC3    O2 8619   3.106   0.578  12.316  0.2637  0.4260  0.2568
  578MPD2     C 8620   1.618   1.312   1.106 -0.3063  0.1382  0.5031
  578MPD2    C1 8621   1.701   1.209   1.070 -0.2868  0.5117  0.4190
  578MPD2    C2 8622   1.765   1.130   1.165 -0.1848  0.2839 -0.8849
  578MPD2    C3 8623   1.729   1.138   1.298 -0.7068  0.2154 -0.3796
  578MPD2    C4 8624   1.631   1.230   1.335  0.7420 -0.0329  0.3367
  578MPD2    C5 8625   1.579   1.314   1.240 -0.2509  0.4121 -0.6621
  578MPD2     H 8626   1.839   1.053   1.142  0.1475  0.5666 -0.7582
  578MPD2    H1 8627   1.581   1.235   1.430 -0.3299  3.8369 -0.4420
  578MPD2    H2 8628   1.577   1.382   1.034  0.2334  1.1126  1.1456
  578MPD2    H3 8629   1.503   1.386   1.268  1.2432  1.0190  1.8557
  578MPD2     N 8630   1.809   1.058   1.390 -0.3140  0.4063 -0.2491
  578MPD2    H5 8631   1.887   1.005   1.351  1.1749  1.5919  1.1051
  578MPD2    N1 8632   1.719   1.187   0.933  0.2437  0.2909  0.3872
  578MPD2    H7 8633   1.664   1.244   0.870  1.8455 -0.8480 -2.0692
  579TMC3    C1 8634   1.896   0.956   1.568 -0.4914  0.4478  0.7628
  579TMC3    C2 8635   2.003   0.989   1.649  0.0087 -0.1504  0.3492
  579TMC3    C3 8636   2.122   0.921   1.639  0.0389  0.3380 -0.2475
  579TMC3    C4 8637   1.899   0.850   1.476  0.2383 -0.1072  0.1754
  579TMC3    C5 8638   2.016   0.771   1.483 -0.2662 -0.7746  0.1414
  579TMC3    C6 8639   2.122   0.810   1.553  0.0397  0.9229 -0.3839
  579TMC3     C 8640   1.815   1.067   1.528 -0.2198  0.3866 -0.0683
  579TMC3     O 8641   1.766   1.145   1.609  0.0813 -0.7588  0.0245
  579TMC3     H 8642   2.002   1.079   1.709  0.3009  0.4176 -0.4982
  579TMC3    H1 8643   1.817   0.828   1.409 -1.0388 -0.0462  1.6857
  579TMC3    H2 8644   2.213   0.752   1.543 -0.7469 -0.2272 -0.8651
  579TMC3    C7 8645   2.047   0.685   1.365 -0.4120 -0.6635 -0.7556
  579TMC3    C8 8646   2.249   0.994   1.632  0.2986  0.0949  0.2431
  579TMC3    O1 8647   2.131   0.598   1.380  0.2737  0.3747  0.0799
  579TMC3    O2 8648   2.247   1.101   1.698 -0.3549 -0.0996 -0.4889
  580TMC3    C1 8649   0.807   4.427  12.137 -0.1387  0.6262  0.0590
  580TMC3    C2 8650   0.837   4.331  12.051 -0.2898  0.9398 -0.4179
  580TMC3    C3 8651   0.886   4.217  12.099 -0.1644 -0.2302 -0.0881
  580TMC3    C4 8652   0.805   4.398  12.270 -0.2741 -0.7173  0.5453
  580TMC3    C5 8653   0.831   4.273  12.313 -0.0083 -0.3772  0.2433
  580TMC3    C6 8654   0.883   4.181  12.233 -0.9404  0.2591  0.0432
  580TMC3     C 8655   0.731   4.543  12.103 -0.4267  0.4596 -0.5207
  580TMC3     O 8656   0.645   4.575  12.181  1.1299  0.0807 -0.1132
  580TMC3     H 8657   0.842   4.346  11.944 -2.7793  0.9821 -0.5259
  580TMC3    H1 8658   0.795   4.479  12.341 -2.6056 -0.8841  0.4157
  580TMC3    H2 8659   0.924   4.087  12.268 -1.5690  0.1210  0.4036
  580TMC3    C7 8660   0.822   4.236  12.456 -0.0307 -0.0698  0.7194
  580TMC3    C8 8661   0.960   4.139  12.004  0.5045  0.6167 -0.2777
  580TMC3    O1 8662   0.826   4.324  12.540 -0.5840  0.1953  0.0200
  580TMC3    O2 8663   0.919   4.139  11.890 -0.4105 -0.6274 -0.1925
  581MPD2     C 8664   4.183   4.284  14.781  0.0706 -0.2996 -0.9876
  581MPD2    C1 8665   4.127   4.286  14.904  0.0484 -0.2103 -0.3155
  581MPD2    C2 8666   4.007   4.341  14.929  0.1152 -0.8230  0.2131
  581MPD2    C3 8667   3.931   4.395  14.827  0.3919 -0.1260 -0.0766
  581MPD2    C4 8668   3.991   4.408  14.700 -0.4286  0.1750 -0.1122
  581MPD2    C5 8669   4.116   4.351  14.677 -0.2552 -0.3744 -0.4605
  581MPD2     H 8670   3.965   4.330  15.028 -0.1352 -0.3751  0.1546
  581MPD2    H1 8671   3.940   4.458  14.618 -1.4570 -4.4348 -2.3640
  581MPD2    H2 8672   4.283   4.247  14.762  0.4620  0.0545  0.3781
  581MPD2    H3 8673   4.160   4.353  14.578 -0.5884  1.5406 -0.5586
  581MPD2     N 8674   3.792   4.431  14.845  0.3871  0.7021 -0.3015
  581MPD2    H5 8675   3.756   4.411  14.938 -1.0076  2.1066 -0.5332
  581MPD2    N1 8676   4.208   4.217  14.997 -0.7737 -0.3807  0.5158
  581MPD2    H7 8677   4.289   4.175  14.953  0.5118  1.0384  1.5535
  582TMC3    C1 8678   4.279   4.136  15.210  0.6940 -0.2344  0.1882
  582TMC3    C2 8679   4.269   4.171  15.344  0.0744  0.2492  0.1280
  582TMC3    C3 8680   4.292   4.076  15.438  0.8329 -0.8293 -0.2196
  582TMC3    C4 8681   4.316   4.010  15.170 -0.2314 -0.0638 -0.3068
  582TMC3    C5 8682   4.339   3.920  15.272  0.1817  0.1516  0.1341
  582TMC3    C6 8683   4.323   3.947  15.406 -1.0101 -0.4199 -0.0022
  582TMC3     C 8684   4.180   4.212  15.135 -0.3450  0.9412  0.0279
  582TMC3     O 8685   4.098   4.265  15.203 -0.0739  0.1043  0.2012
  582TMC3     H 8686   4.253   4.273  15.378 -0.0127  0.6231 -1.0358
  582TMC3    H1 8687   4.286   3.986  15.069  1.2430 -2.0789 -0.2609
  582TMC3    H2 8688   4.343   3.867  15.475 -0.9977 -0.1774  0.2743
  582TMC3    C7 8689   4.275   3.798  15.234 -0.2500  0.0472  0.1349
  582TMC3    C8 8690   4.248   4.118  15.573  0.3026  0.1665 -0.0203
  582TMC3    O1 8691   4.299   3.755  15.121  0.3627  0.2256 -0.2343
  582TMC3    O2 8692   4.172   4.216  15.580 -0.0042 -0.6236  0.4327
  583MPD2     C 8693   3.904   0.995  16.717  0.1099  0.1868  0.5902
  583MPD2    C1 8694   3.939   1.117  16.661  0.7936 -0.0070 -0.8813
  583MPD2    C2 8695   3.882   1.232  16.714 -0.6284 -0.5740 -0.1609
  583MPD2    C3 8696   3.792   1.231  16.820  0.2438  0.2103  1.0382
  583MPD2    C4 8697   3.768   1.108  16.877  0.5287 -0.7496 -0.6672
  583MPD2    C5 8698   3.826   0.997  16.830 -0.2309 -0.0769 -0.4774
  583MPD2     H 8699   3.905   1.326  16.665  2.9632 -0.9850  0.7489
  583MPD2    H1 8700   3.709   1.098  16.967  0.7562 -2.1013 -0.6614
  583MPD2    H2 8701   3.960   0.908  16.685  0.6926 -0.0271  2.1994
  583MPD2    H3 8702   3.808   0.905  16.885  1.1557  1.3592  2.4220
  583MPD2     N 8703   3.750   1.354  16.873  1.0328  0.1748  0.2964
  583MPD2    H5 8704   3.780   1.433  16.818  1.8647  0.7267  1.5357
  583MPD2    N1 8705   4.015   1.133  16.545  0.3492 -0.0649 -0.3400
  583MPD2    H7 8706   4.025   1.226  16.504 -0.9521 -0.4243 -1.4825
  584TMC3    C1 8707   3.675   1.520  17.022  0.2684  0.7600 -0.5100
  584TMC3    C2 8708   3.633   1.597  16.915 -0.2113 -0.6455  0.2147
  584TMC3    C3 8709   3.607   1.731  16.942 -0.6023  0.8020  0.1214
  584TMC3    C4 8710   3.702   1.572  17.147  0.4698 -0.6224  0.3904
  584TMC3    C5 8711   3.671   1.703  17.174  0.7930 -0.6578  0.3317
  584TMC3    C6 8712   3.628   1.786  17.069  0.6881 -0.1982  0.1772
  584TMC3     C 8713   3.703   1.378  17.002 -0.5203  0.6184  0.3510
  584TMC3     O 8714   3.676   1.301  17.094 -0.6003 -0.7101  0.2240
  584TMC3     H 8715   3.611   1.547  16.821 -2.6451 -2.1431  1.5775
  584TMC3    H1 8716   3.743   1.501  17.219 -0.5917 -0.6138  1.0093
  584TMC3    H2 8717   3.571   1.878  17.075  0.3441 -0.4359  0.5595
  584TMC3    C7 8718   3.645   1.727  17.316 -0.1808  0.3678 -0.2155
  584TMC3    C8 8719   3.620   1.834  16.835  0.1612 -0.7123  0.2494
  584TMC3    O1 8720   3.676   1.633  17.398 -0.2773  0.4693 -0.0253
  584TMC3    O2 8721   3.627   1.783  16.722  0.4625  0.3151  0.0093
  585MPD2     C 8722   2.803   0.623   0.045  0.0804 -0.0935  0.2661
  585MPD2    C1 8723   2.824   0.676  17.666 -0.0644  0.6630 -0.5661
  585MPD2    C2 8724   2.895   0.601  17.573 -0.2040 -0.1665 -0.5068
  585MPD2    C3 8725   2.925   0.471  17.599 -0.5284 -0.3595 -0.2649
  585MPD2    C4 8726   2.881   0.414  17.719 -0.2960  0.2524 -0.0962
  585MPD2    C5 8727   2.816   0.493   0.069 -0.2182 -0.6520 -0.4571
  585MPD2     H 8728   2.910   0.638  17.472  0.5502  1.2175  0.1073
  585MPD2    H1 8729   2.909   0.310  17.736 -0.6126  0.0149 -1.0330
  585MPD2    H2 8730   2.774   0.691   0.124 -0.3577 -0.6164  0.5565
  585MPD2    H3 8731   2.778   0.457   0.164  1.5631 -0.9041  0.1579
  585MPD2     N 8732   2.996   0.391  17.510  0.7700 -0.2531 -0.5833
  585MPD2    H5 8733   2.984   0.291  17.521 -1.5591 -0.0862 -1.4151
  585MPD2    N1 8734   2.785   0.808  17.642 -0.2960 -0.1437 -0.0120
  585MPD2    H7 8735   2.758   0.862  17.723  0.2772  1.1644 -0.7114
  586TMC3    C1 8736   3.124   0.314  17.322 -0.3226  0.4315 -0.6364
  586TMC3    C2 8737   3.236   0.342  17.250 -0.8337 -1.1134 -0.7851
  586TMC3    C3 8738   3.258   0.289  17.122 -0.2305  0.0008 -0.2314
  586TMC3    C4 8739   3.020   0.253  17.257  0.1446 -0.4412 -0.0263
  586TMC3    C5 8740   3.036   0.220  17.126 -0.5084 -0.3017  0.1461
  586TMC3    C6 8741   3.153   0.223  17.062  0.3489 -0.5592 -0.4225
  586TMC3     C 8742   3.081   0.425  17.407 -0.1481  0.6602  0.5021
  586TMC3     O 8743   3.129   0.536  17.390 -0.1376 -0.1561 -0.0410
  586TMC3     H 8744   3.314   0.401  17.297 -2.5450  1.2655 -0.9683
  586TMC3    H1 8745   2.929   0.234  17.312  0.6327  0.7205  1.1711
  586TMC3    H2 8746   3.167   0.165  16.972  1.6363  0.6563 -1.0053
  586TMC3    C7 8747   2.937   0.130  17.073 -0.4992 -0.3219  0.1737
  586TMC3    C8 8748   3.387   0.219  17.094 -0.0981  0.1014 -0.4879
  586TMC3    O1 8749   2.888   0.053  17.154  0.3260  0.0099 -0.4263
  586TMC3    O2 8750   3.447   0.188  17.194  0.1035  0.1162 -0.8398
  587TMC3    C1 8751   0.554   3.217  16.267 -0.0836 -0.7908  0.1412
  587TMC3    C2 8752   0.500   3.335  16.302 -0.5009  0.0315  0.0900
  587TMC3    C3 8753   0.574   3.447  16.292 -0.3867  0.1105  0.1765
  587TMC3    C4 8754   0.683   3.213  16.214 -0.3285  0.7298  0.0310
  587TMC3    C5 8755   0.757   3.331  16.216 -0.2464  0.6642 -0.3197
  587TMC3    C6 8756   0.704   3.452  16.249 -0.1273  0.0952 -0.4505
  587TMC3     C 8757   0.494   3.089  16.294  0.5261 -0.3629  0.3302
  587TMC3     O 8758   0.560   2.989  16.270 -0.1527 -0.2299  0.2475
  587TMC3     H 8759   0.393   3.349  16.318 -0.7265 -0.9273 -0.5537
  587TMC3    H1 8760   0.714   3.124  16.160 -0.0398  1.0170 -0.2797
  587TMC3    H2 8761   0.767   3.535  16.278 -0.0965 -0.8102  2.0733
  587TMC3    C7 8762   0.891   3.327  16.157 -0.3553  0.3137  0.0217
  587TMC3    C8 8763   0.509   3.569  16.319 -0.4270  0.4710  0.4107
  587TMC3    O1 8764   0.930   3.429  16.105 -0.6131 -0.1083  0.1797
  587TMC3    O2 8765   0.398   3.566  16.377  0.2720 -0.1070 -0.6348
  588TMC3    C1 8766   2.360   1.287   9.796 -0.3549 -0.0559 -0.6046
  588TMC3    C2 8767   2.325   1.159   9.768  0.5579  0.2386 -0.4890
  588TMC3    C3 8768   2.410   1.062   9.802  0.6875 -0.3288 -0.3387
  588TMC3    C4 8769   2.483   1.327   9.829 -0.4086  0.0718  0.4679
  588TMC3    C5 8770   2.571   1.223   9.864 -0.2069  0.9463 -0.3672
  588TMC3    C6 8771   2.537   1.091   9.851 -0.0364 -0.6122  0.5198
  588TMC3     C 8772   2.269   1.399   9.801 -0.9035  0.0348 -0.3490
  588TMC3     O 8773   2.217   1.434   9.695  0.6811 -0.1134 -0.0395
  588TMC3     H 8774   2.221   1.143   9.741  0.9308 -1.6969 -0.7979
  588TMC3    H1 8775   2.498   1.434   9.838  0.4980  0.0629 -0.7900
  588TMC3    H2 8776   2.606   1.009   9.868 -0.6608 -1.5796 -1.5666
  588TMC3    C7 8777   2.677   1.260   9.958  0.1178  0.4188 -0.0387
  588TMC3    C8 8778   2.357   0.932   9.814  0.3014  0.1829 -0.0552
  588TMC3    O1 8779   2.754   1.169   9.987  0.0819  0.1946 -0.2971
  588TMC3    O2 8780   2.266   0.910   9.731  0.6066 -0.3394  0.2601
  589TMC3    C1 8781   2.195   4.067   1.202  0.8113 -0.0292 -0.6061
  589TMC3    C2 8782   2.323   4.062   1.251  0.2783  0.5962 -0.7399
  589TMC3    C3 8783   2.400   3.957   1.217  0.2088 -0.4388  0.2721
  589TMC3    C4 8784   2.139   3.983   1.108 -0.4951 -0.3735  0.1511
  589TMC3    C5 8785   2.232   3.892   1.062 -0.3266  0.0890  0.2562
  589TMC3    C6 8786   2.362   3.883   1.108  0.4109  0.2393  0.3978
  589TMC3     C 8787   2.110   4.186   1.230  0.1582  0.2156 -0.0981
  589TMC3     O 8788   1.995   4.176   1.199 -0.3563 -0.1459  0.2315
  589TMC3     H 8789   2.361   4.144   1.312  0.2855 -0.7278  1.0422
  589TMC3    H1 8790   2.034   3.976   1.082 -0.6953  1.4802  0.4291
  589TMC3    H2 8791   2.424   3.809   1.058 -1.5905 -1.2487  0.0833
  589TMC3    C7 8792   2.200   3.804   0.944 -0.1195  0.2095 -0.3332
  589TMC3    C8 8793   2.542   3.972   1.261  0.8912 -0.5813 -0.3793
  589TMC3    O1 8794   2.283   3.721   0.912  0.6451 -0.2350 -0.1522
  589TMC3    O2 8795   2.575   4.085   1.289  0.2159 -0.1559 -0.4608
  590MPD2     C 8796   1.699   1.858  16.701  0.2731 -0.0696 -0.2511
  590MPD2    C1 8797   1.663   1.926  16.585 -0.3902 -0.3307 -0.4873
  590MPD2    C2 8798   1.751   2.015  16.527  0.1080  0.6032  0.0838
  590MPD2    C3 8799   1.877   2.026  16.580  0.6986 -0.1528 -0.7576
  590MPD2    C4 8800   1.914   1.965  16.697 -0.4834 -0.4613  0.9085
  590MPD2    C5 8801   1.820   1.888  16.760 -0.0838 -0.0287  0.8726
  590MPD2     H 8802   1.729   2.072  16.437  1.2467 -0.9086 -1.1524
  590MPD2    H1 8803   2.009   1.975  16.749 -0.0234 -1.7119  0.3078
  590MPD2    H2 8804   1.644   1.786  16.760 -0.8159  0.5176 -0.5386
  590MPD2    H3 8805   1.853   1.833  16.847 -0.3270 -2.5897 -0.6656
  590MPD2     N 8806   1.965   2.110  16.510  0.0566  0.4226  0.1063
  590MPD2    H5 8807   1.926   2.157  16.429 -0.2200 -2.0125 -1.1734
  590MPD2    N1 8808   1.531   1.901  16.541  0.3124 -0.7345  0.1796
  590MPD2    H7 8809   1.484   1.819  16.580 -1.0023  0.4196  1.0159
  591TMC3    C1 8810   2.142   2.228  16.430 -0.2647 -0.7044  0.1401
  591TMC3    C2 8811   2.213   2.182  16.324 -0.2867  0.2408  0.1001
  591TMC3    C3 8812   2.202   2.257  16.207 -0.6390  0.5665 -0.5130
  591TMC3    C4 8813   2.068   2.345  16.423  0.5656  0.0651 -0.2457
  591TMC3    C5 8814   2.059   2.416  16.307 -0.3577 -0.1433  0.2123
  591TMC3    C6 8815   2.124   2.369  16.194 -0.3742  0.2697  0.1243
  591TMC3     C 8816   2.101   2.127  16.523  0.1325  0.2109  0.1610
  591TMC3     O 8817   2.188   2.053  16.569  0.0716  0.4116  0.1319
  591TMC3     H 8818   2.273   2.092  16.330 -1.0893 -0.5295 -3.1304
  591TMC3    H1 8819   2.006   2.377  16.506 -2.5979  1.8338 -3.2986
  591TMC3    H2 8820   2.105   2.416  16.099 -1.0114  0.6508  0.4427
  591TMC3    C7 8821   1.954   2.514  16.302 -0.3670  0.6974 -0.1430
  591TMC3    C8 8822   2.273   2.201  16.094  0.0436  0.3729  0.5720
  591TMC3    O1 8823   1.858   2.495  16.372 -0.0407  0.1759 -0.1899
  591TMC3    O2 8824   2.309   2.083  16.095  0.0748  0.4321  0.7228
  592MPD2     C 8825   1.152   3.613  11.650  0.2260 -1.1691  0.0020
  592MPD2    C1 8826   1.219   3.563  11.766 -0.0730 -0.3900  0.0209
  592MPD2    C2 8827   1.147   3.494  11.857 -0.1470 -0.5150  0.0171
  592MPD2    C3 8828   1.019   3.461  11.838  0.5486  0.1703  0.5355
  592MPD2    C4 8829   0.952   3.501  11.725  0.2635 -0.5597 -0.2538
  592MPD2    C5 8830   1.017   3.582  11.637  0.4102  0.3741  0.3765
  592MPD2     H 8831   1.194   3.460  11.949 -2.2992 -1.7504  0.6592
  592MPD2    H1 8832   0.850   3.473  11.702 -1.4754  2.8059  3.1456
  592MPD2    H2 8833   1.203   3.684  11.587  1.3232 -0.2151  1.9747
  592MPD2    H3 8834   0.951   3.622  11.561  0.8089 -1.0166 -0.7193
  592MPD2     N 8835   0.961   3.376  11.936  0.1449 -0.2191  0.0127
  592MPD2    H5 8836   1.024   3.352  12.012 -0.9639  0.0492  1.0308
  592MPD2    N1 8837   1.352   3.610  11.795 -0.1412 -0.0314  0.1533
  592MPD2    H7 8838   1.410   3.649  11.721 -1.3580 -0.3523 -0.9757
  593TMC3    C1 8839   1.565   3.637  11.911 -0.4078 -0.0991 -0.2921
  593TMC3    C2 8840   1.624   3.693  12.023 -0.0763  0.4944  1.0145
  593TMC3    C3 8841   1.731   3.771  12.001 -0.1869  0.6272 -0.0751
  593TMC3    C4 8842   1.623   3.654  11.789  0.2025  0.1347  0.5661
  593TMC3    C5 8843   1.736   3.722  11.776  0.8376 -1.1669  0.3025
  593TMC3    C6 8844   1.801   3.779  11.885 -0.4649 -0.1842 -0.1205
  593TMC3     C 8845   1.420   3.600  11.919 -0.5480  0.7665  0.6896
  593TMC3     O 8846   1.375   3.590  12.034 -0.4000 -0.7143  0.1029
  593TMC3     H 8847   1.573   3.703  12.118 -4.1397  2.0405 -1.3343
  593TMC3    H1 8848   1.577   3.610  11.701 -1.2430 -0.7377  1.7484
  593TMC3    H2 8849   1.886   3.847  11.884  0.2943 -1.1266  0.1475
  593TMC3    C7 8850   1.780   3.777  11.652 -0.5335 -0.1008 -0.2712
  593TMC3    C8 8851   1.808   3.800  12.120 -0.6093 -0.5413 -0.1344
  593TMC3    O1 8852   1.866   3.865  11.660 -0.4194  0.3055 -0.2243
  593TMC3    O2 8853   1.773   3.745  12.224 -0.4085  0.8609 -0.4703
  594MPD2     C 8854   0.998   2.938  14.005  0.2994 -0.3712 -0.4170
  594MPD2    C1 8855   0.992   2.939  14.138 -0.2408  0.4408 -0.1137
  594MPD2    C2 8856   1.084   3.010  14.210 -0.0682 -0.2055 -0.2964
  594MPD2    C3 8857   1.189   3.070  14.150  0.0797 -0.6816 -0.2919
  594MPD2    C4 8858   1.193   3.070  14.013 -0.6954  0.6419  0.1528
  594MPD2    C5 8859   1.102   2.999  13.941  0.0297  0.1973  0.3223
  594MPD2     H 8860   1.070   3.020  14.317  0.2409  0.8794 -0.3487
  594MPD2    H1 8861   1.260   3.134  13.957 -0.2638  0.2947  0.2746
  594MPD2    H2 8862   0.930   2.875  13.949  0.5895 -0.9969 -0.0667
  594MPD2    H3 8863   1.096   3.001  13.832 -0.7632 -0.6377  0.3585
  594MPD2     N 8864   1.272   3.151  14.226 -0.2983  0.5524  0.6307
  594MPD2    H5 8865   1.245   3.165  14.323 -1.4012  0.8332  0.2815
  594MPD2    N1 8866   0.886   2.873  14.202 -0.7072  0.1210  0.0168
  594MPD2    H7 8867   0.832   2.819  14.136  1.5039  0.8036 -2.3452
  595TMC3    C1 8868   1.549   3.502  14.354 -0.2251  0.2714 -0.1977
  595TMC3    C2 8869   1.526   3.398  14.266  0.0268  0.2879 -0.3574
  595TMC3    C3 8870   1.405   3.343  14.274  0.5114  0.1666  0.0800
  595TMC3    C4 8871   1.461   3.548  14.451  0.1756 -0.5409 -0.0000
  595TMC3    C5 8872   1.333   3.499  14.443 -0.0919 -0.1032 -0.0831
  595TMC3    C6 8873   1.314   3.386  14.368  0.3995 -0.0356 -0.4050
  595TMC3     C 8874   1.687   3.514  14.400  0.0408 -0.3227 -0.1770
  595TMC3     O 8875   1.713   3.513  14.521 -0.3470 -0.2871  0.5381
  595TMC3     H 8876   1.605   3.366  14.198  1.6911  2.1371  0.6873
  595TMC3    H1 8877   1.494   3.614  14.531 -1.3580  1.9401 -1.4035
  595TMC3    H2 8878   1.211   3.354  14.358  0.4274 -0.3922  0.4911
  595TMC3    C7 8879   1.268   3.508  14.574 -0.0721  0.3829 -0.3671
  595TMC3    C8 8880   1.371   3.240  14.180 -0.1807 -0.3843 -0.0918
  595TMC3    O1 8881   1.335   3.513  14.672 -0.2539 -0.4903 -0.6178
  595TMC3    O2 8882   1.446   3.207  14.094 -0.1880 -0.0009 -0.1591
  596MPD2     C 8883   4.638   1.135  16.764  0.0888 -0.2169 -0.4688
  596MPD2    C1 8884   4.635   1.253  16.686 -0.2213 -0.1390  0.2038
  596MPD2    C2 8885   4.677   1.239  16.555  0.0347 -0.3344  0.3325
  596MPD2    C3 8886   0.005   1.128  16.507 -0.3047 -0.2300  0.3768
  596MPD2    C4 8887   0.015   1.020  16.591  0.2456 -0.3992  0.3920
  596MPD2    C5 8888   4.694   1.022  16.715 -0.6410  0.0090  0.2254
  596MPD2     H 8889   4.668   1.322  16.486  3.2086 -0.0432  0.2718
  596MPD2    H1 8890   0.072   0.933  16.559  1.9911  1.1894 -0.8329
  596MPD2    H2 8891   4.601   1.126  16.866 -1.1163  0.0927 -0.8830
  596MPD2    H3 8892   4.707   0.942  16.787 -0.1621 -0.4320 -0.3429
  596MPD2     N 8893   0.044   1.115  16.375  0.2179  0.3645  0.2765
  596MPD2    H5 8894   0.086   1.027  16.347  0.6096  0.1954  1.4178
  596MPD2    N1 8895   4.591   1.370  16.730 -0.2598 -0.0531  0.8177
  596MPD2    H7 8896   4.595   1.447  16.663  0.9984 -0.9771 -0.1673
  597TMC3    C1 8897   4.512   1.542  16.850  0.0556 -0.1413 -0.6486
  597TMC3    C2 8898   4.601   1.623  16.777  0.5085  0.1415  1.1304
  597TMC3    C3 8899   4.600   1.756  16.798  0.0688 -0.2136  0.2762
  597TMC3    C4 8900   4.426   1.593  16.936  0.4077 -0.3297  0.5446
  597TMC3    C5 8901   4.427   1.725  16.954 -0.6747 -0.2828 -0.4418
  597TMC3    C6 8902   4.510   1.815  16.882  0.5294 -0.3474  0.4497
  597TMC3     C 8903   4.532   1.403  16.845 -0.0215 -0.2162  0.4421
  597TMC3     O 8904   4.497   1.338  16.946 -0.6851  0.2058 -0.0486
  597TMC3     H 8905   4.678   1.587  16.709 -1.4182  2.3080 -2.2146
  597TMC3    H1 8906   4.359   1.526  16.990  0.7080 -1.5686 -0.6139
  597TMC3    H2 8907   4.497   1.922  16.885  1.4588 -0.2652  1.6842
  597TMC3    C7 8908   4.343   1.772  17.064 -0.6012  0.6976  0.2648
  597TMC3    C8 8909   4.702   1.856  16.752  0.6860  0.2506 -0.4313
  597TMC3    O1 8910   4.297   1.683  17.134  0.8227  0.0487  0.0587
  597TMC3    O2 8911   4.719   1.954  16.825 -0.0995 -0.1542  0.0548
  598TMC3    C1 8912   2.938   2.599  15.515  0.1950 -0.4838 -0.4758
  598TMC3    C2 8913   2.852   2.522  15.440 -0.3765  0.3258 -0.2503
  598TMC3    C3 8914   2.783   2.587  15.342 -0.5233  0.1644 -0.1989
  598TMC3    C4 8915   2.972   2.730  15.479  0.7839  0.1146  0.1179
  598TMC3    C5 8916   2.900   2.793  15.376 -0.4047  0.1406  0.4158
  598TMC3    C6 8917   2.807   2.718  15.302  0.5158 -0.3482 -0.0497
  598TMC3     C 8918   3.010   2.538  15.629 -0.5535 -0.2923 -0.5609
  598TMC3     O 8919   3.092   2.612  15.681 -0.4131  0.0715  0.9207
  598TMC3     H 8920   2.798   2.442  15.490 -2.0745  2.0944  0.7853
  598TMC3    H1 8921   3.033   2.796  15.540 -0.3744  3.2789 -2.2158
  598TMC3    H2 8922   2.761   2.747  15.209  0.6927  0.6506  0.1795
  598TMC3    C7 8923   2.958   2.912  15.312 -0.4094  0.5845  0.3675
  598TMC3    C8 8924   2.715   2.507  15.245 -0.4361 -0.0861  0.4792
  598TMC3    O1 8925   3.035   2.977  15.380 -0.3522  0.3412 -0.3359
  598TMC3    O2 8926   2.622   2.561  15.187  0.0445  0.2383 -0.1889
  599MPD2     C 8927   3.092   0.483  15.572 -0.2506 -0.3666 -0.5454
  599MPD2    C1 8928   3.051   0.352  15.591  0.0695  0.5267  0.2399
  599MPD2    C2 8929   2.921   0.336  15.618 -0.1350  0.2920 -0.3610
  599MPD2    C3 8930   2.830   0.444  15.644 -0.0689  0.2137 -0.5879
  599MPD2    C4 8931   2.875   0.570  15.622  0.1811  0.1255 -0.6167
  599MPD2    C5 8932   3.002   0.588  15.574  0.1188 -0.1316 -0.2109
  599MPD2     H 8933   2.883   0.238  15.644  1.8748 -0.1778  0.7763
  599MPD2    H1 8934   2.804   0.649  15.642  0.8822  0.8298 -0.9100
  599MPD2    H2 8935   3.195   0.513  15.557 -0.6344  1.2941  0.1131
  599MPD2    H3 8936   3.045   0.685  15.553  0.4609 -0.6376 -1.8331
  599MPD2     N 8937   2.697   0.425  15.689 -0.5094  0.1652  0.6033
  599MPD2    H5 8938   2.645   0.499  15.734  1.1369  1.2757  0.6490
  599MPD2    N1 8939   3.144   0.250  15.577 -0.1115  0.0932 -0.7267
  599MPD2    H7 8940   3.236   0.275  15.542  1.0663 -0.1338  2.2884
  600TMC3    C1 8941   2.513   0.309  15.782  0.1779 -0.0097 -0.2663
  600TMC3    C2 8942   2.411   0.221  15.760  0.0890  0.0965 -0.2257
  600TMC3    C3 8943   2.304   0.217  15.850 -0.2836  0.3882  0.2610
  600TMC3    C4 8944   2.511   0.383  15.901  0.3231  0.3905 -0.0819
  600TMC3    C5 8945   2.410   0.360  15.996 -0.0312  0.3063 -0.0640
  600TMC3    C6 8946   2.301   0.281  15.966  0.1020  0.4528 -0.0050
  600TMC3     C 8947   2.635   0.302  15.705 -0.0891 -0.4762  0.6281
  600TMC3     O 8948   2.659   0.190  15.650 -0.0348 -0.5804  0.5684
  600TMC3     H 8949   2.414   0.155  15.675 -2.4488 -0.6727  0.2610
  600TMC3    H1 8950   2.600   0.442  15.918  1.0779 -0.9453  0.5388
  600TMC3    H2 8951   2.225   0.265  16.041  1.0275  0.2311  0.8774
  600TMC3    C7 8952   2.400   0.445  16.115  0.0855 -0.3372 -0.4342
  600TMC3    C8 8953   2.198   0.115  15.825 -0.3635  0.7202 -0.7220
  600TMC3    O1 8954   2.302   0.458  16.184  0.0398 -0.2151 -0.5754
  600TMC3    O2 8955   2.126   0.128  15.725  0.1453  0.1424  0.4489
  601MPD2     C 8956   0.481   3.246   0.235  0.7434 -0.0156 -0.5614
  601MPD2    C1 8957   0.361   3.176   0.246 -0.4005 -0.1186  0.0556
  601MPD2    C2 8958   0.364   3.046   0.287  0.2648 -0.2091  0.2648
  601MPD2    C3 8959   0.484   2.982   0.327 -0.2918 -0.7782  0.1390
  601MPD2    C4 8960   0.603   3.048   0.315 -0.0173 -0.2058  0.2389
  601MPD2    C5 8961   0.596   3.177   0.267  0.1699  0.2201 -0.0875
  601MPD2     H 8962   0.266   3.002   0.300  0.0798  0.1999  0.2612
  601MPD2    H1 8963   0.694   2.996   0.341 -0.7700 -0.8765  1.5794
  601MPD2    H2 8964   0.494   3.351   0.212  2.8778 -0.9305 -3.4542
  601MPD2    H3 8965   0.690   3.231   0.264 -0.1723  0.7906 -0.6176
  601MPD2     N 8966   0.486   2.848   0.367 -0.1233  0.2907 -0.0580
  601MPD2    H5 8967   0.578   2.805   0.374 -0.9796 -1.7771 -1.3565
  601MPD2    N1 8968   0.237   3.244   0.232  0.7594 -0.1052  0.4655
  601MPD2    H7 8969   0.156   3.184   0.237 -0.8417  2.2228  2.5132
  602TMC3    C1 8970   0.081   3.409   0.171 -0.1935 -1.0717 -0.5330
  602TMC3    C2 8971   0.063   3.542   0.153  0.0557  0.0047 -0.1415
  602TMC3    C3 8972   4.677   3.592   0.099  0.0897 -0.1664 -0.4237
  602TMC3    C4 8973   4.720   3.325   0.129  0.7370  0.0320  0.1460
  602TMC3    C5 8974   4.603   3.376   0.071 -0.1536 -0.3832  0.0387
  602TMC3    C6 8975   4.581   3.507   0.054 -0.4283  0.0441 -0.0364
  602TMC3     C 8976   0.220   3.376   0.199 -0.2344  0.4484 -0.2871
  602TMC3     O 8977   0.296   3.469   0.182  0.4160 -0.2970 -0.3915
  602TMC3     H 8978   0.134   3.604   0.206 -0.6599  1.6595 -1.1185
  602TMC3    H1 8979   0.007   3.219   0.132  2.1010  0.2853 -1.2579
  602TMC3    H2 8980   4.497   3.530  17.732  0.0139 -2.0392 -1.4005
  602TMC3    C7 8981   4.495   3.282   0.033 -0.5789  0.0791 -0.1979
  602TMC3    C8 8982   4.660   3.735   0.062 -0.1787 -1.1670  0.2147
  602TMC3    O1 8983   4.490   3.172   0.086 -0.3599  0.0854 -0.3032
  602TMC3    O2 8984   0.021   3.807   0.048 -0.6252  0.3990 -0.1985
  603TMC3    C1 8985   2.206   3.148  10.851  0.1556  0.2578  0.1072
  603TMC3    C2 8986   2.251   3.154  10.977 -0.6703 -0.5931  0.6153
  603TMC3    C3 8987   2.341   3.246  11.024  0.5867  0.2334  0.6711
  603TMC3    C4 8988   2.262   3.221  10.751  0.1553 -0.1774  0.2836
  603TMC3    C5 8989   2.341   3.322  10.798 -0.5326 -0.0509  0.2700
  603TMC3    C6 8990   2.378   3.340  10.932  0.0505 -0.6298  0.0167
  603TMC3     C 8991   2.103   3.056  10.811 -0.1421  0.7669  0.4461
  603TMC3     O 8992   2.024   3.023  10.897 -0.2625 -0.1930 -0.3775
  603TMC3     H 8993   2.220   3.071  11.040 -0.4631 -1.5764 -0.5578
  603TMC3    H1 8994   2.228   3.215  10.648 -0.4182 -0.8792  0.5065
  603TMC3    H2 8995   2.452   3.414  10.959 -0.9761  0.8144 -1.1903
  603TMC3    C7 8996   2.406   3.415  10.707  0.4409 -0.4619  0.2308
  603TMC3    C8 8997   2.356   3.262  11.170  0.1930 -0.3862  0.4522
  603TMC3    O1 8998   2.499   3.480  10.745  0.6764 -0.2968  0.4687
  603TMC3    O2 8999   2.289   3.195  11.247 -0.3137  0.1858 -0.1992
  604MPD2     C 9000   3.815   2.477  16.583  0.2370 -0.2473  0.3008
  604MPD2    C1 9001   3.724   2.428  16.493  0.2161 -0.2546  0.0570
  604MPD2    C2 9002   3.750   2.390  16.363 -0.2387  0.2409  0.1919
  604MPD2    C3 9003   3.876   2.414  16.313 -0.3732  0.5488 -0.0448
  604MPD2    C4 9004   3.976   2.460  16.401  0.0404 -0.0970  0.5986
  604MPD2    C5 9005   3.945   2.489  16.531 -0.2775  0.5833 -0.2759
  604MPD2     H 9006   3.682   2.334  16.301  0.8734 -1.8571  0.8545
  604MPD2    H1 9007   4.080   2.470  16.372  0.1799  0.3934  1.2907
  604MPD2    H2 9008   3.797   2.505  16.686  2.1073 -0.6410  0.7336
  604MPD2    H3 9009   4.028   2.522  16.592 -2.0535  0.4631  2.2135
  604MPD2     N 9010   3.900   2.379  16.180 -0.2642 -0.9621 -0.1771
  604MPD2    H5 9011   3.820   2.350  16.124 -0.1473 -0.2227 -0.7309
  604MPD2    N1 9012   3.605   2.397  16.565  0.1593  0.1864 -0.7451
  604MPD2    H7 9013   3.587   2.449  16.650  1.5731 -0.2793 -0.1611
  605TMC3    C1 9014   3.374   2.403  16.593 -0.6647 -0.0113  0.0456
  605TMC3    C2 9015   3.408   2.458  16.711 -0.2230  0.6529 -0.7385
  605TMC3    C3 9016   3.364   2.584  16.745 -0.0404  0.0134  0.2946
  605TMC3    C4 9017   3.274   2.459  16.516  1.2830  0.3102  0.2527
  605TMC3    C5 9018   3.220   2.582  16.560 -0.2110 -1.5566 -0.3689
  605TMC3    C6 9019   3.265   2.646  16.671  0.1655  0.2008 -0.0226
  605TMC3     C 9020   3.487   2.349  16.516 -0.4069  0.1962 -0.2769
  605TMC3     O 9021   3.464   2.300  16.407  0.6892 -0.8472  0.2000
  605TMC3     H 9022   3.464   2.395  16.779 -1.9240  0.7524  0.7486
  605TMC3    H1 9023   3.238   2.413  16.424  1.1268 -0.3488  0.6479
  605TMC3    H2 9024   3.223   2.740  16.705 -0.5411  0.3322 -1.2733
  605TMC3    C7 9025   3.121   2.652  16.480 -0.0095 -0.7444  0.1506
  605TMC3    C8 9026   3.481   2.664  16.765  0.2247 -0.3049  0.1101
  605TMC3    O1 9027   3.043   2.713  16.545  0.5762  0.8650 -0.3664
  605TMC3    O2 9028   3.574   2.591  16.783  0.1720 -0.0170  0.2393
  606TMC3    C1 9029   0.023   1.281  17.199 -0.0089  0.0069 -0.0819
  606TMC3    C2 9030   4.722   1.320  17.321  0.0946  0.1988 -0.3590
  606TMC3    C3 9031   4.657   1.238  17.403  0.4962  0.9328 -0.6099
  606TMC3    C4 9032   4.723   1.154  17.152 -0.0903 -0.6288 -0.7390
  606TMC3    C5 9033   4.648   1.082  17.241 -0.0285  0.8167 -0.6573
  606TMC3    C6 9034   4.617   1.114  17.367 -0.6721 -0.1742  0.3992
  606TMC3     C 9035   0.081   1.378  17.104  1.1700 -0.3141 -0.7530
  606TMC3     O 9036   0.082   1.494  17.137  0.0672 -0.3508 -0.9040
  606TMC3     H 9037   0.015   1.417  17.360  1.2639 -0.9669  1.6613
  606TMC3    H1 9038   0.039   1.112  17.066  0.0628 -3.4263  0.7204
  606TMC3    H2 9039   4.571   1.045  17.438 -1.1171  0.3937  0.6563
  606TMC3    C7 9040   4.611   0.946  17.196 -0.3989  0.3387  0.2599
  606TMC3    C8 9041   4.654   1.248  17.551  0.3045 -0.0663  0.6340
  606TMC3    O1 9042   4.661   0.914  17.092  0.4879  0.4231 -0.2921
  606TMC3    O2 9043   4.562   1.185  17.606 -0.9664 -0.5588  0.6045
  607MPD2     C 9044   1.988   3.480  11.996 -0.5956  0.0440 -0.1281
  607MPD2    C1 9045   2.095   3.569  12.000 -0.0080 -0.3274 -0.3450
  607MPD2    C2 9046   2.136   3.615  12.121  0.6693  0.9341  0.6794
  607MPD2    C3 9047   2.093   3.548  12.237  0.5049  0.2780  0.4505
  607MPD2    C4 9048   1.998   3.447  12.231 -0.5987 -0.2930 -0.0992
  607MPD2    C5 9049   1.937   3.421  12.111  0.5936 -0.2132 -0.5730
  607MPD2     H 9050   2.203   3.699  12.126 -1.4701  2.6783 -0.1787
  607MPD2    H1 9051   1.955   3.402  12.320  0.1699 -0.2316  0.3102
  607MPD2    H2 9052   1.939   3.454  11.903  0.6242 -0.5905 -0.5937
  607MPD2    H3 9053   1.856   3.352  12.092  0.1655  0.6299 -1.8032
  607MPD2     N 9054   2.171   3.583  12.345  0.5278  0.6468  0.0009
  607MPD2    H5 9055   2.238   3.658  12.331 -0.7728  1.4954 -1.6192
  607MPD2    N1 9056   2.152   3.624  11.887 -0.1428  0.0001  0.4974
  607MPD2    H7 9057   2.221   3.694  11.913  1.3866 -0.8981 -1.1325
  608TMC3    C1 9058   2.204   3.684  11.660 -0.3683  0.0468  0.0533
  608TMC3    C2 9059   2.310   3.750  11.715  0.3645  0.0275 -0.2672
  608TMC3    C3 9060   2.417   3.785  11.635  0.0600 -0.0007  0.6881
  608TMC3    C4 9061   2.195   3.665  11.524  0.0746 -0.0237 -0.0583
  608TMC3    C5 9062   2.295   3.712  11.450 -0.8352 -0.1101  0.2235
  608TMC3    C6 9063   2.411   3.767  11.501  0.4330  0.6616 -0.7670
  608TMC3     C 9064   2.122   3.601  11.749  0.1165 -0.4501 -0.9475
  608TMC3     O 9065   2.031   3.538  11.691  0.0799  0.4379 -0.2974
  608TMC3     H 9066   2.309   3.794  11.814 -1.0131 -0.7086  0.0470
  608TMC3    H1 9067   2.115   3.608  11.480  0.1677  0.9836 -1.4946
  608TMC3    H2 9068   2.499   3.786  11.440  0.1176 -0.4051 -1.5531
  608TMC3    C7 9069   2.289   3.698  11.306  0.0242  0.0878 -0.5469
  608TMC3    C8 9070   2.546   3.819  11.693  0.0511  0.0021  0.1609
  608TMC3    O1 9071   2.382   3.748  11.242 -0.6832 -0.0465  0.4763
  608TMC3    O2 9072   2.628   3.883  11.631 -0.2568  0.4280 -0.3427
  609TMC3    C1 9073   0.175   2.640   8.538  0.7671  0.3354 -0.1088
  609TMC3    C2 9074   0.188   2.744   8.446 -0.1368  0.0533 -0.6450
  609TMC3    C3 9075   0.319   2.774   8.408 -0.6781 -0.2213 -0.0547
  609TMC3    C4 9076   0.277   2.565   8.584  0.4873  0.6812  0.7922
  609TMC3    C5 9077   0.401   2.596   8.540 -0.0895 -0.3599  0.1893
  609TMC3    C6 9078   0.423   2.700   8.456 -0.2762 -0.1911  0.1291
  609TMC3     C 9079   0.042   2.603   8.578 -0.1700  0.6687  0.4843
  609TMC3     O 9080   0.030   2.531   8.673  0.2115  0.5041  0.1127
  609TMC3     H 9081   0.103   2.783   8.391 -1.0136  0.9939  1.3488
  609TMC3    H1 9082   0.263   2.488   8.659 -0.0303  0.5293  0.5385
  609TMC3    H2 9083   0.528   2.726   8.444 -0.5815  0.8728 -0.2303
  609TMC3    C7 9084   0.513   2.515   8.605 -0.7042  0.8977  1.1615
  609TMC3    C8 9085   0.344   2.867   8.299  0.2612 -0.0839 -0.1813
  609TMC3    O1 9086   0.492   2.463   8.717  0.3271  0.3616 -0.0427
  609TMC3    O2 9087   0.461   2.889   8.287  0.0882  0.5871 -0.2194
  610TMC3    C1 9088   2.613   3.890  13.208  0.6512 -0.8089 -0.5942
  610TMC3    C2 9089   2.611   3.988  13.113 -0.2003  0.2892 -0.1078
  610TMC3    C3 9090   2.728   4.018  13.052  0.2628 -0.0136  0.2569
  610TMC3    C4 9091   2.726   3.804  13.224 -0.1217  0.4922 -0.0388
  610TMC3    C5 9092   2.839   3.834  13.154  0.7622  0.3862  0.1648
  610TMC3    C6 9093   2.845   3.939  13.062 -0.3808 -0.0754 -0.0184
  610TMC3     C 9094   2.491   3.869  13.289 -0.3518 -0.0945 -0.3558
  610TMC3     O 9095   2.483   3.762  13.344  0.1253  0.2012  0.0349
  610TMC3     H 9096   2.520   4.044  13.097  0.0950  0.2173 -2.0378
  610TMC3    H1 9097   2.719   3.725  13.298 -2.4111  2.0848  1.4436
  610TMC3    H2 9098   2.926   3.937  12.990 -1.5626  0.0401 -1.3469
  610TMC3    C7 9099   2.942   3.738  13.177  0.3032 -0.3453 -0.4826
  610TMC3    C8 9100   2.730   4.141  12.968  0.3958  1.0013 -0.1464
  610TMC3    O1 9101   2.909   3.630  13.209 -0.5374  0.2125 -0.4710
  610TMC3    O2 9102   2.628   4.204  12.946  0.7548  0.3500  0.1802
  611MPD2     C 9103   1.908   2.854  10.179  0.5418  0.1946  0.1150
  611MPD2    C1 9104   1.816   2.935  10.114 -0.5760 -0.0880  0.1980
  611MPD2    C2 9105   1.861   3.025  10.018  0.5528 -0.0068  0.0790
  611MPD2    C3 9106   2.001   3.041   9.998 -0.4682 -0.0571  0.1422
  611MPD2    C4 9107   2.087   2.945  10.050 -0.2468 -0.6895  0.1347
  611MPD2    C5 9108   2.035   2.852  10.135 -0.0659  0.0188 -0.4706
  611MPD2     H 9109   1.794   3.087   9.958  2.9502  1.0934 -1.4534
  611MPD2    H1 9110   2.194   2.946  10.032 -0.5844  2.4860 -1.7266
  611MPD2    H2 9111   1.875   2.788  10.258  0.3276  1.2105  0.8694
  611MPD2    H3 9112   2.113   2.796  10.186 -2.1572 -0.9519  1.6894
  611MPD2     N 9113   2.053   3.143   9.915  0.3617  0.3690  0.3837
  611MPD2    H5 9114   2.154   3.145   9.904  0.0511 -1.6784 -2.9461
  611MPD2    N1 9115   1.679   2.928  10.156 -0.7603  0.1397 -0.2092
  611MPD2    H7 9116   1.650   2.879  10.240  0.1082 -1.1991 -0.6951
  612TMC3    C1 9117   2.065   3.362   9.819 -0.2416  0.4256  0.3194
  612TMC3    C2 9118   2.169   3.394   9.908  0.1975 -0.5142  0.1158
  612TMC3    C3 9119   2.208   3.529   9.907 -0.0074  0.4697  0.4236
  612TMC3    C4 9120   1.995   3.453   9.746 -0.0260  0.8704  0.7119
  612TMC3    C5 9121   2.028   3.581   9.769 -0.6743 -0.7795  0.4411
  612TMC3    C6 9122   2.132   3.626   9.848 -0.2888  0.2184 -0.3279
  612TMC3     C 9123   1.985   3.244   9.846 -0.2694 -0.0944  0.3272
  612TMC3     O 9124   1.871   3.249   9.807  0.3720  0.1699  0.0683
  612TMC3     H 9125   2.237   3.326   9.958  0.4556  0.9471  1.7668
  612TMC3    H1 9126   1.903   3.429   9.694  1.2205 -0.4646 -0.8923
  612TMC3    H2 9127   2.143   3.731   9.870 -0.7374 -0.1378  1.5796
  612TMC3    C7 9128   1.924   3.673   9.744 -0.4574 -0.0990  0.3494
  612TMC3    C8 9129   2.301   3.576  10.006  0.0904 -0.4860 -0.2768
  612TMC3    O1 9130   1.808   3.634   9.762 -0.1200 -0.4183  0.1209
  612TMC3    O2 9131   2.368   3.672   9.969 -0.4583  0.2569  0.1527
  613MPD2     C 9132   1.744   0.680  16.774  0.5648  0.0805 -0.5222
  613MPD2    C1 9133   1.648   0.755  16.709 -0.5037  0.7876  0.7263
  613MPD2    C2 9134   1.532   0.689  16.685 -0.3758  0.2368  0.0349
  613MPD2    C3 9135   1.509   0.552  16.710  0.1984 -0.3871 -0.0035
  613MPD2    C4 9136   1.605   0.485  16.780  0.3273 -0.7988  0.3278
  613MPD2    C5 9137   1.723   0.549  16.805 -0.0304  0.1607 -0.2404
  613MPD2     H 9138   1.457   0.739  16.625 -0.3271 -2.0836 -1.9786
  613MPD2    H1 9139   1.586   0.383  16.812 -1.2670 -0.0104  1.8645
  613MPD2    H2 9140   1.838   0.724  16.807 -1.8529  2.2738  3.4726
  613MPD2    H3 9141   1.803   0.491  16.851 -1.8297 -1.7469  0.4681
  613MPD2     N 9142   1.394   0.481  16.661 -1.0886 -0.7016 -0.7723
  613MPD2    H5 9143   1.401   0.380  16.664 -0.6868 -0.7150 -1.8058
  613MPD2    N1 9144   1.675   0.883  16.647  1.0588  1.0228 -0.4138
  613MPD2    H7 9145   1.771   0.912  16.638  0.8345  2.2405  1.0028
  614TMC3    C1 9146   1.648   1.054  16.504 -0.0301 -0.8908 -0.3023
  614TMC3    C2 9147   1.703   1.000  16.388 -0.5699 -0.5011  0.2295
  614TMC3    C3 9148   1.669   1.063  16.272  0.1469  0.1614 -0.5565
  614TMC3    C4 9149   1.579   1.168  16.501  0.3526 -0.0638  0.1420
  614TMC3    C5 9150   1.570   1.241  16.383  0.0651 -0.0676  0.3822
  614TMC3    C6 9151   1.603   1.180  16.265  0.5206  0.2347  0.0992
  614TMC3     C 9152   1.579   0.949  16.579 -0.2256  0.5230  0.5851
  614TMC3     O 9153   1.463   0.963  16.613 -0.4856  0.1694  0.1534
  614TMC3     H 9154   1.768   0.913  16.388 -2.6651 -2.0970  1.8491
  614TMC3    H1 9155   1.520   1.206  16.583  1.8217  0.0929  1.1152
  614TMC3    H2 9156   1.576   1.227  16.172  0.8161  0.4526  0.1266
  614TMC3    C7 9157   1.454   1.334  16.369  0.6528 -0.3621  0.3447
  614TMC3    C8 9158   1.666   0.995  16.143 -0.0145  0.4082  0.0617
  614TMC3    O1 9159   1.446   1.415  16.463 -0.0696 -0.1540  0.0174
  614TMC3    O2 9160   1.697   1.057  16.041 -0.1999 -0.4386 -0.1554
  615MPD2     C 9161   0.710   2.534  16.165  0.2405 -0.2112 -0.7352
  615MPD2    C1 9162   0.698   2.674  16.189  0.2148 -0.6622 -0.3075
  615MPD2    C2 9163   0.724   2.761  16.084 -0.0371 -0.2901 -0.8283
  615MPD2    C3 9164   0.738   2.719  15.954 -0.2225  0.0036 -0.2470
  615MPD2    C4 9165   0.742   2.582  15.931  0.3219 -0.0558  0.0799
  615MPD2    C5 9166   0.723   2.495  16.034  0.0582 -0.2523 -0.0467
  615MPD2     H 9167   0.722   2.866  16.108  2.0669 -0.3006 -0.5538
  615MPD2    H1 9168   0.750   2.552  15.827  0.9525  0.1933  0.0585
  615MPD2    H2 9169   0.697   2.455  16.239  1.0279 -0.3909 -0.7896
  615MPD2    H3 9170   0.726   2.391  16.004 -2.5108  0.2382 -2.0457
  615MPD2     N 9171   0.767   2.806  15.846  0.1261 -0.3657 -0.7509
  615MPD2    H5 9172   0.797   2.772  15.755  0.1731 -0.2491 -0.7793
  615MPD2    N1 9173   0.690   2.741  16.305 -0.5428 -0.2639 -0.8974
  615MPD2    H7 9174   0.677   2.841  16.298 -1.3375 -0.4044 -1.4690
  616TMC3    C1 9175   0.652   2.788  16.522  0.4809 -1.0384  0.3405
  616TMC3    C2 9176   0.708   2.913  16.513  0.3785  0.7864  0.0130
  616TMC3    C3 9177   0.665   3.007  16.602  0.3346 -0.4367  0.5197
  616TMC3    C4 9178   0.557   2.765  16.611  0.5822 -0.3396  0.5659
  616TMC3    C5 9179   0.501   2.866  16.684  0.2158 -0.2429 -0.4396
  616TMC3    C6 9180   0.553   2.993  16.679  0.1213 -0.2399  0.1705
  616TMC3     C 9181   0.680   2.684  16.428  0.0042  0.4344 -0.2007
  616TMC3     O 9182   0.647   2.571  16.451 -0.7087 -0.3318  0.7591
  616TMC3     H 9183   0.786   2.926  16.439  0.2347  2.2039  0.1224
  616TMC3    H1 9184   0.519   2.663  16.609  0.0402 -0.1665  1.8036
  616TMC3    H2 9185   0.511   3.084  16.721  0.3056 -0.8687  1.7156
  616TMC3    C7 9186   0.371   2.843  16.743  0.2337  0.3225 -0.5620
  616TMC3    C8 9187   0.713   3.141  16.587 -0.5992  0.5323  0.6656
  616TMC3    O1 9188   0.317   2.737  16.702 -0.7644  0.4941 -0.1462
  616TMC3    O2 9189   0.646   3.242  16.588 -0.5169 -0.4739  0.7759
  617MPD2     C 9190   3.724   0.784  13.813  0.7176  0.6963  0.0278
  617MPD2    C1 9191   3.720   0.654  13.860  0.2973  0.4011  1.0118
  617MPD2    C2 9192   3.602   0.612  13.924 -0.0147 -0.3395  0.7609
  617MPD2    C3 9193   3.491   0.687  13.927 -0.0528  0.4142 -0.3197
  617MPD2    C4 9194   3.495   0.806  13.856 -0.4093  0.4133 -0.7513
  617MPD2    C5 9195   3.610   0.855  13.801 -0.5692  0.0091 -0.6719
  617MPD2     H 9196   3.609   0.513  13.967 -0.2218 -1.0552 -0.8481
  617MPD2    H1 9197   3.410   0.873  13.845 -0.7788  0.0902  0.1166
  617MPD2    H2 9198   3.821   0.817  13.776  1.8410 -1.6277  0.8699
  617MPD2    H3 9199   3.611   0.951  13.752 -1.8657 -0.4901 -1.6740
  617MPD2     N 9200   3.366   0.655  13.993  0.3482 -0.1572 -0.5005
  617MPD2    H5 9201   3.289   0.720  14.000  1.6377  1.0546  2.4175
  617MPD2    N1 9202   3.828   0.566  13.839  0.2860  0.0060 -0.0172
  617MPD2    H7 9203   3.901   0.605  13.779 -0.1625  0.2199 -0.4219
  618TMC3    C1 9204   3.998   0.398  13.878 -0.1629  0.8690  0.0462
  618TMC3    C2 9205   4.023   0.279  13.933  0.2145  0.5013  0.6295
  618TMC3    C3 9206   4.125   0.202  13.879  0.7980 -0.3799 -0.2120
  618TMC3    C4 9207   4.056   0.449  13.765 -0.9324 -0.7712 -0.5947
  618TMC3    C5 9208   4.159   0.376  13.719 -0.4236  0.4423  0.5471
  618TMC3    C6 9209   4.192   0.256  13.772  0.4074  0.3642 -0.6967
  618TMC3     C 9210   3.865   0.458  13.918 -0.2011 -0.8140  0.1725
  618TMC3     O 9211   3.819   0.418  14.024 -0.0068  0.1151 -0.1934
  618TMC3     H 9212   3.969   0.238  14.017 -0.8284  0.2462 -0.1714
  618TMC3    H1 9213   4.037   0.544  13.717  2.8225  0.0527 -0.4497
  618TMC3    H2 9214   4.263   0.193  13.720 -1.8041 -2.1289 -0.7649
  618TMC3    C7 9215   4.167   0.373  13.580 -0.1049 -0.4761  0.0751
  618TMC3    C8 9216   4.176   0.075  13.927 -0.0442  0.1243  0.3288
  618TMC3    O1 9217   4.064   0.418  13.520  0.3877  0.2969  0.0948
  618TMC3    O2 9218   4.206   0.077  14.045  0.4594 -0.1216  0.1300
  619MPD2     C 9219   4.720   1.953  13.157  0.2316 -0.0890  0.0013
  619MPD2    C1 9220   4.584   1.982  13.170 -0.1549 -0.4659 -0.0069
  619MPD2    C2 9221   4.515   1.957  13.288  0.0195 -0.7545  0.0263
  619MPD2    C3 9222   4.581   1.906  13.398  0.1559  0.0465  0.0707
  619MPD2    C4 9223   4.714   1.880  13.384  0.1126  0.4722 -0.3727
  619MPD2    C5 9224   0.044   1.902  13.267  0.0307 -0.6147  0.3286
  619MPD2     H 9225   4.409   1.980  13.288  0.0099 -0.8317  2.2131
  619MPD2    H1 9226   0.034   1.839  13.468  0.5700  1.0490 -0.3922
  619MPD2    H2 9227   0.040   1.958  13.065 -0.8963 -0.8847 -0.7302
  619MPD2    H3 9228   0.150   1.881  13.260  0.1361  0.1744 -0.3969
  619MPD2     N 9229   4.523   1.870  13.525 -0.1746  0.4351  0.4660
  619MPD2    H5 9230   4.587   1.828  13.592  0.8976 -1.4584 -1.7587
  619MPD2    N1 9231   4.515   2.047  13.064 -0.1614 -0.1675 -0.1227
  619MPD2    H7 9232   4.414   2.052  13.068 -0.0495  1.0252  1.4860
  620TMC3    C1 9233   4.474   2.141  12.850 -0.2282  0.0927 -0.0077
  620TMC3    C2 9234   4.346   2.097  12.882 -0.5548  0.2530  0.1199
  620TMC3    C3 9235   4.243   2.190  12.877  0.6872  0.4141 -0.2520
  620TMC3    C4 9236   4.494   2.269  12.814  0.1372  0.1002 -0.1595
  620TMC3    C5 9237   4.390   2.352  12.777 -0.3259 -0.2019  0.4004
  620TMC3    C6 9238   4.267   2.307  12.807  0.3467 -0.7410  0.2881
  620TMC3     C 9239   4.577   2.098  12.952 -0.4321 -0.1267  0.3090
  620TMC3     O 9240   4.691   2.139  12.931  0.1998 -0.1915 -0.0070
  620TMC3     H 9241   4.329   2.004  12.935 -0.1388 -0.9893 -1.9299
  620TMC3    H1 9242   4.595   2.309  12.820 -0.5690  1.9575 -0.6328
  620TMC3    H2 9243   4.185   2.371  12.775 -1.0055 -2.6767 -0.1500
  620TMC3    C7 9244   4.396   2.492  12.819  0.7151  0.1869  0.6937
  620TMC3    C8 9245   4.197   2.215  13.014  0.0178  0.2987 -0.0254
  620TMC3    O1 9246   4.301   2.559  12.781 -0.5579 -0.1774 -0.1457
  620TMC3    O2 9247   4.243   2.138  13.092 -0.1111  0.5332  0.6215
  621MPD2     C 9248   4.157   1.832   8.935  0.4056  0.0493 -0.2556
  621MPD2    C1 9249   4.204   1.756   9.043  0.6544  0.3350 -0.2751
  621MPD2    C2 9250   4.327   1.789   9.101  0.5118 -0.3830 -0.5302
  621MPD2    C3 9251   4.408   1.888   9.053  0.1786  0.4605 -0.1144
  621MPD2    C4 9252   4.357   1.966   8.951  0.5721  0.6606  0.6164
  621MPD2    C5 9253   4.238   1.936   8.894 -0.6804  0.0627  0.5243
  621MPD2     H 9254   4.370   1.734   9.184  0.2846  1.0317  0.5267
  621MPD2    H1 9255   4.402   2.053   8.904  1.3384  0.9054  1.8013
  621MPD2    H2 9256   4.061   1.812   8.888 -0.0140  0.9042  0.2230
  621MPD2    H3 9257   4.199   1.991   8.809  0.6302  1.0454  0.5636
  621MPD2     N 9258   4.528   1.923   9.113 -0.1913 -0.1796  0.0909
  621MPD2    H5 9259   4.565   1.861   9.185  0.8183  2.2370  1.6634
  621MPD2    N1 9260   4.134   1.652   9.108  0.0850 -0.0700  0.2127
  621MPD2    H7 9261   4.181   1.604   9.185  0.4020 -1.6193 -0.9522
  622TMC3    C1 9262   3.952   1.494   9.149 -0.2091  0.1154 -0.7435
  622TMC3    C2 9263   4.036   1.402   9.207  0.1622  0.3876  0.2136
  622TMC3    C3 9264   3.975   1.291   9.256  0.2353  0.6934 -0.1336
  622TMC3    C4 9265   3.816   1.480   9.144 -0.2576  0.5358  0.1625
  622TMC3    C5 9266   3.768   1.368   9.194 -0.0536 -0.7671  0.2406
  622TMC3    C6 9267   3.842   1.268   9.246 -0.3531  0.5916  0.0302
  622TMC3     C 9268   4.005   1.619   9.090  0.5644 -0.2469  0.1272
  622TMC3     O 9269   3.919   1.694   9.044  0.6024  0.4624 -0.4734
  622TMC3     H 9270   4.143   1.419   9.207  0.0773  0.8636 -1.2355
  622TMC3    H1 9271   3.742   1.543   9.096 -0.9616 -1.8868 -1.9345
  622TMC3    H2 9272   3.795   1.174   9.274  2.8362 -0.2593  2.4854
  622TMC3    C7 9273   3.624   1.343   9.177  0.1444  0.2701  0.3410
  622TMC3    C8 9274   4.046   1.210   9.350 -0.7886 -0.6810 -0.9246
  622TMC3    O1 9275   3.590   1.241   9.122  0.2106  0.1379 -0.1035
  622TMC3    O2 9276   4.014   1.093   9.357 -0.3605 -0.0257 -0.4789
  623MPD2     C 9277   3.809   2.751  15.952 -0.0057  0.1199  0.3490
  623MPD2    C1 9278   3.765   2.740  16.080 -0.0083 -0.5034  0.3109
  623MPD2    C2 9279   3.860   2.741  16.185  0.9001 -0.1275  0.5537
  623MPD2    C3 9280   3.994   2.762  16.169  0.2601  0.2259 -0.1671
  623MPD2    C4 9281   4.037   2.781  16.038 -0.1759  0.1981 -0.2765
  623MPD2    C5 9282   3.945   2.769  15.939 -0.5866  0.4908  0.1423
  623MPD2     H 9283   3.826   2.740  16.288 -1.7711 -1.3393 -0.3379
  623MPD2    H1 9284   4.139   2.816  16.025  0.1826 -0.0840  1.6711
  623MPD2    H2 9285   3.739   2.745  15.869  1.3250  0.8121 -0.8237
  623MPD2    H3 9286   3.980   2.784  15.838 -2.8878  1.3299 -0.5421
  623MPD2     N 9287   4.067   2.785  16.286 -0.0790 -0.5611  0.0188
  623MPD2    H5 9288   4.011   2.790  16.370  0.1696  1.7250  0.0304
  623MPD2    N1 9289   3.628   2.762  16.099  0.0307 -0.1268  0.3585
  623MPD2    H7 9290   3.578   2.787  16.015  1.8808  1.0052 -0.4055
  624TMC3    C1 9291   4.334   2.731  16.605 -0.3546  0.0238  0.1131
  624TMC3    C2 9292   4.215   2.738  16.678 -0.8622 -0.0494  0.7987
  624TMC3    C3 9293   4.121   2.825  16.627  0.1570 -0.1793 -0.5270
  624TMC3    C4 9294   4.341   2.791  16.485  0.0930 -0.1096  0.1956
  624TMC3    C5 9295   4.229   2.850  16.427 -0.8778  0.4642  1.1968
  624TMC3    C6 9296   4.120   2.884  16.506  0.9852  0.8491 -0.2465
  624TMC3     C 9297   4.464   2.682  16.664 -0.4161 -0.3713 -1.0440
  624TMC3     O 9298   4.560   2.751  16.638  0.4784  0.6012  0.1946
  624TMC3     H 9299   4.212   2.695  16.777  4.2989 -0.3241  0.8552
  624TMC3    H1 9300   4.420   2.769  16.413 -1.4602  0.9680 -1.8508
  624TMC3    H2 9301   4.032   2.938  16.473  0.3942  0.3386  0.4724
  624TMC3    C7 9302   4.200   2.795  16.295 -0.0074 -0.7233 -0.1825
  624TMC3    C8 9303   3.992   2.824  16.693  0.0699  0.3335 -0.4806
  624TMC3    O1 9304   4.290   2.783  16.213  0.0819  0.4238  0.3255
  624TMC3    O2 9305   3.967   2.722  16.754  0.4454  0.4504  0.4105
  625MPD2     C 9306   4.641   4.131   0.652 -1.0530 -0.2492 -0.7198
  625MPD2    C1 9307   4.662   4.233   0.559  0.3713 -0.3576 -0.3304
  625MPD2    C2 9308   0.060   4.257   0.514  0.0396 -0.3062  0.3551
  625MPD2    C3 9309   0.167   4.173   0.556  0.8216 -0.0369 -0.3623
  625MPD2    C4 9310   0.137   4.067   0.637 -0.1570  0.3523  0.1690
  625MPD2    C5 9311   0.004   4.038   0.674 -0.2474 -0.2020  0.2352
  625MPD2     H 9312   0.075   4.331   0.436  0.2700 -1.7194 -0.9597
  625MPD2    H1 9313   0.215   4.002   0.675 -2.3826 -2.6092 -0.3150
  625MPD2    H2 9314   4.542   4.112   0.693 -0.4024 -2.3486 -0.1674
  625MPD2    H3 9315   4.722   3.949   0.732  0.1000 -0.7346 -0.4784
  625MPD2     N 9316   0.289   4.188   0.499  0.3301  0.1867 -0.1362
  625MPD2    H5 9317   0.297   4.278   0.452  1.3111 -0.0091 -0.3380
  625MPD2    N1 9318   4.548   4.309   0.526  0.3455  0.0409  0.2423
  625MPD2    H7 9319   4.461   4.293   0.575 -0.6626 -0.4091 -1.6869
  626TMC3    C1 9320   4.423   4.475   0.463 -1.0601  0.3534 -0.4377
  626TMC3    C2 9321   4.350   4.459   0.347 -0.1584 -0.0055  0.6233
  626TMC3    C3 9322   4.237   4.540   0.325 -0.2013  0.3843  0.3351
  626TMC3    C4 9323   4.394   4.567   0.557 -0.0166  0.5084 -0.1659
  626TMC3    C5 9324   4.278   4.635   0.539 -0.5630 -0.3350  0.1474
  626TMC3    C6 9325   4.196   4.629   0.423 -0.0739 -0.0539  0.0497
  626TMC3     C 9326   4.557   4.427   0.456  0.3010  0.5450  0.4975
  626TMC3     O 9327   4.647   4.492   0.402 -0.3614 -0.2570  0.0934
  626TMC3     H 9328   4.382   4.402   0.261 -2.4087 -2.2094  1.2732
  626TMC3    H1 9329   4.451   4.578   0.649  1.8437  0.4102 -1.3051
  626TMC3    H2 9330   4.125   4.708   0.402  0.4868  0.2260 -0.7859
  626TMC3    C7 9331   4.249   4.732   0.642  0.3623  0.0539 -0.1216
  626TMC3    C8 9332   4.176   4.535   0.195 -0.2510  0.5593 -0.2585
  626TMC3    O1 9333   4.328   0.007   0.736  0.1066  0.3765  0.0582
  626TMC3    O2 9334   4.238   4.486   0.103  0.4998  0.2204  0.5620
  627MPD2     C 9335   3.048   4.568  14.363  0.5669  0.0377 -0.4432
  627MPD2    C1 9336   3.048   4.475  14.470 -0.0990  0.2252 -0.2901
  627MPD2    C2 9337   2.927   4.407  14.490 -0.6537  0.1961  0.4475
  627MPD2    C3 9338   2.814   4.442  14.418  0.2949  0.2900  0.6619
  627MPD2    C4 9339   2.819   4.535  14.319  0.1839 -0.0443  0.3869
  627MPD2    C5 9340   2.940   4.597  14.288  0.2911  0.1155  0.2578
  627MPD2     H 9341   2.913   4.328  14.563 -1.1095 -0.9792 -0.8960
  627MPD2    H1 9342   2.732   4.562  14.261  2.0614 -1.9774 -3.3413
  627MPD2    H2 9343   3.143   4.610  14.332  0.0913  1.8203  0.5401
  627MPD2    H3 9344   2.941   4.668  14.206 -0.5473  0.5992  0.6624
  627MPD2     N 9345   2.691   4.379  14.464  0.1585 -0.3936 -0.0243
  627MPD2    H5 9346   2.700   4.298  14.525  1.4652  1.1366  1.7875
  627MPD2    N1 9347   3.151   4.445  14.561  0.2718 -0.1514  0.1439
  627MPD2    H7 9348   3.134   4.370  14.627  3.3496  1.2501  2.5173
  628TMC3    C1 9349   3.344   4.453  14.683 -0.3342 -0.4973 -0.4302
  628TMC3    C2 9350   3.475   4.426  14.675 -0.6091  0.2945  0.4668
  628TMC3    C3 9351   3.562   4.470  14.771  0.0518 -0.2001 -0.2747
  628TMC3    C4 9352   3.291   4.535  14.786  0.2248  0.4726  0.3421
  628TMC3    C5 9353   3.383   4.583  14.870  0.8300  0.1197  1.2358
  628TMC3    C6 9354   3.515   4.538  14.877 -0.3322 -0.9523 -0.1405
  628TMC3     C 9355   3.280   4.488  14.563  0.9620 -0.3842  0.3261
  628TMC3     O 9356   3.332   4.571  14.492 -0.2805  0.3118  0.8398
  628TMC3     H 9357   3.503   4.363  14.591 -0.5513  0.9561 -0.0102
  628TMC3    H1 9358   3.196   4.584  14.772 -0.3835 -0.8079  0.0806
  628TMC3    H2 9359   3.584   4.592  14.942 -0.4695  0.8906 -1.5270
  628TMC3    C7 9360   3.365   4.719  14.917 -0.0638 -0.5706  0.2225
  628TMC3    C8 9361   3.705   4.473  14.739 -0.0029 -0.0985 -0.2223
  628TMC3    O1 9362   3.439   0.025  15.010 -0.2885 -0.8847  0.7738
  628TMC3    O2 9363   3.731   4.487  14.621  0.4959 -0.3855  0.4015
  629MPD2     C 9364   1.129   3.429  16.464  0.2082 -0.4654  0.5043
  629MPD2    C1 9365   1.171   3.295  16.458 -0.2126  0.3131 -0.1403
  629MPD2    C2 9366   1.072   3.203  16.500  0.2149  0.0512 -0.2137
  629MPD2    C3 9367   0.943   3.236  16.538  0.1578  0.1523 -0.3755
  629MPD2    C4 9368   0.911   3.371  16.533  0.0185  0.7056  0.4066
  629MPD2    C5 9369   1.003   3.464  16.502 -0.0529  0.2747  0.4512
  629MPD2     H 9370   1.095   3.098  16.491  0.1626  0.2284 -2.3365
  629MPD2    H1 9371   0.810   3.404  16.553 -0.6655 -0.2601 -1.4063
  629MPD2    H2 9372   1.192   3.510  16.429 -1.9886  0.4860 -1.2527
  629MPD2    H3 9373   0.974   3.568  16.502 -0.9070  0.0373  1.7948
  629MPD2     N 9374   0.844   3.132  16.558 -0.1178  0.3635  0.4839
  629MPD2    H5 9375   0.878   3.037  16.564  2.1974  1.2210  1.0114
  629MPD2    N1 9376   1.308   3.267  16.427  0.5762  0.1425 -0.7148
  629MPD2    H7 9377   1.360   3.343  16.384 -0.6204  2.2325  1.5110
  630TMC3    C1 9378   1.515   3.144  16.407 -0.3741 -0.2536 -0.5280
  630TMC3    C2 9379   1.575   3.239  16.335 -0.6614  0.5088  0.3651
  630TMC3    C3 9380   1.713   3.237  16.332  0.3179  0.4413 -0.5719
  630TMC3    C4 9381   1.591   3.043  16.470 -0.2935 -0.6653  0.0511
  630TMC3    C5 9382   1.728   3.046  16.467 -0.2149 -0.7128 -0.4776
  630TMC3    C6 9383   1.783   3.142  16.390 -0.3628  0.8960  0.1652
  630TMC3     C 9384   1.374   3.147  16.438  0.9271 -0.1693  0.3580
  630TMC3     O 9385   1.317   3.042  16.464  0.1663 -0.0575 -0.0270
  630TMC3     H 9386   1.515   3.315  16.286 -0.2046  0.4189 -0.3216
  630TMC3    H1 9387   1.539   2.985  16.546  1.0138 -0.7714  0.8643
  630TMC3    H2 9388   1.889   3.143  16.368 -0.0858  3.2835  1.7019
  630TMC3    C7 9389   1.782   3.047  16.604  0.6809 -0.9380  0.6124
  630TMC3    C8 9390   1.787   3.360  16.329 -0.1157 -0.3217 -0.7757
  630TMC3    O1 9391   1.752   2.953  16.679  0.1002 -0.1611 -0.8958
  630TMC3    O2 9392   1.851   3.373  16.433  0.3580 -0.5002 -0.1014
  631MPD2     C 9393   0.390   3.142  15.049 -0.0464  0.0222  0.2380
  631MPD2    C1 9394   0.374   3.236  15.153  0.4128  0.1665 -1.2254
  631MPD2    C2 9395   0.465   3.235  15.255  0.0144  1.0956  0.1722
  631MPD2    C3 9396   0.556   3.125  15.266 -0.5422 -0.4217  0.1192
  631MPD2    C4 9397   0.560   3.029  15.170  0.4399  0.1189  0.6223
  631MPD2    C5 9398   0.474   3.036  15.060  0.9501 -0.0640 -0.1550
  631MPD2     H 9399   0.465   3.308  15.335  1.7563  0.5358  0.6767
  631MPD2    H1 9400   0.634   2.952  15.186  2.3029  1.5498 -1.2259
  631MPD2    H2 9401   0.331   3.138  14.959 -0.9160 -0.3347  0.8307
  631MPD2    H3 9402   0.469   2.960  14.982  0.4181 -0.7714  0.5653
  631MPD2     N 9403   0.638   3.123  15.382 -0.2550 -0.3452 -0.1433
  631MPD2    H5 9404   0.626   3.202  15.445  0.8785 -0.2992  0.0151
  631MPD2    N1 9405   0.275   3.337  15.135 -0.2461  0.4587 -0.0545
  631MPD2    H7 9406   0.225   3.332  15.047 -1.7981  1.9369  0.7337
  632TMC3    C1 9407   0.145   3.535  15.197 -0.5802  0.0489 -0.0489
  632TMC3    C2 9408   0.085   3.594  15.299 -0.0413  0.2611 -0.2794
  632TMC3    C3 9409   4.714   3.672  15.274  0.5048 -0.0313  0.8163
  632TMC3    C4 9410   0.098   3.541  15.070  0.5019  0.5962  0.6459
  632TMC3    C5 9411   4.724   3.625  15.050 -0.4138 -0.2716 -0.1964
  632TMC3    C6 9412   4.663   3.688  15.153  0.2007 -0.7164  0.7110
  632TMC3     C 9413   0.246   3.434  15.226 -0.0348 -0.8307  0.5516
  632TMC3     O 9414   0.290   3.439  15.338 -0.5559 -0.5363  0.2620
  632TMC3     H 9415   0.121   3.568  15.398 -2.6955 -0.2303  0.5569
  632TMC3    H1 9416   0.166   3.519  14.988  1.9801  2.7586  1.2809
  632TMC3    H2 9417   4.581   3.758  15.141  2.2816  2.0905  2.9387
  632TMC3    C7 9418   4.680   3.645  14.912 -0.3836  0.3943  0.9935
  632TMC3    C8 9419   4.622   3.682  15.394 -0.3886 -0.3401  0.4909
  632TMC3    O1 9420   4.611   3.746  14.884  0.6516  0.1740  0.1060
  632TMC3    O2 9421   4.504   3.675  15.369 -0.5397  0.2806 -0.6759
  633MPD2     C 9422   4.242   1.017  17.472  0.0085 -0.5536  0.0619
  633MPD2    C1 9423   4.168   0.942  17.383 -0.1958 -0.0077  0.5795
  633MPD2    C2 9424   4.114   0.831  17.430  0.1354 -0.8104  0.3784
  633MPD2    C3 9425   4.134   0.789  17.566 -0.2179 -0.8732  0.5333
  633MPD2    C4 9426   4.217   0.855  17.645  0.7044  0.5748  0.1531
  633MPD2    C5 9427   4.258   0.980  17.603 -0.2192  0.2083 -0.1430
  633MPD2     H 9428   4.043   0.774  17.371  0.6866  0.7399 -1.7600
  633MPD2    H1 9429   4.240   0.821   0.004 -1.8076  2.6429  1.4400
  633MPD2    H2 9430   4.293   1.109  17.444 -0.7491 -0.4431 -0.9760
  633MPD2    H3 9431   4.318   1.039  17.672 -0.0304 -0.7136  0.4852
  633MPD2     N 9432   4.108   0.657  17.608  0.4608  0.2224  0.3005
  633MPD2    H5 9433   4.154   0.632  17.695  1.9057 -0.0930 -0.5569
  633MPD2    N1 9434   4.171   0.966  17.245  0.4560  0.2933  0.2390
  633MPD2    H7 9435   4.116   0.908  17.183 -0.5951  0.5698  0.9101
  634TMC3    C1 9436   4.211   1.086  17.050  0.5795 -0.5743  0.1535
  634TMC3    C2 9437   4.232   0.970  16.983  0.1229 -0.2599 -0.8332
  634TMC3    C3 9438   4.275   0.988  16.852  0.3423  0.0483 -0.8808
  634TMC3    C4 9439   4.219   1.208  16.989  0.0108 -0.4272  0.2216
  634TMC3    C5 9440   4.242   1.216  16.862  0.8957  0.4416  0.0749
  634TMC3    C6 9441   4.271   1.108  16.783 -1.1226 -0.4910 -0.8263
  634TMC3     C 9442   4.216   1.086  17.190  0.2536  0.0829  0.8485
  634TMC3     O 9443   4.267   1.182  17.245  0.2200 -0.1321  0.4334
  634TMC3     H 9444   4.264   0.879  17.032 -1.9252  0.2834  1.5102
  634TMC3    H1 9445   4.209   1.295  17.053 -2.3640 -0.9918  0.6490
  634TMC3    H2 9446   4.282   1.124  16.676  1.1823 -3.2850 -1.0320
  634TMC3    C7 9447   4.195   1.334  16.789  0.0502  0.7504  0.0444
  634TMC3    C8 9448   4.307   0.869  16.780  0.5447 -0.2177  0.8141
  634TMC3    O1 9449   4.235   1.348  16.673 -0.1200 -0.1503  0.1150
  634TMC3    O2 9450   4.278   0.766  16.834 -0.2438 -0.0465 -0.1721
  635TMC3    C1 9451   4.480   1.947   0.373 -0.4201 -0.2870 -0.2233
  635TMC3    C2 9452   4.429   1.819   0.357 -0.2953  0.0446 -0.2658
  635TMC3    C3 9453   4.308   1.786   0.420 -0.0920  0.4824  0.4282
  635TMC3    C4 9454   4.433   2.035   0.457 -0.0852  0.2987  0.3044
  635TMC3    C5 9455   4.313   2.003   0.517 -0.2100 -0.6923 -0.8466
  635TMC3    C6 9456   4.241   1.886   0.484  0.3560 -0.7780 -0.0065
  635TMC3     C 9457   4.618   1.976   0.337 -0.6586 -0.4729 -0.1240
  635TMC3     O 9458   4.632   2.098   0.316 -0.0158  0.3582 -0.1576
  635TMC3     H 9459   4.471   1.748   0.286 -2.3926 -0.1964 -1.2755
  635TMC3    H1 9460   4.495   2.122   0.477  0.2232 -0.5193  2.8098
  635TMC3    H2 9461   4.138   1.876   0.516  0.4621 -1.0070  0.2621
  635TMC3    C7 9462   4.237   2.100   0.593 -0.7657  0.1555 -0.0348
  635TMC3    C8 9463   4.238   1.662   0.384  0.2463 -1.0405 -0.6622
  635TMC3    O1 9464   4.121   2.077   0.621  0.7830 -0.1461  0.5047
  635TMC3    O2 9465   4.265   1.613   0.275 -0.1108  0.0346 -0.5214
  636MPD2     C 9466   0.793   0.950  15.990  0.0744  0.6861 -0.1731
  636MPD2    C1 9467   0.842   0.986  16.116  0.5231 -0.1120  1.3051
  636MPD2    C2 9468   0.913   0.892  16.191 -0.0264  0.5077 -0.3454
  636MPD2    C3 9469   0.934   0.763  16.133  0.8033  0.0786 -0.2071
  636MPD2    C4 9470   0.876   0.726  16.015  0.1168  0.0309  0.0426
  636MPD2    C5 9471   0.803   0.819  15.947  0.2256  0.8178 -0.0681
  636MPD2     H 9472   0.949   0.912  16.291 -0.4817  0.2322 -0.1239
  636MPD2    H1 9473   0.893   0.626  15.978 -2.3486 -0.8248  1.1934
  636MPD2    H2 9474   0.732   1.010  15.924  0.2908  0.1719 -0.8442
  636MPD2    H3 9475   0.755   0.787  15.855  0.3940 -1.6864  0.7099
  636MPD2     N 9476   1.007   0.673  16.210  0.1483 -0.0217 -0.2991
  636MPD2    H5 9477   1.042   0.710  16.298 -3.8745 -1.2501  1.8456
  636MPD2    N1 9478   0.830   1.116  16.170  0.5283 -0.0151  0.2777
  636MPD2    H7 9479   0.853   1.129  16.268 -1.7530  0.3050  0.7716
  637TMC3    C1 9480   1.157   0.488  16.258 -0.0776 -0.5365  0.5209
  637TMC3    C2 9481   1.156   0.516  16.389 -0.1700  0.1254 -0.3799
  637TMC3    C3 9482   1.249   0.462  16.468  0.2980  0.2343 -0.1704
  637TMC3    C4 9483   1.256   0.414  16.202  0.0272  0.0744  0.1790
  637TMC3    C5 9484   1.356   0.366  16.278  0.0788  0.4324  0.0876
  637TMC3    C6 9485   1.349   0.386  16.415 -0.2459  0.1437  0.5436
  637TMC3     C 9486   1.060   0.546  16.167  0.0977 -0.4911 -0.5913
  637TMC3     O 9487   1.039   0.480  16.066 -0.3358 -0.4393  0.0240
  637TMC3     H 9488   1.071   0.564  16.435 -1.0269 -2.2850  0.5538
  637TMC3    H1 9489   1.244   0.402  16.095  1.1209 -1.3197  0.2160
  637TMC3    H2 9490   1.430   0.341  16.471  0.1927 -0.6298 -0.7063
  637TMC3    C7 9491   1.496   0.379  16.234 -0.8952  0.0718 -0.5499
  637TMC3    C8 9492   1.298   0.541  16.582 -0.7963  0.4141 -0.1787
  637TMC3    O1 9493   1.575   0.423  16.314 -0.1979 -0.3338 -0.6206
  637TMC3    O2 9494   1.251   0.652  16.581 -0.1259 -0.0814  0.6497
  638MPD2     C 9495   0.524   0.364  14.693  0.3331 -0.6810 -0.2921
  638MPD2    C1 9496   0.492   0.243  14.637  0.8384  0.7401 -0.1177
  638MPD2    C2 9497   0.426   0.148  14.716 -0.5529  0.0692 -0.4169
  638MPD2    C3 9498   0.394   0.168  14.846  0.1620  0.1624  0.1645
  638MPD2    C4 9499   0.427   0.291  14.901  0.5187  0.3005  0.5669
  638MPD2    C5 9500   0.488   0.381  14.825 -0.3008 -0.1029 -0.3221
  638MPD2     H 9501   0.401   0.051  14.677 -0.8500  0.7323 -1.8673
  638MPD2    H1 9502   0.394   0.311  15.003  0.4787  2.1073  0.1897
  638MPD2    H2 9503   0.577   0.438  14.635 -1.6474 -1.1379 -2.6824
  638MPD2    H3 9504   0.507   0.480  14.864 -0.6791 -0.9365  2.0306
  638MPD2     N 9505   0.345   0.058  14.918  0.3836  0.1681 -0.1319
  638MPD2    H5 9506   0.321   4.710  14.865  1.9474  0.1526 -0.8166
  638MPD2    N1 9507   0.530   0.223  14.500  1.0332 -0.0386 -0.3218
  638MPD2    H7 9508   0.609   0.270  14.458  0.5706 -1.0057 -2.3096
  639TMC3    C1 9509   0.299   4.654  15.084 -0.2270 -0.0710  0.1193
  639TMC3    C2 9510   0.194   4.598  15.015  0.1773 -0.1100 -0.4237
  639TMC3    C3 9511   0.178   4.469  15.044 -0.5691 -0.1125 -0.3877
  639TMC3    C4 9512   0.381   4.594  15.171  0.1278  1.1008  0.8158
  639TMC3    C5 9513   0.341   4.471  15.218  0.4385 -0.1755 -0.1841
  639TMC3    C6 9514   0.241   4.409  15.151  0.3948 -0.3148 -0.3587
  639TMC3     C 9515   0.330   0.055  15.052  0.8763 -0.0517 -0.1730
  639TMC3     O 9516   0.348   0.135  15.143 -0.7641 -0.5322 -0.4969
  639TMC3     H 9517   0.133   4.656  14.947  0.0487  0.0262 -0.1902
  639TMC3    H1 9518   0.459   4.644  15.227 -0.0239  3.0525 -0.7590
  639TMC3    H2 9519   0.226   4.305  15.179  2.0378 -0.7366 -1.0246
  639TMC3    C7 9520   0.438   4.366  15.230 -0.2460 -0.2646 -0.4850
  639TMC3    C8 9521   0.154   4.376  14.932 -0.0041  0.3342 -0.2999
  639TMC3    O1 9522   0.419   4.271  15.305 -0.3601  0.2798 -0.3246
  639TMC3    O2 9523   0.237   4.281  14.919  0.8695 -0.2158  0.0039
  640MPD2     C 9524   0.236   2.921  10.073 -0.2892  0.4495  0.1078
  640MPD2    C1 9525   0.260   3.001   9.961  0.2612 -0.5002  0.3733
  640MPD2    C2 9526   0.257   3.139   9.977  0.4562 -0.3029 -0.4239
  640MPD2    C3 9527   0.246   3.201  10.100 -0.7372 -0.1474  0.7227
  640MPD2    C4 9528   0.245   3.127  10.207  0.1251 -0.8861  0.1357
  640MPD2    C5 9529   0.234   2.987  10.191  0.1209  0.0436 -0.0722
  640MPD2     H 9530   0.258   3.198   9.886 -3.2916 -0.5190 -0.6170
  640MPD2    H1 9531   0.236   3.176  10.303 -0.2118 -1.7598  0.5494
  640MPD2    H2 9532   0.243   2.813  10.077  0.0456  0.5064  0.9907
  640MPD2    H3 9533   0.236   2.915  10.272  0.5518  1.6817  1.3789
  640MPD2     N 9534   0.237   3.345  10.110  0.5940 -0.3556 -0.4705
  640MPD2    H5 9535   0.227   3.382  10.204  0.3277 -0.2076 -0.5566
  640MPD2    N1 9536   0.260   2.936   9.837  0.0004  0.0121  0.1894
  640MPD2    H7 9537   0.260   2.835   9.839 -2.1480  0.0890  3.5377
  641TMC3    C1 9538   0.249   2.928   9.600 -0.2036 -0.7165 -0.6805
  641TMC3    C2 9539   0.328   2.807   9.606 -0.0710 -0.1949 -0.2224
  641TMC3    C3 9540   0.329   2.724   9.497  0.3184  0.3860  0.5804
  641TMC3    C4 9541   0.185   2.965   9.484  0.2522 -0.2666  0.0546
  641TMC3    C5 9542   0.212   2.884   9.379 -0.2727 -0.0082  0.2103
  641TMC3    C6 9543   0.275   2.764   9.376 -0.2688 -0.7234  0.6045
  641TMC3     C 9544   0.230   3.002   9.720 -0.4693  0.5597  1.1106
  641TMC3     O 9545   0.184   3.114   9.697  0.3458  0.5448 -0.1587
  641TMC3     H 9546   0.384   2.795   9.698  1.9731  0.4173 -1.3882
  641TMC3    H1 9547   0.127   3.057   9.477  0.2526 -0.1845  1.2004
  641TMC3    H2 9548   0.280   2.702   9.288 -0.8964  1.1192 -0.7223
  641TMC3    C7 9549   0.184   2.944   9.249  0.4543  0.1402  0.6001
  641TMC3    C8 9550   0.443   2.634   9.483  0.2282  0.1328  0.3066
  641TMC3    O1 9551   0.127   3.056   9.254 -0.0266  0.2099  0.6098
  641TMC3    O2 9552   0.481   2.613   9.364 -0.1777  0.0884 -0.0937
  642TMC3    C1 9553   1.176   4.028  12.571 -0.3063 -0.3446 -0.4267
  642TMC3    C2 9554   1.196   4.062  12.701 -0.0213  0.9800 -0.4967
  642TMC3    C3 9555   1.225   3.948  12.785  0.5390  0.3034  0.4713
  642TMC3    C4 9556   1.166   3.898  12.526 -0.0806  0.4008  0.3020
  642TMC3    C5 9557   1.191   3.790  12.615  0.0942 -0.5963  0.4277
  642TMC3    C6 9558   1.212   3.818  12.748  0.5344 -0.3697 -0.3167
  642TMC3     C 9559   1.161   4.124  12.467  0.3442  0.4480  0.3733
  642TMC3     O 9560   1.153   4.081  12.350  0.0520 -0.3638  0.0247
  642TMC3     H 9561   1.195   4.164  12.739 -2.5770 -0.0902  2.3429
  642TMC3    H1 9562   1.130   3.868  12.429 -1.9886  1.2877  0.7403
  642TMC3    H2 9563   1.262   3.747  12.813  0.5207  0.6086  0.7686
  642TMC3    C7 9564   1.142   3.659  12.577 -0.0617  0.2993  0.0662
  642TMC3    C8 9565   1.316   3.965  12.898  0.1137 -1.0602  0.4751
  642TMC3    O1 9566   1.083   3.655  12.469  0.5866  0.5555  0.3731
  642TMC3    O2 9567   1.336   3.871  12.972 -0.2851  0.2934 -0.0840
  643TMC3    C1 9568   1.236   4.390   0.342  0.3387  0.7646 -0.7635
  643TMC3    C2 9569   1.132   4.477   0.306 -0.4179  0.0969  0.5324
  643TMC3    C3 9570   1.115   4.492   0.171 -0.2358 -0.4602 -0.8385
  643TMC3    C4 9571   1.298   4.311   0.252  0.0684  0.3600 -0.4042
  643TMC3    C5 9572   1.266   4.330   0.120  0.1694  0.6013  0.0143
  643TMC3    C6 9573   1.179   4.419   0.075 -0.5820 -0.0515  0.2290
  643TMC3     C 9574   1.295   4.415   0.471  0.7285 -0.2534 -0.4823
  643TMC3     O 9575   1.227   4.476   0.555  0.7258 -0.5612 -0.6157
  643TMC3     H 9576   1.086   4.543   0.378  0.3195  2.2179 -0.9471
  643TMC3    H1 9577   1.365   4.239   0.297 -0.7593 -0.3323 -0.2667
  643TMC3    H2 9578   1.173   4.426  17.708  0.7294 -0.0002  0.1636
  643TMC3    C7 9579   1.356   4.268   0.025 -0.7062 -1.1298 -0.1121
  643TMC3    C8 9580   1.041   4.609   0.131 -0.1224  0.2902 -0.2129
  643TMC3    O1 9581   1.408   4.330  17.677 -0.6437 -0.2033  0.2211
  643TMC3    O2 9582   0.955   4.642   0.215  0.1588  0.1111  0.1979
  644MPD2     C 9583   0.020   3.608   9.369 -0.4620 -0.1053  1.2584
  644MPD2    C1 9584   0.138   3.626   9.304  0.6720  0.6457  1.5467
  644MPD2    C2 9585   0.165   3.749   9.250  0.4158 -0.3514  0.2523
  644MPD2    C3 9586   0.068   3.853   9.256 -0.5142  0.2321  0.2560
  644MPD2    C4 9587   4.682   3.835   9.323 -0.6274  0.0333 -0.3651
  644MPD2    C5 9588   4.662   3.713   9.387 -0.6879  0.1857  0.0713
  644MPD2     H 9589   0.263   3.768   9.207  0.5809 -0.2757  0.6634
  644MPD2    H1 9590   4.605   3.911   9.321  0.6619  1.4030  3.0839
  644MPD2    H2 9591   4.725   3.511   9.405 -0.4253  0.2470  2.2435
  644MPD2    H3 9592   4.566   3.700   9.436 -1.2195 -0.5838 -1.1873
  644MPD2     N 9593   0.104   3.971   9.192 -0.2902  0.6305  0.0762
  644MPD2    H5 9594   0.196   3.977   9.150 -0.1369 -0.8420  0.1892
  644MPD2    N1 9595   0.219   3.511   9.307  0.8824  0.2052 -0.3792
  644MPD2    H7 9596   0.192   3.434   9.367  0.6631 -0.7285 -1.6959
  645TMC3    C1 9597   0.108   4.203   9.144 -0.1632  0.7882  0.5106
  645TMC3    C2 9598   0.051   4.317   9.087 -0.6616  0.0731 -0.2841
  645TMC3    C3 9599   0.141   4.413   9.057 -1.0584  0.1432 -0.0132
  645TMC3    C4 9600   0.245   4.183   9.165 -0.1566  0.7361  0.2084
  645TMC3    C5 9601   0.322   4.283   9.129  0.2165  0.4433 -0.2777
  645TMC3    C6 9602   0.273   4.398   9.071  0.2122 -0.2529 -0.1363
  645TMC3     C 9603   0.028   4.083   9.191 -0.1862 -0.8943  0.6268
  645TMC3     O 9604   4.647   4.109   9.218  0.0170 -0.2410 -0.3614
  645TMC3     H 9605   4.680   4.330   9.069 -0.7679 -0.6100 -0.1236
  645TMC3    H1 9606   0.290   4.097   9.214 -3.2003  0.0482  1.8579
  645TMC3    H2 9607   0.346   4.466   9.030  0.1623 -0.5217 -0.6749
  645TMC3    C7 9608   0.463   4.290   9.178  0.5879  0.0147 -0.1249
  645TMC3    C8 9609   0.086   4.514   8.972  0.4677 -0.9042 -0.1974
  645TMC3    O1 9610   0.513   4.404   9.195 -0.0273  0.0162  0.0606
  645TMC3    O2 9611   4.706   4.497   8.942  0.2192  0.3671 -0.0709
  646MPD2     C 9612   0.521   3.490  14.942  0.0735  0.0377 -0.3054
  646MPD2    C1 9613   0.559   3.445  14.816  0.2391 -0.1388  0.0026
  646MPD2    C2 9614   0.506   3.508  14.712 -0.0977 -0.5528  0.3326
  646MPD2    C3 9615   0.401   3.601  14.719  0.0208 -0.0222 -0.4794
  646MPD2    C4 9616   0.352   3.637  14.843 -0.4013 -0.5876  0.7928
  646MPD2    C5 9617   0.415   3.581  14.953  0.8249  0.1232  0.5841
  646MPD2     H 9618   0.538   3.483  14.611  1.9467 -3.1091  1.5888
  646MPD2    H1 9619   0.276   3.714  14.847  0.5367  0.3253  1.0224
  646MPD2    H2 9620   0.566   3.450  15.032 -0.2500 -0.1478 -0.2249
  646MPD2    H3 9621   0.394   3.612  15.055 -0.3612  1.6039 -0.1067
  646MPD2     N 9622   0.336   3.656  14.598 -0.0943  0.4472 -0.2951
  646MPD2    H5 9623   0.253   3.712  14.614 -0.9822 -1.0370  0.3128
  646MPD2    N1 9624   0.654   3.340  14.812 -0.4456  0.3362 -0.3556
  646MPD2    H7 9625   0.698   3.300  14.895  1.4251  2.5432 -0.2762
  647TMC3    C1 9626   0.819   3.204  14.722  0.1875  0.8527  0.1607
  647TMC3    C2 9627   0.790   3.093  14.802  0.7938 -0.9720  0.5769
  647TMC3    C3 9628   0.888   3.003  14.815 -0.7013 -0.1416 -0.3499
  647TMC3    C4 9629   0.943   3.211  14.653  0.0680 -0.4535  0.2184
  647TMC3    C5 9630   1.036   3.111  14.681 -0.5800  0.3786  0.5199
  647TMC3    C6 9631   1.014   3.011  14.772  0.2685  0.3313 -0.5120
  647TMC3     C 9632   0.713   3.299  14.696  0.1534  0.2363 -0.3071
  647TMC3     O 9633   0.725   3.356  14.591  0.5359 -0.5549 -0.3911
  647TMC3     H 9634   0.693   3.078  14.850  0.1424 -1.1126 -0.8002
  647TMC3    H1 9635   0.956   3.290  14.581 -0.0852  0.4770  1.2142
  647TMC3    H2 9636   1.085   2.930  14.788  0.5455  0.2971 -1.9606
  647TMC3    C7 9637   1.173   3.130  14.636  0.0320  0.3369  0.5002
  647TMC3    C8 9638   0.863   2.874  14.876  0.1504  0.2929  0.5022
  647TMC3    O1 9639   1.187   3.147  14.513  0.0027 -0.1451  0.2541
  647TMC3    O2 9640   0.850   2.866  14.997 -0.2358  0.8962 -0.0790
  648TMC3    C1 9641   0.022   1.190  16.147 -0.3989  0.0619 -0.2009
  648TMC3    C2 9642   0.016   1.061  16.110  0.7387 -0.2010  0.3089
  648TMC3    C3 9643   0.004   1.044  15.974  0.4145  0.6309 -0.2177
  648TMC3    C4 9644   4.733   1.288  16.058  0.3983 -0.0227  1.0677
  648TMC3    C5 9645   4.702   1.267  15.929  0.4321  0.7922 -0.6070
  648TMC3    C6 9646   4.715   1.142  15.876 -0.5299 -0.2047  0.0649
  648TMC3     C 9647   0.061   1.219  16.280 -0.1081  0.1178 -0.5007
  648TMC3     O 9648   0.079   1.339  16.290 -0.1236 -0.6261  0.3200
  648TMC3     H 9649   0.022   0.982  16.184 -1.1792  0.2489  0.9278
  648TMC3    H1 9650   0.001   1.392  16.088 -2.9813  0.4332 -0.1969
  648TMC3    H2 9651   4.698   1.107  15.775  1.6381 -0.8339 -0.0820
  648TMC3    C7 9652   4.648   1.373  15.844  0.3075 -0.0094 -0.7003
  648TMC3    C8 9653   0.008   0.904  15.930  0.0410 -1.1165 -0.0858
  648TMC3    O1 9654   4.640   1.342  15.728 -0.3740 -0.0626  1.1444
  648TMC3    O2 9655   0.079   0.826  15.994 -0.1739 -0.1575  0.1763
  649TMC3    C1 9656   3.506   2.185  12.920  0.1724 -0.1246 -0.0879
  649TMC3    C2 9657   3.608   2.147  12.834  0.0542 -0.5457  0.0021
  649TMC3    C3 9658   3.682   2.043  12.875 -0.0041  0.4474  0.1036
  649TMC3    C4 9659   3.491   2.129  13.045  0.6136 -0.7062  0.4800
  649TMC3    C5 9660   3.571   2.022  13.079  0.5738 -0.0251  0.5367
  649TMC3    C6 9661   3.670   1.983  13.000 -0.5540  0.1839 -0.4125
  649TMC3     C 9662   3.436   2.305  12.888  0.1039  0.3991  0.3446
  649TMC3     O 9663   3.372   2.349  12.979 -0.0359 -0.3338 -0.2303
  649TMC3     H 9664   3.633   2.201  12.744  0.4833 -2.3827 -0.9645
  649TMC3    H1 9665   3.420   2.164  13.119 -0.5360 -0.7681 -0.6114
  649TMC3    H2 9666   3.731   1.897  13.027  0.2243  1.3169  1.4782
  649TMC3    C7 9667   3.536   1.951  13.199  0.0235  0.3853  0.3671
  649TMC3    C8 9668   3.811   2.030  12.816 -0.2457 -0.3441 -0.0824
  649TMC3    O1 9669   3.418   1.976  13.237  0.1482 -0.1948  0.0710
  649TMC3    O2 9670   3.897   1.998  12.897  0.5575 -0.3025 -0.2569
  650TMC3    C1 9671   1.178   4.073  13.351 -1.0857  0.4486 -0.1615
  650TMC3    C2 9672   1.220   4.199  13.318  0.0447  0.4379  0.4101
  650TMC3    C3 9673   1.185   4.256  13.196  0.2471  0.1539 -0.3004
  650TMC3    C4 9674   1.094   4.005  13.269 -0.2245 -0.1747  0.7560
  650TMC3    C5 9675   1.048   4.069  13.154  0.2699 -0.1233  0.5131
  650TMC3    C6 9676   1.097   4.188  13.111 -1.1209 -0.5961  0.0813
  650TMC3     C 9677   1.255   3.993  13.438  0.1875 -0.3600 -0.2759
  650TMC3     O 9678   1.306   4.054  13.531 -0.5645 -0.8492  0.1329
  650TMC3     H 9679   1.279   4.241  13.398  3.2041 -2.4407 -0.4149
  650TMC3    H1 9680   1.045   3.924  13.321  0.8748  0.4436  2.7447
  650TMC3    H2 9681   1.060   4.240  13.024  0.5713 -1.2661 -1.0440
  650TMC3    C7 9682   1.000   3.983  13.052 -0.2710  1.0013  0.7390
  650TMC3    C8 9683   1.219   4.399  13.162 -0.2529 -0.1209 -0.3356
  650TMC3    O1 9684   1.030   3.867  13.055 -0.0950  0.5719  0.1991
  650TMC3    O2 9685   1.160   4.442  13.063 -0.2207 -0.8134  0.0905
  651MPD2     C 9686   4.614   0.246  10.608  0.1353 -0.0048 -0.3803
  651MPD2    C1 9687   4.593   0.380  10.592 -0.0587 -0.2525 -0.0415
  651MPD2    C2 9688   4.711   0.463  10.584 -0.8854  0.9731 -0.5220
  651MPD2    C3 9689   0.102   0.408  10.576 -0.2409  0.5873  0.0632
  651MPD2    C4 9690   0.112   0.273  10.570 -0.2156  0.0694  0.3615
  651MPD2    C5 9691   0.000   0.193  10.585 -0.7083 -0.2328 -0.4896
  651MPD2     H 9692   4.694   0.570  10.580 -1.8407  0.9089  1.8454
  651MPD2    H1 9693   0.210   0.227  10.566  0.1687  0.8067  1.2581
  651MPD2    H2 9694   4.533   0.176  10.625  0.3232  0.1257  1.0401
  651MPD2    H3 9695   0.012   0.085  10.579 -4.0905 -0.5334 -1.4216
  651MPD2     N 9696   0.209   0.499  10.572  0.0748  0.4669  0.4553
  651MPD2    H5 9697   0.177   0.595  10.584  2.3054  1.2089  0.6229
  651MPD2    N1 9698   4.457   0.423  10.602  0.4200  0.0233  0.1134
  651MPD2    H7 9699   4.395   0.343  10.601  1.2418 -0.6042 -0.5188
  652TMC3    C1 9700   0.609   0.686  10.398 -0.1619  1.0599 -0.1862
  652TMC3    C2 9701   0.540   0.575  10.445 -0.1009 -0.9427 -0.8640
  652TMC3    C3 9702   0.432   0.588  10.523  0.5289 -1.0686 -0.1207
  652TMC3    C4 9703   0.567   0.809  10.436  0.2394  0.1416 -0.4224
  652TMC3    C5 9704   0.459   0.813  10.527 -0.7481 -0.4927 -0.3358
  652TMC3    C6 9705   0.392   0.707  10.566 -0.2818 -0.1716 -0.3874
  652TMC3     C 9706   0.751   0.669  10.403 -1.3796 -0.6366  0.6948
  652TMC3     O 9707   0.796   0.567  10.445  0.5526 -0.0794 -0.8975
  652TMC3     H 9708   0.582   0.480  10.413  0.1570 -2.0946  2.8848
  652TMC3    H1 9709   0.622   0.897  10.403  1.4468 -0.2240  0.6038
  652TMC3    H2 9710   0.300   0.724  10.620 -0.8682 -0.1601 -1.3803
  652TMC3    C7 9711   0.429   0.939  10.589 -0.0834  0.0114 -0.8136
  652TMC3    C8 9712   0.346   0.472  10.540 -0.4967  0.4988  0.2147
  652TMC3    O1 9713   0.421   0.936  10.711  0.1882 -0.2993  0.5724
  652TMC3    O2 9714   0.396   0.363  10.527  0.0612 -0.3671  0.0328
  653MPD2     C 9715   3.949   1.255  17.628 -0.7948 -1.4558  0.1384
  653MPD2    C1 9716   3.872   1.342  17.546  0.0791 -0.4880  0.1588
  653MPD2    C2 9717   3.825   1.282  17.427  0.0021 -0.1115 -0.3273
  653MPD2    C3 9718   3.825   1.149  17.411 -0.5366 -0.0848 -0.0388
  653MPD2    C4 9719   3.894   1.072  17.496 -0.0577 -0.0460  0.2303
  653MPD2    C5 9720   3.966   1.124  17.600 -0.3730 -0.2077 -0.1758
  653MPD2     H 9721   3.771   1.347  17.359  0.1863  0.4824  0.1030
  653MPD2    H1 9722   3.892   0.964  17.493  0.5388 -0.0294 -1.1949
  653MPD2    H2 9723   3.977   1.293  17.726 -1.8236 -0.5955  0.1026
  653MPD2    H3 9724   4.006   1.052  17.670  3.7594  2.1277 -0.1327
  653MPD2     N 9725   3.745   1.098  17.299 -0.2129 -0.4297  0.1053
  653MPD2    H5 9726   3.675   1.161  17.260  0.1078 -0.5425 -0.6616
  653MPD2    N1 9727   3.848   1.486  17.574 -0.6906  0.0229  0.2264
  653MPD2    H7 9728   3.781   1.534  17.514 -0.6933 -1.6450 -1.0977
  654TMC3    C1 9729   3.631   0.949  17.171  0.3569 -0.3585 -0.2672
  654TMC3    C2 9730   3.533   1.041  17.163  0.2205  0.1224 -0.2983
  654TMC3    C3 9731   3.425   1.015  17.083 -0.3116 -0.1553  0.0650
  654TMC3    C4 9732   3.628   0.838  17.097 -0.1938  0.6696  0.1103
  654TMC3    C5 9733   3.519   0.822  17.009  0.2726  0.3677 -0.3284
  654TMC3    C6 9734   3.415   0.912  16.996 -0.2986 -0.6575 -0.5433
  654TMC3     C 9735   3.744   0.970  17.257 -0.1224  0.3318 -0.2151
  654TMC3     O 9736   3.820   0.879  17.276  0.3399 -0.7441 -0.3932
  654TMC3     H 9737   3.528   1.121  17.237  2.2286  0.8483 -0.9589
  654TMC3    H1 9738   3.716   0.775  17.094 -0.3208  0.5223 -0.6364
  654TMC3    H2 9739   3.330   0.903  16.929  0.0696 -0.0520 -1.0845
  654TMC3    C7 9740   3.515   0.708  16.919  0.3980 -0.6496 -0.2142
  654TMC3    C8 9741   3.331   1.120  17.061 -0.0095 -0.0257  0.9069
  654TMC3    O1 9742   3.432   0.705  16.832 -0.4281  0.3103  0.0811
  654TMC3    O2 9743   3.227   1.101  16.999 -0.3172 -0.4890 -0.7808
  655MPD2     C 9744   0.534   1.369  15.772  0.0944 -0.5947 -0.1130
  655MPD2    C1 9745   0.437   1.454  15.711  0.1684  0.1191 -0.3258
  655MPD2    C2 9746   0.409   1.437  15.576 -0.1066 -0.2706  0.5601
  655MPD2    C3 9747   0.462   1.332  15.499 -0.6138 -0.8149  0.8496
  655MPD2    C4 9748   0.562   1.260  15.561  0.9193 -0.0036  0.0328
  655MPD2    C5 9749   0.606   1.282  15.689  0.6888  0.6641 -0.1177
  655MPD2     H 9750   0.339   1.512  15.539  0.2263 -1.5951 -2.7210
  655MPD2    H1 9751   0.601   1.173  15.510  1.1575  0.2457 -0.2171
  655MPD2    H2 9752   0.552   1.370  15.879  0.4133 -0.2169 -0.1715
  655MPD2    H3 9753   0.684   1.221  15.733 -0.8361 -1.3786 -0.2811
  655MPD2     N 9754   0.434   1.301  15.363  0.5914  0.6061 -0.3776
  655MPD2    H5 9755   0.476   1.216  15.326 -1.8849 -0.5002 -0.6393
  655MPD2    N1 9756   0.358   1.547  15.785  0.6426 -0.0830 -0.1536
  655MPD2    H7 9757   0.295   1.612  15.739  1.5043  0.9900  0.1544
  656TMC3    C1 9758   0.285   1.678  15.963  0.3931 -0.6398 -0.7709
  656TMC3    C2 9759   0.226   1.678  16.090  0.2564  0.2828 -0.4336
  656TMC3    C3 9760   0.128   1.771  16.124  0.2423 -0.2484  0.6371
  656TMC3    C4 9761   0.245   1.770  15.870  0.4650  0.5153 -0.1833
  656TMC3    C5 9762   0.145   1.862  15.913  0.3598  0.3104 -0.0371
  656TMC3    C6 9763   0.079   1.857  16.032 -0.4306 -0.2610 -0.3638
  656TMC3     C 9764   0.373   1.572  15.921 -0.6546  0.0105  0.1157
  656TMC3     O 9765   0.431   1.503  16.006 -0.2148  0.2025  0.2252
  656TMC3     H 9766   0.257   1.600  16.158 -0.4429  1.1363  0.8410
  656TMC3    H1 9767   0.289   1.787  15.773 -2.1577  0.4145 -1.3889
  656TMC3    H2 9768   4.718   1.902  16.049 -0.8297 -0.1755 -2.8419
  656TMC3    C7 9769   0.117   1.972  15.819  0.5777 -0.2949  0.7201
  656TMC3    C8 9770   0.031   1.711  16.207 -0.2878 -0.3812 -0.1422
  656TMC3    O1 9771   0.199   2.005  15.737  0.3538 -0.2755  0.2602
  656TMC3    O2 9772   0.061   1.599  16.244  0.2980 -0.3852 -0.0789
  657TMC3    C1 9773   4.187   1.132  15.427 -0.3581 -0.4203  0.1658
  657TMC3    C2 9774   4.140   1.208  15.529  0.6448 -0.3507  0.3347
  657TMC3    C3 9775   4.064   1.321  15.505  0.4246 -0.8024  0.0194
  657TMC3    C4 9776   4.149   1.153  15.295 -0.5378 -0.7918 -0.8049
  657TMC3    C5 9777   4.063   1.255  15.279 -0.4442  0.1868  0.6230
  657TMC3    C6 9778   4.018   1.344  15.380 -0.6898 -0.1405 -0.3199
  657TMC3     C 9779   4.228   1.000  15.468 -0.1628  0.0478  0.1536
  657TMC3     O 9780   4.241   0.971  15.591 -0.8636 -0.2216  0.2899
  657TMC3     H 9781   4.169   1.182  15.631 -1.0648 -1.1897  0.6059
  657TMC3    H1 9782   4.183   1.097  15.209  0.1932  2.1256 -2.4080
  657TMC3    H2 9783   3.947   1.425  15.370  1.1593  1.3959 -0.8738
  657TMC3    C7 9784   4.028   1.264  15.139  0.3570  0.2703  0.2020
  657TMC3    C8 9785   3.999   1.392  15.614 -0.2770 -0.3781 -0.4767
  657TMC3    O1 9786   4.080   1.188  15.055 -0.1190 -0.0780  0.1978
  657TMC3    O2 9787   3.879   1.396  15.603 -0.6295  0.3522  0.8643
  658MPD2     C 9788   0.849   1.101  14.860  0.6270 -0.0990 -0.9333
  658MPD2    C1 9789   0.721   1.097  14.798 -0.3680 -0.0048  0.2068
  658MPD2    C2 9790   0.705   1.064  14.663 -0.1095  0.2780  0.1675
  658MPD2    C3 9791   0.817   1.030  14.586 -0.0491  0.6466 -0.1216
  658MPD2    C4 9792   0.944   1.050  14.641  0.0511 -0.2909 -0.1131
  658MPD2    C5 9793   0.958   1.084  14.769  0.6019 -0.1746 -0.2206
  658MPD2     H 9794   0.615   1.082  14.606 -0.7407 -0.0499  1.0573
  658MPD2    H1 9795   1.026   1.035  14.571  0.4537 -2.6905  0.8559
  658MPD2    H2 9796   0.868   1.125  14.964  2.0415 -2.1983 -0.7092
  658MPD2    H3 9797   1.057   1.101  14.810  0.2750  1.4934 -0.0867
  658MPD2     N 9798   0.793   0.991  14.449  0.5667  0.3966  0.4482
  658MPD2    H5 9799   0.699   0.993  14.412  1.1815 -1.0304 -1.1400
  658MPD2    N1 9800   0.621   1.156  14.876 -0.3790  0.5525  0.1968
  658MPD2    H7 9801   0.646   1.173  14.973 -1.3520 -0.9697  0.7158
  659TMC3    C1 9802   0.405   1.251  14.932  0.6646  0.2134 -0.2578
  659TMC3    C2 9803   0.440   1.273  15.063 -0.1059 -0.0638  0.4443
  659TMC3    C3 9804   0.334   1.328  15.138 -0.2940  0.4906  0.1454
  659TMC3    C4 9805   0.285   1.283  14.879 -0.1304 -0.5294 -0.0828
  659TMC3    C5 9806   0.194   1.355  14.955  0.4553 -0.0204  0.4516
  659TMC3    C6 9807   0.219   1.379  15.087 -0.3207  0.3259  0.6601
  659TMC3     C 9808   0.490   1.188  14.834 -0.8477 -0.2437 -0.7574
  659TMC3     O 9809   0.452   1.182  14.718 -0.4852 -0.2057 -0.4001
  659TMC3     H 9810   0.530   1.245  15.116 -1.6617 -1.9942  2.0736
  659TMC3    H1 9811   0.266   1.259  14.775  2.1862 -1.5563 -0.2724
  659TMC3    H2 9812   0.149   1.422  15.158  0.8589  3.1145  0.1583
  659TMC3    C7 9813   0.064   1.388  14.907 -0.3255 -0.8715 -0.2181
  659TMC3    C8 9814   0.352   1.377  15.284 -0.2593 -0.7273 -0.7597
  659TMC3    O1 9815   4.735   1.468  14.975  0.0767  0.3636 -0.0127
  659TMC3    O2 9816   0.273   1.465  15.326  0.4883  0.0182  0.9771
  660MPD2     C 9817   2.590   0.216  12.447  0.3823  0.3621  0.7279
  660MPD2    C1 9818   2.511   0.116  12.494  0.1589 -0.0029 -0.4368
  660MPD2    C2 9819   2.529   0.074  12.623  0.4500  0.0693  0.4334
  660MPD2    C3 9820   2.596   0.152  12.711 -0.4599  0.5541 -0.1787
  660MPD2    C4 9821   2.673   0.256  12.662  0.1949 -0.0425  0.2442
  660MPD2    C5 9822   2.669   0.290  12.530 -0.5170  0.3132 -0.3289
  660MPD2     H 9823   2.463   4.735  12.666  1.3223  1.2195  3.7775
  660MPD2    H1 9824   2.733   0.307  12.735 -4.1482  1.5919  2.6393
  660MPD2    H2 9825   2.583   0.250  12.344  1.2488 -0.8584  0.2732
  660MPD2    H3 9826   2.731   0.377  12.512 -2.8639  2.2252  0.7658
  660MPD2     N 9827   2.616   0.111  12.840  0.1157 -0.2410  0.3165
  660MPD2    H5 9828   2.690   0.154  12.893 -1.2513  0.8786  1.3236
  660MPD2    N1 9829   2.424   0.057  12.400 -0.3979  0.4395 -0.3121
  660MPD2    H7 9830   2.412   0.092  12.305 -1.1715 -1.5452 -0.9511
  661TMC3    C1 9831   2.225   4.693  12.322  0.4153  0.1257  0.1541
  661TMC3    C2 9832   2.235   0.049  12.223 -0.1968  0.4264 -0.2371
  661TMC3    C3 9833   2.194   0.022  12.095 -0.2568  0.0805 -0.3314
  661TMC3    C4 9834   2.175   4.570  12.303 -0.6136  0.7288  0.5370
  661TMC3    C5 9835   2.145   4.536  12.171  0.1566 -0.8428 -0.6016
  661TMC3    C6 9836   2.157   4.625  12.064 -0.7715 -0.5381 -0.5682
  661TMC3     C 9837   2.321   4.704  12.428  1.1176 -0.3295  0.4178
  661TMC3     O 9838   2.305   4.638  12.531 -0.0285  0.5462 -0.0016
  661TMC3     H 9839   2.245   0.157  12.236 -0.7041  0.2155  1.8900
  661TMC3    H1 9840   2.169   4.500  12.385  1.5375 -1.3918 -1.1254
  661TMC3    H2 9841   2.151   4.600  11.959  1.5094 -0.2160 -0.7796
  661TMC3    C7 9842   2.105   4.399  12.139  0.7002 -0.2310  0.2142
  661TMC3    C8 9843   2.288   0.085  12.007 -0.1672  0.2876  0.3858
  661TMC3    O1 9844   2.035   4.384  12.042 -0.1556 -0.4831 -0.4919
  661TMC3    O2 9845   2.394   0.123  12.055  0.1824  0.1416  0.6534
  662MPD2     C 9846   3.540   4.558  16.805 -0.2154 -0.1581 -0.4606
  662MPD2    C1 9847   3.547   4.578  16.940 -0.0222 -0.6587 -0.2842
  662MPD2    C2 9848   3.497   4.698  16.989 -0.6735  0.5463 -0.0562
  662MPD2    C3 9849   3.455   0.070  16.903  0.2765  0.4480 -0.3342
  662MPD2    C4 9850   3.463   0.050  16.763 -0.5786 -0.2312  0.1132
  662MPD2    C5 9851   3.496   4.657  16.723  0.1181  0.0318 -0.3802
  662MPD2     H 9852   3.477   4.707  17.095  0.1870  0.0848  0.1402
  662MPD2    H1 9853   3.420   0.112  16.685 -2.2805  0.8941  1.9569
  662MPD2    H2 9854   3.553   4.459  16.761 -1.3617  0.0791 -1.3397
  662MPD2    H3 9855   3.497   4.643  16.616 -1.8350 -2.2988 -0.0989
  662MPD2     N 9856   3.400   0.190  16.959 -0.8281 -0.7079 -0.4860
  662MPD2    H5 9857   3.339   0.238  16.893 -0.6646 -0.0132 -0.1282
  662MPD2    N1 9858   3.580   4.472  17.026  0.1903 -0.1777 -0.3218
  662MPD2    H7 9859   3.556   4.488  17.124  1.2905  0.4396 -0.1546
  663TMC3    C1 9860   3.635   4.244  17.094  0.4034 -0.1255  0.1714
  663TMC3    C2 9861   3.553   4.255  17.201  0.1055  0.2091  0.0856
  663TMC3    C3 9862   3.552   4.156  17.293 -0.0408  0.4631  0.1912
  663TMC3    C4 9863   3.676   4.116  17.055 -0.4648  0.0075  0.8811
  663TMC3    C5 9864   3.643   4.011  17.129  0.8219 -0.4980 -0.0177
  663TMC3    C6 9865   3.588   4.033  17.257 -0.2734  0.1706  0.3987
  663TMC3     C 9866   3.633   4.351  16.991  0.1936 -0.2117 -0.6687
  663TMC3     O 9867   3.686   4.313  16.887  0.4963 -0.4293 -0.5268
  663TMC3     H 9868   3.517   4.351  17.238  0.1241 -0.0481  0.7745
  663TMC3    H1 9869   3.719   4.101  16.957  0.1490  1.3336  0.9339
  663TMC3    H2 9870   3.540   3.954  17.314 -0.8440  0.8278  0.8291
  663TMC3    C7 9871   3.637   3.885  17.060  0.3029  0.4337 -0.6110
  663TMC3    C8 9872   3.459   4.167  17.402  0.9915 -0.0769 -0.0141
  663TMC3    O1 9873   3.667   3.890  16.941 -0.4262  0.5669 -0.6084
  663TMC3    O2 9874   3.489   4.100  17.500  0.0388 -0.1177 -0.3251
  664MPD2     C 9875   1.458   2.595  17.452 -0.7919 -0.0092  0.1831
  664MPD2    C1 9876   1.516   2.678  17.544  0.1574  0.1464  0.0259
  664MPD2    C2 9877   1.450   2.703  17.666 -0.8413  0.6816 -0.5328
  664MPD2    C3 9878   1.326   2.639  17.683  0.4086 -0.5205 -0.6393
  664MPD2    C4 9879   1.259   2.563  17.588 -0.1117 -0.1918 -0.8641
  664MPD2    C5 9880   1.333   2.545  17.469 -0.2096  0.7250 -0.3853
  664MPD2     H 9881   1.479   2.774   0.001 -1.4986  0.3962 -0.0266
  664MPD2    H1 9882   1.162   2.516  17.595  0.2740 -0.5136  2.1193
  664MPD2    H2 9883   1.498   2.583  17.352 -2.1250  1.2050 -0.5019
  664MPD2    H3 9884   1.281   2.482  17.398 -1.9047  2.2043 -0.4586
  664MPD2     N 9885   1.256   2.683   0.062  1.0070  0.5047  0.0344
  664MPD2    H5 9886   1.300   2.755   0.118  1.5374  0.0602  0.1810
  664MPD2    N1 9887   1.637   2.747  17.524 -0.7900  0.5385  0.5084
  664MPD2    H7 9888   1.670   2.804  17.601  0.7954  1.0499 -0.5485
  665TMC3    C1 9889   1.078   2.771   0.196 -0.1805 -0.6124  0.4363
  665TMC3    C2 9890   1.157   2.779   0.307  0.0938  0.0352 -0.0218
  665TMC3    C3 9891   1.134   2.882   0.395 -0.4244  0.1980  0.1720
  665TMC3    C4 9892   0.984   2.864   0.174 -0.0785 -0.3681  0.2476
  665TMC3    C5 9893   0.969   2.973   0.255 -0.3890 -0.2009  0.3282
  665TMC3    C6 9894   1.040   2.975   0.365 -0.0367 -0.3784 -0.5342
  665TMC3     C 9895   1.118   2.678   0.086 -0.4552  0.0584  0.3606
  665TMC3     O 9896   1.035   2.635   0.009 -0.1653 -0.3577  0.3402
  665TMC3     H 9897   1.219   2.696   0.339 -0.3892 -1.0495 -1.9009
  665TMC3    H1 9898   0.922   2.868   0.085  0.4754 -2.0394 -0.2009
  665TMC3    H2 9899   1.024   3.043   0.448 -0.0510 -2.6118  1.3192
  665TMC3    C7 9900   0.995   3.085   0.176  0.3854  0.2078 -0.1546
  665TMC3    C8 9901   1.237   2.932   0.476 -0.5990  0.0931 -0.2188
  665TMC3    O1 9902   0.951   3.086   0.058 -0.0605 -0.3824 -0.0908
  665TMC3    O2 9903   1.228   3.050   0.510  0.0855 -0.0264 -0.8042
  666TMC3    C1 9904   4.710   2.064   9.178  0.1190 -0.1067 -0.6128
  666TMC3    C2 9905   0.034   1.959   9.233 -0.8342 -0.0206 -0.4943
  666TMC3    C3 9906   0.147   1.986   9.305 -0.4499 -0.1806 -0.0444
  666TMC3    C4 9907   0.009   2.194   9.196 -0.1472  0.2547  0.7632
  666TMC3    C5 9908   0.114   2.225   9.279 -0.4399  0.7119 -0.2157
  666TMC3    C6 9909   0.183   2.117   9.330 -0.0062  0.4276 -0.1100
  666TMC3     C 9910   4.598   2.041   9.085  0.0556  0.0460  0.3920
  666TMC3     O 9911   4.580   2.138   9.015 -0.6936  0.2076  0.2382
  666TMC3     H 9912   0.027   1.859   9.192  1.2809 -0.0440 -0.7999
  666TMC3    H1 9913   4.674   2.269   9.162  2.2328  2.5495  0.8544
  666TMC3    H2 9914   0.263   2.124   9.403  0.4794  0.3912 -0.6424
  666TMC3    C7 9915   0.104   2.344   9.359  0.0206  0.0496 -0.5861
  666TMC3    C8 9916   0.233   1.883   9.362 -0.2098  0.1818  0.3182
  666TMC3    O1 9917   0.147   2.342   9.472  0.7585  0.2440 -0.0988
  666TMC3    O2 9918   0.353   1.897   9.372 -0.2570  0.2976 -0.6889
  667MPD2     C 9919   2.573   2.591  14.772 -0.6515  0.3300  0.0796
  667MPD2    C1 9920   2.475   2.606  14.865 -0.0194 -0.4373  1.1140
  667MPD2    C2 9921   2.364   2.521  14.859 -0.8210  0.4326  0.4237
  667MPD2    C3 9922   2.345   2.445  14.749 -0.2448  0.2941 -0.0433
  667MPD2    C4 9923   2.443   2.427  14.654  0.8633 -0.1078 -0.4571
  667MPD2    C5 9924   2.558   2.503  14.667  0.2841 -0.4303 -0.1614
  667MPD2     H 9925   2.290   2.524  14.938  0.7225 -2.7376  2.0179
  667MPD2    H1 9926   2.429   2.362  14.569  0.8950  1.1456 -1.4137
  667MPD2    H2 9927   2.661   2.653  14.782 -2.8982  3.2087  2.0798
  667MPD2    H3 9928   2.632   2.499  14.588 -1.0583  1.4118 -1.5174
  667MPD2     N 9929   2.223   2.373  14.717  0.2996 -0.0273 -0.0160
  667MPD2    H5 9930   2.226   2.315  14.633  0.8228  0.1482 -0.1187
  667MPD2    N1 9931   2.485   2.702  14.971 -0.0255  0.1761 -0.3029
  667MPD2    H7 9932   2.415   2.691  15.044  0.9085  0.6817  0.6736
  668TMC3    C1 9933   2.539   2.892  15.089  0.6313  0.3084  0.7830
  668TMC3    C2 9934   2.591   3.024  15.088 -0.3777  0.7352 -0.8737
  668TMC3    C3 9935   2.570   3.107  15.195  0.7324 -0.3253  0.2933
  668TMC3    C4 9936   2.469   2.850  15.194  0.2574 -0.4830  0.2331
  668TMC3    C5 9937   2.447   2.941  15.297 -0.4221  0.2394 -0.1143
  668TMC3    C6 9938   2.499   3.067  15.307 -0.5279 -0.1828  1.1662
  668TMC3     C 9939   2.575   2.807  14.975 -0.3485  0.4389 -0.2509
  668TMC3     O 9940   2.657   2.848  14.896 -0.0907  0.3231  0.4119
  668TMC3     H 9941   2.662   3.053  15.012 -0.5094  1.5762 -0.6741
  668TMC3    H1 9942   2.452   2.745  15.210 -1.0938 -0.7751 -3.0622
  668TMC3    H2 9943   2.477   3.134  15.389  3.8383  4.0379 -1.1516
  668TMC3    C7 9944   2.385   2.900  15.423  0.5987  0.7658  0.1229
  668TMC3    C8 9945   2.646   3.230  15.212 -0.1024  0.4736 -0.6019
  668TMC3    O1 9946   2.405   2.977  15.517  0.4617 -0.1704 -1.1143
  668TMC3    O2 9947   2.654   3.274  15.325  0.3593 -0.2484  0.1202
  669TMC3    C1 9948   0.612   2.619  14.477  0.2540  0.8009 -0.0911
  669TMC3    C2 9949   0.521   2.616  14.374 -0.1099 -0.5088  1.0962
  669TMC3    C3 9950   0.533   2.713  14.278  0.1863  0.1535 -0.0494
  669TMC3    C4 9951   0.716   2.706  14.475  0.3943 -1.5224  0.4507
  669TMC3    C5 9952   0.731   2.789  14.365 -0.3585  0.0945  0.6331
  669TMC3    C6 9953   0.637   2.792  14.265 -0.5849  1.2196  0.5766
  669TMC3     C 9954   0.574   2.546  14.584  0.1036  0.0107  0.8207
  669TMC3     O 9955   0.517   2.437  14.572  0.5299  0.5393 -0.1054
  669TMC3     H 9956   0.432   2.558  14.396 -0.4409  0.3152  1.9324
  669TMC3    H1 9957   0.798   2.686  14.543 -0.1232 -1.3248  1.1372
  669TMC3    H2 9958   0.645   2.864  14.184  0.3313  2.4679  1.7827
  669TMC3    C7 9959   0.862   2.853  14.339 -0.6851  0.7113  0.5994
  669TMC3    C8 9960   0.422   2.719  14.177  0.1656 -0.0432 -0.5045
  669TMC3    O1 9961   0.927   2.891  14.437  0.0667 -0.4455 -0.1344
  669TMC3    O2 9962   0.351   2.617  14.184 -0.3600  0.3619 -0.1200
  670MPD2     C 9963   3.299   0.216  13.219  0.8008 -0.6585  0.5272
  670MPD2    C1 9964   3.432   0.192  13.264 -0.2036 -0.0985 -0.3019
  670MPD2    C2 9965   3.466   0.203  13.396  0.7441 -0.3570  0.4671
  670MPD2    C3 9966   3.373   0.250  13.486  0.8208 -0.2666 -0.7811
  670MPD2    C4 9967   3.241   0.263  13.445 -0.1433  0.3091  0.0170
  670MPD2    C5 9968   3.206   0.242  13.313  0.0078  0.1540 -0.7480
  670MPD2     H 9969   3.569   0.191  13.430  1.0237  2.4480  0.5994
  670MPD2    H1 9970   3.163   0.275  13.520  0.9543 -0.5234  1.2854
  670MPD2    H2 9971   3.259   0.210  13.118  1.6060 -0.2245  0.1854
  670MPD2    H3 9972   3.101   0.248  13.286  0.1541  3.9542 -0.5228
  670MPD2     N 9973   3.409   0.263  13.626 -0.2002  0.1166 -0.2714
  670MPD2    H5 9974   3.500   0.232  13.657 -1.1177 -0.5100  1.8551
  670MPD2    N1 9975   3.522   0.144  13.171 -0.3735  0.2166 -0.3952
  670MPD2    H7 9976   3.612   0.118  13.211 -0.2338 -0.8233 -1.3815
  671TMC3    C1 9977   3.379   0.269  13.854 -0.4194  0.0630  0.4617
  671TMC3    C2 9978   3.509   0.264  13.876  0.1099  0.3440  0.6535
  671TMC3    C3 9979   3.552   0.209  13.994  0.7018  0.4406  0.5121
  671TMC3    C4 9980   3.288   0.206  13.933 -0.5404 -0.0395 -0.4100
  671TMC3    C5 9981   3.328   0.138  14.041 -0.9750  0.4018  0.7615
  671TMC3    C6 9982   3.459   0.140  14.077 -0.5137  0.2808 -0.4704
  671TMC3     C 9983   3.328   0.305  13.725 -0.2439  0.9201  0.2544
  671TMC3     O 9984   3.218   0.352  13.710  0.3786  0.5889 -0.1018
  671TMC3     H 9985   3.583   0.321  13.821 -1.1659  1.7708  0.4019
  671TMC3    H1 9986   3.181   0.210  13.914 -0.7827 -1.4878  0.5956
  671TMC3    H2 9987   3.496   0.079  14.158 -0.1081 -0.7838 -1.4522
  671TMC3    C7 9988   3.236   0.034  14.084  0.3549 -0.5308 -0.3997
  671TMC3    C8 9989   3.683   0.166  13.991  0.3031 -0.2920 -0.6953
  671TMC3    O1 9990   3.120   0.040  14.038  0.5641 -0.1644  0.1774
  671TMC3    O2 9991   3.720   0.124  13.880  0.0308 -0.2166 -0.3528
  672MPD2     C 9992   3.888   1.109   0.757 -0.1509  0.2563 -0.4820
  672MPD2    C1 9993   3.977   1.017   0.694  0.3515 -0.0871  0.7293
  672MPD2    C2 9994   4.113   1.054   0.676  0.2200 -0.2685  0.0501
  672MPD2    C3 9995   4.152   1.183   0.719  0.0260  0.4369 -0.2502
  672MPD2    C4 9996   4.060   1.267   0.784  0.3131  0.4496  0.7429
  672MPD2    C5 9997   3.929   1.231   0.793  0.3384  0.1967  0.5536
  672MPD2     H 9998   4.177   0.990   0.617  0.7789  2.0034 -1.8650
  672MPD2    H1 9999   4.098   1.361   0.824 -0.7782  0.7661  1.0197
  672MPD2    H210000   3.789   1.074   0.786 -0.0275 -1.7288 -2.3923
  672MPD2    H310001   3.870   1.288   0.864 -1.2902  0.1736 -0.7958
  672MPD2     N10002   4.278   1.244   0.705  0.5707  0.2779 -0.1924
  672MPD2    H510003   4.284   1.335   0.750  2.7900 -0.5050  1.0886
  672MPD2    N110004   3.922   0.898   0.637  0.0779  0.6314 -0.2069
  672MPD2    H710005   4.001   0.840   0.608  1.3825  1.8339  0.9439
  673TMC3    C110006   3.761   0.766   0.512 -0.1914 -0.3557  0.4536
  673TMC3    C210007   3.844   0.661   0.502 -0.2770  0.0713  1.6096
  673TMC3    C310008   3.794   0.556   0.429 -0.4424 -0.1276 -0.0705
  673TMC3    C410009   3.641   0.777   0.445 -0.6925  0.0649  0.5351
  673TMC3    C510010   3.590   0.666   0.380  0.3131  0.3415  0.5438
  673TMC3    C610011   3.664   0.553   0.385  0.1383  0.2369 -0.3737
  673TMC3     C10012   3.796   0.884   0.596  0.4226 -0.7054  0.0845
  673TMC3     O10013   3.702   0.964   0.612 -0.5780  0.4962  0.1363
  673TMC3     H10014   3.940   0.661   0.553  1.1444  1.4119 -1.0660
  673TMC3    H110015   3.572   0.852   0.481  2.1226  2.3895  1.0972
  673TMC3    H210016   3.633   0.465   0.331  0.8303 -0.2920  0.0780
  673TMC3    C710017   3.497   0.681   0.275  0.7970 -0.5758 -0.3888
  673TMC3    C810018   3.876   0.440   0.412 -1.1185  0.4532 -0.0508
  673TMC3    O110019   3.478   0.585   0.203  0.0419  0.4967  0.3392
  673TMC3    O210020   3.823   0.343   0.361 -0.4700  0.5341 -0.0788
  674MPD2     C10021   3.511   1.194  17.524 -0.0117  0.1953  0.2035
  674MPD2    C110022   3.452   1.074  17.482  0.6404  0.7522 -0.0997
  674MPD2    C210023   3.323   1.085  17.436  0.5123  0.7036  0.0393
  674MPD2    C310024   3.250   1.205  17.440  0.4244 -0.6879  0.8999
  674MPD2    C410025   3.312   1.315  17.480  0.2476 -0.3742 -0.1842
  674MPD2    C510026   3.439   1.313  17.525 -0.4444 -0.8424 -0.2916
  674MPD2     H10027   3.261   0.997  17.423 -0.3109  0.8488  2.9863
  674MPD2    H110028   3.258   1.407  17.497  0.2383 -0.1363 -1.5010
  674MPD2    H210029   3.614   1.199  17.560  0.1433  2.8537 -0.5944
  674MPD2    H310030   3.494   1.402  17.553 -2.2556  0.4900 -0.9347
  674MPD2     N10031   3.112   1.199  17.423 -0.3787  0.0833  0.0550
  674MPD2    H510032   3.071   1.114  17.385  2.7078 -0.0114 -3.0080
  674MPD2    N110033   3.527   0.953  17.497 -0.3632  0.9422  0.9038
  674MPD2    H710034   3.609   0.964  17.557 -0.3941 -0.2859  1.1650
  675TMC3    C110035   3.550   0.715  17.526 -0.0981  0.9332  0.2252
  675TMC3    C210036   3.483   0.595  17.510 -0.2742  0.0509 -0.3479
  675TMC3    C310037   3.517   0.506  17.607  0.1135 -0.1150 -0.5187
  675TMC3    C410038   3.641   0.735  17.629 -0.0895  0.0630 -0.4025
  675TMC3    C510039   3.669   0.633  17.724 -0.0042  0.7893  0.2806
  675TMC3    C610040   3.611   0.510  17.705  0.2329 -0.1450 -0.2969
  675TMC3     C10041   3.486   0.826  17.456  0.2307  0.3094 -0.1957
  675TMC3     O10042   3.401   0.795  17.371 -0.8369  0.1911  0.1582
  675TMC3     H10043   3.408   0.570  17.436 -3.4034 -1.9416  3.5032
  675TMC3    H110044   3.695   0.829  17.631 -1.6236  0.9295  0.6565
  675TMC3    H210045   3.637   0.422   0.022 -0.2079 -0.0305  0.0733
  675TMC3    C710046   3.789   0.630   0.061  0.6317 -0.1918  0.0572
  675TMC3    C810047   3.403   0.413  17.629  0.1877 -0.6693 -0.9092
  675TMC3    O110048   3.849   0.528   0.093  0.2228  1.1872  0.1170
  675TMC3    O210049   3.347   0.359  17.539  0.2064  0.0967 -0.3375
  676MPD2     C10050   0.768   3.007  10.791 -0.7465  0.6340 -0.5524
  676MPD2    C110051   0.712   2.942  10.897  0.1841  0.5328  0.1761
  676MPD2    C210052   0.727   2.807  10.906 -0.3254 -0.2933 -0.2103
  676MPD2    C310053   0.786   2.732  10.803 -0.6093 -0.2193  0.2994
  676MPD2    C410054   0.842   2.798  10.692 -0.0917 -0.1384 -0.3423
  676MPD2    C510055   0.828   2.941  10.687 -0.3351 -0.3085 -0.1824
  676MPD2     H10056   0.685   2.749  10.987 -1.1048 -1.8939 -1.7373
  676MPD2    H110057   0.896   2.752  10.610 -2.1047 -1.0370 -1.1769
  676MPD2    H210058   0.769   3.115  10.784 -1.4399  0.4984 -2.8185
  676MPD2    H310059   0.870   2.987  10.598 -0.3878  3.6640  1.8520
  676MPD2     N10060   0.790   2.589  10.804 -0.1324 -0.0703 -0.2467
  676MPD2    H510061   0.837   2.544  10.726  2.7384  2.3486  0.0920
  676MPD2    N110062   0.657   3.008  11.008  0.7211  0.4241  0.2891
  676MPD2    H710063   0.652   2.954  11.094 -0.3431 -0.3456 -0.2643
  677TMC3    C110064   0.549   3.177  11.133 -0.1011 -0.2695  0.1237
  677TMC3    C210065   0.503   3.090  11.234 -0.5995  0.3448 -0.0125
  677TMC3    C310066   0.442   3.148  11.344 -0.3087  0.4255  0.7950
  677TMC3    C410067   0.538   3.315  11.151  0.4792 -0.0324  0.1224
  677TMC3    C510068   0.461   3.364  11.253  0.4175 -0.3824  0.0272
  677TMC3    C610069   0.418   3.279  11.353  0.0880 -0.0996  0.1116
  677TMC3     C10070   0.605   3.135  11.008 -0.5566 -0.5524  0.2820
  677TMC3     O10071   0.599   3.213  10.912 -0.2215  0.7463  0.1006
  677TMC3     H10072   0.516   2.983  11.218  0.9785  0.6127 -0.5301
  677TMC3    H110073   0.587   3.374  11.074 -0.3077 -0.8328 -1.0030
  677TMC3    H210074   0.359   3.321  11.434 -0.1882  2.3147 -1.3487
  677TMC3    C710075   0.473   3.504  11.299  0.4027  0.2013 -0.0946
  677TMC3    C810076   0.460   3.084  11.470  0.3644  0.0504 -0.2705
  677TMC3    O110077   0.374   3.547  11.357  0.3990  0.4029 -1.1406
  677TMC3    O210078   0.457   3.158  11.569 -0.1128  0.1519  0.2378
  678MPD2     C10079   2.988   3.757   1.403 -0.4443 -0.3682 -0.3483
  678MPD2    C110080   2.953   3.703   1.279 -0.3528  0.0908  0.2616
  678MPD2    C210081   2.828   3.727   1.236  0.5336 -0.0196 -0.7467
  678MPD2    C310082   2.745   3.829   1.282  0.0709 -0.3546 -0.3130
  678MPD2    C410083   2.783   3.891   1.395 -0.8761 -0.8990 -0.2272
  678MPD2    C510084   2.906   3.853   1.452  0.5719 -1.1539 -0.3699
  678MPD2     H10085   2.785   3.676   1.150 -0.0654 -1.0963  0.1901
  678MPD2    H110086   2.716   3.962   1.440 -2.0638 -1.8429 -0.4857
  678MPD2    H210087   3.078   3.723   1.452 -0.3989  1.4268  0.8035
  678MPD2    H310088   2.919   3.912   1.543 -0.6130  2.4414 -2.5301
  678MPD2     N10089   2.615   3.856   1.226  0.0513 -0.0265 -0.1647
  678MPD2    H510090   2.580   3.792   1.156  0.4672 -1.2388  0.7419
  678MPD2    N110091   3.021   3.617   1.197  0.1997 -0.2015  0.0513
  678MPD2    H710092   2.976   3.583   1.112  1.1549  2.0223 -1.3642
  679TMC3    C110093   3.294   3.255   1.128 -0.1569 -0.1002  0.1238
  679TMC3    C210094   3.251   3.361   1.206  0.2181 -0.1790 -0.7201
  679TMC3    C310095   3.192   3.464   1.147  0.5649 -0.0057 -0.5790
  679TMC3    C410096   3.289   3.265   0.994 -0.3184 -0.5183  0.2718
  679TMC3    C510097   3.236   3.384   0.934 -0.0102  0.8267  0.5041
  679TMC3    C610098   3.172   3.473   1.014  0.4074 -0.6124  0.5342
  679TMC3     C10099   3.378   3.155   1.184 -0.4694 -0.1472  0.3615
  679TMC3     O10100   3.445   3.188   1.282 -0.3824 -0.0928  0.5048
  679TMC3     H10101   3.261   3.358   1.313 -1.0592 -1.2632 -0.6185
  679TMC3    H110102   3.358   3.209   0.933  2.0173  2.0551  0.5714
  679TMC3    H210103   3.123   3.559   0.970 -0.3354  0.6494  3.8219
  679TMC3    C710104   3.203   3.389   0.790 -0.6794  0.1152  0.3928
  679TMC3    C810105   3.144   3.564   1.233 -0.2086 -0.5365 -0.1748
  679TMC3    O110106   3.110   3.462   0.761  0.0508  0.0921  0.2890
  679TMC3    O210107   3.215   3.576   1.332 -0.1392 -0.2471 -0.0126
  680MPD2     C10108   2.848   2.002  13.663 -0.3289 -0.1425  0.1733
  680MPD2    C110109   2.950   1.974  13.752  0.4354  0.5613 -0.1616
  680MPD2    C210110   2.997   2.075  13.834  0.4942 -0.2527 -0.5264
  680MPD2    C310111   2.931   2.193  13.849  0.2268  0.3015  0.1846
  680MPD2    C410112   2.823   2.214  13.766  0.2910 -0.1340 -0.4982
  680MPD2    C510113   2.782   2.119  13.676  0.1329  0.6231  0.1873
  680MPD2     H10114   3.093   2.051  13.877  0.7482 -0.6138 -1.2879
  680MPD2    H110115   2.766   2.306  13.766  1.1240  0.3739 -2.5458
  680MPD2    H210116   2.813   1.942  13.580 -1.9779 -0.3701  1.0170
  680MPD2    H310117   2.706   2.154  13.607 -1.0541 -0.5325  0.9200
  680MPD2     N10118   2.969   2.291  13.945  0.0760  0.1903 -0.1514
  680MPD2    H510119   2.926   2.383  13.942  1.1628  0.7366  1.0234
  680MPD2    N110120   3.028   1.859  13.747  0.2506 -0.2308  0.0423
  680MPD2    H710121   3.111   1.855  13.806  0.5028  0.4031 -0.2703
  681TMC3    C110122   3.056   1.638  13.731  0.0058  0.2350  0.5834
  681TMC3    C210123   3.012   1.582  13.846  0.0450  0.1944 -0.3324
  681TMC3    C310124   3.125   1.570  13.936 -0.1566 -0.2161 -0.2032
  681TMC3    C410125   3.181   1.680  13.701 -0.0265 -0.3402  0.8137
  681TMC3    C510126   3.284   1.654  13.795 -0.0595  0.2728 -0.8018
  681TMC3    C610127   3.259   1.597  13.910  0.1707  0.1310 -0.5814
  681TMC3     C10128   2.968   1.745  13.701 -0.0659  0.2688  0.6159
  681TMC3     O10129   2.851   1.720  13.678  0.2764  0.0377  0.0919
  681TMC3     H10130   2.910   1.567  13.880 -0.9679  1.2403 -2.9680
  681TMC3    H110131   3.192   1.738  13.610 -0.6622 -1.0140  0.3111
  681TMC3    H210132   3.336   1.572  13.982  0.2457 -1.8316 -1.3442
  681TMC3    C710133   3.414   1.709  13.774  0.1501 -0.2819  0.2713
  681TMC3    C810134   3.089   1.564  14.076  0.0616 -0.0942  0.1891
  681TMC3    O110135   3.472   1.740  13.872 -0.5861  0.3549 -0.2861
  681TMC3    O210136   2.991   1.496  14.107 -0.6899 -0.3853 -0.0651
  682MPD2     C10137   4.637   3.225  10.384  0.5001  0.0746  0.7850
  682MPD2    C110138   4.609   3.090  10.409 -0.4046 -0.6387 -0.3344
  682MPD2    C210139   4.597   3.046  10.537  0.1806 -0.3261  0.0358
  682MPD2    C310140   4.604   3.132  10.649 -0.5313  0.2052 -0.1097
  682MPD2    C410141   4.613   3.272  10.626  0.5233 -0.6847 -0.0873
  682MPD2    C510142   4.636   3.312  10.497 -0.3214 -0.2015 -0.6492
  682MPD2     H10143   4.577   2.939  10.542 -0.5098 -0.1269  1.3223
  682MPD2    H110144   4.620   3.350  10.702 -1.6794 -0.3384 -0.2514
  682MPD2    H210145   4.667   3.267  10.289 -0.9050  0.4738  0.5158
  682MPD2    H310146   4.685   3.409  10.494 -1.0345  0.2319  1.3180
  682MPD2     N10147   4.613   3.088  10.787 -0.0612  0.8844  0.0910
  682MPD2    H510148   4.635   3.164  10.850 -0.3143  0.9642  0.0817
  682MPD2    N110149   4.606   2.997  10.307  0.3720  0.2673  0.1630
  682MPD2    H710150   4.608   2.900  10.336 -2.5941  0.5728  1.3448
  683TMC3    C110151   4.685   3.070  11.185  0.3702 -0.1970 -0.0321
  683TMC3    C210152   4.660   2.947  11.253  0.4421 -0.2635  0.2863
  683TMC3    C310153   4.626   2.839  11.172  0.1507  0.5743 -0.0995
  683TMC3    C410154   4.664   3.086  11.047 -0.3162 -0.4310  0.2459
  683TMC3    C510155   4.634   2.967  10.978  0.0226 -0.2255  1.0814
  683TMC3    C610156   4.616   2.843  11.036  0.1044 -0.4082  0.2985
  683TMC3     C10157   0.015   3.174  11.258  0.5685 -0.0756  0.1950
  683TMC3     O10158   0.029   3.278  11.194  0.1705 -0.3372  0.2592
  683TMC3     H10159   4.664   2.936  11.361  2.3222 -2.6173 -0.0291
  683TMC3    H110160   4.685   3.178  10.994 -0.3749 -0.6555 -0.1690
  683TMC3    H210161   4.602   2.759  10.968 -2.5854 -0.8166  1.3793
  683TMC3    C710162   4.616   2.962  10.834 -0.1053  0.0792 -0.4497
  683TMC3    C810163   4.633   2.708  11.247  0.3222 -0.0276 -0.8614
  683TMC3    O110164   4.594   2.860  10.773 -0.2128  0.1075 -0.2050
  683TMC3    O210165   4.648   2.710  11.372 -0.3696 -0.5131  0.4413
  684MPD2     C10166   3.247   3.238  16.663  0.0226 -0.5000  0.0857
  684MPD2    C110167   3.272   3.247  16.526  0.1249  0.5748 -0.1016
  684MPD2    C210168   3.324   3.361  16.468 -0.5995 -0.6033  0.6114
  684MPD2    C310169   3.355   3.468  16.554 -0.5553  0.5556 -0.3526
  684MPD2    C410170   3.334   3.456  16.689  0.2386 -0.3452 -0.5304
  684MPD2    C510171   3.279   3.341  16.743  0.0022 -0.2924  0.3997
  684MPD2     H10172   3.333   3.363  16.360 -2.3413 -0.7356  0.4604
  684MPD2    H110173   3.347   3.537  16.759 -2.9481 -0.6457  0.4032
  684MPD2    H210174   3.192   3.158  16.710  1.6146 -1.6754 -0.0595
  684MPD2    H310175   3.256   3.337  16.849  2.2038 -0.9331  0.8349
  684MPD2     N10176   3.412   3.582  16.497 -0.3057  0.6828 -0.4180
  684MPD2    H510177   3.438   3.656  16.562 -0.2699  0.7831 -0.5464
  684MPD2    N110178   3.263   3.142  16.439  0.8861 -0.2957  0.2954
  684MPD2    H710179   3.277   3.163  16.340 -0.3720  0.2238  0.2244
  685TMC3    C110180   3.266   2.934  16.351 -0.2256  0.0959  0.5749
  685TMC3    C210181   3.210   2.985  16.242 -0.2803  1.0557 -0.0700
  685TMC3    C310182   3.273   2.950  16.123 -0.0759 -0.2483  0.1230
  685TMC3    C410183   3.391   2.866  16.349 -0.4318  0.3938 -0.6213
  685TMC3    C510184   3.434   2.832  16.225 -0.2606 -0.4469 -0.0639
  685TMC3    C610185   3.387   2.882  16.107  0.3166  0.1418  0.7431
  685TMC3     C10186   3.255   3.011  16.472  0.2404  0.0352 -0.1370
  685TMC3     O10187   3.259   2.951  16.576  0.0550 -0.9482 -0.0765
  685TMC3     H10188   3.110   3.027  16.238  0.6546  3.3165 -0.0524
  685TMC3    H110189   3.444   2.835  16.438 -0.9445  1.6138  0.1065
  685TMC3    H210190   3.428   2.857  16.010  1.5608 -1.1120  1.6025
  685TMC3    C710191   3.562   2.762  16.217 -0.4342 -0.8822 -0.3564
  685TMC3    C810192   3.207   2.973  15.998  0.1845 -0.8820  0.8011
  685TMC3    O110193   3.602   2.745  16.334 -0.0481  0.5097 -0.1442
  685TMC3    O210194   3.257   2.918  15.900  0.4906 -0.2181 -0.2352
  686MPD2     C10195   0.301   3.464  15.981 -0.4509 -0.4952 -0.5935
  686MPD2    C110196   0.318   3.328  15.987  0.8665  0.0412 -0.4995
  686MPD2    C210197   0.438   3.277  15.945 -0.6688 -1.1168 -0.6956
  686MPD2    C310198   0.537   3.352  15.889  0.0075 -0.0625  0.8869
  686MPD2    C410199   0.511   3.488  15.872 -0.1032  0.3200 -0.4818
  686MPD2    C510200   0.390   3.541  15.922  0.0816 -0.0854  0.0804
  686MPD2     H10201   0.461   3.174  15.972 -0.8485 -1.2983 -1.2311
  686MPD2    H110202   0.578   3.564  15.832  1.1185 -0.0310  0.9034
  686MPD2    H210203   0.210   3.507  16.021 -0.2856 -0.9062  0.2198
  686MPD2    H310204   0.377   3.646  15.900  2.5710  0.6009  1.9042
  686MPD2     N10205   0.656   3.284  15.840 -0.3691 -0.1301  0.4648
  686MPD2    H510206   0.669   3.188  15.869 -2.5346 -0.0412  1.7876
  686MPD2    N110207   0.210   3.251  16.048 -0.8282 -0.4195 -0.8670
  686MPD2    H710208   0.137   3.304  16.095  1.0539  0.7213  0.7510
  687TMC3    C110209   0.833   3.243  15.700  0.0878 -0.6201 -0.1496
  687TMC3    C210210   0.818   3.218  15.570  0.3686 -0.0220  0.0794
  687TMC3    C310211   0.810   3.086  15.536 -0.8606  0.2470 -0.1410
  687TMC3    C410212   0.865   3.141  15.785  0.0989 -0.0821 -0.3596
  687TMC3    C510213   0.844   3.010  15.751  0.6701 -0.6614 -0.0122
  687TMC3    C610214   0.816   2.981  15.621 -0.2926  0.2913 -1.1496
  687TMC3     C10215   0.750   3.343  15.759 -0.4669 -0.0312 -0.5829
  687TMC3     O10216   0.774   3.460  15.733  0.9579  0.3660  0.3071
  687TMC3     H10217   0.789   3.296  15.501  0.0943 -0.9577 -0.8665
  687TMC3    H110218   0.875   3.168  15.889  1.5196 -0.7913 -0.3135
  687TMC3    H210219   0.775   2.888  15.585 -0.6810 -0.2483  0.6796
  687TMC3    C710220   0.770   2.942  15.855  0.3443 -0.1721  0.0492
  687TMC3    C810221   0.744   3.040  15.410 -0.1112 -0.3338 -0.4947
  687TMC3    O110222   0.720   3.020  15.938  0.5425 -0.1399 -0.8811
  687TMC3    O210223   0.759   2.925  15.365  0.3516 -0.1449  0.0297
  688MPD2     C10224   4.070   2.131  17.301  0.0831  0.7354 -0.0118
  688MPD2    C110225   4.079   2.000  17.329  0.4493  0.0702  0.2771
  688MPD2    C210226   4.164   1.926  17.252 -0.2973 -0.3735 -0.1582
  688MPD2    C310227   4.239   1.985  17.151  0.3153 -0.3342 -0.1860
  688MPD2    C410228   4.233   2.120  17.129 -0.2162  0.6054  0.3399
  688MPD2    C510229   4.137   2.191  17.202  0.3080  0.3723  0.3839
  688MPD2     H10230   4.167   1.819  17.268 -0.8518 -0.0127  2.2163
  688MPD2    H110231   4.296   2.174  17.059 -1.7599  1.7358 -0.1649
  688MPD2    H210232   4.002   2.196  17.356 -2.6502 -1.3981 -0.8379
  688MPD2    H310233   4.121   2.297  17.185  1.2186  0.5635  0.7012
  688MPD2     N10234   4.326   1.915  17.070  0.4920  0.0746  0.3142
  688MPD2    H510235   4.359   1.959  16.985 -0.9438 -1.2267 -0.9174
  688MPD2    N110236   4.008   1.934  17.434  0.2337 -0.1697 -0.2283
  688MPD2    H710237   4.042   1.842  17.460 -1.7144 -0.9331 -0.4143
  689TMC3    C110238   3.877   1.895  17.630 -0.2582  0.3711 -0.9954
  689TMC3    C210239   3.854   1.946   0.017 -0.7397  0.1760 -0.3107
  689TMC3    C310240   3.825   1.851   0.109 -0.3985 -0.9020  0.6509
  689TMC3    C410241   3.859   1.765  17.598  0.4007 -0.1125 -0.0032
  689TMC3    C510242   3.835   1.673  17.700 -0.5203  0.7025  0.4544
  689TMC3    C610243   3.822   1.717   0.087 -0.7972  0.3867  0.2736
  689TMC3     C10244   3.923   1.991  17.524 -0.2375 -0.4087 -0.3165
  689TMC3     O10245   3.897   2.111  17.537 -0.1444  0.0267  0.5349
  689TMC3     H10246   3.862   2.052   0.038 -1.7746  0.1787  0.0422
  689TMC3    H110247   3.874   1.738  17.494 -0.2464 -1.8959  0.3668
  689TMC3    H210248   3.834   1.635   0.158 -0.1497  0.3584  0.1294
  689TMC3    C710249   3.885   1.548  17.690 -0.2625 -0.1158 -0.0748
  689TMC3    C810250   3.832   1.889   0.246  0.1439  0.0478  0.0566
  689TMC3    O110251   3.965   1.506   0.029 -0.5994 -0.2998  0.1414
  689TMC3    O210252   3.892   1.990   0.271 -0.0307  0.4594 -0.2830
  690MPD2     C10253   1.639   3.648  15.651 -0.3851 -0.2956  0.2079
  690MPD2    C110254   1.543   3.693  15.558  0.9037  0.4005 -0.7612
  690MPD2    C210255   1.584   3.783  15.465  0.3095  0.4318 -0.3012
  690MPD2    C310256   1.706   3.851  15.473 -0.4183  0.0900  0.0136
  690MPD2    C410257   1.785   3.821  15.576  0.6026  0.4846 -0.5583
  690MPD2    C510258   1.751   3.729  15.674 -0.0271 -0.6451 -0.6470
  690MPD2     H10259   1.520   3.805  15.380  2.6253 -0.1279 -2.1847
  690MPD2    H110260   1.869   3.883  15.604 -0.6934  1.5476  0.9340
  690MPD2    H210261   1.630   3.560  15.714  0.9017  0.3169  1.2447
  690MPD2    H310262   1.815   3.713  15.760 -0.3454  1.5735 -0.0116
  690MPD2     N10263   1.744   3.941  15.365  0.0878 -0.5542 -0.2139
  690MPD2    H510264   1.695   3.946  15.277  0.2157 -2.1056 -0.3880
  690MPD2    N110265   1.422   3.617  15.529 -0.6817 -0.3145 -0.2396
  690MPD2    H710266   1.367   3.653  15.452  1.1956  0.1656 -1.3525
  691TMC3    C110267   1.269   3.434  15.520  0.2359 -0.2136 -0.8073
  691TMC3    C210268   1.167   3.509  15.462 -0.4301  0.0402 -1.1296
  691TMC3    C310269   1.075   3.439  15.390 -0.3357 -0.3664  0.4068
  691TMC3    C410270   1.277   3.300  15.506 -0.0356 -0.1082 -0.0382
  691TMC3    C510271   1.177   3.238  15.436 -0.3697 -0.7411 -0.5069
  691TMC3    C610272   1.079   3.303  15.371  0.2197  0.3076 -0.8222
  691TMC3     C10273   1.385   3.496  15.587 -0.1263 -0.6143  0.8466
  691TMC3     O10274   1.432   3.432  15.679  0.1354  0.5421 -0.1919
  691TMC3     H10275   1.155   3.616  15.471 -1.0687 -0.2613  1.5187
  691TMC3    H110276   1.362   3.253  15.555 -0.4669  0.4635  1.2730
  691TMC3    H210277   1.003   3.243  15.321  1.3666 -0.7581 -1.2785
  691TMC3    C710278   1.159   3.097  15.455 -0.1401 -0.2310  0.0047
  691TMC3    C810279   0.965   3.509  15.330 -0.0744  0.1186 -0.4383
  691TMC3    O110280   1.093   3.037  15.369 -0.0890  0.2787 -0.2760
  691TMC3    O210281   0.930   3.453  15.228 -0.0914 -0.0807 -0.1331
  692TMC3    C110282   3.238   0.031  15.574 -0.6895 -0.7755 -0.3765
  692TMC3    C210283   3.359   0.092  15.619 -0.9356  0.5978  0.4850
  692TMC3    C310284   3.444   0.018  15.697 -0.4589  0.2968 -0.5225
  692TMC3    C410285   3.212   4.634  15.592 -0.8092  0.4710  0.6651
  692TMC3    C510286   3.305   4.562  15.656 -0.4110 -0.7753 -0.6254
  692TMC3    C610287   3.411   4.622  15.722  0.2992  0.0595  0.2205
  692TMC3     C10288   3.120   0.113  15.579  0.2154 -0.5790  0.3272
  692TMC3     O10289   3.016   0.052  15.598  0.5066  0.2673 -0.3704
  692TMC3     H10290   3.394   0.189  15.588  0.8134 -0.3533 -0.4765
  692TMC3    H110291   3.119   4.591  15.557 -0.5272 -1.2323  2.0026
  692TMC3    H210292   3.490   4.558  15.761  2.4046  0.6090 -3.1317
  692TMC3    C710293   3.279   4.419  15.662  0.4398 -0.2873  0.2155
  692TMC3    C810294   3.477   0.078  15.819 -0.3995 -0.2088  0.0867
  692TMC3    O110295   3.196   4.377  15.583  0.0796 -0.4365  0.0942
  692TMC3    O210296   3.469   0.003  15.917  0.2505 -0.1035 -0.0818
  693MPD2     C10297   2.093   2.374  10.780 -0.5716  0.0560 -0.0419
  693MPD2    C110298   2.087   2.257  10.846  0.1174 -0.1807  0.0843
  693MPD2    C210299   2.201   2.209  10.907  0.0844  0.2997  1.0022
  693MPD2    C310300   2.324   2.270  10.899  0.2839  0.0353  0.2778
  693MPD2    C410301   2.328   2.375  10.818 -0.4099 -0.2150  0.0956
  693MPD2    C510302   2.218   2.429  10.756  0.0364  0.5320 -0.5531
  693MPD2     H10303   2.195   2.124  10.975 -1.6348 -2.2156 -2.3299
  693MPD2    H110304   2.419   2.433  10.823 -0.9388  0.5464  0.7885
  693MPD2    H210305   2.009   2.410  10.722 -0.1780 -3.0527 -2.5786
  693MPD2    H310306   2.235   2.522  10.704 -0.1500  1.3551  0.8388
  693MPD2     N10307   2.447   2.222  10.951  0.0114 -0.2901 -0.3485
  693MPD2    H510308   2.523   2.285  10.926  0.0146 -0.3538 -0.5026
  693MPD2    N110309   1.957   2.194  10.849  0.9575  0.3241 -0.8609
  693MPD2    H710310   1.885   2.237  10.791  0.9303 -0.2974 -1.2909
  694TMC3    C110311   1.784   2.058  10.885  0.2206 -0.0488 -0.1487
  694TMC3    C210312   1.737   2.084  10.759  0.3116  0.1451  0.4636
  694TMC3    C310313   1.600   2.094  10.741  0.7377  1.0381  0.6924
  694TMC3    C410314   1.701   2.034  10.998 -0.6630 -0.5596  1.3186
  694TMC3    C510315   1.573   2.055  10.971 -0.4632 -0.0467 -0.2160
  694TMC3    C610316   1.519   2.063  10.842 -0.1917  0.5101  0.2227
  694TMC3     C10317   1.916   2.100  10.932 -0.2153  0.3832  0.1192
  694TMC3     O10318   1.964   2.050  11.030 -0.6345  0.0946 -0.2614
  694TMC3     H10319   1.806   2.087  10.676 -0.8100 -0.7784 -0.4943
  694TMC3    H110320   1.746   2.026  11.096 -0.5088 -0.3738  1.2648
  694TMC3    H210321   1.417   2.099  10.835  0.1257  1.9401  2.9335
  694TMC3    C710322   1.475   2.044  11.078 -0.2462 -0.4079 -0.3428
  694TMC3    C810323   1.560   2.054  10.604 -0.2539 -0.4288 -0.3403
  694TMC3    O110324   1.369   2.110  11.073  0.3216 -0.0269  0.9009
  694TMC3    O210325   1.636   2.082  10.513  0.4892  0.1652  0.2360
  695MPD2     C10326   3.823   4.335  13.322 -0.4461 -0.7228 -1.5420
  695MPD2    C110327   3.790   4.324  13.455  0.4645 -0.1218 -1.4470
  695MPD2    C210328   3.653   4.358  13.492 -0.1833  0.1956 -0.0674
  695MPD2    C310329   3.553   4.395  13.396  0.8507 -0.2530 -0.4254
  695MPD2    C410330   3.598   4.407  13.266 -0.0808  0.0917  0.4371
  695MPD2    C510331   3.727   4.381  13.233 -0.6012 -0.6123  0.2628
  695MPD2     H10332   3.620   4.343  13.595  1.7368 -0.2885  0.4798
  695MPD2    H110333   3.540   4.436  13.179 -1.9974  2.1505  2.3845
  695MPD2    H210334   3.921   4.305  13.285 -1.1080 -3.0918 -1.3317
  695MPD2    H310335   3.759   4.382  13.129 -1.9035  0.6735 -0.1289
  695MPD2     N10336   3.423   4.427  13.432  0.3820 -0.0729  0.1369
  695MPD2    H510337   3.397   4.397  13.525  0.3763  1.8927  0.7695
  695MPD2    N110338   3.878   4.287  13.558  0.2127  0.2147 -0.1329
  695MPD2    H710339   3.828   4.273  13.645 -1.5731 -2.7371 -1.6175
  696TMC3    C110340   3.204   4.534  13.432 -0.4797  0.1152 -0.3478
  696TMC3    C210341   3.162   4.445  13.526  0.1334  0.2377 -0.0536
  696TMC3    C310342   3.036   4.454  13.576 -0.1454 -0.4983  0.2826
  696TMC3    C410343   3.112   4.612  13.362  0.5888  0.2280 -0.3042
  696TMC3    C510344   2.982   4.619  13.416 -0.7352 -0.3165 -0.5329
  696TMC3    C610345   2.952   4.547  13.530  0.8247  0.8472  0.2435
  696TMC3     C10346   3.337   4.509  13.363  0.8518  0.0587  0.1575
  696TMC3     O10347   3.353   4.571  13.260  0.6996  0.0373  0.1379
  696TMC3     H10348   3.232   4.369  13.559 -1.0855  0.2026  2.4197
  696TMC3    H110349   3.136   4.679  13.281  1.0901  2.0006  1.3030
  696TMC3    H210350   2.854   4.563  13.573  0.2155  0.4919 -1.0486
  696TMC3    C710351   2.927   0.020  13.418  0.4465  0.0076 -0.2224
  696TMC3    C810352   3.034   4.474  13.720 -0.5197 -0.0766  0.3097
  696TMC3    O110353   2.913   0.067  13.306 -0.3965 -0.1122 -0.1871
  696TMC3    O210354   2.972   4.564  13.769 -0.1899 -0.2009 -0.0660
  697MPD2     C10355   2.974   1.449  15.633 -0.0248  0.5301  0.4456
  697MPD2    C110356   2.951   1.423  15.495  0.5977  0.2702 -0.1176
  697MPD2    C210357   2.987   1.516  15.400 -0.5137 -0.5985  0.0789
  697MPD2    C310358   3.036   1.643  15.437 -0.1068 -0.4514 -0.6344
  697MPD2    C410359   3.051   1.668  15.573 -0.7370  0.6889 -0.7204
  697MPD2    C510360   3.022   1.569  15.666  0.0983  0.2028  0.4279
  697MPD2     H10361   2.980   1.492  15.294  0.0398  0.0454 -0.1023
  697MPD2    H110362   3.082   1.764  15.613  0.9279 -0.5792  1.0232
  697MPD2    H210363   2.953   1.381  15.715 -1.9555 -0.1457 -0.6091
  697MPD2    H310364   3.050   1.586  15.769  2.3137 -0.5110 -0.0477
  697MPD2     N10365   3.051   1.740  15.336 -0.5266 -0.5493  0.4779
  697MPD2    H510366   3.028   1.705  15.243 -0.1697 -2.9040  1.2728
  697MPD2    N110367   2.904   1.303  15.444 -0.2161  0.9579  0.0537
  697MPD2    H710368   2.904   1.294  15.343 -1.2450  2.3077 -0.0710
  698TMC3    C110369   3.056   1.949  15.251 -0.6201  0.3712  0.6998
  698TMC3    C210370   3.070   2.082  15.265  0.2417 -0.0022 -0.7405
  698TMC3    C310371   3.106   2.165  15.168  0.1599  0.1016  0.6844
  698TMC3    C410372   3.062   1.896  15.126 -0.2123 -0.0809  0.2818
  698TMC3    C510373   3.089   1.982  15.025 -0.1277  0.2841  0.3979
  698TMC3    C610374   3.108   2.122  15.043  0.0988 -0.6323  0.1317
  698TMC3     C10375   3.095   1.865  15.361 -0.2098  0.1174 -0.5091
  698TMC3     O10376   3.144   1.918  15.462 -0.2441  0.1023 -0.0736
  698TMC3     H10377   3.044   2.123  15.362  3.6240 -0.4882  0.3698
  698TMC3    H110378   3.095   1.794  15.113  1.4082  0.5583 -0.5612
  698TMC3    H210379   3.160   2.166  14.959 -1.8335  2.1431  0.4026
  698TMC3    C710380   3.058   1.945  14.891 -0.3524  0.2324 -0.4621
  698TMC3    C810381   3.130   2.303  15.202 -0.3786  0.2056 -0.7201
  698TMC3    O110382   3.088   2.026  14.804 -0.2177 -0.1159 -0.7726
  698TMC3    O210383   3.063   2.346  15.293  0.5802 -0.0084  0.1054
  699TMC3    C110384   2.585   4.718  13.043  0.2079  0.0808 -0.2784
  699TMC3    C210385   2.618   4.595  13.105 -0.7354 -0.0990  0.2197
  699TMC3    C310386   2.622   4.598  13.243  0.7373 -0.3094 -0.4802
  699TMC3    C410387   2.560   0.102  13.109  0.3058  0.0455  0.3032
  699TMC3    C510388   2.580   0.098  13.241  0.1720 -0.1258  0.2328
  699TMC3    C610389   2.616   4.722  13.300  0.2183 -0.3778 -0.2032
  699TMC3     C10390   2.566   4.730  12.901 -0.4526  0.1006  0.0855
  699TMC3     O10391   2.506   4.634  12.852  0.4010 -0.0144  0.3444
  699TMC3     H10392   2.649   4.506  13.051  0.4529 -0.2522  1.1625
  699TMC3    H110393   2.516   0.189  13.061 -0.8734 -1.3114 -1.0490
  699TMC3    H210394   2.619   4.725  13.408 -0.4070  0.2858 -0.2044
  699TMC3    C710395   2.526   0.203  13.326  0.0434  0.6291 -0.1455
  699TMC3    C810396   2.679   4.495  13.325  0.0660  0.3042  0.2388
  699TMC3    O110397   2.488   0.166  13.438 -0.5046  0.5218  0.4571
  699TMC3    O210398   2.649   4.499  13.444  0.4168  0.3324  0.1786
  700TMC3    C110399   1.936   2.025  17.224  0.3987 -0.3637  0.2384
  700TMC3    C210400   2.017   1.918  17.238 -0.4063  0.6346 -0.1381
  700TMC3    C310401   2.134   1.933  17.308  0.1943  0.9739  0.4545
  700TMC3    C410402   1.979   2.146  17.285  0.0496 -0.2059  0.7129
  700TMC3    C510403   2.091   2.155  17.359  0.4750 -0.2011 -0.4434
  700TMC3    C610404   2.171   2.046  17.369  0.0206 -1.0947 -0.2216
  700TMC3     C10405   1.865   2.041  17.102  0.0143  0.4318  0.4179
  700TMC3     O10406   1.745   2.061  17.110 -0.0806 -0.1862 -0.0996
  700TMC3     H10407   1.999   1.828  17.180 -1.0230  1.3168 -0.9999
  700TMC3    H110408   1.909   2.229  17.276  1.6341  0.8102 -2.5113
  700TMC3    H210409   2.276   2.065  17.387 -0.3236  0.9342 -0.3984
  700TMC3    C710410   2.168   2.281  17.359 -0.4210 -0.5497  0.1443
  700TMC3    C810411   2.229   1.822  17.288  0.0352  0.7896  0.5609
  700TMC3    O110412   2.263   2.289  17.435 -0.6178  0.6018  0.0773
  700TMC3    O210413   2.345   1.844  17.316 -0.1860  0.0394 -0.0974
  701TMC3    C110414   1.963   0.638  15.475 -0.5855 -0.0058 -0.2797
  701TMC3    C210415   2.010   0.551  15.372  0.1032 -0.0845 -1.5322
  701TMC3    C310416   2.098   0.597  15.284 -0.1493  0.0927 -0.1458
  701TMC3    C410417   2.006   0.764  15.481  0.3305 -0.4511 -0.1246
  701TMC3    C510418   2.097   0.805  15.392 -0.5061  0.1255 -0.2260
  701TMC3    C610419   2.140   0.728  15.284  0.4735  0.1764  0.5643
  701TMC3     C10420   1.830   0.615  15.537  0.3988  0.2545  0.6939
  701TMC3     O10421   1.761   0.706  15.578  0.3237  0.4263 -0.3228
  701TMC3     H10422   1.948   0.464  15.351  1.1545 -0.7970 -1.6630
  701TMC3    H110423   1.975   0.831  15.561  1.2797 -0.2815  0.0973
  701TMC3    H210424   2.199   0.770  15.204  0.9830 -1.2347  0.1907
  701TMC3    C710425   2.186   0.915  15.423  0.0618  0.1998  0.2093
  701TMC3    C810426   2.086   0.534  15.156  0.9651  0.1174 -1.1247
  701TMC3    O110427   2.228   0.987  15.332 -0.8461  0.2515  0.2441
  701TMC3    O210428   2.113   0.418  15.155 -0.3652  0.0273 -0.2508
  702MPD2     C10429   1.257   2.232  10.464  0.7188 -0.6427 -0.2651
  702MPD2    C110430   1.159   2.331  10.485  0.7621  0.1466  0.3628
  702MPD2    C210431   1.171   2.457  10.428  0.4070 -0.4540  0.0324
  702MPD2    C310432   1.294   2.493  10.371  0.0394  0.3143 -0.4044
  702MPD2    C410433   1.392   2.403  10.367  0.5060 -0.8741 -0.1918
  702MPD2    C510434   1.369   2.269  10.399 -0.0980  0.1442 -0.7675
  702MPD2     H10435   1.082   2.519  10.428 -1.2604 -2.8389  0.3322
  702MPD2    H110436   1.488   2.430  10.323 -0.0571  0.7758 -0.4085
  702MPD2    H210437   1.252   2.131  10.503 -1.2794 -0.2318  0.5517
  702MPD2    H310438   1.443   2.199  10.361 -1.3854 -0.8073 -1.4927
  702MPD2     N10439   1.334   2.625  10.330  0.3491 -0.4551 -0.2092
  702MPD2    H510440   1.427   2.649  10.299  0.8099 -1.9715 -0.0007
  702MPD2    N110441   1.043   2.311  10.566  0.8225  0.1889 -0.0261
  702MPD2    H710442   0.986   2.394  10.581  1.6242  0.9804 -1.3915
  703TMC3    C110443   1.296   2.861  10.292 -0.1675 -0.1438 -0.4509
  703TMC3    C210444   1.206   2.966  10.293 -0.5043 -0.0940  0.5125
  703TMC3    C310445   1.255   3.080  10.241 -0.4095 -0.0314  0.6391
  703TMC3    C410446   1.423   2.867  10.231 -0.5319  0.5579 -0.4369
  703TMC3    C510447   1.454   2.985  10.179  0.2639 -0.2202  0.9248
  703TMC3    C610448   1.380   3.098  10.185  0.4484 -0.1613  0.3160
  703TMC3     C10449   1.247   2.732  10.350  0.2094  0.4406 -0.2420
  703TMC3     O10450   1.135   2.733  10.395 -0.1129 -0.4270  0.0678
  703TMC3     H10451   1.109   2.959  10.342 -1.7064  0.9470 -1.7328
  703TMC3    H110452   1.473   2.777  10.200  3.6066  2.9719 -0.7101
  703TMC3    H210453   1.406   3.197  10.151  2.0287 -0.2875  1.1565
  703TMC3    C710454   1.577   3.000  10.105  0.1697 -0.4630 -0.4168
  703TMC3    C810455   1.196   3.204  10.284 -0.1103 -0.1980  0.6518
  703TMC3    O110456   1.585   3.099  10.037 -0.4665  0.0290 -0.4111
  703TMC3    O210457   1.252   3.310  10.271  0.5219 -0.0356  0.7588
  704TMC3    C110458   4.510   1.439  12.751 -0.1167 -0.1526 -0.6794
  704TMC3    C210459   4.524   1.445  12.614  0.1332  0.4559 -0.0434
  704TMC3    C310460   4.594   1.349  12.556 -0.0175 -0.4247  0.6027
  704TMC3    C410461   4.582   1.355  12.831 -0.4558  0.7801  0.6382
  704TMC3    C510462   4.663   1.265  12.766 -0.4062  0.7099 -0.0930
  704TMC3    C610463   4.685   1.271  12.624 -0.3618  0.3176  0.3860
  704TMC3     C10464   4.372   1.461  12.787 -0.1803  0.4865 -0.5629
  704TMC3     O10465   4.346   1.473  12.905 -0.1256  0.3160  0.8107
  704TMC3     H10466   4.455   1.500  12.551 -1.5064  0.0442  1.4150
  704TMC3    H110467   4.566   1.346  12.938 -1.7987 -1.0688  0.2810
  704TMC3    H210468   4.735   1.189  12.574 -0.0260  0.5386  0.3563
  704TMC3    C710469   4.697   1.150  12.838 -0.3499 -0.0280 -0.2631
  704TMC3    C810470   4.535   1.285  12.432  0.5254 -0.0516  0.0867
  704TMC3    O110471   4.707   1.050  12.769 -0.7550  0.0231 -0.2731
  704TMC3    O210472   4.412   1.295  12.414  0.4388 -0.8979  0.5341
  705MPD2     C10473   3.358   4.303  16.472  0.3713  0.2242  0.6574
  705MPD2    C110474   3.407   4.428  16.428  0.0128  0.5081 -0.1665
  705MPD2    C210475   3.317   4.529  16.396 -0.1425  0.2688 -0.2409
  705MPD2    C310476   3.183   4.501  16.412 -0.1636  0.7169  0.6768
  705MPD2    C410477   3.136   4.379  16.449 -0.0765 -0.3721  0.0957
  705MPD2    C510478   3.224   4.282  16.482  0.4481 -0.7462 -0.2825
  705MPD2     H10479   3.360   4.624  16.365  0.3834 -0.3759 -1.4702
  705MPD2    H110480   3.030   4.361  16.459 -0.4514  0.9286 -1.4774
  705MPD2    H210481   3.424   4.218  16.481  1.0882  0.7786  0.6172
  705MPD2    H310482   3.193   4.182  16.513 -1.7292 -0.3303 -1.0998
  705MPD2     N10483   3.085   4.594  16.379 -0.3780  0.4258 -0.1659
  705MPD2    H510484   2.998   4.550  16.353 -0.7770  0.5970  0.9028
  705MPD2    N110485   3.544   4.451  16.396  0.0591 -0.4620 -0.4771
  705MPD2    H710486   3.566   4.543  16.360 -3.3059  1.1711  1.6949
  706TMC3    C110487   3.898   4.287  16.198  0.0579  0.3591  0.3758
  706TMC3    C210488   3.905   4.404  16.125 -1.0719  0.9925 -0.2764
  706TMC3    C310489   3.855   4.520  16.185 -0.2549 -0.0743  0.7841
  706TMC3    C410490   3.843   4.287  16.324 -0.5301  0.0143 -0.6579
  706TMC3    C510491   3.775   4.397  16.366  0.5617 -0.4541  0.5914
  706TMC3    C610492   3.791   4.521  16.306  0.5728  0.1896 -0.8798
  706TMC3     C10493   4.012   4.195  16.174  0.2864 -0.1774  0.4596
  706TMC3     O10494   4.038   4.109  16.257  0.1271  0.4878 -0.6540
  706TMC3     H10495   3.954   4.406  16.028 -0.7999  3.2589 -0.0864
  706TMC3    H110496   3.848   4.204  16.394 -0.4086  2.2716  2.0338
  706TMC3    H210497   3.737   4.604  16.350  0.5368  0.0183 -0.5986
  706TMC3    C710498   3.648   4.364  16.426 -0.3274 -0.0010 -0.0843
  706TMC3    C810499   3.861   4.644  16.111  0.7031  0.4989  0.0204
  706TMC3    O110500   3.647   4.264  16.496 -0.6242  0.0776  0.0990
  706TMC3    O210501   3.874   4.636  15.994  0.4098  0.4507 -0.3767
  707TMC3    C110502   0.679   3.862   1.019  0.3227 -0.0920 -0.4734
  707TMC3    C210503   0.789   3.936   1.017 -0.3959  0.3580  0.0726
  707TMC3    C310504   0.798   4.044   1.097 -0.1531 -0.0690  0.3724
  707TMC3    C410505   0.571   3.901   1.097  0.0972  0.2627 -0.3446
  707TMC3    C510506   0.576   4.020   1.172  0.3360 -0.6904  0.1520
  707TMC3    C610507   0.692   4.098   1.168 -0.0389 -0.1713 -0.4646
  707TMC3     C10508   0.692   3.723   0.984  0.3500 -0.2096  0.5971
  707TMC3     O10509   0.803   3.678   0.963  0.4591 -0.3363 -0.5435
  707TMC3     H10510   0.872   3.910   0.952 -1.4803  0.5022 -1.3814
  707TMC3    H110511   0.477   3.847   1.088  0.2312  0.1967 -1.3705
  707TMC3    H210512   0.714   4.183   1.232 -1.0034  0.9398 -1.6073
  707TMC3    C710513   0.463   4.065   1.253 -0.3528  0.4116 -0.1174
  707TMC3    C810514   0.935   4.082   1.148 -0.4946  0.0666 -0.0491
  707TMC3    O110515   0.368   3.982   1.256 -0.3715  0.2317  0.8192
  707TMC3    O210516   0.946   4.186   1.212 -0.9125 -0.0334 -0.3825
  708MPD2     C10517   1.868   2.929  14.015 -0.6705  0.3420  0.4831
  708MPD2    C110518   1.803   2.898  14.137  0.2954 -0.7964 -0.7912
  708MPD2    C210519   1.894   2.847  14.227  0.2861 -1.2775 -0.4248
  708MPD2    C310520   2.031   2.837  14.208 -0.9934  0.0430  0.9699
  708MPD2    C410521   2.082   2.919  14.106 -0.1843  0.0111 -0.0803
  708MPD2    C510522   2.001   2.962  14.009  0.4154  0.9135  1.1841
  708MPD2     H10523   1.862   2.803  14.320  0.5836  0.1111  0.3258
  708MPD2    H110524   2.188   2.929  14.087  0.1738 -0.9060  1.3927
  708MPD2    H210525   1.811   2.953  13.926 -0.3060  0.5190  0.2965
  708MPD2    H310526   2.043   3.004  13.918 -0.1980 -0.7561  0.1274
  708MPD2     N10527   2.115   2.786  14.306 -0.8892  0.0734 -0.0443
  708MPD2    H510528   2.211   2.819  14.295 -0.3140 -0.9430  1.9970
  708MPD2    N110529   1.666   2.895  14.149 -0.3680 -0.7398 -0.8002
  708MPD2    H710530   1.610   2.891  14.064 -3.5774 -1.4168  1.3468
  709TMC3    C110531   1.466   2.889  14.270 -0.9997  0.2923 -0.8824
  709TMC3    C210532   1.425   2.769  14.212 -0.4135  0.4197  0.1846
  709TMC3    C310533   1.313   2.701  14.251 -0.1662 -0.1608 -0.0945
  709TMC3    C410534   1.409   2.920  14.391  0.1099 -0.0453 -0.3166
  709TMC3    C510535   1.306   2.835  14.435 -0.1651 -0.5525  0.1117
  709TMC3    C610536   1.248   2.733  14.364 -0.2370  0.2390  0.2682
  709TMC3     C10537   1.605   2.909  14.273 -0.5598  0.1307  0.2184
  709TMC3     O10538   1.658   2.937  14.380 -0.0014  0.2481 -0.8974
  709TMC3     H10539   1.492   2.728  14.137 -1.3659  1.1566 -1.0545
  709TMC3    H110540   1.456   2.991  14.458  0.0532 -0.3498  0.0511
  709TMC3    H210541   1.163   2.673  14.394 -0.7511  1.5071  1.3369
  709TMC3    C710542   1.320   2.803  14.575  0.3342  0.5751  0.2130
  709TMC3    C810543   1.243   2.637  14.146 -0.2562  0.1087 -0.4073
  709TMC3    O110544   1.227   2.753  14.642 -0.3337  0.4611 -0.0449
  709TMC3    O210545   1.144   2.567  14.170  0.3037  0.5991 -0.3391
  710TMC3    C110546   2.925   3.921   0.326  0.4670  0.3886  1.0322
  710TMC3    C210547   2.971   3.971   0.209 -0.3428 -0.1836 -0.0964
  710TMC3    C310548   3.054   3.898   0.131 -0.4306  0.0283  0.4188
  710TMC3    C410549   2.951   3.789   0.356  0.3685 -0.9312  0.2825
  710TMC3    C510550   3.038   3.726   0.274  0.0482  0.2641 -0.8800
  710TMC3    C610551   3.091   3.773   0.155  0.6308 -0.3381  0.1433
  710TMC3     C10552   2.879   4.007   0.435 -0.9447  0.7514  0.0749
  710TMC3     O10553   2.894   4.127   0.421  0.2708 -0.2619  0.2916
  710TMC3     H10554   2.935   4.072   0.193  2.2254  0.5535 -1.2279
  710TMC3    H110555   2.955   3.756   0.459 -0.8355 -1.0973  0.2802
  710TMC3    H210556   3.168   3.725   0.094  1.7584  0.3558  1.0317
  710TMC3    C710557   3.078   3.606   0.338  0.2521 -0.2875 -0.2231
  710TMC3    C810558   3.111   3.964   0.016  0.3895  1.0547 -0.0779
  710TMC3    O110559   2.996   3.551   0.409  0.0218  0.3862 -0.0430
  710TMC3    O210560   3.207   3.916  17.703 -0.0373 -0.1682 -0.2496
  711TMC3    C110561   2.817   0.230  14.882  0.8206 -1.1062 -0.5512
  711TMC3    C210562   2.894   0.336  14.918 -0.2706 -0.7949 -0.7278
  711TMC3    C310563   3.008   0.314  14.989  0.0870  0.1798 -0.2986
  711TMC3    C410564   2.847   0.102  14.919  0.4005  0.1278  0.5209
  711TMC3    C510565   2.955   0.085  15.003  0.0060 -0.1815 -0.4317
  711TMC3    C610566   3.029   0.187  15.046  0.2680  0.2479  0.2658
  711TMC3     C10567   2.698   0.245  14.796  0.2738  0.3567 -0.4550
  711TMC3     O10568   2.627   0.151  14.781  0.3930  1.1111 -0.4715
  711TMC3     H10569   2.859   0.437  14.903  0.7133 -0.4024 -0.3788
  711TMC3    H110570   2.791   0.017  14.882 -0.4568  0.8931  0.0455
  711TMC3    H210571   3.121   0.170  15.101 -0.5786 -1.4874  1.1594
  711TMC3    C710572   3.001   4.692  15.040 -0.6342  0.0988 -0.8311
  711TMC3    C810573   3.047   0.429  15.065  0.2538 -0.0742  0.3257
  711TMC3    O110574   3.084   4.684  15.134 -0.3506 -0.0904 -0.1846
  711TMC3    O210575   2.962   0.515  15.073 -0.5699 -0.1665  0.0553
  712MPD2     C10576   4.408   1.265  14.136 -0.4083  0.0041 -1.0724
  712MPD2    C110577   4.294   1.313  14.079  0.0935 -1.0032 -0.6696
  712MPD2    C210578   4.283   1.449  14.060 -0.8494 -0.0431 -0.0019
  712MPD2    C310579   4.385   1.534  14.092 -0.1118  0.0400  0.6792
  712MPD2    C410580   4.489   1.485  14.156  0.2802 -0.5441 -0.3100
  712MPD2    C510581   4.505   1.351  14.169  0.4601 -0.1538 -0.0102
  712MPD2     H10582   4.200   1.506  14.020  0.1373  3.2833  2.6243
  712MPD2    H110583   4.574   1.548  14.181  0.9812 -2.3459  1.8506
  712MPD2    H210584   4.420   1.158  14.148 -1.1773  0.1289  0.8308
  712MPD2    H310585   4.598   1.308  14.203  0.4504  1.3700  1.9700
  712MPD2     N10586   4.391   1.665  14.052  0.3706  0.1728  0.3455
  712MPD2    H510587   4.463   1.728  14.088  1.1316 -1.0586  0.9806
  712MPD2    N110588   4.192   1.238  14.017  1.1150  0.2641  0.1978
  712MPD2    H710589   4.124   1.287  13.959 -0.3957 -0.6111  1.2099
  713TMC3    C110590   4.362   1.855  13.925 -0.4780  0.0782  1.0409
  713TMC3    C210591   4.417   1.843  13.801  0.1673 -0.2606 -0.4660
  713TMC3    C310592   4.378   1.929  13.702  0.5716  0.1823 -0.5597
  713TMC3    C410593   4.275   1.953  13.944  0.8366 -0.0085 -0.8822
  713TMC3    C510594   4.238   2.042  13.846 -0.8427  0.0777  0.2164
  713TMC3    C610595   4.300   2.045  13.728 -0.4471  0.8829 -0.3716
  713TMC3     C10596   4.309   1.722  13.953 -0.2358  0.0792 -0.2686
  713TMC3     O10597   4.252   1.659  13.863  0.1362  0.0838 -0.3158
  713TMC3     H10598   4.479   1.755  13.788  2.3533  1.0459  1.2452
  713TMC3    H110599   4.203   1.936  14.023 -0.1722  1.9915 -1.3775
  713TMC3    H210600   4.274   2.114  13.649 -0.1099  0.7281 -0.6169
  713TMC3    C710601   4.101   2.103  13.855 -0.3341 -0.2728  0.4476
  713TMC3    C810602   4.389   1.883  13.561 -0.1567 -0.0804  0.6107
  713TMC3    O110603   4.049   2.138  13.751  0.3541 -0.0511 -0.2988
  713TMC3    O210604   4.297   1.918  13.484 -0.6090 -0.5090  0.5991
  714MPD2     C10605   1.675   0.545   1.594 -0.6593  0.4309 -0.3137
  714MPD2    C110606   1.704   0.498   1.467 -0.3894  0.0512 -0.9205
  714MPD2    C210607   1.648   0.561   1.355  0.2002  0.0862  0.2437
  714MPD2    C310608   1.561   0.673   1.369 -0.1007 -1.0094  0.3260
  714MPD2    C410609   1.515   0.701   1.495  0.5389  0.3893  0.6112
  714MPD2    C510610   1.580   0.640   1.601 -0.2401 -0.3058 -0.1603
  714MPD2     H10611   1.674   0.527   1.256 -3.3122  1.7057 -1.2265
  714MPD2    H110612   1.451   0.784   1.522  2.8147  2.3816 -0.0960
  714MPD2    H210613   1.725   0.505   1.681  0.2928  0.9353 -0.6186
  714MPD2    H310614   1.573   0.694   1.695  0.1134 -0.1445 -0.2264
  714MPD2     N10615   1.503   0.728   1.252  0.0904  0.5609 -0.4190
  714MPD2    H510616   1.519   0.677   1.166  3.4790  1.1246 -0.1225
  714MPD2    N110617   1.803   0.397   1.452 -0.1627  0.1134 -0.3422
  714MPD2    H710618   1.844   0.355   1.534 -1.5231 -0.8345 -0.1530
  715TMC3    C110619   1.963   0.259   1.343 -0.0737  0.9984  0.2985
  715TMC3    C210620   2.001   0.180   1.236 -0.4032 -0.3556  0.3417
  715TMC3    C310621   2.121   0.118   1.234  0.5897 -0.1338 -0.1729
  715TMC3    C410622   2.064   0.300   1.422 -0.3524 -0.4616 -0.0117
  715TMC3    C510623   2.189   0.255   1.410 -0.1922 -0.2279  0.4973
  715TMC3    C610624   2.219   0.161   1.314  0.2718 -0.7289  0.2756
  715TMC3     C10625   1.838   0.332   1.338 -0.0214 -0.0133 -0.3613
  715TMC3     O10626   1.783   0.335   1.226 -0.6257 -0.1199  0.0523
  715TMC3     H10627   1.919   0.145   1.174  0.8447 -0.8634 -0.9974
  715TMC3    H110628   2.048   0.361   1.510 -1.8884 -0.5308 -0.2379
  715TMC3    H210629   2.323   0.135   1.302  0.3957  0.0482 -0.3217
  715TMC3    C710630   2.294   0.350   1.451  0.2768  0.4920 -0.7902
  715TMC3    C810631   2.145   0.006   1.147  0.5077 -0.1938  0.2738
  715TMC3    O110632   2.392   0.339   1.378 -0.2495 -0.2779 -0.2057
  715TMC3    O210633   2.064   4.716   1.059  0.4514  0.1273  0.5748
  716MPD2     C10634   0.658   2.483   9.738 -0.5287 -0.1702 -0.1643
  716MPD2    C110635   0.620   2.517   9.609  0.4756 -0.1510 -0.9266
  716MPD2    C210636   0.677   2.460   9.498 -0.4493 -0.1527  1.1965
  716MPD2    C310637   0.780   2.375   9.521  0.1782 -0.3867 -0.0394
  716MPD2    C410638   0.819   2.350   9.650  0.2851  0.6485 -0.2398
  716MPD2    C510639   0.766   2.407   9.763 -0.1319 -0.4647  0.2162
  716MPD2     H10640   0.663   2.491   9.395 -1.0927  0.0501  1.3418
  716MPD2    H110641   0.899   2.280   9.673  0.4888  0.1716 -2.3491
  716MPD2    H210642   0.615   2.532   9.824  0.2790 -0.4841  0.4163
  716MPD2    H310643   0.814   2.400   9.860 -0.3764  0.9185  0.4275
  716MPD2     N10644   0.837   2.318   9.404  0.2950 -0.4042 -0.2058
  716MPD2    H510645   0.786   2.345   9.320  2.0894 -0.4374 -1.2977
  716MPD2    N110646   0.503   2.595   9.601 -0.0366  0.6628  0.2018
  716MPD2    H710647   0.456   2.624   9.686  0.5470  0.0517  0.7297
  717TMC3    C110648   0.996   2.233   9.258 -0.3995  0.3243 -0.0258
  717TMC3    C210649   0.908   2.259   9.157  0.7179  1.1311 -0.7452
  717TMC3    C310650   0.938   2.207   9.031 -0.2509  0.5771  0.1415
  717TMC3    C410651   1.112   2.158   9.243 -0.3015  0.4265 -0.4979
  717TMC3    C510652   1.137   2.110   9.116 -1.6814  0.0109  0.3608
  717TMC3    C610653   1.048   2.133   9.011  0.4519 -0.5366 -0.8659
  717TMC3     C10654   0.952   2.248   9.394  0.3611  0.1255  0.4948
  717TMC3     O10655   1.025   2.219   9.485 -0.5108 -0.0250 -0.0619
  717TMC3     H10656   0.814   2.311   9.169  0.3269  0.3055 -0.2396
  717TMC3    H110657   1.173   2.138   9.331  0.0705 -0.5529 -0.9869
  717TMC3    H210658   1.067   2.093   8.912  1.1104 -1.3226 -0.4176
  717TMC3    C710659   1.254   2.026   9.093 -0.2463 -0.5813  0.3127
  717TMC3    C810660   0.878   2.271   8.924  0.2251  0.1633  0.1228
  717TMC3    O110661   1.253   1.952   8.998 -0.0667  0.7233 -0.5480
  717TMC3    O210662   0.766   2.314   8.946  0.1547 -0.1068  0.2538
  718MPD2     C10663   0.931   1.783  13.055 -0.3152  0.7174  0.5033
  718MPD2    C110664   0.809   1.720  13.085 -0.8620  0.0424  0.8172
  718MPD2    C210665   0.805   1.661  13.214  0.4773  0.6251 -0.1307
  718MPD2    C310666   0.920   1.662  13.302  0.2830 -0.4333 -0.2296
  718MPD2    C410667   1.034   1.732  13.268 -0.2598  1.0600  0.1473
  718MPD2    C510668   1.036   1.791  13.145 -0.5795 -0.0386 -0.3579
  718MPD2     H10669   0.720   1.612  13.261  1.0978 -0.5882 -0.2942
  718MPD2    H110670   1.123   1.743  13.329  1.9411 -5.1887 -2.0554
  718MPD2    H210671   0.949   1.829  12.959 -0.8897 -0.1663 -0.0299
  718MPD2    H310672   1.128   1.847  13.128 -0.2285 -0.3741  0.4088
  718MPD2     N10673   0.908   1.608  13.430  0.0210 -0.2946 -0.0257
  718MPD2    H510674   0.816   1.569  13.446 -0.1792  0.3200  0.3366
  718MPD2    N110675   0.705   1.721  12.988 -0.0986  0.1090  0.0099
  718MPD2    H710676   0.735   1.744  12.894 -0.1564  0.9866  0.2067
  719TMC3    C110677   0.537   1.610  12.889 -0.2364  0.2668  0.0985
  719TMC3    C210678   0.513   1.479  12.906 -0.3812  0.1228 -0.6394
  719TMC3    C310679   0.562   1.400  12.803 -0.4716 -0.3855 -0.3032
  719TMC3    C410680   0.576   1.676  12.773  0.7613  0.0440 -0.3237
  719TMC3    C510681   0.604   1.589  12.667  0.4958  0.6238 -0.4569
  719TMC3    C610682   0.603   1.455  12.682 -0.9024  0.6148  0.4196
  719TMC3     C10683   0.579   1.670  13.013  0.9503 -0.5115  0.3920
  719TMC3     O10684   0.527   1.636  13.116  0.0148  0.0259  0.2988
  719TMC3     H10685   0.479   1.437  13.000  0.6733 -0.5923 -0.5800
  719TMC3    H110686   0.577   1.784  12.776  1.2913  0.0345 -0.2345
  719TMC3    H210687   0.603   1.386  12.597 -2.5219  3.3263 -1.7796
  719TMC3    C710688   0.632   1.648  12.530 -0.3470  0.0293  0.7658
  719TMC3    C810689   0.642   1.283  12.844  0.1290  0.0050 -0.1295
  719TMC3    O110690   0.675   1.567  12.447  0.3663 -0.7795 -0.5137
  719TMC3    O210691   0.696   1.211  12.757 -0.2416  0.0519 -0.2956
  720MPD2     C10692   3.607   3.664  14.095 -0.3473 -0.2755 -0.2722
  720MPD2    C110693   3.687   3.631  13.990 -0.3986  0.1747  0.3827
  720MPD2    C210694   3.814   3.583  14.011 -0.6321  0.4197 -0.6126
  720MPD2    C310695   3.867   3.585  14.136 -0.2809 -0.4600  0.6630
  720MPD2    C410696   3.790   3.625  14.245 -0.2005 -0.0634 -0.3237
  720MPD2    C510697   3.660   3.658  14.221 -0.3096 -0.7935  0.1489
  720MPD2     H10698   3.873   3.567  13.922  0.2093 -0.6456  0.1382
  720MPD2    H110699   3.823   3.638  14.347  1.8163  0.3282 -1.0116
  720MPD2    H210700   3.510   3.713  14.086  0.6639  2.1753  2.3722
  720MPD2    H310701   3.607   3.692  14.309 -0.2929  0.1950 -0.2125
  720MPD2     N10702   4.008   3.555  14.139 -0.3266  0.1929 -0.8171
  720MPD2    H510703   4.043   3.543  14.045  1.1537  1.8856 -0.4922
  720MPD2    N110704   3.656   3.647  13.856 -0.7478  0.0701  0.2369
  720MPD2    H710705   3.717   3.613  13.782 -1.3401  1.2422 -0.7834
  721TMC3    C110706   4.223   3.552  14.222  0.1436 -0.3553 -0.2433
  721TMC3    C210707   4.293   3.665  14.265  0.1301  1.2224 -0.0555
  721TMC3    C310708   4.401   3.708  14.196  0.1751  0.4588  0.3316
  721TMC3    C410709   4.263   3.483  14.107 -0.0196  0.3080  0.2816
  721TMC3    C510710   4.364   3.535  14.036  0.8885  0.4642  0.1712
  721TMC3    C610711   4.428   3.649  14.073  0.0959  0.9294 -0.1502
  721TMC3     C10712   4.082   3.551  14.252 -0.1966  0.0396  0.7772
  721TMC3     O10713   4.051   3.591  14.365  0.0757 -0.2449  0.2298
  721TMC3     H10714   4.267   3.717  14.357  0.7733  3.1975 -0.9993
  721TMC3    H110715   4.236   3.381  14.082  1.2432 -0.3166  1.4652
  721TMC3    H210716   4.515   3.687  14.020 -0.6056 -0.3223 -2.1903
  721TMC3    C710717   4.477   3.449  14.003  0.7321 -0.1189  0.1050
  721TMC3    C810718   4.528   3.712  14.269  0.5025  0.7699 -0.6906
  721TMC3    O110719   4.525   3.460  13.889 -0.3465 -0.0012  0.5255
  721TMC3    O210720   4.631   3.703  14.198  0.1218  0.4405 -0.0989
  722MPD2     C10721   3.117   1.949  13.421  0.4634 -0.1219 -0.3677
  722MPD2    C110722   3.076   2.078  13.412  1.0862 -0.0438  0.2470
  722MPD2    C210723   2.963   2.103  13.329  0.2184 -0.3966  0.0443
  722MPD2    C310724   2.891   2.002  13.272 -0.2290  0.3116 -0.0435
  722MPD2    C410725   2.929   1.867  13.281 -0.8772  0.4797 -0.2273
  722MPD2    C510726   3.044   1.854  13.353 -0.0419  0.0990  1.1229
  722MPD2     H10727   2.930   2.206  13.318 -0.3621 -0.3758  2.0537
  722MPD2    H110728   2.877   1.782  13.237 -1.5821  0.9598 -0.3265
  722MPD2    H210729   3.203   1.922  13.481 -1.1728 -2.4189  0.9279
  722MPD2    H310730   3.087   1.755  13.361 -2.6793 -1.0233  1.3431
  722MPD2     N10731   2.784   2.043  13.195  0.2949 -1.4441  0.4859
  722MPD2    H510732   2.757   2.140  13.199  0.0094 -1.4808 -0.7461
  722MPD2    N110733   3.131   2.185  13.486 -0.8772 -0.7319  0.6289
  722MPD2    H710734   3.079   2.272  13.490  0.4399  0.0263  1.3448
  723TMC3    C110735   2.600   2.022  13.051 -0.2126 -0.0670  0.2303
  723TMC3    C210736   2.493   1.948  13.009  0.1501  0.5923 -0.0934
  723TMC3    C310737   2.401   2.010  12.929 -0.0842 -0.3048 -0.1595
  723TMC3    C410738   2.625   2.151  13.014  0.1874 -0.2590 -0.7907
  723TMC3    C510739   2.528   2.204  12.935 -0.6338  0.6386 -0.8460
  723TMC3    C610740   2.411   2.145  12.903  0.7951 -0.2656  0.2791
  723TMC3     C10741   2.691   1.956  13.139 -0.0774 -0.4729 -1.2243
  723TMC3     O10742   2.686   1.832  13.148 -0.1519  0.2421 -0.3949
  723TMC3     H10743   2.491   1.846  13.046 -0.0161  0.9337  0.8559
  723TMC3    H110744   2.709   2.213  13.043  0.1612 -0.8015  0.4668
  723TMC3    H210745   2.334   2.187  12.839  2.3493  0.4924 -1.1100
  723TMC3    C710746   2.559   2.328  12.871  0.7837  0.6796 -0.1298
  723TMC3    C810747   2.280   1.936  12.901  0.1786  0.5769 -0.7136
  723TMC3    O110748   2.470   2.413  12.865  0.0564 -0.1998 -0.4079
  723TMC3    O210749   2.173   1.987  12.920  0.6205 -0.3386  0.8125
  724TMC3    C110750   2.777   4.446  10.339  0.2909 -0.0412  0.5105
  724TMC3    C210751   2.804   4.512  10.224 -0.1267  0.8201 -0.1945
  724TMC3    C310752   2.901   4.609  10.227 -0.7931 -0.6447 -0.0493
  724TMC3    C410753   2.815   4.489  10.460 -0.5628  0.3999  0.0962
  724TMC3    C510754   2.910   4.587  10.459  0.1775  0.8171 -0.3019
  724TMC3    C610755   2.953   4.645  10.344  0.3807  0.2023  0.5659
  724TMC3     C10756   2.701   4.324  10.341 -0.6906 -0.1386  0.0214
  724TMC3     O10757   2.717   4.250  10.432  0.1981 -0.0483  0.2992
  724TMC3     H10758   2.778   4.463  10.131  1.3182 -1.0527  0.3748
  724TMC3    H110759   2.774   4.439  10.548 -1.4440 -1.7077 -1.5062
  724TMC3    H210760   3.026   4.725  10.349 -1.0125  1.4801  0.3145
  724TMC3    C710761   2.916   4.683  10.565 -0.3937  0.0974  0.1312
  724TMC3    C810762   2.956   4.652  10.098 -0.0025 -0.1962 -0.0749
  724TMC3    O110763   2.929   0.068  10.533  0.0275 -0.0917 -0.3364
  724TMC3    O210764   2.947   4.582   9.995 -0.2705  0.5143 -0.6439
  725TMC3    C110765   4.489   3.680  12.060 -0.1983  0.5479  0.4122
  725TMC3    C210766   4.553   3.618  11.952  0.6661 -0.2188  0.1901
  725TMC3    C310767   4.506   3.502  11.916 -0.5047  0.6830 -0.0165
  725TMC3    C410768   4.381   3.626  12.123 -0.0802 -0.0174  0.5061
  725TMC3    C510769   4.342   3.501  12.086 -0.0659  0.4914  0.0419
  725TMC3    C610770   4.404   3.439  11.979 -0.5786  0.2913  0.1890
  725TMC3     C10771   4.526   3.818  12.103  0.3977  0.1641  0.5023
  725TMC3     O10772   4.628   3.861  12.050  0.2078  0.0223 -0.2249
  725TMC3     H10773   4.634   3.670  11.903 -1.5527  2.8232 -0.2620
  725TMC3    H110774   4.329   3.676  12.204 -0.2942  1.3287 -0.4509
  725TMC3    H210775   4.358   3.346  11.948  0.0465 -0.5057  1.7264
  725TMC3    C710776   4.291   3.414  12.186  0.0798 -0.0822  0.3309
  725TMC3    C810777   4.546   3.462  11.782 -0.5532  0.0284 -0.0381
  725TMC3    O110778   4.225   3.321  12.139  0.2370  0.5410  0.0185
  725TMC3    O210779   4.550   3.343  11.764 -0.6115  0.1893  0.0636
  726MPD2     C10780   2.192   0.111  10.497  0.0791 -0.5668 -0.5962
  726MPD2    C110781   2.104   0.121  10.391 -0.2673  0.1830 -0.0365
  726MPD2    C210782   2.041   0.003  10.353 -0.0531 -0.1923  0.2257
  726MPD2    C310783   2.069   4.615  10.413  0.0267  0.5404 -0.5799
  726MPD2    C410784   2.167   4.613  10.514 -0.3643  0.3938 -0.3305
  726MPD2    C510785   2.230   4.723  10.543  0.0777  1.0539 -0.6860
  726MPD2     H10786   1.961   0.016  10.280  1.5259  0.7164 -1.3456
  726MPD2    H110787   2.197   4.517  10.555 -0.6694  0.3051 -0.3178
  726MPD2    H210788   2.242   0.194  10.544 -0.4590  0.7115 -2.2868
  726MPD2    H310789   2.298   4.711  10.627 -0.0831  1.2107 -0.5313
  726MPD2     N10790   1.989   4.500  10.403 -0.0665 -0.3038  0.3140
  726MPD2    H510791   2.015   4.418  10.457  2.2529  0.1386 -0.1480
  726MPD2    N110792   2.061   0.244  10.333 -0.7578 -0.1469 -0.2629
  726MPD2    H710793   1.998   0.232  10.255 -0.5155  0.2714 -0.5296
  727TMC3    C110794   2.062   0.476  10.297  0.4304 -0.4991 -0.4137
  727TMC3    C210795   2.136   0.585  10.293  0.8396  0.3462  0.4444
  727TMC3    C310796   2.106   0.688  10.209  0.4147 -0.2504  0.3801
  727TMC3    C410797   1.940   0.472  10.238 -0.2105 -0.2437 -0.3658
  727TMC3    C510798   1.904   0.583  10.156  0.3830  0.7146 -0.1395
  727TMC3    C610799   1.987   0.689  10.139  0.5808  0.0182  0.0583
  727TMC3     C10800   2.111   0.366  10.375  0.5288 -0.1556 -0.0225
  727TMC3     O10801   2.183   0.395  10.470  0.2472  0.6122  0.1028
  727TMC3     H10802   2.229   0.581  10.349  1.1630  0.0274 -0.1156
  727TMC3    H110803   1.872   0.389  10.255 -3.6341  2.9957  1.7550
  727TMC3    H210804   1.954   0.776  10.083 -0.7852 -0.8771 -0.5280
  727TMC3    C710805   1.794   0.556  10.065 -0.2381  0.7068  0.2468
  727TMC3    C810806   2.183   0.803  10.237  0.7188 -0.3853  0.5339
  727TMC3    O110807   1.736   0.449  10.082  0.1946  0.1779 -0.9309
  727TMC3    O210808   2.245   0.808  10.346  0.0217 -0.1717  0.1487
  728TMC3    C110809   1.896   4.073  15.232 -0.3937  0.5653  0.0636
  728TMC3    C210810   2.027   4.100  15.202  0.0084  0.1047  0.5369
  728TMC3    C310811   2.057   4.138  15.073  0.2414 -0.1266  0.5437
  728TMC3    C410812   1.794   4.107  15.146 -0.2255 -0.1194 -0.1775
  728TMC3    C510813   1.822   4.158  15.022  0.4894  0.3954 -0.3009
  728TMC3    C610814   1.955   4.172  14.986  0.0064  0.6039 -0.3236
  728TMC3     C10815   1.860   4.016  15.362  0.4566 -0.6641  0.5559
  728TMC3     O10816   1.952   4.026  15.443 -0.1917  0.0538 -0.4768
  728TMC3     H10817   2.106   4.067  15.268 -0.7447 -3.0517 -0.1323
  728TMC3    H110818   1.690   4.098  15.177 -0.2802 -0.5907 -0.5072
  728TMC3    H210819   1.988   4.180  14.883  0.9370 -0.0448 -0.0807
  728TMC3    C710820   1.723   4.188  14.921 -0.1402  0.0374  0.3389
  728TMC3    C810821   2.188   4.125  15.012 -0.1675 -0.1805  0.1769
  728TMC3    O110822   1.621   4.115  14.913 -0.1077 -0.7104 -0.4005
  728TMC3    O210823   2.202   4.117  14.890  0.1395 -0.1824 -1.1562
  729MPD2     C10824   4.038   0.533  16.851 -0.3150  0.0743  0.4173
  729MPD2    C110825   4.047   0.397  16.873  0.1189  0.3498 -0.1917
  729MPD2    C210826   4.029   0.348  17.005 -0.7976 -0.9109 -0.7310
  729MPD2    C310827   3.999   0.428  17.118  0.0054 -0.1276 -0.7544
  729MPD2    C410828   3.987   0.563  17.093 -0.8879  0.0020  0.1993
  729MPD2    C510829   4.010   0.609  16.965 -0.3421 -0.0038  0.1456
  729MPD2     H10830   4.030   0.241  17.019 -2.3254 -0.8072  0.1958
  729MPD2    H110831   3.973   0.636  17.172 -1.6486 -1.2403  1.2204
  729MPD2    H210832   4.043   0.585  16.757 -0.0440 -3.0568 -1.3155
  729MPD2    H310833   4.005   0.716  16.948  1.3645 -0.2576 -1.9619
  729MPD2     N10834   3.982   0.388  17.255 -0.6422  0.4323 -0.3613
  729MPD2    H510835   3.932   0.459  17.308 -1.1113 -0.4363  0.3551
  729MPD2    N110836   4.086   0.314  16.764  0.1557  0.2079  0.3515
  729MPD2    H710837   4.084   0.347  16.668  2.2603 -3.0036 -0.8164
  730TMC3    C110838   4.015   0.253  17.437  1.1101 -0.6964 -0.6024
  730TMC3    C210839   4.139   0.202  17.466  0.0244 -0.0893  0.7094
  730TMC3    C310840   4.208   0.291  17.539 -0.1379  0.6561  0.3529
  730TMC3    C410841   3.952   0.357  17.500 -0.3483 -1.1619 -0.5214
  730TMC3    C510842   4.023   0.437  17.585  0.2654  0.4026  0.0095
  730TMC3    C610843   4.150   0.398  17.605  0.1492  0.0824 -1.0278
  730TMC3     C10844   4.008   0.258  17.299 -0.4490  0.5683  0.1621
  730TMC3     O10845   4.062   0.165  17.238 -0.2659  0.4782 -0.6121
  730TMC3     H10846   4.190   0.126  17.408 -1.5547 -0.7785  0.2110
  730TMC3    H110847   3.850   0.389  17.480 -0.2749 -0.8457 -0.3829
  730TMC3    H210848   4.216   0.443  17.678 -0.0492 -0.4316 -0.5336
  730TMC3    C710849   4.016   0.579  17.545 -0.1365  0.1836  0.1256
  730TMC3    C810850   4.331   0.329  17.473 -0.2435 -0.3926 -0.8537
  730TMC3    O110851   3.941   0.598  17.448 -0.1297  0.2466  0.6989
  730TMC3    O210852   4.411   0.246  17.430  0.0290 -0.0485 -0.0791
  731MPD2     C10853   4.104   3.233  11.496  0.0261  0.0551 -0.4584
  731MPD2    C110854   3.980   3.203  11.545 -0.4183 -0.1951 -0.1855
  731MPD2    C210855   3.934   3.266  11.665 -0.0941 -0.0765 -0.1030
  731MPD2    C310856   4.015   3.365  11.724 -0.8495  0.0799  0.6868
  731MPD2    C410857   4.142   3.389  11.679  0.6997 -0.1418 -1.7826
  731MPD2    C510858   4.187   3.325  11.562 -1.2020 -0.0669 -0.2793
  731MPD2     H10859   3.835   3.237  11.699  0.4769  0.3843  1.9458
  731MPD2    H110860   4.207   3.467  11.717 -0.9847 -0.1627  1.1505
  731MPD2    H210861   4.141   3.185  11.406 -0.6360  0.4476 -0.9369
  731MPD2    H310862   4.287   3.349  11.527 -1.4793  0.2629 -0.8440
  731MPD2     N10863   3.966   3.424  11.845  0.2754 -0.5899  0.5368
  731MPD2    H510864   3.878   3.389  11.880 -0.3687  0.0665 -0.4248
  731MPD2    N110865   3.909   3.085  11.495  0.5630  0.2230 -0.1005
  731MPD2    H710866   3.960   3.025  11.431 -2.4538 -2.0512 -0.4008
  732TMC3    C110867   3.759   2.904  11.499  0.3320 -0.1342  1.1003
  732TMC3    C210868   3.633   2.870  11.460 -1.2169 -0.3032  0.1813
  732TMC3    C310869   3.590   2.744  11.476  0.0582  0.6613  0.8141
  732TMC3    C410870   3.837   2.814  11.553 -0.1879 -0.1639  0.0481
  732TMC3    C510871   3.797   2.682  11.554  0.5219  0.0360 -0.6643
  732TMC3    C610872   3.669   2.645  11.528  0.0611 -0.1691 -0.4303
  732TMC3     C10873   3.782   3.042  11.534  0.0398 -0.3901 -0.7496
  732TMC3     O10874   3.698   3.098  11.598  0.0015 -0.3848  0.3697
  732TMC3     H10875   3.560   2.946  11.435 -1.7241 -0.8696 -0.0347
  732TMC3    H110876   3.945   2.828  11.551 -0.0117 -1.5984 -0.9984
  732TMC3    H210877   3.625   2.547  11.542 -0.8643  0.1703 -0.9831
  732TMC3    C710878   3.901   2.589  11.603  0.1375  0.8329  0.9179
  732TMC3    C810879   3.454   2.735  11.511 -0.3099 -0.2853 -0.3379
  732TMC3    O110880   3.889   2.473  11.565 -0.3162 -0.7792  0.1607
  732TMC3    O210881   3.367   2.773  11.433 -0.0469  0.2016  0.1890
  733TMC3    C110882   0.736   1.398  13.651 -0.2764  0.8837  0.2472
  733TMC3    C210883   0.805   1.517  13.636 -0.1124  0.4632 -0.3214
  733TMC3    C310884   0.944   1.512  13.634 -0.3135 -0.1909 -0.3524
  733TMC3    C410885   0.791   1.279  13.620 -0.5808 -0.2565  0.6983
  733TMC3    C510886   0.926   1.275  13.610  0.8380  0.8509  0.5042
  733TMC3    C610887   1.003   1.388  13.628  0.1306  0.2165  0.0610
  733TMC3     C10888   0.587   1.410  13.652  0.5999 -0.3279 -0.3417
  733TMC3     O10889   0.545   1.510  13.597 -0.2956 -0.4592  0.1715
  733TMC3     H10890   0.755   1.612  13.642  1.0891  1.0559  0.3653
  733TMC3    H110891   0.736   1.186  13.609 -0.2425 -0.2384 -1.2274
  733TMC3    H210892   1.110   1.386  13.610 -0.2032  0.3986 -1.8615
  733TMC3    C710893   0.969   1.197  13.495  0.4806 -0.5413 -0.3670
  733TMC3    C810894   0.999   1.600  13.532 -0.9787 -0.5989  0.3852
  733TMC3    O110895   1.088   1.165  13.479 -0.4480 -0.0850 -0.3460
  733TMC3    O210896   1.115   1.625  13.537  0.7067 -0.0303 -1.0340
  734MPD2     C10897   2.748   3.942  12.147  0.4166  0.3515  0.3992
  734MPD2    C110898   2.647   3.851  12.163 -0.0229 -0.5073 -0.0824
  734MPD2    C210899   2.581   3.803  12.054  0.4604  0.2728 -0.5521
  734MPD2    C310900   2.618   3.844  11.930  1.1236 -0.0591  0.1639
  734MPD2    C410901   2.707   3.950  11.913  0.1551  0.9401 -0.5897
  734MPD2    C510902   2.773   4.004  12.026 -0.2049 -1.2367  0.5223
  734MPD2     H10903   2.509   3.722  12.063  0.2013  0.4595 -0.9570
  734MPD2    H110904   2.734   3.989  11.816  0.4719 -2.2531 -1.7934
  734MPD2    H210905   2.800   3.969  12.238  1.1572  0.5991 -0.0936
  734MPD2    H310906   2.857   4.072  12.020 -1.3532  0.2494  1.2442
  734MPD2     N10907   2.548   3.784  11.823 -0.2998  0.1368 -0.1362
  734MPD2    H510908   2.490   3.708  11.855  0.4826 -0.7012 -0.7039
  734MPD2    N110909   2.607   3.809  12.291 -0.3502 -0.4392 -0.5542
  734MPD2    H710910   2.666   3.820  12.373 -0.6539 -1.5924 -0.1698
  735TMC3    C110911   2.473   3.703  12.455 -0.8497 -0.1067  0.2686
  735TMC3    C210912   2.341   3.686  12.489  0.4070 -0.1343  0.2589
  735TMC3    C310913   2.298   3.566  12.540 -0.4682  0.3369 -0.5899
  735TMC3    C410914   2.561   3.599  12.466  0.1121 -0.9006 -0.1191
  735TMC3    C510915   2.514   3.481  12.515 -0.0912  0.4920  0.3156
  735TMC3    C610916   2.387   3.467  12.557 -0.2636  0.3756  0.6283
  735TMC3     C10917   2.480   3.775  12.326 -0.4832  0.3707 -0.3962
  735TMC3     O10918   2.376   3.774  12.266  0.1221 -0.1811  0.5858
  735TMC3     H10919   2.273   3.770  12.477  1.4369  0.3710 -2.1309
  735TMC3    H110920   2.668   3.601  12.445  0.0550  1.0444 -0.2723
  735TMC3    H210921   2.348   3.367  12.573  0.6712  0.1887  1.6943
  735TMC3    C710922   2.584   3.364  12.467 -0.6525 -0.0115  0.7591
  735TMC3    C810923   2.177   3.520  12.466  0.3390  0.6309 -0.3997
  735TMC3    O110924   2.662   3.380  12.377  0.5207  0.6576  0.3702
  735TMC3    O210925   2.122   3.414  12.489 -0.3622  0.2516 -0.0088
  736MPD2     C10926   2.541   3.012  12.569 -0.2130  0.0123 -0.1725
  736MPD2    C110927   2.572   3.120  12.489 -0.4217  0.2253 -0.2346
  736MPD2    C210928   2.623   3.092  12.364 -0.2638 -0.1109 -0.6267
  736MPD2    C310929   2.651   2.962  12.316 -0.6871  0.2138 -0.0165
  736MPD2    C410930   2.627   2.854  12.403  0.2054 -0.1567 -0.6096
  736MPD2    C510931   2.573   2.883  12.524  0.3501  0.1358  0.2231
  736MPD2     H10932   2.623   3.173  12.291 -0.3564  2.9290  2.7738
  736MPD2    H110933   2.629   2.752  12.367  1.3045 -0.9613  1.7230
  736MPD2    H210934   2.506   3.018  12.671  1.4464  1.6145  0.3069
  736MPD2    H310935   2.535   2.802  12.585 -2.0204  2.0645  1.3191
  736MPD2     N10936   2.708   2.935  12.187 -0.0781 -0.4457  0.2815
  736MPD2    H510937   2.718   2.836  12.169  0.4072 -0.2902 -0.2873
  736MPD2    N110938   2.538   3.246  12.526 -0.3752  0.1582 -0.7322
  736MPD2    H710939   2.483   3.253  12.611 -1.3194 -0.8718 -1.2686
  737TMC3    C110940   2.745   3.006  11.962  0.2298  0.2630  0.1192
  737TMC3    C210941   2.658   3.089  11.886 -0.5105 -0.3608  0.8011
  737TMC3    C310942   2.615   3.034  11.770  0.8303 -0.5880 -0.3675
  737TMC3    C410943   2.772   2.879  11.933 -0.9197 -0.6480  0.1149
  737TMC3    C510944   2.717   2.837  11.810 -0.3722 -0.7261  0.0061
  737TMC3    C610945   2.639   2.912  11.731  0.1163 -0.0524 -0.3433
  737TMC3     C10946   2.730   3.035  12.096  0.0090 -0.6471  0.5230
  737TMC3     O10947   2.746   3.155  12.119  0.3623  0.0720 -0.4386
  737TMC3     H10948   2.623   3.189  11.909 -0.2218 -0.4580  1.6418
  737TMC3    H110949   2.833   2.809  11.989  0.0874  0.9171  0.9662
  737TMC3    H210950   2.596   2.863  11.645  1.3465 -2.2115  0.2581
  737TMC3    C710951   2.790   2.736  11.739 -0.0875  0.1002 -0.0300
  737TMC3    C810952   2.554   3.117  11.672  0.1796  0.0013 -0.8928
  737TMC3    O110953   2.810   2.631  11.799 -0.0490  0.0164 -0.0017
  737TMC3    O210954   2.491   3.051  11.590  0.4344  0.0745 -0.0009
  738MPD2     C10955   3.240   2.588  15.250  0.4980 -0.4174 -1.0280
  738MPD2    C110956   3.296   2.488  15.173 -0.0272 -0.2017  0.0049
  738MPD2    C210957   3.421   2.506  15.120  0.1480  0.0671 -0.7846
  738MPD2    C310958   3.499   2.620  15.157  0.1139  0.1908 -0.5527
  738MPD2    C410959   3.446   2.717  15.235  0.4996 -0.9054 -0.0781
  738MPD2    C510960   3.317   2.704  15.272  0.3661 -0.0407 -0.7642
  738MPD2     H10961   3.462   2.434  15.051  1.7189  1.2003 -1.0411
  738MPD2    H110962   3.487   2.816  15.252 -0.2352 -1.0303  2.3381
  738MPD2    H210963   3.133   2.585  15.271  1.1729  1.4717  2.6555
  738MPD2    H310964   3.268   2.785  15.326  0.7944 -1.8558  2.3122
  738MPD2     N10965   3.630   2.629  15.110  0.4958  0.3549  0.3611
  738MPD2    H510966   3.664   2.549  15.058 -1.1593  0.0411 -0.2195
  738MPD2    N110967   3.239   2.359  15.143  0.5227 -0.5153 -0.0450
  738MPD2    H710968   3.287   2.291  15.085 -0.8313 -2.0340  0.6064
  739TMC3    C110969   3.818   2.733  15.033 -0.6718 -0.1866  0.1894
  739TMC3    C210970   3.812   2.646  14.935 -0.1523 -0.2946 -0.1050
  739TMC3    C310971   3.835   2.678  14.806 -1.1530 -0.5403  0.5791
  739TMC3    C410972   3.860   2.859  15.011  0.4535  0.0976  0.1846
  739TMC3    C510973   3.883   2.894  14.881 -0.1227 -0.6899  0.1968
  739TMC3    C610974   3.870   2.806  14.774 -0.7003 -0.2684 -0.5086
  739TMC3     C10975   3.714   2.733  15.129 -0.0332  0.3778 -0.1001
  739TMC3     O10976   3.701   2.833  15.192  0.1887 -0.1338  0.4161
  739TMC3     H10977   3.799   2.539  14.949  3.3863 -0.7913 -0.7091
  739TMC3    H110978   3.882   2.926  15.094  0.6482  0.9890 -0.5891
  739TMC3    H210979   3.901   2.838  14.675  1.3038 -1.0019 -0.1177
  739TMC3    C710980   3.845   3.030  14.851 -1.3587  0.6216  0.6146
  739TMC3    C810981   3.781   2.585  14.699 -0.3661  0.8736  0.1487
  739TMC3    O110982   3.832   3.055  14.735  0.6978 -0.5025  0.1663
  739TMC3    O210983   3.704   2.494  14.733  0.2410 -0.2693  0.5361
  740TMC3    C110984   3.791   3.979  14.200 -0.6310 -0.3470 -0.0821
  740TMC3    C210985   3.893   3.997  14.288 -0.0436 -0.5451 -0.0495
  740TMC3    C310986   4.023   3.976  14.245 -0.2878  0.7677  0.5004
  740TMC3    C410987   3.820   3.949  14.069  0.7799  0.0749  0.0661
  740TMC3    C510988   3.949   3.934  14.023  0.2419 -1.5068 -0.6025
  740TMC3    C610989   4.050   3.944  14.112 -0.4394 -0.2519 -0.2877
  740TMC3     C10990   3.647   3.997  14.235 -0.3771  0.0040 -0.9567
  740TMC3     O10991   3.582   4.057  14.150 -0.6867  0.0250  0.4395
  740TMC3     H10992   3.869   4.018  14.391 -0.1872  0.3869 -0.2742
  740TMC3    H110993   3.732   3.923  14.012  1.0417 -0.1227 -0.2477
  740TMC3    H210994   4.151   3.925  14.079  0.1033  0.6560  0.8302
  740TMC3    C710995   3.981   3.876  13.897  0.5596  0.3055 -0.3345
  740TMC3    C810996   4.128   3.984  14.340 -0.2896 -0.1901 -0.4133
  740TMC3    O110997   4.084   3.811  13.878 -0.6161 -0.3777  0.3557
  740TMC3    O210998   4.240   4.000  14.291  0.5013 -0.4313  0.3755
  741TMC3    C110999   3.483   3.268  13.894 -0.4461  0.4350 -0.3523
  741TMC3    C211000   3.391   3.218  13.977  0.1689 -0.3195 -0.3425
  741TMC3    C311001   3.432   3.152  14.082 -0.2718 -0.2930  0.7944
  741TMC3    C411002   3.616   3.262  13.921  0.0521 -0.0506 -0.4802
  741TMC3    C511003   3.660   3.197  14.038 -0.5966 -0.1800  1.3483
  741TMC3    C611004   3.568   3.139  14.118  0.7873  0.1513 -0.5494
  741TMC3     C11005   3.441   3.356  13.792  0.1981 -0.2871  0.4461
  741TMC3     O11006   3.510   3.355  13.690 -0.3439  0.3871 -0.0054
  741TMC3     H11007   3.287   3.233  13.951 -0.5719 -1.2529  2.1411
  741TMC3    H111008   3.678   3.313  13.848  1.9831 -1.2196  0.3378
  741TMC3    H211009   3.598   3.091  14.211 -0.4358  0.4891  0.0267
  741TMC3    C711010   3.802   3.189  14.076  0.5244 -0.5817  0.3861
  741TMC3    C811011   3.335   3.133  14.185 -0.1847  0.5083 -0.3505
  741TMC3    O111012   3.822   3.180  14.197  0.0435  0.4778  0.2591
  741TMC3    O211013   3.246   3.217  14.170 -0.3758 -0.1070 -0.8793
  742TMC3    C111014   3.388   1.458  15.490 -0.0349  0.3225  0.1393
  742TMC3    C211015   3.332   1.445  15.367  0.0823 -0.2415 -0.0494
  742TMC3    C311016   3.388   1.522  15.261  0.0068  0.6666 -0.6909
  742TMC3    C411017   3.492   1.541  15.507 -0.2303  0.4152  0.0569
  742TMC3    C511018   3.536   1.628  15.407  0.1789  0.0959  0.0368
  742TMC3    C611019   3.497   1.604  15.281 -0.0598 -0.0402  0.6898
  742TMC3     C11020   3.331   1.390  15.604  0.4676  0.4218  0.0704
  742TMC3     O11021   3.344   1.444  15.714  0.7911  0.0164  0.1331
  742TMC3     H11022   3.240   1.389  15.355 -0.4861  0.2685  1.8181
  742TMC3    H111023   3.542   1.547  15.602 -2.3199 -0.4627  1.2179
  742TMC3    H211024   3.528   1.672  15.203 -1.2912  1.7715  1.7831
  742TMC3    C711025   3.676   1.642  15.405  0.1028 -0.5386 -0.3407
  742TMC3    C811026   3.345   1.490  15.131  0.4555 -0.3110 -0.1323
  742TMC3    O111027   3.732   1.572  15.320 -0.8850 -0.0163 -1.0322
  742TMC3    O211028   3.285   1.385  15.110 -0.1627 -0.4571 -0.2012
  743MPD2     C11029   1.868   3.483   1.583  0.1856 -0.3868  0.5258
  743MPD2    C111030   1.890   3.415   1.460  0.3041 -0.4570  0.8761
  743MPD2    C211031   2.012   3.355   1.432  0.4572  0.1811  0.2498
  743MPD2    C311032   2.112   3.366   1.527  0.3259 -0.0045 -0.1298
  743MPD2    C411033   2.092   3.427   1.646  0.2130 -0.4255  0.3806
  743MPD2    C511034   1.969   3.486   1.669  1.2366 -0.1137  0.6217
  743MPD2     H11035   2.032   3.314   1.334  0.4589 -3.2873  1.6942
  743MPD2    H111036   2.166   3.440   1.724  0.4910 -0.0620  0.0571
  743MPD2    H211037   1.765   3.506   1.606  1.2903  2.4031  2.7017
  743MPD2    H311038   1.952   3.544   1.759  0.7437 -0.7402  0.9328
  743MPD2     N11039   2.226   3.290   1.495 -0.8470  0.6493 -0.2709
  743MPD2    H511040   2.222   3.225   1.417  1.1402 -3.5148  3.0924
  743MPD2    N111041   1.783   3.404   1.367 -0.2755 -0.3443  0.1601
  743MPD2    H711042   1.701   3.455   1.400  0.4339  2.0263 -1.6755
  744TMC3    C111043   1.643   3.347   1.195 -0.8446  0.3726  0.2413
  744TMC3    C211044   1.562   3.450   1.233  0.3317  0.2953 -0.1835
  744TMC3    C311045   1.447   3.461   1.153 -0.4653 -0.6104 -0.4839
  744TMC3    C411046   1.609   3.251   1.096  0.4822 -0.1567  0.4270
  744TMC3    C511047   1.490   3.263   1.030  0.3619  0.1936  0.4078
  744TMC3    C611048   1.413   3.378   1.047  0.2948 -0.5431 -1.3642
  744TMC3     C11049   1.778   3.339   1.247  0.0289 -0.1092 -0.7976
  744TMC3     O11050   1.849   3.261   1.190  0.4912  0.3511  0.1675
  744TMC3     H11051   1.581   3.518   1.316  1.1698  0.9776 -0.9276
  744TMC3    H111052   1.680   3.174   1.066 -1.0248 -0.9287 -1.1849
  744TMC3    H211053   1.326   3.398   0.986  1.3471  2.7305 -1.7397
  744TMC3    C711054   1.452   3.179   0.919 -0.1858  0.2599  0.2706
  744TMC3    C811055   1.361   3.582   1.161  0.1439  0.4416  0.1828
  744TMC3    O111056   1.344   3.201   0.868 -0.1415  0.5227 -0.2577
  744TMC3    O211057   1.244   3.552   1.139 -0.1726 -0.3394  1.0884
  745TMC3    C111058   4.072   1.049  13.948  0.2658 -0.2485 -0.4207
  745TMC3    C211059   3.964   0.999  14.017  0.2261 -0.8491  0.3263
  745TMC3    C311060   3.839   1.046  13.976  1.0200  0.2748 -0.3220
  745TMC3    C411061   4.060   1.119  13.836 -0.1186 -0.4509 -0.5209
  745TMC3    C511062   3.934   1.162  13.795  0.0118 -0.6842 -0.0399
  745TMC3    C611063   3.820   1.114  13.860 -0.2669  0.5994  0.2431
  745TMC3     C11064   4.169   1.104  14.040  0.2247  0.0160 -0.5951
  745TMC3     O11065   4.186   1.051  14.148 -0.1601 -0.2914 -0.6595
  745TMC3     H11066   3.983   0.955  14.115 -0.5718 -2.1388 -0.0851
  745TMC3    H111067   4.147   1.137  13.774  0.3621  0.4953  0.4326
  745TMC3    H211068   3.720   1.140  13.827 -0.4486  1.3457  1.3945
  745TMC3    C711069   3.923   1.174  13.654 -0.4533  0.6445 -0.3808
  745TMC3    C811070   3.780   1.130  14.079 -0.0250 -0.3463  0.3271
  745TMC3    O111071   3.825   1.134  13.597  0.1160  0.3345 -0.1994
  745TMC3    O211072   3.663   1.159  14.083  0.4612  0.0152  0.8480
  746TMC3    C111073   0.805   2.369  10.876 -0.4472  0.1325  0.6460
  746TMC3    C211074   0.910   2.354  10.786  0.3171 -0.0744 -0.3224
  746TMC3    C311075   0.934   2.223  10.746 -0.6134  0.5855  0.0494
  746TMC3    C411076   0.732   2.267  10.929  0.7148 -0.7927  0.8657
  746TMC3    C511077   0.759   2.143  10.877  0.8083  0.1794 -0.2774
  746TMC3    C611078   0.861   2.114  10.788 -0.9113 -0.3819 -0.2095
  746TMC3     C11079   0.743   2.503  10.899 -0.1297  0.3369  0.1648
  746TMC3     O11080   0.651   2.511  10.979  0.2576 -0.4861  0.1032
  746TMC3     H11081   0.966   2.441  10.754 -1.3417  1.3047  0.5248
  746TMC3    H111082   0.636   2.288  10.976 -0.4398  0.6776 -2.2137
  746TMC3    H211083   0.889   2.013  10.762  1.9262  0.4941 -0.4989
  746TMC3    C711084   0.653   2.046  10.873 -0.6096 -0.2187 -0.8513
  746TMC3    C811085   1.023   2.195  10.636  0.4027 -0.1346  0.3054
  746TMC3    O111086   0.653   1.965  10.782 -0.1438  0.2376 -0.3612
  746TMC3    O211087   1.075   2.085  10.639 -0.0767  0.1284  0.4471
  747TMC3    C111088   3.280   2.927  10.834  0.0494 -0.0638 -0.8459
  747TMC3    C211089   3.199   2.830  10.901 -0.4718  0.3339 -0.5105
  747TMC3    C311090   3.212   2.829  11.037  0.7906  0.4886 -0.1307
  747TMC3    C411091   3.353   3.014  10.917 -0.5459 -0.4153 -0.3129
  747TMC3    C511092   3.367   2.999  11.049 -0.0904 -0.3461  0.1303
  747TMC3    C611093   3.288   2.914  11.119  0.3027 -0.3743  0.4226
  747TMC3     C11094   3.298   2.941  10.693 -0.1717  0.0670 -0.0684
  747TMC3     O11095   3.368   3.034  10.655  0.3729 -0.5724 -0.5435
  747TMC3     H11096   3.145   2.753  10.848 -1.3709 -0.6524  1.8870
  747TMC3    H111097   3.403   3.099  10.874  0.8321 -0.6757  0.7829
  747TMC3    H211098   3.300   2.899  11.225  1.1227 -1.8466  0.1289
  747TMC3    C711099   3.480   3.063  11.118  0.0228 -0.7561 -0.8882
  747TMC3    C811100   3.143   2.722  11.103  0.4904 -0.8203 -0.0910
  747TMC3    O111101   3.470   3.118  11.229 -0.5071 -0.0919  0.4853
  747TMC3    O211102   3.136   2.610  11.052 -0.6695  0.4856 -0.1054
  748MPD2     C11103   0.561   4.005   0.754  0.4347 -0.1509  0.5861
  748MPD2    C111104   0.682   3.962   0.705 -0.5227  0.3076 -0.3182
  748MPD2    C211105   0.798   4.034   0.726 -0.1081  0.2595  0.2959
  748MPD2    C311106   0.790   4.158   0.779  0.8816 -0.6353 -0.1614
  748MPD2    C411107   0.667   4.206   0.819 -0.1397 -0.5912  0.0906
  748MPD2    C511108   0.551   4.133   0.810  0.1980 -0.2405  0.5044
  748MPD2     H11109   0.892   4.002   0.683 -0.0868  0.9582 -0.1701
  748MPD2    H111110   0.664   4.298   0.875 -0.1668  0.1907 -1.2004
  748MPD2    H211111   0.477   3.941   0.732  0.0845  1.1857 -1.9881
  748MPD2    H311112   0.455   4.169   0.843 -1.4139 -2.2303 -2.0204
  748MPD2     N11113   0.904   4.239   0.806  0.1139  0.0296 -0.0346
  748MPD2    H511114   0.995   4.197   0.792  0.3697  0.5225  0.1465
  748MPD2    N111115   0.674   3.840   0.635  0.7947  0.0287  0.5876
  748MPD2    H711116   0.582   3.798   0.637  1.3520 -1.2383 -0.2363
  749TMC3    C111117   1.035   4.414   0.856  0.0482 -0.8531  0.3688
  749TMC3    C211118   1.122   4.336   0.928 -0.0592 -0.3742  0.3459
  749TMC3    C311119   1.235   4.397   0.970  0.4044 -0.4245 -0.1836
  749TMC3    C411120   1.061   4.544   0.820  0.4822  0.0027  0.0121
  749TMC3    C511121   1.176   4.602   0.863  0.7247 -0.0056 -0.7361
  749TMC3    C611122   1.265   4.528   0.937 -0.0704 -0.2724  0.2753
  749TMC3     C11123   0.904   4.376   0.832  0.2684  0.3915  0.4773
  749TMC3     O11124   0.813   4.461   0.839 -0.5141 -0.1919 -0.2187
  749TMC3     H11125   1.090   4.237   0.957 -1.2259 -0.3797 -0.9580
  749TMC3    H111126   0.987   4.605   0.770  2.2842  2.3246  0.1546
  749TMC3    H211127   1.362   4.570   0.962 -0.2294  0.4972 -0.3953
  749TMC3    C711128   1.218   4.728   0.800  0.1559 -0.4117  0.6398
  749TMC3    C811129   1.346   4.316   1.024 -0.0721  0.3081  0.0720
  749TMC3    O111130   1.287   0.072   0.859 -0.4743  0.6026 -0.1782
  749TMC3    O211131   1.427   4.383   1.085 -0.2136  0.3829  0.1779
  750MPD2     C11132   1.329   4.438  11.125 -0.6495 -0.1893  0.1237
  750MPD2    C111133   1.188   4.431  11.125 -0.3570 -0.6485 -0.0603
  750MPD2    C211134   1.120   4.319  11.077 -0.0419 -0.0143  0.5527
  750MPD2    C311135   1.189   4.213  11.028 -0.0671 -0.2629  1.1964
  750MPD2    C411136   1.321   4.228  11.015 -0.0758  0.0651  0.5403
  750MPD2    C511137   1.392   4.326  11.080 -0.1875  0.0413 -0.4442
  750MPD2     H11138   1.013   4.303  11.079 -0.4257  2.2596 -0.8818
  750MPD2    H111139   1.372   4.140  10.977 -2.4230 -0.7652 -0.7174
  750MPD2    H211140   1.391   4.524  11.151 -0.9988  0.0227  0.2495
  750MPD2    H311141   1.500   4.318  11.077  0.0368  1.9116  2.7725
  750MPD2     N11142   1.128   4.097  10.966 -0.2134  0.3781 -0.1081
  750MPD2    H511143   1.197   4.028  10.937 -3.5964 -2.5727 -1.1416
  750MPD2    N111144   1.119   4.545  11.165  0.3204 -0.0232  0.5538
  750MPD2    H711145   1.173   4.629  11.184  1.5035 -0.0560 -2.6996
  751TMC3    C111146   0.984   3.914  10.921 -0.4232 -0.2831  0.1225
  751TMC3    C211147   0.868   3.850  10.949  0.5794  0.3576  0.0435
  751TMC3    C311148   0.861   3.720  10.901  0.2546  0.2394 -0.2037
  751TMC3    C411149   1.097   3.850  10.869  0.3678 -0.0721 -0.3170
  751TMC3    C511150   1.083   3.719  10.834  0.2337  0.6211  0.0834
  751TMC3    C611151   0.969   3.653  10.845  0.0896 -0.1409  0.2827
  751TMC3     C11152   1.001   4.047  10.979  0.2364 -0.2122  0.6833
  751TMC3     O11153   0.899   4.099  11.030 -0.2679 -0.2562 -0.0905
  751TMC3     H11154   0.785   3.908  10.989 -0.6948  0.4924 -2.7344
  751TMC3    H111155   1.198   3.888  10.863  0.9763 -1.9773 -1.8153
  751TMC3    H211156   0.975   3.549  10.814 -0.9616 -0.0516 -0.2281
  751TMC3    C711157   1.212   3.652  10.793  0.4412  0.9859 -0.8372
  751TMC3    C811158   0.742   3.641  10.933  0.6486  0.6367  0.1450
  751TMC3    O111159   1.309   3.712  10.748  0.5297 -0.5776 -0.0531
  751TMC3    O211160   0.754   3.517  10.935  0.3351  0.1716 -0.2432
  752TMC3    C111161   0.024   0.039  17.428 -0.6229  0.5606 -0.2851
  752TMC3    C211162   0.077   0.006  17.545  0.8828  0.6150 -0.1052
  752TMC3    C311163   0.102   0.108  17.629  0.1789 -0.6896  0.3128
  752TMC3    C411164   4.725   0.164  17.386 -0.1952 -0.1106  0.1095
  752TMC3    C511165   0.007   0.270  17.478  0.1498  0.3241 -0.1730
  752TMC3    C611166   0.067   0.239  17.597  0.1581 -0.3974  0.3163
  752TMC3     C11167   0.039   4.675  17.322  0.6692 -1.0057 -0.1885
  752TMC3     O11168   0.130   4.592  17.338  0.5554 -0.0003  0.0440
  752TMC3     H11169   0.109   4.642  17.575 -1.5840 -1.0141 -2.8946
  752TMC3    H111170   4.680   0.187  17.290  1.5580 -1.8630 -1.1350
  752TMC3    H211171   0.101   0.316  17.666 -1.1845  0.1483  0.3795
  752TMC3    C711172   0.019   0.403  17.426 -0.3743  1.3408 -0.1480
  752TMC3    C811173   0.222   0.095  17.713 -0.1645 -0.2858 -0.0265
  752TMC3    O111174   0.030   0.415  17.300  0.2813 -0.0875 -0.8688
  752TMC3    O211175   0.283   0.196   0.005 -0.2760 -0.5183  0.9049
  753TMC3    C111176   2.260   1.530  13.287  0.2358 -0.3200  0.4329
  753TMC3    C211177   2.345   1.478  13.383 -0.8162  0.8880 -0.2150
  753TMC3    C311178   2.345   1.346  13.415 -0.2871  0.3158  0.9670
  753TMC3    C411179   2.170   1.446  13.223 -0.3795 -0.3419 -0.2186
  753TMC3    C511180   2.183   1.311  13.252  0.1806  0.5756 -0.3221
  753TMC3    C611181   2.273   1.257  13.343 -0.3438 -0.4769  0.0471
  753TMC3     C11182   2.229   1.675  13.277 -0.2605  0.3776  0.1146
  753TMC3     O11183   2.118   1.704  13.234  0.5107 -0.0657  0.1817
  753TMC3     H11184   2.412   1.545  13.436  0.4371  0.3157 -1.0550
  753TMC3    H111185   2.108   1.489  13.145 -0.0751  0.4065 -0.0490
  753TMC3    H211186   2.276   1.153  13.370  1.5124 -0.5462 -0.3755
  753TMC3    C711187   2.126   1.213  13.170  0.3530  0.5636  0.0126
  753TMC3    C811188   2.427   1.296  13.526 -0.2203  0.0356 -0.4818
  753TMC3    O111189   2.087   1.245  13.057 -0.5046  0.0110  0.2449
  753TMC3    O211190   2.454   1.174  13.531  0.1895  0.3468 -0.0567
  754MPD2     C11191   0.502   3.778  12.460 -0.3640 -0.2758 -0.8160
  754MPD2    C111192   0.502   3.879  12.545  0.2286  0.3725  0.0593
  754MPD2    C211193   0.490   4.004  12.488 -0.2023  0.1801 -0.7340
  754MPD2    C311194   0.478   4.014  12.350 -1.2855  0.1122 -0.1275
  754MPD2    C411195   0.479   3.904  12.266  0.3495  0.4006  0.3510
  754MPD2    C511196   0.509   3.784  12.322 -0.2127  0.0096 -0.2164
  754MPD2     H11197   0.490   4.095  12.547 -1.4565 -0.7842  0.7496
  754MPD2    H111198   0.462   3.914  12.159 -1.8685  0.1706  0.6789
  754MPD2    H211199   0.523   3.681  12.504 -0.9829 -0.1604 -0.2538
  754MPD2    H311200   0.516   3.698  12.257  1.2638 -1.6262  2.0967
  754MPD2     N11201   0.453   4.138  12.286 -0.1516  0.2951 -0.5130
  754MPD2    H511202   0.462   4.139  12.185 -1.7424 -1.1929 -0.6564
  754MPD2    N111203   0.511   3.861  12.687 -0.7068 -0.0692  0.4352
  754MPD2    H711204   0.522   3.765  12.719 -2.5200 -0.0263  1.2055
  755MPD2     C11205   0.238   4.563  13.019 -0.4258  0.2701  0.2451
  755MPD2    C111206   0.136   4.512  12.952 -1.2177 -0.4022  0.0955
  755MPD2    C211207   0.149   4.499  12.813 -0.3649  0.4426  0.0529
  755MPD2    C311208   0.258   4.538  12.741  0.1880 -0.3037 -0.4679
  755MPD2    C411209   0.363   4.584  12.823  0.1897 -0.7045 -0.4293
  755MPD2    C511210   0.349   4.597  12.956  0.0117  0.4072 -0.3625
  755MPD2     H11211   0.060   4.471  12.757  0.1548 -0.2941 -0.4132
  755MPD2    H111212   0.453   4.621  12.775  0.4329 -1.6766 -0.7161
  755MPD2    H211213   0.238   4.585  13.125 -0.5928 -2.4739  0.8144
  755MPD2    H311214   0.436   4.636  13.007 -0.0349 -0.4460  0.3760
  755MPD2     N11215   0.274   4.538  12.598 -0.2433  0.1643 -0.1354
  755MPD2    H511216   0.365   4.569  12.567 -0.1459 -1.8603 -1.9173
  755MPD2    N111217   0.012   4.479  13.004 -0.2189 -0.2671 -0.0069
  755MPD2    H711218   4.676   4.455  12.937 -1.3400 -0.1960  1.1823
  756MPD2     C11219   0.773   0.550   9.421 -0.4391  0.0550 -0.2973
  756MPD2    C111220   0.683   0.477   9.487 -0.1861  0.0445  0.0415
  756MPD2    C211221   0.571   0.436   9.419 -0.3031 -0.3034 -0.7490
  756MPD2    C311222   0.535   0.490   9.294  0.0350  0.3464  0.4201
  756MPD2    C411223   0.629   0.564   9.229  0.4107 -0.6348  0.3562
  756MPD2    C511224   0.745   0.589   9.295  0.3069  0.0218  0.0869
  756MPD2     H11225   0.499   0.373   9.469  0.0979 -0.0213  0.1810
  756MPD2    H111226   0.613   0.597   9.127  0.9171  1.5227  0.9825
  756MPD2    H211227   0.868   0.586   9.459  0.1737 -0.4817 -1.3223
  756MPD2    H311228   0.810   0.657   9.241  0.8308 -1.9065 -1.7248
  756MPD2     N11229   0.413   0.454   9.229 -0.5071 -0.1858  1.1278
  756MPD2    H511230   0.373   0.369   9.268  1.5395 -0.9880  1.4952
  756MPD2    N111231   0.700   0.446   9.622 -0.3154 -0.2587 -0.2573
  756MPD2    H711232   0.629   0.396   9.674  0.6197 -2.1151 -0.7737
  757MPD2     C11233   4.715   4.474   9.403  0.1464  0.7107  0.4575
  757MPD2    C111234   0.105   4.526   9.421 -0.4641 -0.1077  0.4157
  757MPD2    C211235   0.131   4.650   9.363 -0.4910 -0.1521 -0.2468
  757MPD2    C311236   0.039   4.724   9.301  0.1701 -0.3319  0.2931
  757MPD2    C411237   4.651   4.665   9.281  0.8040  0.3526 -0.1901
  757MPD2    C511238   4.622   4.541   9.334 -0.2486  1.0538  0.1840
  757MPD2     H11239   0.225   4.696   9.390 -2.4215  3.6440  0.0488
  757MPD2    H111240   4.567   4.717   9.238  0.7864  0.2814 -0.2406
  757MPD2    H211241   4.690   4.379   9.449  0.9448 -0.6842 -1.9926
  757MPD2    H311242   4.524   4.498   9.317 -0.3289  1.4393 -0.3448
  757MPD2     N11243   0.076   0.120   9.256 -0.0837 -0.1053  0.2478
  757MPD2    H511244   0.172   0.148   9.272 -0.8818  2.4299  0.6190
  757MPD2    N111245   0.192   4.438   9.496 -0.2788 -0.0377 -0.0954
  757MPD2    H711246   0.154   4.360   9.548 -0.4887  0.9508  1.2496
  758MPD2     C11247   0.879   4.137  15.722 -0.1234  0.2573 -0.2921
  758MPD2    C111248   0.973   4.045  15.752  0.6923  0.1578  0.1585
  758MPD2    C211249   1.065   4.067  15.858 -0.2392 -0.3635 -0.7181
  758MPD2    C311250   1.049   4.182  15.936  0.0566  0.3550  0.0358
  758MPD2    C411251   0.964   4.284  15.897  0.2622 -0.3275 -0.3594
  758MPD2    C511252   0.878   4.259  15.796 -0.4365 -0.5043 -0.0493
  758MPD2     H11253   1.141   3.994  15.882 -0.7097 -0.7917 -0.5302
  758MPD2    H111254   0.978   4.380  15.944  1.9800 -1.3691  1.3020
  758MPD2    H211255   0.812   4.109  15.642 -1.1328  4.2897 -0.8746
  758MPD2    H311256   0.805   4.336  15.773  0.7153  0.2035 -1.2860
  758MPD2     N11257   1.131   4.221  16.039  0.5340 -0.3026 -0.3262
  758MPD2    H511258   1.108   4.311  16.080  0.0778 -0.8123  0.5384
  758MPD2    N111259   0.969   3.917  15.682  0.0248  0.3208  0.2438
  758MPD2    H711260   0.889   3.905  15.622  0.9459  0.7375 -1.0701
  759MPD2     C11261   4.607   2.210   9.617  0.4056  0.0588  0.4521
  759MPD2    C111262   4.556   2.091   9.574  0.5158  0.0183 -0.4139
  759MPD2    C211263   4.468   2.097   9.463  0.3077  0.5841 -0.2028
  759MPD2    C311264   4.442   2.216   9.397 -0.6425 -0.3536  0.2446
  759MPD2    C411265   4.491   2.336   9.449  0.5082 -0.4651 -0.1322
  759MPD2    C511266   4.570   2.331   9.555 -0.5680  0.7598 -0.6620
  759MPD2     H11267   4.420   2.008   9.424 -0.3301  0.7008  0.3034
  759MPD2    H111268   4.466   2.432   9.406 -0.2739 -0.9700 -0.8197
  759MPD2    H211269   4.670   2.216   9.705  0.0846 -0.5920  0.7261
  759MPD2    H311270   4.608   2.428   9.584 -1.3094  1.4965 -2.0964
  759MPD2     N11271   4.368   2.207   9.275  0.3424  0.0687  0.5737
  759MPD2    H511272   4.345   2.113   9.245  3.8600  0.1395 -2.4196
  759MPD2    N111273   4.586   1.963   9.633 -0.1747  0.3423 -0.4488
  759MPD2    H711274   4.542   1.878   9.602  1.5806 -0.3996 -0.8788
  760MPD2     C11275   4.153   4.334  11.856 -0.2078  0.4092  0.0320
  760MPD2    C111276   4.185   4.423  11.763 -0.2361  0.1013  0.5807
  760MPD2    C211277   4.222   4.375  11.638 -0.2981  0.5339  0.5972
  760MPD2    C311278   4.218   4.241  11.606  0.0169 -0.0153  0.6807
  760MPD2    C411279   4.197   4.153  11.708  0.4852 -0.4666 -0.3139
  760MPD2    C511280   4.162   4.199  11.832  0.0523 -0.0477 -0.2311
  760MPD2     H11281   4.242   4.450  11.562 -1.4852  2.4927  2.2103
  760MPD2    H111282   4.203   4.046  11.692 -0.9869 -0.3813 -1.3895
  760MPD2    H211283   4.117   4.363  11.954  1.2243  1.4340  0.2571
  760MPD2    H311284   4.134   4.128  11.909 -0.6465  0.4813  0.0063
  760MPD2     N11285   4.243   4.184  11.477 -0.2161 -0.0576  0.6976
  760MPD2    H511286   4.259   4.084  11.482 -1.4367 -0.3070 -0.2630
  760MPD2    N111287   4.172   4.560  11.784 -0.0111  0.2552 -0.1352
  760MPD2    H711288   4.189   4.621  11.704 -3.0877  0.1205 -0.8845
  761MPD2     C11289   0.244   3.535  10.946 -0.3424 -0.1053  0.0346
  761MPD2    C111290   0.352   3.464  10.907 -0.6338 -0.3620  0.1651
  761MPD2    C211291   0.477   3.526  10.902 -1.1040  0.5732  0.0725
  761MPD2    C311292   0.497   3.654  10.943 -0.0047 -0.0233 -0.3897
  761MPD2    C411293   0.385   3.722  10.984 -0.2699 -0.2305 -0.1101
  761MPD2    C511294   0.265   3.658  10.999 -0.2642  0.3011 -0.3197
  761MPD2     H11295   0.559   3.465  10.863 -1.0051  0.2524  0.7740
  761MPD2    H111296   0.386   3.822  11.026  2.7948 -0.7442  1.0673
  761MPD2    H211297   0.145   3.492  10.943 -0.3789 -0.1525  1.9712
  761MPD2    H311298   0.170   3.706  11.017 -1.1465 -0.5517 -2.7748
  761MPD2     N11299   0.624   3.712  10.945 -0.9709 -0.1856  0.3969
  761MPD2    H511300   0.627   3.813  10.954 -1.5476  0.0342 -1.8089
  761MPD2    N111301   0.359   3.335  10.850 -0.2339 -0.2799 -0.4671
  761MPD2    H711302   0.453   3.307  10.826  1.4795  3.8525  1.4928
  762MPD2     C11303   0.809   3.411  10.546  0.1038 -0.1262  0.2446
  762MPD2    C111304   0.760   3.299  10.483 -0.0358 -0.7770  0.3200
  762MPD2    C211305   0.843   3.222  10.395  1.3517 -0.4304  0.3205
  762MPD2    C311306   0.978   3.254  10.388  0.5281 -0.4306 -0.2909
  762MPD2    C411307   1.033   3.358  10.460 -0.2459 -0.0708 -0.4088
  762MPD2    C511308   0.946   3.434  10.535 -0.1393  0.3366  0.3421
  762MPD2     H11309   0.808   3.134  10.342  0.8307 -0.0618  0.0590
  762MPD2    H111310   1.139   3.379  10.457 -0.2826  0.1045 -0.5268
  762MPD2    H211311   0.752   3.475  10.613  3.1931  0.6197  2.1950
  762MPD2    H311312   0.991   3.523  10.576 -0.4062  0.3304  0.6539
  762MPD2     N11313   1.063   3.177  10.311 -0.5023 -0.0676  0.8259
  762MPD2    H511314   1.026   3.091  10.272  0.1232 -0.3671  0.8894
  762MPD2    N111315   0.624   3.277  10.516  0.1226  0.5427  0.0101
  762MPD2    H711316   0.579   3.342  10.580 -0.7376 -0.3797  0.3526
  763MPD2     C11317   3.138   0.022  16.046  0.5496  0.2385  0.1679
  763MPD2    C111318   3.029   0.068  15.976 -0.8518  0.5525 -0.6047
  763MPD2    C211319   3.000   0.200  15.969  0.7854  0.2178 -0.1479
  763MPD2    C311320   3.090   0.286  16.024 -0.1481  0.2160 -0.1448
  763MPD2    C411321   3.197   0.247  16.095  0.5378 -0.0837  0.1516
  763MPD2    C511322   3.216   0.113  16.106 -0.7680 -0.7889  0.4139
  763MPD2     H11323   2.927   0.244  15.903 -0.1985 -1.0488  0.1039
  763MPD2    H111324   3.268   0.321  16.130  1.8481 -1.0845 -0.3809
  763MPD2    H211325   3.183   4.659  16.049  0.2637  0.1278  0.7744
  763MPD2    H311326   3.319   0.092  16.135 -1.5156 -2.7072  1.6003
  763MPD2     N11327   3.079   0.431  16.022 -0.2960  0.0436  0.2765
  763MPD2    H511328   3.156   0.482  16.064 -1.1230  0.8830  0.7647
  763MPD2    N111329   2.951   4.706  15.911 -0.2658  0.1491  0.4020
  763MPD2    H711330   2.873   0.011  15.861 -0.0891  0.7375  0.6042
  764MPD2     C11331   1.107   1.234  17.356  0.1856 -0.0371 -0.1330
  764MPD2    C111332   0.998   1.317  17.338  0.2515 -0.2227 -0.2245
  764MPD2    C211333   0.945   1.383  17.449  0.2682  0.4834  0.5076
  764MPD2    C311334   0.995   1.365  17.572 -0.1959  0.1028 -0.2561
  764MPD2    C411335   1.092   1.276  17.590 -0.0455 -0.2596 -0.0174
  764MPD2    C511336   1.150   1.205  17.484 -0.4337  0.3618 -0.0281
  764MPD2     H11337   0.870   1.460  17.432  0.4103  0.5870  0.3412
  764MPD2    H111338   1.134   1.257  17.688  0.1307  2.2591  0.3901
  764MPD2    H211339   1.162   1.188  17.274  0.3425 -1.0343  0.5303
  764MPD2    H311340   1.224   1.131  17.508  1.7171  2.2128 -0.9426
  764MPD2     N11341   0.924   1.433  17.676 -0.4239 -0.7393  0.2317
  764MPD2    H511342   0.853   1.501  17.652 -0.7470 -1.2923 -0.3641
  764MPD2    N111343   0.939   1.348  17.212  0.3430  0.2499  0.3965
  764MPD2    H711344   0.855   1.404  17.226 -1.0937 -1.4320 -1.5057
  765MPD2     C11345   0.488   3.668  15.407  0.3526  0.4016  0.4550
  765MPD2    C111346   0.559   3.704  15.523 -0.0144  0.3971 -0.7676
  765MPD2    C211347   0.689   3.664  15.536 -0.1370  0.4672 -0.1112
  765MPD2    C311348   0.752   3.599  15.426 -0.1252 -0.2386 -0.5702
  765MPD2    C411349   0.674   3.557  15.320 -0.8694 -0.2140  0.2705
  765MPD2    C511350   0.545   3.586  15.311 -0.2040  1.1151 -0.4492
  765MPD2     H11351   0.751   3.691  15.621 -0.5862  0.8291  0.1011
  765MPD2    H111352   0.702   3.496  15.235  1.6856  1.0476  0.1932
  765MPD2    H211353   0.381   3.677  15.395  0.5705 -0.1606 -1.8032
  765MPD2    H311354   0.492   3.553  15.223 -0.5826  2.0648 -0.5739
  765MPD2     N11355   0.888   3.572  15.434  0.4001 -0.3626  0.7330
  765MPD2    H511356   0.928   3.583  15.527  0.2039 -3.3726  1.1881
  765MPD2    N111357   0.485   3.774  15.621  0.3475  0.5564 -0.1051
  765MPD2    H711358   0.386   3.789  15.608  0.1184  0.8136  1.8585
  766MPD2     C11359   4.658   4.071  15.348  0.1349 -0.9247  0.3510
  766MPD2    C111360   0.039   4.014  15.399  0.2311  0.2136  0.1640
  766MPD2    C211361   0.135   3.988  15.310 -0.2169  0.4647 -0.9796
  766MPD2    C311362   0.126   4.020  15.172  0.2878  0.4798  0.1094
  766MPD2    C411363   0.010   4.073  15.124  0.6676  0.3641  0.2201
  766MPD2    C511364   4.640   4.102  15.208  0.6343 -0.2223 -0.4110
  766MPD2     H11365   0.230   3.945  15.338 -0.1560  0.7356 -0.7770
  766MPD2    H111366   0.014   4.106  15.021 -0.0513 -1.3610 -0.3591
  766MPD2    H211367   4.594   4.113  15.425 -0.5914  0.1409 -0.8419
  766MPD2    H311368   4.552   4.153  15.172  1.0320  0.5212 -0.3277
  766MPD2     N11369   0.239   3.999  15.085 -0.8296  0.6158  0.4973
  766MPD2    H511370   0.238   4.046  14.994 -1.3159 -2.4827 -1.0881
  766MPD2    N111371   0.078   4.010  15.535  0.6265 -0.8769 -0.6112
  766MPD2    H711372   0.026   4.066  15.603  1.6274  0.2305 -0.7512
  767MPD2     C11373   4.622   4.401  14.681  0.0909 -0.2492 -0.2094
  767MPD2    C111374   0.005   4.351  14.734 -0.0477 -0.4361  0.1768
  767MPD2    C211375   0.066   4.247  14.666 -0.5402 -0.1769 -0.2333
  767MPD2    C311376   0.004   4.183  14.558 -0.3779 -0.0900  0.3113
  767MPD2    C411377   4.624   4.231  14.508 -0.7781 -0.7628 -0.4456
  767MPD2    C511378   4.562   4.342  14.568  0.2862 -0.2331  0.2518
  767MPD2     H11379   0.154   4.210  14.717 -0.6178 -0.2144 -0.1257
  767MPD2    H111380   4.567   4.188  14.426 -2.6941  0.6519  0.1431
  767MPD2    H211381   4.575   4.491  14.719 -1.1719 -0.9791 -0.0381
  767MPD2    H311382   4.470   4.378  14.524 -1.3318 -1.8821  2.3051
  767MPD2     N11383   0.078   4.068  14.497 -0.6263  0.2440 -0.2434
  767MPD2    H511384   0.162   4.039  14.547  0.0092  4.7481  1.2800
  767MPD2    N111385   0.044   4.405  14.859 -0.5313 -0.2646 -0.1575
  767MPD2    H711386   4.717   4.476  14.897  1.3097  2.2679 -1.8666
  768MPD2     C11387   0.704   1.900  10.351 -0.0099 -0.1548 -0.3202
  768MPD2    C111388   0.649   1.832  10.450 -0.3790 -0.1559 -0.7380
  768MPD2    C211389   0.732   1.783  10.549  0.1780  0.1841  0.0533
  768MPD2    C311390   0.868   1.815  10.550 -0.1722 -1.0535  0.2770
  768MPD2    C411391   0.915   1.894  10.453  0.3620 -0.0213 -0.0959
  768MPD2    C511392   0.837   1.943  10.356  0.2477 -0.3973 -0.5450
  768MPD2     H11393   0.681   1.742  10.635 -0.4016 -0.3394 -0.5400
  768MPD2    H111394   1.011   1.943  10.463 -1.2395  3.3808 -1.3063
  768MPD2    H211395   0.647   1.943  10.270 -0.5455  1.3371  0.8473
  768MPD2    H311396   0.881   2.000  10.275 -2.3754  2.3658 -0.0228
  768MPD2     N11397   0.958   1.775  10.652 -0.4361 -0.2480  0.1037
  768MPD2    H511398   1.054   1.808  10.653 -0.1722 -1.0716  2.1457
  768MPD2    N111399   0.511   1.802  10.454  0.2115  0.3769  0.0032
  768MPD2    H711400   0.477   1.767  10.543 -0.8591 -0.1737 -0.6214
  769MPD2     C11401   1.829   0.513  14.713 -0.0351 -0.2016 -0.4841
  769MPD2    C111402   1.774   0.615  14.787 -0.2276  0.2001 -0.4019
  769MPD2    C211403   1.835   0.655  14.905  0.0385  0.1628  0.3987
  769MPD2    C311404   1.945   0.587  14.954  0.4900 -0.4120 -0.0334
  769MPD2    C411405   2.000   0.484  14.873  0.4986  0.1955 -0.3295
  769MPD2    C511406   1.932   0.440  14.764  0.1413  0.4073  0.1574
  769MPD2     H11407   1.805   0.742  14.961 -0.1269 -0.2262  0.9139
  769MPD2    H111408   2.085   0.427  14.908  0.2462  1.5732  2.5323
  769MPD2    H211409   1.791   0.477  14.618 -1.2628 -1.0012  0.3037
  769MPD2    H311410   1.963   0.345  14.723 -1.4915  0.3550 -0.9709
  769MPD2     N11411   1.995   0.610  15.082  0.3724  0.0001  0.0461
  769MPD2    H511412   1.952   0.692  15.123  0.9633 -0.4117  1.4753
  769MPD2    N111413   1.669   0.689  14.725  0.7025  0.8432 -0.3177
  769MPD2    H711414   1.639   0.643  14.639 -1.3725 -0.6890  1.2261
  770MPD2     C11415   0.970   0.256  14.945 -0.4526  0.1626 -0.4979
  770MPD2    C111416   1.082   0.224  14.876 -0.2115 -0.1614 -0.9390
  770MPD2    C211417   1.146   0.331  14.798  0.0505  0.4668  0.9330
  770MPD2    C311418   1.094   0.462  14.797 -0.0317  0.3208 -0.0574
  770MPD2    C411419   0.975   0.481  14.863  0.6536  0.8088  0.1700
  770MPD2    C511420   0.915   0.380  14.933  0.6588 -0.3247 -0.2314
  770MPD2     H11421   1.241   0.304  14.751 -0.9387 -0.6853 -0.4333
  770MPD2    H111422   0.927   0.578  14.862 -0.8923  0.0327 -0.9217
  770MPD2    H211423   0.922   0.185  15.011 -2.1679  0.1434 -1.7740
  770MPD2    H311424   0.824   0.413  14.982  2.3097 -0.3291  2.8196
  770MPD2     N11425   1.168   0.565  14.730 -0.0576  0.0783  0.5320
  770MPD2    H511426   1.257   0.540  14.687  0.7520 -0.4840  2.5509
  770MPD2    N111427   1.129   0.094  14.884 -0.3415  0.5007 -0.2900
  770MPD2    H711428   1.086   0.034  14.953 -1.1191  0.2282 -1.0184
  771MPD2     C11429   2.304   3.328  13.529  0.0651  0.6979 -0.9350
  771MPD2    C111430   2.399   3.414  13.485 -0.8267  0.2951  0.0199
  771MPD2    C211431   2.470   3.383  13.371  0.0854 -0.0474 -0.3985
  771MPD2    C311432   2.464   3.263  13.312  0.0304  0.3554 -0.3192
  771MPD2    C411433   2.378   3.171  13.367  0.2922 -0.0961  1.0495
  771MPD2    C511434   2.295   3.205  13.465  0.5973  0.2988  0.2827
  771MPD2     H11435   2.543   3.452  13.331  0.6663 -0.5035 -0.1445
  771MPD2    H111436   2.364   3.069  13.335 -0.2742  0.5588 -0.8408
  771MPD2    H211437   2.236   3.355  13.609  2.1089  0.8792  0.7423
  771MPD2    H311438   2.220   3.132  13.493  0.5760 -0.2471 -1.2226
  771MPD2     N11439   2.545   3.245  13.202 -0.5013  0.5224 -0.1640
  771MPD2    H511440   2.616   3.317  13.195 -0.2666  0.2475 -0.6479
  771MPD2    N111441   2.420   3.540  13.538 -0.1088  0.1527  0.6202
  771MPD2    H711442   2.483   3.599  13.484  0.4569 -0.6284  0.4183
  772MPD2     C11443   2.200   4.128  14.151  0.1019  0.1181 -0.4850
  772MPD2    C111444   2.149   4.019  14.076  0.1107 -0.2056 -0.3595
  772MPD2    C211445   2.024   3.969  14.103 -0.0138 -0.9270 -0.1947
  772MPD2    C311446   1.949   4.032  14.202  0.1624 -0.2158 -0.2542
  772MPD2    C411447   1.994   4.142  14.260  1.1860 -0.0035  0.2234
  772MPD2    C511448   2.120   4.193  14.240  0.4927  0.0042  0.1307
  772MPD2     H11449   1.990   3.876  14.058  0.2837 -1.7483  1.2738
  772MPD2    H111450   1.932   4.181  14.340  0.7559  0.0020 -0.1155
  772MPD2    H211451   2.303   4.163  14.153  0.7212 -1.7014 -0.5194
  772MPD2    H311452   2.157   4.277  14.298 -1.0097 -0.1772  1.3723
  772MPD2     N11453   1.821   3.982  14.244  0.4793  0.5369 -1.2205
  772MPD2    H511454   1.781   4.033  14.322  0.3400 -1.9555  0.3298
  772MPD2    N111455   2.228   3.948  13.981 -0.4156 -0.5517  0.0858
  772MPD2    H711456   2.195   3.863  13.937 -1.9523 -1.1715  2.4560
  773MPD2     C11457   1.420   0.124   0.072  0.7173  0.7800  0.1299
  773MPD2    C111458   1.521   0.109  17.712  0.3567 -0.2764  0.1159
  773MPD2    C211459   1.597   4.734  17.698  0.4618 -0.3222  0.8314
  773MPD2    C311460   1.586   4.638   0.051 -0.3975 -0.1582 -0.7250
  773MPD2    C411461   1.482   4.644   0.146  0.2188  0.4447  1.0528
  773MPD2    C511462   1.396   0.016   0.153 -0.1589 -0.1293 -0.3031
  773MPD2     H11463   1.661   4.707  17.615  0.6085 -0.8407  1.1099
  773MPD2    H111464   1.455   4.566   0.217 -1.7031 -1.0005 -1.2709
  773MPD2    H211465   1.343   0.201   0.073 -0.0788 -0.0226  1.4544
  773MPD2    H311466   1.319   0.021   0.230  0.4884 -2.0800  0.4883
  773MPD2     N11467   1.673   4.531   0.036 -0.2332  1.0906  0.0063
  773MPD2    H511468   1.733   4.526  17.696  1.1323  1.2615  0.9976
  773MPD2    N111469   1.515   0.215  17.621 -0.0374  0.2734  0.1499
  773MPD2    H711470   1.433   0.274  17.635 -0.3009 -0.3815  1.3232
  774MPD2     C11471   0.229   3.435  13.413 -0.0420 -0.0146  0.1561
  774MPD2    C111472   0.365   3.431  13.430  0.3592  0.0650  0.0430
  774MPD2    C211473   0.446   3.465  13.326 -0.3322  0.4016  0.5195
  774MPD2    C311474   0.391   3.515  13.214  0.5352 -0.4135  0.1299
  774MPD2    C411475   0.253   3.518  13.196  1.0770  0.2642 -0.5536
  774MPD2    C511476   0.171   3.465  13.290  0.1170 -0.2298  0.1019
  774MPD2     H11477   0.550   3.483  13.352 -0.3082 -0.1623  0.8255
  774MPD2    H111478   0.201   3.570  13.116 -0.5876  2.5055  2.0024
  774MPD2    H211479   0.156   3.396  13.484 -0.2071  0.5511  0.2955
  774MPD2    H311480   0.069   3.446  13.259 -0.4176  0.4938  1.4687
  774MPD2     N11481   0.461   3.589  13.119  0.3208  0.4334 -0.0583
  774MPD2    H511482   0.403   3.638  13.051  1.4953  3.0918  0.8681
  774MPD2    N111483   0.409   3.409  13.563 -0.1239 -0.1207 -0.6852
  774MPD2    H711484   0.341   3.402  13.638 -0.7318 -2.0231 -1.4280
  775MPD2     C11485   2.283   0.375  15.472  0.5042  0.4951  0.0040
  775MPD2    C111486   2.279   0.480  15.560  0.2337 -0.6797 -0.3842
  775MPD2    C211487   2.367   0.588  15.540 -0.6797  0.6257  0.5346
  775MPD2    C311488   2.462   0.587  15.443 -0.2714  0.3986 -0.1288
  775MPD2    C411489   2.467   0.475  15.363  0.0276 -0.2860  0.3148
  775MPD2    C511490   2.391   0.364  15.386  0.2136 -0.3916  0.6528
  775MPD2     H11491   2.372   0.674  15.606 -0.6851  0.1473  1.1668
  775MPD2    H111492   2.534   0.464  15.278  0.5267 -1.1794  0.8253
  775MPD2    H211493   2.224   0.285  15.489 -0.8712  1.2137 -0.9245
  775MPD2    H311494   2.379   0.278  15.322  0.7375  0.1594 -0.1894
  775MPD2     N11495   2.560   0.685  15.418 -0.2572 -0.1443  0.2947
  775MPD2    H511496   2.628   0.662  15.347  0.4273  0.7081  0.6703
  775MPD2    N111497   2.185   0.474  15.662  0.2918  0.2166  0.0341
  775MPD2    H711498   2.132   0.388  15.673 -2.0194  1.6843  0.3567
  776MPD2     C11499   0.765   0.498  10.854 -0.0267 -0.1834  0.2973
  776MPD2    C111500   0.867   0.470  10.941 -0.1106  0.4150  0.5157
  776MPD2    C211501   0.984   0.547  10.927 -0.2078 -0.5219  0.3262
  776MPD2    C311502   1.000   0.653  10.844  0.1483  0.0855  0.1911
  776MPD2    C411503   0.902   0.681  10.763 -0.1769  0.3706 -0.4584
  776MPD2    C511504   0.780   0.604  10.767 -0.5952  0.0551  1.0027
  776MPD2     H11505   1.068   0.511  10.987 -1.4408 -0.6408  1.9795
  776MPD2    H111506   0.907   0.768  10.698  0.6774 -0.3213 -1.3151
  776MPD2    H211507   0.673   0.441  10.847  0.0356 -0.5616  2.6976
  776MPD2    H311508   0.697   0.632  10.703  0.7189 -0.1243 -0.8006
  776MPD2     N11509   1.106   0.749  10.854 -0.1817  0.3455  0.5913
  776MPD2    H511510   1.099   0.828  10.791  0.3741 -0.9889 -1.1592
  776MPD2    N111511   0.861   0.357  11.026  0.0221 -0.0115  0.3146
  776MPD2    H711512   0.770   0.313  11.032 -0.0273 -0.2771 -2.4200
  777MPD2     C11513   1.282   3.510   0.122  0.5327 -0.5297 -0.1233
  777MPD2    C111514   1.327   3.438   0.231 -0.2941  1.2310 -0.8910
  777MPD2    C211515   1.258   3.320   0.270  0.3266  0.4885 -0.0441
  777MPD2    C311516   1.147   3.280   0.194  0.1460 -0.7039  0.0353
  777MPD2    C411517   1.103   3.352   0.082 -0.6218  0.7686  0.6525
  777MPD2    C511518   1.161   3.471   0.058  0.1315 -0.1841 -0.1344
  777MPD2     H11519   1.270   3.272   0.366  0.6186 -0.2707 -0.4603
  777MPD2    H111520   1.013   3.322   0.029  0.0757  1.0711 -0.7012
  777MPD2    H211521   1.334   3.600   0.094 -2.0265  1.1479  0.4678
  777MPD2    H311522   1.114   3.533  17.723 -0.8943  1.3767  1.7780
  777MPD2     N11523   1.086   3.164   0.241 -0.0892 -0.3166  0.2945
  777MPD2    H511524   1.104   3.125   0.334 -0.7645  1.0624  1.0008
  777MPD2    N111525   1.427   3.491   0.314 -0.2788 -0.0662 -0.2417
  777MPD2    H711526   1.457   3.588   0.314  0.7335 -0.3810 -1.1898
  778MPD2     C11527   2.751   3.499  15.187 -0.0353  0.2235 -0.5024
  778MPD2    C111528   2.759   3.407  15.085 -1.1130 -0.1165 -0.0552
  778MPD2    C211529   2.825   3.442  14.972  0.5085  0.6155  0.0776
  778MPD2    C311530   2.875   3.569  14.950 -0.1286 -0.1860 -0.3781
  778MPD2    C411531   2.839   3.667  15.050  0.2443 -0.7269 -0.2649
  778MPD2    C511532   2.785   3.627  15.168 -0.6092 -0.4250 -0.7540
  778MPD2     H11533   2.847   3.365  14.899  0.1170  0.9369 -0.3757
  778MPD2    H111534   2.881   3.767  15.042 -1.9639  0.1315 -1.0239
  778MPD2    H211535   2.691   3.475  15.274  0.4269 -1.9282 -0.7765
  778MPD2    H311536   2.788   3.702  15.247  4.0279  0.0892 -1.4207
  778MPD2     N11537   2.931   3.592  14.823  0.0664 -0.0650 -0.2451
  778MPD2    H511538   2.942   3.518  14.754 -1.3387  0.5937 -1.1746
  778MPD2    N111539   2.707   3.275  15.096 -0.0709 -0.1661  0.2819
  778MPD2    H711540   2.697   3.223  15.009  0.0710 -0.1454  0.2539
  779MPD2     C11541   2.392   2.401  14.090  0.6557 -0.5174  0.3763
  779MPD2    C111542   2.525   2.407  14.128  0.1558  0.8592 -0.1165
  779MPD2    C211543   2.579   2.521  14.182 -0.2967 -0.5412 -0.5055
  779MPD2    C311544   2.502   2.635  14.193  0.3243 -0.5327  0.9003
  779MPD2    C411545   2.372   2.622  14.151  0.1980  0.3541 -0.1962
  779MPD2    C511546   2.316   2.512  14.104  0.1002  0.1936 -1.2370
  779MPD2     H11547   2.681   2.530  14.216 -1.3173  3.2746  1.5296
  779MPD2    H111548   2.301   2.703  14.167 -0.6565 -0.5245  0.4516
  779MPD2    H211549   2.350   2.304  14.066  1.8012 -0.6492 -1.1182
  779MPD2    H311550   2.210   2.520  14.083  0.3034  1.5705 -1.7426
  779MPD2     N11551   2.562   2.753  14.234 -0.3344  0.1972  0.2898
  779MPD2    H511552   2.663   2.754  14.246 -0.2677 -0.3884 -0.2546
  779MPD2    N111553   2.598   2.288  14.129 -0.3856  0.1834 -0.6250
  779MPD2    H711554   2.687   2.290  14.179 -1.5565  0.9025  1.4094
  780MPD2     C11555   2.096   2.319   0.728 -0.2076  0.3328 -0.0609
  780MPD2    C111556   2.021   2.252   0.638 -0.4064 -0.1426 -0.0623
  780MPD2    C211557   2.050   2.267   0.509  0.3792 -0.4967 -0.2035
  780MPD2    C311558   2.152   2.340   0.459 -0.1617  0.2441  0.2194
  780MPD2    C411559   2.235   2.398   0.544  0.7873 -0.6655  0.4940
  780MPD2    C511560   2.208   2.388   0.678 -0.3624 -0.4185  0.0739
  780MPD2     H11561   1.989   2.218   0.434 -2.4705 -0.4692  2.1315
  780MPD2    H111562   2.321   2.459   0.521  0.2232  0.0526  0.2755
  780MPD2    H211563   2.099   2.301   0.835 -0.5437 -1.7152 -0.3930
  780MPD2    H311564   2.274   2.423   0.756 -1.3912  0.9013  0.3601
  780MPD2     N11565   2.165   2.337   0.322  0.3657  0.5458  0.0897
  780MPD2    H511566   2.086   2.290   0.279  0.4460 -1.4113  2.0750
  780MPD2    N111567   1.905   2.186   0.685  0.5270  0.6890  0.7720
  780MPD2    H711568   1.904   2.166   0.785 -1.0372  0.3421  0.6954
  781MPD2     C11569   3.234   3.810  11.727 -0.4336 -0.2800 -0.5093
  781MPD2    C111570   3.340   3.829  11.820  0.8021  0.1181 -0.0556
  781MPD2    C211571   3.466   3.793  11.775 -0.2086  1.1008  0.3997
  781MPD2    C311572   3.488   3.749  11.641  0.3088 -0.8905  0.6276
  781MPD2    C411573   3.375   3.733  11.560 -0.1714 -0.5577 -0.2258
  781MPD2    C511574   3.249   3.769  11.602 -0.1581  0.3136 -0.2290
  781MPD2     H11575   3.550   3.805  11.843  0.1435 -0.1461  0.1768
  781MPD2    H111576   3.384   3.695  11.459  1.4139 -0.7974  0.0084
  781MPD2    H211577   3.132   3.831  11.760  0.5116  1.3172  1.4132
  781MPD2    H311578   3.158   3.745  11.548  0.6603 -1.0182 -1.0318
  781MPD2     N11579   3.616   3.709  11.600  0.3858  0.4929 -0.9745
  781MPD2    H511580   3.612   3.689  11.501 -0.9167 -2.6254 -0.2941
  781MPD2    N111581   3.327   3.874  11.953 -0.1686  1.0547 -0.5044
  781MPD2    H711582   3.415   3.889  12.002  0.1500  0.1848 -0.7998
  782MPD2     C11583   1.446   3.786   9.905 -0.0338 -0.1600 -0.8588
  782MPD2    C111584   1.501   3.766  10.029  0.2368  0.0199 -0.0004
  782MPD2    C211585   1.520   3.870  10.119  0.3082 -0.2067  0.4576
  782MPD2    C311586   1.494   3.996  10.069 -0.7307  0.7149  0.0333
  782MPD2    C411587   1.446   4.020   9.946 -0.2550  0.0714 -0.7479
  782MPD2    C511588   1.430   3.916   9.861 -0.2461  0.1579 -0.0693
  782MPD2     H11589   1.581   3.849  10.207  0.1586 -4.4051 -0.4080
  782MPD2    H111590   1.435   4.121   9.909  2.3508  0.2592 -1.0241
  782MPD2    H211591   1.420   3.714   9.829  0.3290 -0.0069 -1.1273
  782MPD2    H311592   1.419   3.945   9.757 -3.2501  0.3401  0.2937
  782MPD2     N11593   1.530   4.092  10.169  0.2783  0.2409 -0.2060
  782MPD2    H511594   1.570   4.060  10.257 -1.4023 -1.3690 -0.0143
  782MPD2    N111595   1.537   3.638  10.072  0.6798  0.7470 -0.6525
  782MPD2    H711596   1.577   3.642  10.165 -1.9258  1.1551  0.4428
  783MPD2     C11597   1.301   3.300  10.832  0.7838 -0.1542  0.0781
  783MPD2    C111598   1.289   3.422  10.768  0.3861 -0.0842  0.4307
  783MPD2    C211599   1.352   3.454  10.647 -0.2915 -0.0677  0.7462
  783MPD2    C311600   1.426   3.359  10.585  0.7177 -0.2685 -0.2300
  783MPD2    C411601   1.423   3.233  10.635  0.0881 -0.5445 -0.0891
  783MPD2    C511602   1.371   3.209  10.760 -1.0797  0.1622  0.2411
  783MPD2     H11603   1.328   3.542  10.588  1.0452  1.1626  2.0465
  783MPD2    H111604   1.469   3.152  10.579 -0.4165 -1.2829  0.5563
  783MPD2    H211605   1.253   3.281  10.927  0.3087 -4.2138 -0.9853
  783MPD2    H311606   1.388   3.112  10.806  1.5926  0.6380  0.2374
  783MPD2     N11607   1.488   3.393  10.461  0.6242  0.4334  0.2052
  783MPD2    H511608   1.464   3.480  10.415 -1.2465  0.3080  0.9327
  783MPD2    N111609   1.209   3.522  10.827  0.5631 -0.0244  0.0927
  783MPD2    H711610   1.160   3.491  10.911  0.6643 -1.0931 -0.2370
  784MPD2     C11611   4.326   0.195   0.363  0.4665 -0.1519  0.7779
  784MPD2    C111612   4.341   0.277   0.466 -0.0077  0.2367  0.7748
  784MPD2    C211613   4.232   0.363   0.489  0.5879  0.1600  1.0107
  784MPD2    C311614   4.117   0.358   0.416 -0.0311  0.1971  0.1967
  784MPD2    C411615   4.105   0.254   0.326  0.1323 -0.2399 -0.1603
  784MPD2    C511616   4.218   0.188   0.288  0.3048  0.4723 -1.2855
  784MPD2     H11617   4.249   0.443   0.561  1.0018  1.3869 -0.4535
  784MPD2    H111618   4.012   0.259   0.269  0.5346  0.7812 -0.7241
  784MPD2    H211619   4.405   0.125   0.336 -0.8544 -0.5661 -2.0142
  784MPD2    H311620   4.213   0.128   0.198  2.7431 -1.7109  0.0565
  784MPD2     N11621   4.011   0.455   0.443  0.4178  0.1398  0.0452
  784MPD2    H511622   4.040   0.541   0.490 -1.0106 -0.2696  1.6762
  784MPD2    N111623   4.456   0.294   0.547  0.1787 -0.8915  0.5766
  784MPD2    H711624   4.440   0.361   0.621 -1.9698  0.9876 -1.5826
  785MPD2     C11625   3.357   4.048  10.584  0.2857 -0.5615  0.1230
  785MPD2    C111626   3.381   4.104  10.459 -0.2301 -0.0840  0.0889
  785MPD2    C211627   3.334   4.039  10.343  0.2467  0.0901  0.3727
  785MPD2    C311628   3.247   3.928  10.355 -0.1490  0.2986  0.3078
  785MPD2    C411629   3.217   3.882  10.485  0.2690  0.0431  0.2777
  785MPD2    C511630   3.272   3.947  10.594 -0.7886  0.6526 -0.1487
  785MPD2     H11631   3.358   4.072  10.242 -1.6541  2.1920  0.6027
  785MPD2    H111632   3.143   3.803  10.498 -0.7197  1.2158  1.8893
  785MPD2    H211633   3.398   4.080  10.680 -0.7755 -0.0944  0.4241
  785MPD2    H311634   3.250   3.912  10.694  1.1016 -0.3890 -0.1059
  785MPD2     N11635   3.194   3.871  10.237  0.1124 -0.2385 -0.0027
  785MPD2    H511636   3.216   3.923  10.152 -1.2846  0.3322 -0.0206
  785MPD2    N111637   3.475   4.208  10.466  0.2850 -0.4031  0.3938
  785MPD2    H711638   3.509   4.239  10.556 -0.0785  0.7090  0.1463
  786MPD2     C11639   3.401   1.603  14.644 -0.6471 -0.5716  0.2031
  786MPD2    C111640   3.379   1.478  14.702 -0.2830 -0.0359 -0.4444
  786MPD2    C211641   3.363   1.467  14.839  0.0973 -0.4007  0.4644
  786MPD2    C311642   3.379   1.590  14.910 -0.0948  0.3122 -0.7858
  786MPD2    C411643   3.399   1.709  14.853  0.2475 -0.5610 -0.1047
  786MPD2    C511644   3.412   1.717  14.715 -0.3817 -0.2734  0.3059
  786MPD2     H11645   3.354   1.375  14.894 -1.5249  0.9563  2.4570
  786MPD2    H111646   3.402   1.799  14.914  0.6789  0.0581 -1.0472
  786MPD2    H211647   3.413   1.608  14.536 -1.8286  2.9355  0.2243
  786MPD2    H311648   3.436   1.814  14.673  0.5147 -0.3152  0.7311
  786MPD2     N11649   3.382   1.593  15.049 -0.0526 -0.1175  0.1389
  786MPD2    H511650   3.402   1.685  15.085 -0.1580 -1.0343  2.5168
  786MPD2    N111651   3.378   1.358  14.636  0.1710 -0.3920 -0.4683
  786MPD2    H711652   3.396   1.275  14.693 -1.2626 -0.8292 -0.6640
  787MPD2     C11653   3.653   0.754  14.837  0.3973 -0.1271 -0.4760
  787MPD2    C111654   3.628   0.764  14.702 -0.2349  0.7962  0.2940
  787MPD2    C211655   3.680   0.667  14.617  0.0306 -0.2678  0.1291
  787MPD2    C311656   3.757   0.563  14.664  0.0883  0.5164  0.1102
  787MPD2    C411657   3.784   0.557  14.799 -0.6321 -0.6800 -0.3042
  787MPD2    C511658   3.730   0.650  14.884 -0.0791  0.1587 -0.0475
  787MPD2     H11659   3.668   0.671  14.509  0.6572 -0.5194  0.0482
  787MPD2    H111660   3.840   0.475  14.842 -0.2160 -0.8642 -1.2049
  787MPD2    H211661   3.622   0.833  14.904  0.1253 -0.7231  0.1033
  787MPD2    H311662   3.737   0.647  14.992  1.1773 -0.5648 -0.1491
  787MPD2     N11663   3.803   0.470  14.574  0.0374  0.0222 -0.2079
  787MPD2    H511664   3.751   0.462  14.487 -0.4227  0.8357 -0.0050
  787MPD2    N111665   3.536   0.861  14.650 -0.9093  0.1148 -0.8404
  787MPD2    H711666   3.501   0.929  14.718  1.2379 -0.7719  1.1554
  788MPD2     C11667   0.760   0.025   0.519 -0.0616 -0.1356  0.2819
  788MPD2    C111668   0.628   4.706   0.512 -0.6970  0.2220  0.5436
  788MPD2    C211669   0.522   0.056   0.476  1.2490  0.1889  0.3545
  788MPD2    C311670   0.542   0.190   0.450 -0.0134  0.2238  0.2843
  788MPD2    C411671   0.668   0.237   0.456 -0.6277 -0.2089 -0.1086
  788MPD2    C511672   0.771   0.158   0.487 -0.7857 -0.4893 -0.2010
  788MPD2     H11673   0.425   0.011   0.490  1.4333 -0.1120  0.6667
  788MPD2    H111674   0.674   0.344   0.441 -0.7260 -0.1284  0.4266
  788MPD2    H211675   0.846   4.696   0.530 -0.5228 -0.9340 -0.6475
  788MPD2    H311676   0.874   0.190   0.475 -1.2263  0.5457 -1.1555
  788MPD2     N11677   0.445   0.282   0.405 -0.4264 -0.1253  0.7028
  788MPD2    H511678   0.478   0.376   0.384  1.9749 -1.2485 -0.5861
  788MPD2    N111679   0.600   4.566   0.516  0.1272 -0.0646  0.3687
  788MPD2    H711680   0.511   4.524   0.493  0.2378  0.1384 -0.4385
  789MPD2     C11681   0.569   3.901  16.144  0.1378  0.0366 -0.0335
  789MPD2    C111682   0.520   3.807  16.236  0.7985 -0.3787 -0.3483
  789MPD2    C211683   0.418   3.857  16.322  0.1559  0.1141  0.3185
  789MPD2    C311684   0.362   3.988  16.317 -0.0341  0.2483  0.8275
  789MPD2    C411685   0.420   4.076  16.228  0.1097 -0.6725 -0.0318
  789MPD2    C511686   0.520   4.031  16.145 -0.0634 -0.1527 -0.1747
  789MPD2     H11687   0.376   3.792  16.398 -0.7510  2.4499  1.8309
  789MPD2    H111688   0.385   4.178  16.215 -3.0494 -1.7404  0.0399
  789MPD2    H211689   0.649   3.881  16.073 -1.2138 -2.1805 -0.9336
  789MPD2    H311690   0.564   4.103  16.077 -2.1714  2.5377  1.3284
  789MPD2     N11691   0.260   4.034  16.403  0.5488  0.6318  0.0892
  789MPD2    H511692   0.221   4.128  16.394 -1.2158 -0.0616  0.5167
  789MPD2    N111693   0.572   3.670  16.256  0.1130  0.8420  0.1387
  789MPD2    H711694   0.642   3.637  16.191  0.9117  2.5278  0.1317
  790MPD2     C11695   1.798   1.433  13.350  0.3571  0.2915  0.5307
  790MPD2    C111696   1.836   1.317  13.405  0.3572 -0.0599 -0.0188
  790MPD2    C211697   1.808   1.197  13.336 -0.0512  0.3309  0.0161
  790MPD2    C311698   1.730   1.204  13.228 -0.7716  0.4554 -0.5396
  790MPD2    C411699   1.687   1.327  13.169 -0.2014 -0.4338 -0.2711
  790MPD2    C511700   1.734   1.440  13.233 -0.2736 -0.3559  0.3043
  790MPD2     H11701   1.828   1.101  13.382 -0.8143 -0.3761 -1.1372
  790MPD2    H111702   1.629   1.335  13.078 -0.1475 -1.1481 -0.3713
  790MPD2    H211703   1.822   1.525  13.401 -0.6203 -0.8514  3.0117
  790MPD2    H311704   1.702   1.531  13.183 -0.1078 -1.0676 -1.1094
  790MPD2     N11705   1.682   1.081  13.178  0.4763 -0.0431  0.3142
  790MPD2    H511706   1.720   0.989  13.199  0.4838  0.1592  1.1806
  790MPD2    N111707   1.903   1.314  13.524  0.7451 -0.3648 -0.2852
  790MPD2    H711708   1.918   1.399  13.578  0.3298  0.4781 -1.4773
  791MPD2     C11709   0.999   0.827  13.312 -0.2206  0.1523 -0.1239
  791MPD2    C111710   1.042   0.751  13.203  0.0831 -0.2103  0.0985
  791MPD2    C211711   0.957   0.670  13.130 -0.1240 -0.4657 -0.4076
  791MPD2    C311712   0.820   0.672  13.164 -0.2519 -0.0703 -0.4557
  791MPD2    C411713   0.770   0.761  13.260  0.2923  0.0699  0.2316
  791MPD2    C511714   0.861   0.835  13.332 -0.1625  0.4099  0.3266
  791MPD2     H11715   0.992   0.614  13.044  0.5827  0.6899 -0.8743
  791MPD2    H111716   0.665   0.773  13.284  0.3756 -0.3454  0.8048
  791MPD2    H211717   1.069   0.894  13.360  2.3431 -2.0564 -0.7261
  791MPD2    H311718   0.820   0.902  13.406 -0.4015  0.6405 -0.0166
  791MPD2     N11719   0.725   0.588  13.100 -0.8603  0.8166  0.5281
  791MPD2    H511720   0.765   0.547  13.017  0.3632 -1.4360  2.2198
  791MPD2    N111721   1.172   0.779  13.155 -0.5409 -0.2551  0.5783
  791MPD2    H711722   1.233   0.839  13.210 -1.6535 -2.2120  3.9088
  792MPD2     C11723   1.476   4.675  10.835  0.3338 -1.0113  0.2146
  792MPD2    C111724   1.381   0.036  10.805 -0.4489  0.0360  0.0144
  792MPD2    C211725   1.251   4.732  10.783  0.6444 -0.1602 -0.5764
  792MPD2    C311726   1.218   4.599  10.780 -0.8059  0.7106 -1.3355
  792MPD2    C411727   1.315   4.509  10.787  0.7374  0.5309  0.1824
  792MPD2    C511728   1.445   4.546  10.811  0.8261  0.2578  0.3295
  792MPD2     H11729   1.180   0.078  10.773  1.9531  1.0497 -0.0971
  792MPD2    H111730   1.313   4.402  10.774 -0.8475  0.1138  3.9327
  792MPD2    H211731   1.577   4.699  10.866 -0.4846  2.0563  0.5105
  792MPD2    H311732   1.519   4.467  10.820  1.7292  0.9019 -1.4861
  792MPD2     N11733   1.084   4.561  10.769 -0.1711 -0.0813  0.6389
  792MPD2    H511734   1.071   4.460  10.770 -0.9911 -0.0006 -2.2004
  792MPD2    N111735   1.422   0.170  10.809 -0.4077 -0.1810 -0.0952
  792MPD2    H711736   1.508   0.181  10.860 -0.4462 -1.2254  0.1934
  793MPD2     C11737   0.391   0.075  10.226 -0.6463  0.2455 -0.5207
  793MPD2    C111738   0.524   0.075  10.244  0.2637 -0.1675  0.1988
  793MPD2    C211739   0.585   0.029  10.361  0.3796  0.4521 -0.7322
  793MPD2    C311740   0.505   4.713  10.454  0.2825  0.1014  0.3440
  793MPD2    C411741   0.371   4.696  10.430 -0.0974  0.2018  0.3836
  793MPD2    C511742   0.317   0.004  10.315 -0.2781  0.2812  0.1375
  793MPD2     H11743   0.688   0.058  10.371 -0.2943  2.2215  0.9035
  793MPD2    H111744   0.304   4.636  10.491  0.0044 -0.8107 -0.4995
  793MPD2    H211745   0.345   0.120  10.138 -1.8784 -0.5448 -0.2718
  793MPD2    H311746   0.213   4.719  10.292 -1.0420  2.4584  1.7375
  793MPD2     N11747   0.564   4.675  10.579  0.3855  0.2393 -0.3721
  793MPD2    H511748   0.655   4.711  10.607  1.1001 -1.5864 -0.3375
  793MPD2    N111749   0.612   0.127  10.146  0.6882 -0.1825 -0.0522
  793MPD2    H711750   0.711   0.118  10.167  1.2199  1.3301 -1.8388
  794MPD2     C11751   1.458   0.114  16.791  0.3986 -1.0819 -0.2436
  794MPD2    C111752   1.365   0.190  16.856 -0.3024  0.0351  0.2165
  794MPD2    C211753   1.246   0.221  16.789  0.2826 -0.0616 -0.1234
  794MPD2    C311754   1.222   0.162  16.666 -0.0736 -0.1873  0.2868
  794MPD2    C411755   1.311   0.074  16.601  0.2821  0.5154  0.4315
  794MPD2    C511756   1.428   0.058  16.665  0.1456  0.2376 -0.1998
  794MPD2     H11757   1.177   0.285  16.842  0.7691  0.0449  0.3902
  794MPD2    H111758   1.303   0.026  16.504  1.7655 -0.2861  0.7058
  794MPD2    H211759   1.551   0.082  16.837  0.6559 -0.8333 -0.5871
  794MPD2    H311760   1.501   4.729  16.618  0.6273  1.9245 -1.7502
  794MPD2     N11761   1.099   0.195  16.591  0.4743  0.1521 -0.1293
  794MPD2    H511762   1.091   0.148  16.501  1.9017 -1.3580  0.5400
  794MPD2    N111763   1.379   0.244  16.986  0.4612  0.0054 -0.3471
  794MPD2    H711764   1.294   0.289  17.018 -0.4469 -2.4724  0.7313
  795MPD2     C11765   3.662   2.225  14.099  0.3922  0.7142  0.6934
  795MPD2    C111766   3.691   2.230  13.964  0.8363  0.7834  0.0898
  795MPD2    C211767   3.814   2.186  13.914  0.3269 -1.4596  0.2120
  795MPD2    C311768   3.909   2.140  14.008 -0.2152  0.3144  0.3040
  795MPD2    C411769   3.879   2.140  14.145 -0.1433  0.1720 -0.1611
  795MPD2    C511770   3.753   2.178  14.190 -0.2245  1.0284  0.0184
  795MPD2     H11771   3.840   2.203  13.810 -1.8346 -1.4167 -0.3263
  795MPD2    H111772   3.950   2.102  14.218 -2.2994  0.6292  2.1880
  795MPD2    H211773   3.567   2.247  14.147  0.9475  0.7856  1.7586
  795MPD2    H311774   3.728   2.172  14.295  1.3944 -1.1704  0.2678
  795MPD2     N11775   4.043   2.105  13.983  0.1401  0.3746 -0.2988
  795MPD2    H511776   4.104   2.094  14.064  0.7258 -1.7743 -1.0398
  795MPD2    N111777   3.594   2.281  13.875  0.1405 -0.1335  0.3900
  795MPD2    H711778   3.617   2.261  13.778 -0.7724 -1.3621  0.4292
  796MPD2     C11779   3.359   3.934  15.819 -0.1299  0.3721 -1.0689
  796MPD2    C111780   3.442   4.015  15.898 -0.8249  0.3251 -0.1590
  796MPD2    C211781   3.449   4.147  15.860 -0.1298 -0.4512  0.3284
  796MPD2    C311782   3.367   4.201  15.763 -0.4651 -0.0736 -0.1796
  796MPD2    C411783   3.291   4.119  15.682 -0.3021 -0.0767  0.4030
  796MPD2    C511784   3.296   3.985  15.706  1.3980 -0.2425 -0.6972
  796MPD2     H11785   3.525   4.209  15.906  1.5511 -0.4658 -2.3902
  796MPD2    H111786   3.230   4.161  15.603 -2.6611 -3.6935  0.2814
  796MPD2    H211787   3.360   3.827  15.835 -0.4013  0.7538  1.5844
  796MPD2    H311788   3.236   3.916  15.648 -1.6275  1.4255  0.4237
  796MPD2     N11789   3.365   4.346  15.742 -0.6692 -0.0033 -0.2790
  796MPD2    H511790   3.438   4.390  15.797  0.7723  0.7932 -2.8652
  796MPD2    N111791   3.499   3.952  16.015 -0.4276  0.4808  0.6139
  796MPD2    H711792   3.477   3.853  16.021  0.8362  0.1952  0.5899
  797MPD2     C11793   4.218   3.186  17.682  0.8079  0.2980 -0.5459
  797MPD2    C111794   4.291   3.288  17.623  0.5110 -0.1771 -0.4148
  797MPD2    C211795   4.229   3.356  17.525  0.4111 -0.1641  0.5706
  797MPD2    C311796   4.094   3.336  17.484  0.5523  0.2776 -0.8011
  797MPD2    C411797   4.027   3.232  17.546  0.3990 -0.2361 -0.3269
  797MPD2    C511798   4.091   3.161  17.641  0.3883 -0.0306 -0.6064
  797MPD2     H11799   4.273   3.445  17.482 -1.0311  0.3749  0.1906
  797MPD2    H111800   3.927   3.196  17.524  0.3033  1.6606 -2.9956
  797MPD2    H211801   4.258   3.120   0.017 -3.4807  1.3496  2.5744
  797MPD2    H311802   4.038   3.078  17.685  1.7522 -0.3601  0.4432
  797MPD2     N11803   4.032   3.428  17.397 -0.1249 -0.0066  0.2588
  797MPD2    H511804   3.931   3.424  17.404 -0.1721 -1.2100 -0.9836
  797MPD2    N111805   4.422   3.326  17.663  0.9618 -0.1196 -0.0669
  797MPD2    H711806   4.466   3.403  17.614  1.1301  0.1723  0.5467
  798MPD2     C11807   4.384   4.054  17.510 -0.1768 -0.2984  0.1106
  798MPD2    C111808   4.299   3.953  17.560 -0.1024 -0.0790 -0.2772
  798MPD2    C211809   4.351   3.867  17.662  0.1274  0.2220  0.3434
  798MPD2    C311810   4.481   3.873  17.698  0.1552 -0.3132  0.4042
  798MPD2    C411811   4.562   3.974  17.653 -0.1917  0.3094  0.2857
  798MPD2    C511812   4.514   4.061  17.558  0.1821 -0.0443  0.6348
  798MPD2     H11813   4.291   3.786  17.702  0.7190 -0.9969 -1.2593
  798MPD2    H111814   4.665   3.990  17.682 -0.0810 -0.2406  0.1875
  798MPD2    H211815   4.352   4.132  17.442 -0.4854  0.0814  0.6930
  798MPD2    H311816   4.569   4.152  17.540 -0.4007 -0.3895 -2.8623
  798MPD2     N11817   4.530   3.763   0.035 -0.1908  0.1382 -0.0808
  798MPD2    H511818   4.456   3.696   0.056 -0.4865 -0.4418 -2.9183
  798MPD2    N111819   4.169   3.939  17.512 -0.0835 -0.1341 -0.3693
  798MPD2    H711820   4.146   3.999  17.433 -1.6626  2.0670  1.7967
  799MPD2     C11821   3.378   0.288  14.864 -0.5952  0.7318 -0.5116
  799MPD2    C111822   3.305   0.197  14.792 -0.1932 -0.1254  0.3702
  799MPD2    C211823   3.236   0.240  14.679 -0.2204  0.2486 -0.1428
  799MPD2    C311824   3.239   0.374  14.648 -0.0628 -0.3867  0.0572
  799MPD2    C411825   3.318   0.456  14.723 -0.5805  0.3148  0.1315
  799MPD2    C511826   3.388   0.419  14.830  0.6114  0.5489  1.0213
  799MPD2     H11827   3.178   0.172  14.619 -0.1656  0.6961 -0.6992
  799MPD2    H111828   3.325   0.563  14.703 -0.2704  0.5474  1.4930
  799MPD2    H211829   3.433   0.258  14.952  0.6431 -2.0387 -2.2181
  799MPD2    H311830   3.453   0.488  14.883  1.8514 -0.6046  0.9918
  799MPD2     N11831   3.193   0.422  14.524 -0.3131 -0.9528 -0.4791
  799MPD2    H511832   3.206   0.519  14.499  2.7646 -1.4214 -0.6995
  799MPD2    N111833   3.296   0.057  14.822 -0.0917  0.1218 -0.0266
  799MPD2    H711834   3.232   0.000  14.768 -0.6561  1.0198 -0.3066
  800MPD2     C11835   3.870   1.507  14.413 -0.2191 -0.0461  0.1041
  800MPD2    C111836   3.988   1.446  14.392  1.0862  0.2176  0.1783
  800MPD2    C211837   3.988   1.335  14.310  0.0006  1.0996  0.6171
  800MPD2    C311838   3.872   1.281  14.252  0.0794 -0.0618 -0.3110
  800MPD2    C411839   3.755   1.343  14.288 -0.0514 -0.7766  0.2868
  800MPD2    C511840   3.755   1.452  14.364  0.0894  0.4856  0.0162
  800MPD2     H11841   4.083   1.290  14.281 -1.4761 -1.6489  0.0117
  800MPD2    H111842   3.659   1.324  14.241  0.5943 -0.1804 -1.2706
  800MPD2    H211843   3.863   1.591  14.481  0.0541  1.5835 -1.8784
  800MPD2    H311844   3.656   1.488  14.386 -0.0331  1.7666 -2.6214
  800MPD2     N11845   3.878   1.166  14.171  0.2941 -0.5296  0.0810
  800MPD2    H511846   3.968   1.120  14.167  0.6957  0.2291  0.4510
  800MPD2    N111847   4.092   1.494  14.465 -0.3205 -0.1019 -0.1937
  800MPD2    H711848   4.083   1.586  14.506  0.3301  0.7146 -1.8944
  801MPD2     C11849   4.228   2.089  14.794 -0.0335  0.4056  0.6753
  801MPD2    C111850   4.156   2.016  14.699 -0.4492 -0.2613  0.0355
  801MPD2    C211851   4.024   2.056  14.684 -0.0745 -0.1986  0.2441
  801MPD2    C311852   3.964   2.166  14.749 -0.2155  0.5072 -0.4516
  801MPD2    C411853   4.041   2.232  14.839  0.7538  0.4041  0.3986
  801MPD2    C511854   4.163   2.182  14.867 -0.2986  0.4406 -0.4555
  801MPD2     H11855   3.972   2.007  14.602  0.3747  0.4394 -0.4290
  801MPD2    H111856   4.008   2.315  14.899  0.1208  0.1862  0.3511
  801MPD2    H211857   4.320   2.051  14.837 -1.1040 -1.7661  1.0739
  801MPD2    H311858   4.225   2.229  14.943 -1.1692  0.2875  0.3461
  801MPD2     N11859   3.830   2.210  14.725 -0.5887 -0.2325 -0.2981
  801MPD2    H511860   3.795   2.287  14.781  4.5068  1.7796  0.1680
  801MPD2    N111861   4.211   1.895  14.642  0.0538  0.2304 -0.0637
  801MPD2    H711862   4.147   1.840  14.586 -0.3682  0.0040  0.6436
  802MPD2     C11863   3.270   2.979   0.233  0.9107 -0.4191  0.7761
  802MPD2    C111864   3.155   2.947   0.162  0.8637  0.0600  0.4966
  802MPD2    C211865   3.146   2.827   0.100  0.4064  0.1538 -0.0492
  802MPD2    C311866   3.247   2.732   0.111 -0.8516  0.3144  0.0582
  802MPD2    C411867   3.365   2.755   0.182 -0.2012 -0.3321 -0.3683
  802MPD2    C511868   3.370   2.887   0.237  0.1090  0.0685  0.3057
  802MPD2     H11869   3.049   2.805   0.056  0.2215  0.3964  0.2298
  802MPD2    H111870   3.446   2.682   0.187 -0.8362 -1.2108 -3.2029
  802MPD2    H211871   3.276   3.065   0.299  0.7786  0.3048 -0.1519
  802MPD2    H311872   3.450   2.901   0.309 -0.4427 -0.5590  1.0326
  802MPD2     N11873   3.229   2.611   0.038 -0.4243  0.3768  0.1410
  802MPD2    H511874   3.149   2.609  17.717  1.6315  2.5917 -2.5339
  802MPD2    N111875   3.048   3.045   0.159 -0.6968 -0.6371  0.0309
  802MPD2    H711876   2.957   3.016   0.124 -0.7212  0.0029 -0.4234
  803MPD2     C11877   3.762   0.727  12.318  0.8867 -0.2617  0.6131
  803MPD2    C111878   3.879   0.800  12.332 -0.1939 -0.6718 -0.1111
  803MPD2    C211879   3.946   0.798  12.452  0.5475  0.1126  0.6916
  803MPD2    C311880   3.913   0.706  12.549 -0.2186  0.1098 -0.6762
  803MPD2    C411881   3.798   0.631  12.536  0.8174  0.7077  0.4396
  803MPD2    C511882   3.728   0.641  12.417 -0.1257 -0.0448  1.0324
  803MPD2     H11883   4.031   0.865  12.461 -0.8078  1.6986  1.7176
  803MPD2    H111884   3.762   0.568  12.616 -1.5722  2.0778  0.4302
  803MPD2    H211885   3.715   0.712  12.221  2.0371  0.8343 -0.1081
  803MPD2    H311886   3.634   0.588  12.404  0.4422 -0.3996 -1.5806
  803MPD2     N11887   3.994   0.672  12.655  0.4654 -0.2535 -0.3745
  803MPD2    H511888   3.968   0.585  12.700 -1.9266  1.7694  2.0941
  803MPD2    N111889   3.932   0.869  12.215  0.5822  0.0519  0.0921
  803MPD2    H711890   4.032   0.881  12.225  0.3554 -0.2429  2.6928
  804MPD2     C11891   3.781   2.030  16.687  0.6065  0.1918 -0.2281
  804MPD2    C111892   3.750   2.046  16.822  0.2808  0.3595 -0.2124
  804MPD2    C211893   3.808   2.143  16.896  0.8124  0.0868  0.4584
  804MPD2    C311894   3.910   2.225  16.841  0.3569  0.5570  0.3922
  804MPD2    C411895   3.935   2.214  16.705  0.6744 -0.3877  0.5269
  804MPD2    C511896   3.878   2.117  16.633 -0.6778  0.0252 -0.0212
  804MPD2     H11897   3.784   2.150  17.002 -2.0777  0.5035 -0.2157
  804MPD2    H111898   4.015   2.272  16.660  0.8580  0.8257  2.3950
  804MPD2    H211899   3.728   1.957  16.626  1.1799  0.9261 -1.5967
  804MPD2    H311900   3.891   2.118  16.525  1.2806 -0.9465  0.2099
  804MPD2     N11901   3.970   2.326  16.925  0.1461  0.1116  0.0815
  804MPD2    H511902   3.927   2.334  17.016  0.9822 -0.6614  0.5386
  804MPD2    N111903   3.663   1.956  16.882 -0.3726  0.7067 -0.0472
  804MPD2    H711904   3.669   1.955  16.984  0.4393  0.6523 -0.0982
  805MPD2     C11905   3.133   0.634  15.264  0.7206 -0.2855 -0.3258
  805MPD2    C111906   3.200   0.521  15.238 -0.3597 -0.5769  0.0456
  805MPD2    C211907   3.318   0.499  15.309  0.2281  0.4150 -0.1980
  805MPD2    C311908   3.373   0.589  15.405  0.6710  0.7974  0.1260
  805MPD2    C411909   3.310   0.708  15.413 -0.0931 -0.3000  0.1190
  805MPD2    C511910   3.186   0.727  15.350  0.4765 -0.6384 -0.1714
  805MPD2     H11911   3.370   0.405  15.298  1.0512  1.0183 -1.5685
  805MPD2    H111912   3.342   0.777  15.490  3.1267 -1.8023  0.1103
  805MPD2    H211913   3.038   0.662  15.219  0.5296 -1.9732 -0.9428
  805MPD2    H311914   3.129   0.817  15.365  1.2335 -0.3741  1.1316
  805MPD2     N11915   3.498   0.575  15.470 -0.2225  0.0094  0.2227
  805MPD2    H511916   3.538   0.658  15.513  1.7345 -1.0406  0.4403
  805MPD2    N111917   3.162   0.420  15.141  0.1056  0.2580  0.4631
  805MPD2    H711918   3.218   0.338  15.122 -0.8002 -0.9227  2.7374
  806MPD2     C11919   3.140   0.145   0.249  0.4971 -0.1251 -0.1594
  806MPD2    C111920   3.238   0.218   0.311 -0.1948  0.4056  0.5615
  806MPD2    C211921   3.310   0.301   0.232  0.0445  0.0175 -0.2698
  806MPD2    C311922   3.287   0.319   0.096 -1.1005  0.2877 -0.9079
  806MPD2    C411923   3.198   0.247   0.034  0.0312 -0.3819 -0.2424
  806MPD2    C511924   3.116   0.168   0.114 -0.6140 -0.2310 -0.0980
  806MPD2     H11925   3.387   0.370   0.266  0.8971 -1.8231  1.4971
  806MPD2    H111926   3.177   0.258  17.669  0.4256 -0.4460 -0.3252
  806MPD2    H211927   3.072   0.081   0.305  0.2110  0.3398  0.0250
  806MPD2    H311928   3.041   0.102   0.073 -0.0600 -0.6334 -0.4594
  806MPD2     N11929   3.385   0.398   0.028  0.9186  0.3581  0.1076
  806MPD2    H511930   3.440   0.461   0.086  2.8305 -2.2520  1.1496
  806MPD2    N111931   3.262   0.202   0.446  0.5303 -0.4961 -0.6452
  806MPD2    H711932   3.192   0.150   0.498  1.4822 -0.2088  0.9172
  807MPD2     C11933   3.197   4.423   1.021 -0.0224 -0.3678  0.0666
  807MPD2    C111934   3.197   4.553   1.081  0.3145  0.3775  0.2736
  807MPD2    C211935   3.144   4.561   1.208  0.3874 -0.4945  0.3181
  807MPD2    C311936   3.120   4.455   1.286  1.0526 -0.2025 -0.4587
  807MPD2    C411937   3.131   4.326   1.230  0.2093 -0.4452  0.0958
  807MPD2    C511938   3.149   4.314   1.095 -0.3916 -0.0677 -0.4948
  807MPD2     H11939   3.147   4.661   1.251  0.8961 -0.9726  1.3881
  807MPD2    H111940   3.115   4.234   1.284 -2.5388 -1.0788 -1.7358
  807MPD2    H211941   3.225   4.405   0.918 -1.9412 -0.1626 -0.4968
  807MPD2    H311942   3.145   4.216   1.051 -1.5521 -0.4488  0.4652
  807MPD2     N11943   3.076   4.479   1.419 -0.4905  0.8116 -0.3105
  807MPD2    H511944   3.080   4.571   1.460 -0.8659 -0.0503  1.6632
  807MPD2    N111945   3.245   4.666   1.014  0.2149  0.5894  1.0218
  807MPD2    H711946   3.253   0.014   1.072 -1.5770 -0.3082  2.5433
  808MPD2     C11947   3.185   1.184  10.401  0.8047 -0.0168  0.4916
  808MPD2    C111948   3.282   1.173  10.303 -0.0739 -0.2984  0.4301
  808MPD2    C211949   3.360   1.280  10.288 -0.6663 -0.0303 -0.1875
  808MPD2    C311950   3.349   1.397  10.362  0.2305  0.3536 -0.6738
  808MPD2    C411951   3.248   1.409  10.451 -0.1715 -0.2567  0.1701
  808MPD2    C511952   3.166   1.300  10.475  0.0529  0.0223 -0.1549
  808MPD2     H11953   3.448   1.268  10.226 -1.3205 -2.1788 -0.7177
  808MPD2    H111954   3.242   1.502  10.508 -4.6925 -0.4778  0.0775
  808MPD2    H211955   3.112   1.108  10.425  1.4180 -0.2285  1.6454
  808MPD2    H311956   3.086   1.312  10.547  0.8241 -1.3931  0.9308
  808MPD2     N11957   3.445   1.503  10.350 -0.5641 -0.2953 -0.8049
  808MPD2    H511958   3.429   1.578  10.417  0.1823  0.1354 -1.1129
  808MPD2    N111959   3.306   1.064  10.220  0.0056  0.3246  0.1409
  808MPD2    H711960   3.367   1.077  10.140  0.6539 -0.8665  0.4403
  809MPD2     C11961   3.442   2.367   9.861  0.4767  0.5651 -0.6977
  809MPD2    C111962   3.407   2.235   9.844 -0.0272  0.4890  0.6829
  809MPD2    C211963   3.461   2.143   9.929 -0.3546  0.3743 -0.2263
  809MPD2    C311964   3.564   2.176  10.020 -0.2545  0.4670  0.0278
  809MPD2    C411965   3.609   2.308  10.010  0.9807 -0.8660 -0.4022
  809MPD2    C511966   3.542   2.407   9.940 -0.5307  0.4400  0.1919
  809MPD2     H11967   3.420   2.043   9.919 -1.1478  0.8651 -1.7379
  809MPD2    H111968   3.698   2.330  10.069 -1.4496 -2.1940  3.7541
  809MPD2    H211969   3.413   2.447   9.794 -1.0873  1.2031  0.7565
  809MPD2    H311970   3.580   2.508   9.944  2.1248 -0.5282 -0.8098
  809MPD2     N11971   3.625   2.082  10.104  0.4357  0.3335  0.8356
  809MPD2    H511972   3.716   2.098  10.147  1.2859 -2.3595  0.0844
  809MPD2    N111973   3.331   2.186   9.732 -0.1347 -0.4149 -0.2321
  809MPD2    H711974   3.333   2.089   9.705  1.1930 -0.4894  0.1184
  810MPD2     C11975   2.854   0.701  10.844 -0.4996  0.3880 -0.1237
  810MPD2    C111976   2.831   0.722  10.710 -0.3714  0.9252 -0.4756
  810MPD2    C211977   2.823   0.853  10.663 -0.1856 -0.0135  0.5406
  810MPD2    C311978   2.838   0.966  10.748 -0.4244 -0.3573  0.5300
  810MPD2    C411979   2.868   0.948  10.882  0.2865  0.8119 -0.9170
  810MPD2    C511980   2.869   0.814  10.922 -0.8154  0.6855 -0.1500
  810MPD2     H11981   2.800   0.864  10.558 -0.8121 -3.6652  0.2906
  810MPD2    H111982   2.881   1.030  10.951 -1.9156  2.0172 -1.9069
  810MPD2    H211983   2.836   0.603  10.887  1.8377  0.2593  0.6000
  810MPD2    H311984   2.871   0.791  11.028  1.6159 -0.3921 -0.4306
  810MPD2     N11985   2.811   1.099  10.708 -0.0465 -0.2551 -0.0239
  810MPD2    H511986   2.815   1.170  10.780  0.5705 -0.8919  0.5746
  810MPD2    N111987   2.813   0.617  10.622 -0.3415 -0.3680  0.2253
  810MPD2    H711988   2.797   0.639  10.524  2.1885 -1.7864 -0.5092
  811MPD2     C11989   2.312   0.472  10.018 -0.5269 -0.4085 -0.6704
  811MPD2    C111990   2.412   0.539  10.093  0.1506  0.1523 -0.2199
  811MPD2    C211991   2.435   0.675  10.059 -0.3500  0.1045  0.0024
  811MPD2    C311992   2.367   0.731   9.954 -0.1407  0.1000  0.2237
  811MPD2    C411993   2.275   0.658   9.881 -0.2798  0.0457 -0.5610
  811MPD2    C511994   2.252   0.531   9.907  0.3776 -0.7495 -0.7651
  811MPD2     H11995   2.497   0.742  10.117 -0.8137 -0.6385  1.3583
  811MPD2    H111996   2.218   0.699   9.799 -2.5406 -1.6600  0.1465
  811MPD2    H211997   2.291   0.367  10.031  0.2019  0.0695  4.4224
  811MPD2    H311998   2.179   0.475   9.849 -1.0271  1.8282 -1.4737
  811MPD2     N11999   2.398   0.867   9.924  0.2414  0.0079  0.0312
  811MPD2    H512000   2.468   0.909   9.984  0.6949  1.0620 -1.2265
  811MPD2    N112001   2.472   0.458  10.202 -0.3365 -0.0140  0.0743
  811MPD2    H712002   2.446   0.360  10.201 -0.9175  0.1352  0.2992
  812MPD2     C12003   2.141   0.423  11.929 -0.2542  0.4277  0.3799
  812MPD2    C112004   2.036   0.407  12.019  0.2869 -0.1483 -0.6968
  812MPD2    C212005   2.065   0.422  12.154 -0.2611  1.2585  0.0922
  812MPD2    C312006   2.190   0.441  12.197 -0.4271  0.4373  0.1311
  812MPD2    C412007   2.288   0.469  12.104  0.5067  0.7728 -0.2337
  812MPD2    C512008   2.272   0.450  11.970 -0.2119  0.2687 -0.1282
  812MPD2     H12009   1.990   0.403  12.230  2.2289 -0.2722  2.1701
  812MPD2    H112010   2.388   0.489  12.141  0.2040  0.9737  0.4705
  812MPD2    H212011   2.122   0.424  11.822 -0.2770 -0.9472  0.3676
  812MPD2    H312012   2.353   0.464  11.898 -1.6428  2.3416 -1.3472
  812MPD2     N12013   2.206   0.459  12.335 -0.0672  1.0164 -0.7534
  812MPD2    H512014   2.134   0.438  12.403  0.7995 -1.1528 -0.4922
  812MPD2    N112015   1.901   0.396  11.970 -0.0415 -0.3902  0.8057
  812MPD2    H712016   1.892   0.410  11.870  0.5019 -1.0977  0.6671
  813MPD2     C12017   1.320   2.603  13.012  0.5867 -0.0125  0.2474
  813MPD2    C112018   1.237   2.711  13.032 -0.6965  0.4897  0.1327
  813MPD2    C212019   1.104   2.691  13.009  0.6997 -0.5682  0.1221
  813MPD2    C312020   1.048   2.568  12.969 -0.2079 -0.1791 -0.1488
  813MPD2    C412021   1.132   2.463  12.939  0.7023 -0.0055 -0.4861
  813MPD2    C512022   1.267   2.486  12.968  0.3782  0.1731 -0.5262
  813MPD2     H12023   1.032   2.768  13.033  0.9049 -0.4103  0.2274
  813MPD2    H112024   1.108   2.364  12.900  0.6289  0.2813 -1.1705
  813MPD2    H212025   1.425   2.602  13.037  0.7297 -0.9389 -0.3811
  813MPD2    H312026   1.331   2.402  12.944 -1.0171 -1.4635  1.4715
  813MPD2     N12027   0.901   2.552  12.972 -0.5039 -0.2634 -0.0044
  813MPD2    H512028   0.844   2.635  12.988 -1.0387 -0.3414 -1.5113
  813MPD2    N112029   1.292   2.823  13.095 -0.1300 -0.5017 -0.3162
  813MPD2    H712030   1.384   2.812  13.137 -0.7345 -0.9952  0.8889
  814MPD2     C12031   1.042   3.164  12.635 -0.7013 -0.2326  0.1232
  814MPD2    C112032   1.055   3.247  12.519 -0.2127 -0.0362 -0.7525
  814MPD2    C212033   1.100   3.373  12.540  0.9743  0.1504  0.3193
  814MPD2    C312034   1.127   3.429  12.663  0.0240 -0.6287 -0.5663
  814MPD2    C412035   1.118   3.343  12.768 -0.4062 -0.2906  0.3412
  814MPD2    C512036   1.068   3.216  12.757  0.5895  0.3031  0.2195
  814MPD2     H12037   1.126   3.435  12.455 -0.0720  1.0300  0.6421
  814MPD2    H112038   1.148   3.366  12.870 -0.0747 -1.6094  0.5406
  814MPD2    H212039   1.004   3.062  12.635 -0.0178 -0.4792  0.6795
  814MPD2    H312040   1.063   3.157  12.848 -0.2302 -0.2934 -0.2083
  814MPD2     N12041   1.156   3.565  12.683  0.0646 -0.3192  0.0525
  814MPD2    H512042   1.146   3.606  12.775  2.3011 -3.3317  1.6644
  814MPD2    N112043   1.001   3.219  12.394 -0.2841 -0.1227 -0.3071
  814MPD2    H712044   1.020   3.279  12.314 -2.6898  1.6149  0.4252
  815MPD2     C12045   1.653   2.077  11.629  0.3904  0.5533  0.2786
  815MPD2    C112046   1.678   1.947  11.669  0.3167 -1.5048  0.3535
  815MPD2    C212047   1.588   1.885  11.750  0.1085  0.1785  0.3498
  815MPD2    C312048   1.469   1.947  11.781 -0.2385 -0.6289 -0.6023
  815MPD2    C412049   1.439   2.071  11.731 -0.0181 -0.1959  0.0005
  815MPD2    C512050   1.540   2.139  11.666 -0.4676 -0.2417  0.4107
  815MPD2     H12051   1.604   1.788  11.795  1.5991  0.5853  0.6754
  815MPD2    H112052   1.341   2.116  11.747 -0.4404 -0.7108 -1.1443
  815MPD2    H212053   1.724   2.139  11.575  1.2205 -0.0496  0.6948
  815MPD2    H312054   1.513   2.241  11.643  2.8695  0.1399 -1.7687
  815MPD2     N12055   1.375   1.870  11.863 -0.3981  0.1925  0.2070
  815MPD2    H512056   1.408   1.783  11.902 -1.4706  0.4229  1.6348
  815MPD2    N112057   1.778   1.883  11.603 -0.2018 -0.8167 -0.1170
  815MPD2    H712058   1.815   1.931  11.521  0.7919 -1.4705 -0.0595
  816MPD2     C12059   2.158   1.470  17.234 -0.2327  1.0970 -0.3348
  816MPD2    C112060   2.233   1.584  17.219 -0.2220 -0.7528 -0.1933
  816MPD2    C212061   2.352   1.584  17.136  0.8114  0.1898 -0.5595
  816MPD2    C312062   2.388   1.468  17.068  0.4621  1.0325  0.1087
  816MPD2    C412063   2.302   1.362  17.081  0.1273  0.7527 -0.5356
  816MPD2    C512064   2.198   1.364  17.167  0.4799 -0.1049 -0.0718
  816MPD2     H12065   2.399   1.678  17.110  1.7498 -0.0472  0.2629
  816MPD2    H112066   2.315   1.267  17.032 -0.3898  0.3060  0.1891
  816MPD2    H212067   2.078   1.472  17.308 -1.1411 -1.5904 -1.2667
  816MPD2    H312068   2.137   1.274  17.169  1.1406 -0.5371  1.0740
  816MPD2     N12069   2.499   1.469  16.984 -0.0015  0.2530 -0.1541
  816MPD2    H512070   2.563   1.548  16.994  1.3022 -0.9769  1.1420
  816MPD2    N112071   2.174   1.700  17.278 -0.0737  0.1878  0.1546
  816MPD2    H712072   2.077   1.679  17.296  0.4460 -0.4822  2.1563
  817MPD2     C12073   0.775   2.801   9.715  0.5422 -0.4131 -0.1153
  817MPD2    C112074   0.837   2.796   9.593 -0.3198  0.0594 -0.0383
  817MPD2    C212075   0.789   2.879   9.496 -0.5065 -0.3233 -0.1876
  817MPD2    C312076   0.674   2.960   9.521 -0.0224 -0.0991  0.7099
  817MPD2    C412077   0.617   2.951   9.646  0.4932 -0.5459  0.2900
  817MPD2    C512078   0.668   2.880   9.745  0.1319 -0.0837  0.1547
  817MPD2     H12079   0.839   2.893   9.401  1.3182 -0.1468  0.7998
  817MPD2    H112080   0.534   3.015   9.674 -0.5992 -1.0511 -1.8029
  817MPD2    H212081   0.815   2.742   9.797  1.6608 -0.9976 -1.0788
  817MPD2    H312082   0.619   2.879   9.842 -2.5971  0.4971 -1.2143
  817MPD2     N12083   0.609   3.017   9.412  0.0887  0.1422 -0.0509
  817MPD2    H512084   0.664   3.018   9.326 -0.5620  1.1007 -0.4681
  817MPD2    N112085   0.957   2.722   9.569  0.0457  0.0405  0.3076
  817MPD2    H712086   0.998   2.716   9.477 -1.6298 -4.2108 -0.1930
  818MPD2     C12087   4.593   2.785   9.430 -0.2966  0.6854  0.2722
  818MPD2    C112088   4.669   2.710   9.522 -0.4226  0.0471  0.3675
  818MPD2    C212089   0.006   2.605   9.476 -0.6017  0.5604  0.0660
  818MPD2    C312090   0.005   2.571   9.343 -0.2598  0.6700  0.3454
  818MPD2    C412091   4.671   2.652   9.256 -0.2302  0.5304 -0.3039
  818MPD2    C512092   4.596   2.758   9.303 -0.2157  0.7636 -0.0786
  818MPD2     H12093   0.051   2.533   9.543  1.2165  2.7038  1.1383
  818MPD2    H112094   4.671   2.621   9.152  0.1346  0.1488 -0.1921
  818MPD2    H212095   4.536   2.872   9.462 -0.9811  0.3764 -0.1116
  818MPD2    H312096   4.532   2.821   9.241 -1.7551 -0.4526  0.2633
  818MPD2     N12097   0.052   2.451   9.292  0.1353  0.0409  0.4844
  818MPD2    H512098   0.035   2.432   9.193  3.3081  1.1638 -0.2814
  818MPD2    N112099   4.673   2.724   9.663 -0.3465 -0.4512  0.6505
  818MPD2    H712100   4.726   2.649   9.706  0.1324  0.2381  1.2715
  819MPD2     C12101   3.676   4.691  15.435 -0.0483  0.3993 -0.2633
  819MPD2    C112102   3.722   4.575  15.496  0.5365  0.8596 -0.1487
  819MPD2    C212103   3.831   4.584  15.582  0.4255  0.2510  0.1574
  819MPD2    C312104   3.891   4.704  15.608 -0.4869 -0.5834  0.8755
  819MPD2    C412105   3.848   0.077  15.532  0.5603 -0.1488  0.6430
  819MPD2    C512106   3.737   0.073  15.456 -0.3553 -0.0111  0.0054
  819MPD2     H12107   3.863   4.493  15.632 -0.5751 -0.2387 -0.0844
  819MPD2    H112108   3.889   0.176  15.549  1.5260 -0.4647  0.1820
  819MPD2    H212109   3.583   4.695  15.380  0.4264 -0.5906 -1.1298
  819MPD2    H312110   3.707   0.158  15.396 -0.3673  0.1398  0.2268
  819MPD2     N12111   3.997   4.705  15.699 -0.1519 -0.6681 -0.4810
  819MPD2    H512112   4.012   4.616  15.744  1.8434 -0.6706 -1.1588
  819MPD2    N112113   3.644   4.459  15.477 -0.2005  0.1180 -0.2687
  819MPD2    H712114   3.575   4.454  15.403 -0.4725  0.1752 -0.0150
  820MPD2     C12115   2.954   4.364  14.878  0.5669 -0.5111  0.0065
  820MPD2    C112116   3.004   4.452  14.970  0.8329 -0.6968 -0.7594
  820MPD2    C212117   3.097   4.401  15.058 -0.6991  0.1625 -0.2787
  820MPD2    C312118   3.136   4.267  15.055 -0.2893 -0.2942  0.5231
  820MPD2    C412119   3.065   4.183  14.982 -0.4416  1.0276 -0.2668
  820MPD2    C512120   2.980   4.233  14.892  0.5575 -0.0267  0.9279
  820MPD2     H12121   3.148   4.473  15.121  0.8273 -1.1560 -0.0112
  820MPD2    H112122   3.068   4.079  15.012 -1.0499  1.3523  0.8944
  820MPD2    H212123   2.881   4.399  14.805  1.2995 -1.2702 -1.0918
  820MPD2    H312124   2.933   4.157  14.830  1.3427 -0.7259  1.1785
  820MPD2     N12125   3.228   4.213  15.143 -0.3508  0.1393  0.0863
  820MPD2    H512126   3.232   4.112  15.148 -0.2312  0.0671 -1.3687
  820MPD2    N112127   2.964   4.589  14.959 -0.3954 -0.3012  0.1181
  820MPD2    H712128   2.896   4.618  14.889  0.0176 -1.6665 -0.8367
  821MPD2     C12129   3.950   1.252  13.360  0.3236 -0.2734  0.3535
  821MPD2    C112130   4.038   1.291  13.466 -0.3123  0.1081  0.3603
  821MPD2    C212131   4.148   1.372  13.429 -0.2443  0.5936 -0.6571
  821MPD2    C312132   4.166   1.425  13.300  0.2637 -0.7266 -1.0398
  821MPD2    C412133   4.079   1.383  13.202  0.0712 -0.6600  0.0131
  821MPD2    C512134   3.972   1.301  13.230 -0.6087 -0.6730 -0.1570
  821MPD2     H12135   4.203   1.405  13.516 -1.7372 -1.5561  1.0965
  821MPD2    H112136   4.091   1.421  13.102 -1.0702  1.0398  0.5209
  821MPD2    H212137   3.856   1.200  13.373  1.5366 -2.3661  0.8860
  821MPD2    H312138   3.894   1.284  13.156  0.2704 -2.4500 -0.6777
  821MPD2     N12139   4.281   1.492  13.267  0.6103  0.3659 -0.2341
  821MPD2    H512140   4.292   1.502  13.167  1.4028 -1.9666 -0.4020
  821MPD2    N112141   4.024   1.257  13.597  0.0437 -0.2786  0.3509
  821MPD2    H712142   4.086   1.303  13.663  2.8153  0.2680 -2.6520
  822MPD2     C12143   4.529   1.638  15.755  0.0174 -0.0260 -0.4806
  822MPD2    C112144   4.512   1.580  15.879 -0.3786  0.3231 -0.5428
  822MPD2    C212145   4.443   1.652  15.970  0.2499  0.5017 -0.0154
  822MPD2    C312146   4.380   1.772  15.942 -0.3399  0.3112 -0.2712
  822MPD2    C412147   4.405   1.834  15.817  0.4281  0.7559 -0.2056
  822MPD2    C512148   4.482   1.765  15.728  0.3539 -0.2957 -0.2362
  822MPD2     H12149   4.430   1.608  16.069  0.0358 -0.2182 -0.3694
  822MPD2    H112150   4.360   1.928  15.785 -1.3350 -0.2744 -0.7845
  822MPD2    H212151   4.580   1.593  15.671  0.2109 -0.9593  0.1455
  822MPD2    H312152   4.503   1.799  15.627  0.5887  0.4176  0.0516
  822MPD2     N12153   4.304   1.825  16.045 -0.0556 -0.4587 -0.3773
  822MPD2    H512154   4.288   1.763  16.125 -1.5992  1.0278  0.4612
  822MPD2    N112155   4.577   1.461  15.918 -0.6882 -0.0551 -0.1318
  822MPD2    H712156   4.571   1.431  16.015 -0.6147  0.7240  0.1125
  823MPD2     C12157   3.998   1.809  16.819  0.6999  0.3147  0.2217
  823MPD2    C112158   4.039   1.741  16.704 -0.2976  0.4867  0.3608
  823MPD2    C212159   4.078   1.609  16.722 -0.3340 -0.2578 -0.0691
  823MPD2    C312160   4.068   1.538  16.844  0.0879  0.3839  0.4851
  823MPD2    C412161   4.023   1.611  16.950  0.0122  0.2125 -0.4413
  823MPD2    C512162   3.993   1.742  16.937  0.2839  0.5922  0.1500
  823MPD2     H12163   4.110   1.550  16.636  0.1715  0.5316 -0.4210
  823MPD2    H112164   4.034   1.568  17.048 -0.1896 -3.2059 -1.9302
  823MPD2    H212165   3.977   1.915  16.825 -3.3379 -0.5784  1.5594
  823MPD2    H312166   3.987   1.804  17.026  1.1705 -1.3111  1.5398
  823MPD2     N12167   4.122   1.416  16.875 -0.2586 -0.0621  0.5598
  823MPD2    H512168   4.106   1.392  16.972  0.4626  1.0622  0.9557
  823MPD2    N112169   4.037   1.817  16.582 -0.3544 -0.0075  0.1327
  823MPD2    H712170   4.033   1.918  16.593 -2.1738 -0.1963  1.0693
  824MPD2     C12171   4.615   0.704  15.650  0.0626  0.0242  0.5652
  824MPD2    C112172   4.706   0.759  15.737 -0.1461 -0.1814  0.1898
  824MPD2    C212173   0.096   0.698  15.752 -0.0413  0.4922 -0.8079
  824MPD2    C312174   0.120   0.572  15.689 -0.3958  0.0636  0.5661
  824MPD2    C412175   0.024   0.516  15.611 -0.3541  0.5650  0.1543
  824MPD2    C512176   4.640   0.583  15.599  0.0476  0.5409  0.0715
  824MPD2     H12177   0.172   0.751  15.808 -0.9575  0.2575  0.6569
  824MPD2    H112178   0.038   0.421  15.562 -3.0026 -0.2909  1.0379
  824MPD2    H212179   4.517   0.748  15.637 -0.1444 -0.3595  0.8321
  824MPD2    H312180   4.571   0.543  15.527  0.2359 -0.0142  0.1949
  824MPD2     N12181   0.248   0.514  15.703  0.0537 -0.1566 -0.3423
  824MPD2    H512182   0.319   0.562  15.759 -0.4802 -0.0191  0.2165
  824MPD2    N112183   4.677   0.881  15.813  0.0302 -0.0532  0.2010
  824MPD2    H712184   4.600   0.938  15.779  0.1970 -0.8713 -1.5501
  825MPD2     C12185   1.094   0.657  15.712 -0.2406 -0.2070  0.5347
  825MPD2    C112186   0.970   0.698  15.665  0.8710  0.6714  0.2537
  825MPD2    C212187   0.955   0.826  15.614  0.5343 -0.6004 -0.4557
  825MPD2    C312188   1.069   0.906  15.610  0.6548 -0.2755  0.8713
  825MPD2    C412189   1.190   0.858  15.645 -0.6804 -0.2506 -0.7014
  825MPD2    C512190   1.206   0.734  15.705  0.1441  0.4397  0.7675
  825MPD2     H12191   0.853   0.860  15.603  0.4007 -0.9860 -0.3947
  825MPD2    H112192   1.281   0.913  15.624 -1.3380  1.0890 -0.0283
  825MPD2    H212193   1.096   0.555  15.749  1.8773 -0.5231 -0.4533
  825MPD2    H312194   1.303   0.702  15.741 -0.0834 -1.0724  0.0703
  825MPD2     N12195   1.052   1.041  15.571 -0.4274 -0.3989 -0.7365
  825MPD2    H512196   1.137   1.096  15.561 -1.0229  0.4774 -0.9595
  825MPD2    N112197   0.863   0.605  15.679 -0.2451 -0.8805 -0.1081
  825MPD2    H712198   0.881   0.511  15.714 -0.1818  0.3890  3.2590
  826MPD2     C12199   4.541   0.028  14.027 -0.2437  0.5699 -0.3629
  826MPD2    C112200   4.538   0.105  13.913  0.1732 -0.0047  0.0525
  826MPD2    C212201   4.497   0.239  13.918 -0.0052 -0.1695 -0.2560
  826MPD2    C312202   4.463   0.297  14.038  0.7512  0.0510 -0.8130
  826MPD2    C412203   4.479   0.223  14.148  0.0766  0.5732 -0.1242
  826MPD2    C512204   4.518   0.091  14.143 -0.1256 -0.0281  0.1809
  826MPD2     H12205   4.479   0.301  13.831 -1.6682  0.7432  0.7289
  826MPD2    H112206   4.457   0.249  14.251  0.3997 -1.2356  0.3996
  826MPD2    H212207   4.576   4.662  14.033 -2.1617 -0.1414 -1.3012
  826MPD2    H312208   4.528   0.034  14.234 -0.5434 -1.2233 -0.5305
  826MPD2     N12209   4.429   0.429  14.067  0.2757  0.2594 -0.2352
  826MPD2    H512210   4.439   0.458  14.164  0.3424 -1.0944  0.1680
  826MPD2    N112211   4.597   0.050  13.799 -0.6064 -0.3586  0.8868
  826MPD2    H712212   4.646   4.697  13.806  0.6199  0.0979 -2.2350
  827MPD2     C12213   0.938   1.377   9.921  0.5276 -0.3066 -0.2968
  827MPD2    C112214   0.862   1.312  10.018  0.3497  0.0732  0.1548
  827MPD2    C212215   0.745   1.255   9.971 -0.8093  0.3787 -0.0028
  827MPD2    C312216   0.696   1.259   9.842  0.2587 -0.2901  0.2603
  827MPD2    C412217   0.772   1.326   9.750 -0.3187 -0.4282  0.4041
  827MPD2    C512218   0.895   1.375   9.788  0.0819  0.1598  0.1161
  827MPD2     H12219   0.677   1.197  10.033  0.0238 -1.1659 -0.5150
  827MPD2    H112220   0.737   1.343   9.649 -0.9281 -0.4868  0.6108
  827MPD2    H212221   1.032   1.424   9.949 -0.1390  0.5874  0.4110
  827MPD2    H312222   0.946   1.416   9.701  0.6674  2.9069  1.7665
  827MPD2     N12223   0.583   1.192   9.807  0.0953 -0.2416  0.3568
  827MPD2    H512224   0.537   1.133   9.876 -1.7826  0.5153 -0.2498
  827MPD2    N112225   0.908   1.312  10.149  0.0056 -0.2307  0.2747
  827MPD2    H712226   1.000   1.353  10.160  0.9907 -1.3197 -3.7172
  828MPD2     C12227   4.561   1.653  12.317 -0.2542  0.1379  0.2880
  828MPD2    C112228   4.443   1.630  12.250 -0.7043  0.6765  0.5062
  828MPD2    C212229   4.444   1.598  12.117 -0.3905  0.9635  0.2043
  828MPD2    C312230   4.557   1.597  12.044 -0.1234  0.0623 -0.4877
  828MPD2    C412231   4.679   1.611  12.107 -0.1074 -0.4426 -1.1852
  828MPD2    C512232   4.678   1.647  12.241  1.1127  0.2883 -0.1638
  828MPD2     H12233   4.348   1.590  12.066  0.4264  1.8102 -1.4692
  828MPD2    H112234   0.037   1.606  12.054  1.8905  0.1507  2.2774
  828MPD2    H212235   4.565   1.664  12.424 -1.6978 -1.7079  0.5143
  828MPD2    H312236   0.034   1.651  12.299  1.2940 -0.0298 -0.4328
  828MPD2     N12237   4.565   1.569  11.898  0.7230 -0.7101  0.0680
  828MPD2    H512238   4.657   1.558  11.857  0.1306  0.8438 -1.6320
  828MPD2    N112239   4.316   1.633  12.305 -0.4274 -0.0898  0.5083
  828MPD2    H712240   4.246   1.589  12.247  1.5046 -2.4876  0.0031
  829MPD2     C12241   3.410   1.431  12.046  0.1137  0.7104 -0.2702
  829MPD2    C112242   3.526   1.477  11.995  0.2761 -0.4308 -0.4660
  829MPD2    C212243   3.622   1.532  12.083  0.3373 -0.2547 -0.1803
  829MPD2    C312244   3.608   1.520  12.220  0.6276 -0.4557 -0.3624
  829MPD2    C412245   3.484   1.480  12.268 -0.0718  0.6551 -0.5086
  829MPD2    C512246   3.390   1.432  12.183 -0.4297  0.4411  0.0350
  829MPD2     H12247   3.715   1.572  12.045  0.8465 -1.4164 -0.1469
  829MPD2    H112248   3.450   1.480  12.371  0.2014 -0.2154 -0.4234
  829MPD2    H212249   3.342   1.380  11.978 -1.7389  0.5781  1.6613
  829MPD2    H312250   3.292   1.404  12.219 -0.4774  0.2221 -0.2611
  829MPD2     N12251   3.705   1.574  12.311  0.6080  0.2858 -0.5462
  829MPD2    H512252   3.692   1.550  12.408  2.5018 -0.6668 -0.5454
  829MPD2    N112253   3.543   1.471  11.858  0.3249 -0.0445 -0.2741
  829MPD2    H712254   3.477   1.414  11.806 -1.6371  1.3538  0.6887
  830MPD2     C12255   0.099   4.616  15.619 -0.3022 -0.1022  0.1382
  830MPD2    C112256   4.728   4.699  15.600 -0.1065  0.3400  0.0452
  830MPD2    C212257   4.730   0.052  15.493 -0.0779  0.0204  0.1791
  830MPD2    C312258   0.111   0.070  15.413  0.1209 -0.2802 -0.3365
  830MPD2    C412259   0.221   4.730  15.442  0.5597  0.3645  0.0285
  830MPD2    C512260   0.214   4.647  15.550  0.9357  0.2467  0.0854
  830MPD2     H12261   4.640   0.108  15.470 -1.2900 -1.7413  0.5821
  830MPD2    H112262   0.320   0.009  15.401  0.5823 -0.8459 -0.3272
  830MPD2    H212263   0.108   4.550  15.705 -1.4270 -0.1580  0.2132
  830MPD2    H312264   0.303   4.601  15.592  1.1074  0.5867  0.0908
  830MPD2     N12265   0.121   0.178  15.322  0.1775 -0.3442 -0.1594
  830MPD2    H512266   0.213   0.188  15.279 -0.2527  0.0127 -0.9865
  830MPD2    N112267   4.618   4.695  15.687 -0.4881 -0.5605  0.0200
  830MPD2    H712268   4.582   4.610  15.730 -1.4374  0.0140  0.3434
  831MPD2     C12269   4.487   1.819  16.407  0.7553 -0.3587  0.2687
  831MPD2    C112270   4.562   1.733  16.332  0.7449  0.0376  0.0541
  831MPD2    C212271   4.525   1.600  16.327 -0.2709 -0.5745 -1.6194
  831MPD2    C312272   4.431   1.550  16.415  0.1586 -0.0349 -0.6256
  831MPD2    C412273   4.385   1.630  16.517  0.8716  0.3139  0.5976
  831MPD2    C512274   4.412   1.766  16.507 -0.1849  0.1325  0.5113
  831MPD2     H12275   4.581   1.528  16.269 -0.2425 -0.4551 -1.7404
  831MPD2    H112276   4.322   1.594  16.598  0.9776 -0.8946  0.1378
  831MPD2    H212277   4.511   1.925  16.414  0.9805 -0.4184  0.3892
  831MPD2    H312278   4.358   1.831  16.575  1.9465  1.5413  0.8375
  831MPD2     N12279   4.388   1.418  16.410 -0.0970 -1.1359  0.0848
  831MPD2    H512280   4.327   1.381  16.481  0.0574  0.5192  1.0811
  831MPD2    N112281   4.656   1.787  16.245  0.4741 -0.2686 -0.2414
  831MPD2    H712282   4.663   1.888  16.248 -1.6671 -0.1282  0.2839
  832MPD2     C12283   2.865   2.576  17.375  0.4319 -0.4778 -0.3293
  832MPD2    C112284   2.859   2.698  17.306 -0.0950  0.8981  0.3495
  832MPD2    C212285   2.750   2.727  17.220 -0.4046 -0.3607 -0.8888
  832MPD2    C312286   2.666   2.624  17.188 -0.2931  0.7141  0.5568
  832MPD2    C412287   2.667   2.506  17.262  0.0575  0.5410 -0.2493
  832MPD2    C512288   2.767   2.487  17.358 -1.0305 -0.1859  0.1569
  832MPD2     H12289   2.744   2.821  17.165 -2.0791 -0.4012 -0.7756
  832MPD2    H112290   2.593   2.429  17.244 -0.6441  0.9163  0.9889
  832MPD2    H212291   2.947   2.544  17.439  0.0796  0.4350  0.5819
  832MPD2    H312292   2.771   2.391  17.408 -0.0238  0.0938  0.6255
  832MPD2     N12293   2.568   2.648  17.093 -0.1112  0.2424  0.4950
  832MPD2    H512294   2.499   2.573  17.086 -0.3961  0.5675 -0.1322
  832MPD2    N112295   2.974   2.779  17.326 -0.8870 -0.1925 -0.3484
  832MPD2    H712296   3.038   2.741  17.395 -0.2278  0.7648 -0.4370
  833MPD2     C12297   0.355   4.525  11.900  0.5233 -0.2488  0.3358
  833MPD2    C112298   0.235   4.508  11.836 -0.0251 -0.3302 -0.0022
  833MPD2    C212299   0.215   4.396  11.760  0.8469  0.1123 -0.5792
  833MPD2    C312300   0.318   4.311  11.740  0.0468 -0.8742 -0.3646
  833MPD2    C412301   0.445   4.333  11.784  0.2554  0.0313 -0.1144
  833MPD2    C512302   0.457   4.437  11.870  0.0474  0.3293 -1.1333
  833MPD2     H12303   0.117   4.378  11.717  0.7343 -0.1473 -0.2148
  833MPD2    H112304   0.533   4.272  11.767 -0.7909 -1.5540  0.1039
  833MPD2    H212305   0.379   4.607  11.966 -0.1256  1.5085 -1.6064
  833MPD2    H312306   0.555   4.466  11.907 -0.2675 -1.1682  0.8729
  833MPD2     N12307   0.286   4.194  11.672  0.1101 -0.6683 -0.1028
  833MPD2    H512308   0.189   4.190  11.642  0.8901 -1.9152 -2.4615
  833MPD2    N112309   0.130   4.608  11.837  0.1061  0.4795 -0.0806
  833MPD2    H712310   0.042   4.581  11.794  0.9570 -1.6905 -0.4443
  834MPD2     C12311   0.132   3.160  11.593  0.2798 -0.6738 -0.4481
  834MPD2    C112312   0.096   3.226  11.484 -0.4567  0.5908  0.1202
  834MPD2    C212313   0.099   3.365  11.475 -0.0135  0.0234 -0.0386
  834MPD2    C312314   0.142   3.437  11.589 -0.1655 -0.6595  0.9141
  834MPD2    C412315   0.168   3.367  11.708  0.4179  0.9648 -0.6042
  834MPD2    C512316   0.162   3.230  11.707  1.1893  0.1565  0.0801
  834MPD2     H12317   0.079   3.422  11.386  1.5625  2.0488  0.9087
  834MPD2    H112318   0.193   3.418  11.801  1.0306  0.0050 -0.2466
  834MPD2    H212319   0.129   3.052  11.592  1.2746 -0.7030 -0.4846
  834MPD2    H312320   0.201   3.171  11.790  2.5070 -1.0793 -1.4063
  834MPD2     N12321   0.121   3.575  11.582  0.3183 -0.5597 -0.0887
  834MPD2    H512322   0.082   3.610  11.496 -0.4420 -0.6729  0.2064
  834MPD2    N112323   0.055   3.138  11.384 -0.1612  0.0607 -0.4672
  834MPD2    H712324   0.052   3.039  11.407 -0.1046  0.5321  1.5301
  835MPD2     C12325   0.052   1.443  10.637  0.1559 -0.6725  0.3480
  835MPD2    C112326   4.701   1.501  10.732 -0.8840  0.1261  0.1676
  835MPD2    C212327   0.016   1.546  10.850  0.1232  0.6895 -0.0493
  835MPD2    C312328   0.150   1.528  10.882 -0.2516  0.3503 -0.0161
  835MPD2    C412329   0.229   1.451  10.801 -0.0130 -0.2426 -0.3788
  835MPD2    C512330   0.179   1.415  10.675 -0.6610  0.0536 -0.1089
  835MPD2     H12331   4.684   1.606  10.910 -0.0791 -1.4043  1.8173
  835MPD2    H112332   0.333   1.431  10.826  0.1546  1.5721  0.3808
  835MPD2    H212333   0.020   1.418  10.537 -0.4143  1.0071  0.1173
  835MPD2    H312334   0.244   1.360  10.608  0.5828 -0.6436  1.6630
  835MPD2     N12335   0.205   1.571  11.005  0.3589 -0.3764  0.1322
  835MPD2    H512336   0.302   1.543  11.020  0.7416  0.9843  0.1599
  835MPD2    N112337   4.573   1.535  10.702 -0.2228  0.4453 -0.3671
  835MPD2    H712338   4.529   1.592  10.774 -0.3886 -0.5195  0.2914
  836MPD2     C12339   4.534   1.939  11.500 -0.2831  0.6532 -0.1896
  836MPD2    C112340   4.625   1.872  11.577 -0.1471  0.0809  0.2144
  836MPD2    C212341   4.630   1.894  11.716 -0.0418  0.6232 -0.0563
  836MPD2    C312342   4.533   1.973  11.778 -0.6598 -0.1446  0.4720
  836MPD2    C412343   4.442   2.038  11.692 -0.1634 -0.4487  0.0474
  836MPD2    C512344   4.445   2.023  11.555  0.2778 -0.3235  0.3685
  836MPD2     H12345   4.719   1.871  11.773  0.4099  1.0948 -0.5664
  836MPD2    H112346   4.363   2.093  11.742  0.4103 -0.2371  0.7259
  836MPD2    H212347   4.527   1.917  11.394  0.8283 -0.3848 -0.0563
  836MPD2    H312348   4.371   2.073  11.493 -0.8099 -0.9976  1.1253
  836MPD2     N12349   4.515   1.986  11.915  0.4414 -0.9360  0.4526
  836MPD2    H512350   4.432   2.035  11.945  0.0181 -1.9863  1.0128
  836MPD2    N112351   4.717   1.791  11.509  0.6803  0.0847 -0.0762
  836MPD2    H712352   4.707   1.780  11.408 -0.6864 -0.1793  0.0896
  837MPD2     C12353   2.816   1.385  10.199 -0.5539 -0.1096  0.5135
  837MPD2    C112354   2.703   1.435  10.142  0.3123  0.5053 -0.8365
  837MPD2    C212355   2.653   1.555  10.196  0.4397  0.5072  0.4871
  837MPD2    C312356   2.712   1.618  10.306  0.7477  0.3866  0.7425
  837MPD2    C412357   2.818   1.560  10.369  0.4094 -0.4213  0.3305
  837MPD2    C512358   2.873   1.450  10.305  0.0503 -0.1058 -0.0607
  837MPD2     H12359   2.565   1.607  10.158  1.8887  1.9357 -0.8715
  837MPD2    H112360   2.868   1.605  10.454 -0.0699  2.9400 -1.1809
  837MPD2    H212361   2.852   1.286  10.173  1.2967  0.1271  2.2129
  837MPD2    H312362   2.956   1.402  10.355  2.0036  2.2422 -1.0414
  837MPD2     N12363   2.645   1.723  10.365 -0.5002  0.3549  0.4648
  837MPD2    H512364   2.552   1.749  10.333  0.4596 -0.5027 -3.0414
  837MPD2    N112365   2.646   1.377  10.031  0.1141 -0.3869  0.1132
  837MPD2    H712366   2.572   1.431   9.989  1.9336 -0.3099 -3.0420
  838MPD2     C12367   1.427   4.042  11.839 -0.2541  0.7354 -0.0851
  838MPD2    C112368   1.305   4.028  11.774  0.2244 -0.1503 -0.0259
  838MPD2    C212369   1.186   4.035  11.844 -0.0191  0.3951 -0.7165
  838MPD2    C312370   1.193   4.053  11.982  0.3705  0.7105  0.3480
  838MPD2    C412371   1.310   4.057  12.049 -0.1391  0.2810 -0.6416
  838MPD2    C512372   1.428   4.053  11.974 -0.0005  0.4666 -0.0253
  838MPD2     H12373   1.092   4.031  11.791 -0.6727 -1.0844  0.5375
  838MPD2    H112374   1.306   4.075  12.155 -1.5169 -1.4982 -0.3986
  838MPD2    H212375   1.524   4.031  11.792 -0.4142  0.5579 -0.3736
  838MPD2    H312376   1.522   4.058  12.028 -0.8680  0.5026  1.4912
  838MPD2     N12377   1.081   4.093  12.059  0.3234  0.4787 -0.1628
  838MPD2    H512378   1.105   4.106  12.157  3.4344  0.0094 -0.8615
  838MPD2    N112379   1.294   4.001  11.631 -0.6242  0.3132  0.6396
  838MPD2    H712380   1.205   4.010  11.583 -0.3511 -1.7809 -0.2875
  839MPD2     C12381   0.569   3.780  11.345 -0.4970  0.4598 -1.2710
  839MPD2    C112382   0.656   3.677  11.308 -0.7261 -0.7284 -0.7348
  839MPD2    C212383   0.792   3.708  11.294 -0.1554 -0.7723  0.1309
  839MPD2    C312384   0.840   3.838  11.324 -0.0172  0.1528  0.3759
  839MPD2    C412385   0.745   3.930  11.367  0.1763 -0.3110  0.0475
  839MPD2    C512386   0.616   3.899  11.389 -0.2213 -0.4909 -0.6222
  839MPD2     H12387   0.863   3.632  11.265 -2.0204 -2.2018 -0.6543
  839MPD2    H112388   0.767   4.028  11.407 -1.1661  0.9360 -2.3181
  839MPD2    H212389   0.463   3.759  11.344 -0.0312 -2.0039  0.5529
  839MPD2    H312390   0.547   3.980  11.409 -0.2729 -0.7878  0.4079
  839MPD2     N12391   0.970   3.881  11.307 -0.3721  0.1258 -0.2494
  839MPD2    H512392   1.005   3.972  11.334 -1.3586  1.7511 -4.4025
  839MPD2    N112393   0.605   3.546  11.279 -0.7746  0.0779  0.7426
  839MPD2    H712394   0.675   3.483  11.241  0.0715  0.3262  1.9153
  840MPD2     C12395   1.251   1.796  10.286 -0.3509 -0.2196  1.2226
  840MPD2    C112396   1.226   1.744  10.413  0.6660  0.7510 -0.4295
  840MPD2    C212397   1.293   1.805  10.516  0.6433  0.6282  0.6073
  840MPD2    C312398   1.388   1.899  10.499  0.3233 -0.1217  0.5397
  840MPD2    C412399   1.418   1.938  10.369  0.1183 -0.3251  0.3282
  840MPD2    C512400   1.353   1.887  10.264 -0.6065  0.0039  0.5292
  840MPD2     H12401   1.272   1.780  10.619 -1.2554  0.8971  0.2802
  840MPD2    H112402   1.498   2.008  10.348 -0.5632  0.2472 -0.3609
  840MPD2    H212403   1.192   1.759  10.203  0.0535  0.9333  0.4274
  840MPD2    H312404   1.370   1.915  10.160  1.4354 -0.8817  0.6156
  840MPD2     N12405   1.450   1.960  10.605  0.5869  0.3119  0.1381
  840MPD2    H512406   1.434   1.919  10.697 -1.3074  1.8936  0.5051
  840MPD2    N112407   1.136   1.635  10.419  0.6351 -0.4398  0.3211
  840MPD2    H712408   1.078   1.622  10.337  0.5451  1.2748  0.1201
  841MPD2     C12409   2.236   1.394  14.572  0.7754 -0.3694  0.0419
  841MPD2    C112410   2.102   1.414  14.569 -0.6042  0.3255  0.1794
  841MPD2    C212411   2.051   1.535  14.603  0.3060 -0.3120 -0.0057
  841MPD2    C312412   2.132   1.639  14.641  0.0446 -0.8218 -0.8119
  841MPD2    C412413   2.266   1.619  14.654 -0.6407  0.3221 -0.4606
  841MPD2    C512414   2.318   1.498  14.625  0.1208  0.9493  0.1305
  841MPD2     H12415   1.943   1.544  14.597  0.2820 -0.0995  0.6769
  841MPD2    H112416   2.343   1.682  14.694 -1.5198  1.7480 -1.0229
  841MPD2    H212417   2.282   1.301  14.539 -1.5188 -1.2373 -0.7408
  841MPD2    H312418   2.423   1.479  14.644 -0.7424 -1.6658  2.1923
  841MPD2     N12419   2.077   1.767  14.671  0.6609  0.0343 -0.3620
  841MPD2    H512420   1.976   1.776  14.665  0.3871 -2.2597  0.5652
  841MPD2    N112421   2.014   1.309  14.530  0.3999  0.8119 -0.0622
  841MPD2    H712422   1.918   1.334  14.510  0.7486  0.5331 -2.1722
  842MPD2     C12423   2.057   3.268  16.706  0.2041 -0.2395 -0.4388
  842MPD2    C112424   1.965   3.168  16.725 -0.0906 -0.0187  0.2139
  842MPD2    C212425   1.964   3.091  16.841 -0.5246 -0.4265  0.1192
  842MPD2    C312426   2.043   3.131  16.948 -0.6909  0.6646 -0.3643
  842MPD2    C412427   2.144   3.227  16.920  0.9553 -0.7005  0.2360
  842MPD2    C512428   2.152   3.296  16.795 -0.5968 -0.4251  0.2921
  842MPD2     H12429   1.880   3.024  16.858  0.2019 -1.5373 -0.6384
  842MPD2    H112430   2.214   3.258  16.996  0.6863 -0.8497  0.5456
  842MPD2    H212431   2.072   3.317  16.611 -0.4624 -1.7224 -1.3059
  842MPD2    H312432   2.229   3.366  16.765 -0.2956 -0.7871  0.2126
  842MPD2     N12433   2.035   3.080  17.079 -0.0298  0.0168 -0.0746
  842MPD2    H512434   2.092   3.128  17.148  0.6953  0.4000 -0.9393
  842MPD2    N112435   1.876   3.155  16.620 -0.1383  0.5775  0.3589
  842MPD2    H712436   1.879   3.222  16.543  0.6508 -0.7919 -0.8162
  843MPD2     C12437   4.467   3.461   0.453  0.2565  0.2268  0.6174
  843MPD2    C112438   4.395   3.525   0.357  0.0984 -0.1784  0.5963
  843MPD2    C212439   4.422   3.659   0.328  0.6078 -0.0379  0.8297
  843MPD2    C312440   4.526   3.719   0.395  0.1672  0.2699 -0.0552
  843MPD2    C412441   4.606   3.647   0.475 -0.5726  0.1967 -0.3522
  843MPD2    C512442   4.573   3.520   0.506  0.1757 -0.4408 -0.1301
  843MPD2     H12443   4.371   3.713   0.249  2.4242  1.9399  0.9826
  843MPD2    H112444   4.689   3.696   0.525  0.2693 -1.2107 -0.3492
  843MPD2    H212445   4.448   3.359   0.484  1.4161 -0.3663 -0.6591
  843MPD2    H312446   4.638   3.463   0.572 -4.0441 -0.9640  3.6280
  843MPD2     N12447   4.572   3.846   0.366 -0.2836 -0.1805  0.1543
  843MPD2    H512448   4.668   3.866   0.392 -0.4711 -2.0983  2.3666
  843MPD2    N112449   4.279   3.448   0.304 -0.1130 -0.4988  0.1651
  843MPD2    H712450   4.274   3.353   0.339 -0.7537 -0.5764 -0.1374
  844MPD2     C12451   2.512   2.545  16.376  0.2484  0.1381  0.1215
  844MPD2    C112452   2.645   2.509  16.386  0.0030  0.2043 -0.1922
  844MPD2    C212453   2.721   2.605  16.446 -0.2649  0.2236  1.1908
  844MPD2    C312454   2.665   2.720  16.512 -0.1380  0.2669 -0.1680
  844MPD2    C412455   2.534   2.741  16.510  0.0641  0.7232  0.1512
  844MPD2    C512456   2.456   2.651  16.441 -0.0536 -0.9461  0.1330
  844MPD2     H12457   2.829   2.592  16.442 -0.3589 -0.3769  0.6323
  844MPD2    H112458   2.484   2.826  16.554  0.5455  1.4248 -0.6552
  844MPD2    H212459   2.438   2.487  16.322 -0.5518  0.3453  0.9999
  844MPD2    H312460   2.351   2.676  16.443 -0.1130 -1.2308  0.8197
  844MPD2     N12461   2.761   2.808  16.574 -0.7126 -0.2721  0.4981
  844MPD2    H512462   2.857   2.775  16.570 -0.9401 -1.0874  1.8274
  844MPD2    N112463   2.703   2.403  16.321  0.4418 -0.7682 -0.2022
  844MPD2    H712464   2.803   2.390  16.309  0.8948  0.9204  1.8280
  845MPD2     C12465   3.086   3.752  16.731  0.0089 -0.4146  0.2839
  845MPD2    C112466   3.085   3.692  16.855  0.1744  0.5346  0.0741
  845MPD2    C212467   3.025   3.569  16.861  0.8885  0.0853  1.0621
  845MPD2    C312468   2.981   3.506  16.748 -0.5724 -0.2632  0.1266
  845MPD2    C412469   2.995   3.567  16.625  0.8367  0.1390  0.0367
  845MPD2    C512470   3.046   3.691  16.618  0.1120  0.2429 -0.1734
  845MPD2     H12471   3.029   3.516  16.956  1.0751  0.7597  1.4324
  845MPD2    H112472   2.971   3.532  16.525  0.5319  0.1632  0.1001
  845MPD2    H212473   3.122   3.854  16.716  1.2167 -1.0269 -0.9907
  845MPD2    H312474   3.052   3.748  16.526  2.0331  0.7465  0.2688
  845MPD2     N12475   2.936   3.369  16.751  0.4631 -0.4557  0.5712
  845MPD2    H512476   2.945   3.318  16.663  2.5283 -0.8402  1.0076
  845MPD2    N112477   3.153   3.755  16.963  0.3712 -0.0939 -0.2609
  845MPD2    H712478   3.210   3.835  16.937  0.5903 -0.4237 -0.8076
  846MPD2     C12479   3.912   3.770  13.407 -0.4553  0.6317  0.9946
  846MPD2    C112480   3.880   3.899  13.429  0.6900  0.6618  0.4925
  846MPD2    C212481   3.879   3.952  13.562 -0.0794 -0.3540 -0.6230
  846MPD2    C312482   3.904   3.871  13.666  0.0345 -0.4831 -0.9562
  846MPD2    C412483   3.938   3.739  13.642 -0.3056  0.0379  0.3278
  846MPD2    C512484   3.946   3.694  13.515  0.0073 -0.0534  0.0286
  846MPD2     H12485   3.849   4.052  13.591  1.3993 -0.2327  0.4802
  846MPD2    H112486   3.942   3.667  13.723 -4.8754 -0.9396 -0.2943
  846MPD2    H212487   3.944   3.735  13.309  1.0242  0.8714  1.3918
  846MPD2    H312488   3.973   3.590  13.503 -1.4081 -0.2263 -1.7254
  846MPD2     N12489   3.893   3.925  13.802  0.3567  0.3697 -0.4844
  846MPD2    H512490   3.847   4.013  13.824 -2.4438 -0.8580 -1.4125
  846MPD2    N112491   3.871   3.996  13.324  0.4487  0.1661  0.3247
  846MPD2    H712492   3.904   4.089  13.347  1.6095  0.3528 -2.1006
  847MPD2     C12493   3.988   0.448  15.219  0.3621 -0.1019  0.1153
  847MPD2    C112494   4.041   0.452  15.091 -0.2511  0.7383  0.0891
  847MPD2    C212495   4.053   0.334  15.023 -0.0714  0.2800  0.1152
  847MPD2    C312496   4.023   0.215  15.080  0.5791 -0.1148 -0.3869
  847MPD2    C412497   3.961   0.211  15.205 -0.0246 -0.5019 -0.2225
  847MPD2    C512498   3.952   0.325  15.276  0.7875 -0.3082 -0.4674
  847MPD2     H12499   4.103   0.331  14.927 -1.1718  2.2766 -0.5202
  847MPD2    H112500   3.927   0.121  15.255  0.5523  0.3936  1.7475
  847MPD2    H212501   3.989   0.540  15.278  1.9990  0.7477 -1.2295
  847MPD2    H312502   3.921   0.321  15.380 -1.9938  1.4164 -1.2184
  847MPD2     N12503   4.065   0.103  15.005 -0.4619  0.6406 -0.8622
  847MPD2    H512504   4.116   0.121  14.919  0.9619 -3.1509 -0.8128
  847MPD2    N112505   4.080   0.570  15.018 -0.0963  0.1231 -0.3665
  847MPD2    H712506   4.125   0.565  14.927 -2.8151 -0.3062 -1.6840
  848MPD2     C12507   2.203   3.093  16.448  0.5959 -0.3637  0.1512
  848MPD2    C112508   2.302   3.113  16.540  0.0025 -0.2318 -0.4999
  848MPD2    C212509   2.380   3.233  16.534  0.1465 -0.0163  0.2129
  848MPD2    C312510   2.333   3.327  16.437 -0.5789 -0.8802  0.4004
  848MPD2    C412511   2.239   3.302  16.347  0.1570 -0.3101  0.3947
  848MPD2    C512512   2.177   3.186  16.354 -0.1498  0.0356  0.1906
  848MPD2     H12513   2.464   3.254  16.599  0.3580 -1.9291  0.5580
  848MPD2    H112514   2.221   3.370  16.264 -1.2008 -0.9431  0.1681
  848MPD2    H212515   2.147   3.000  16.442 -0.8948  0.4797  1.0549
  848MPD2    H312516   2.106   3.158  16.277  0.8956 -2.0737 -0.0161
  848MPD2     N12517   2.380   3.458  16.443 -0.0846 -0.3864 -0.2271
  848MPD2    H512518   2.333   3.522  16.380  2.4164 -0.3327 -1.9976
  848MPD2    N112519   2.337   3.009  16.632 -0.6539  0.3222 -0.2693
  848MPD2    H712520   2.431   3.000  16.671 -0.8162 -0.7105 -0.1094
  849MPD2     C12521   1.479   2.743  14.837  0.1516 -0.2276 -0.2438
  849MPD2    C112522   1.528   2.773  14.714 -0.3381 -0.8366  0.1953
  849MPD2    C212523   1.665   2.794  14.703 -0.3974  0.0568 -0.1170
  849MPD2    C312524   1.756   2.759  14.802  0.4328 -0.5124  0.6442
  849MPD2    C412525   1.702   2.720  14.927 -0.2747  0.5794  0.1432
  849MPD2    C512526   1.567   2.720  14.947  0.1151  0.5960  0.1851
  849MPD2     H12527   1.701   2.813  14.603 -2.2120 -1.5867 -1.0613
  849MPD2    H112528   1.771   2.695  15.007  1.2710 -1.0044 -1.6884
  849MPD2    H212529   1.377   2.731  14.871 -0.0017  0.2622 -0.5417
  849MPD2    H312530   1.525   2.677  15.037  2.4077 -0.7056  0.6484
  849MPD2     N12531   1.889   2.751  14.769 -0.2581 -0.2067  0.0012
  849MPD2    H512532   1.901   2.772  14.670  1.3036 -1.3920 -0.0498
  849MPD2    N112533   1.456   2.794  14.595 -0.6116  0.1293  0.5256
  849MPD2    H712534   1.520   2.807  14.517 -1.6777  2.1264 -0.0355
  850MPD2     C12535   4.349   1.213  14.708  0.7932 -0.7233 -0.5616
  850MPD2    C112536   4.373   1.308  14.806  0.5570 -0.4748  0.8692
  850MPD2    C212537   4.511   1.344  14.839 -0.1362 -0.0457 -0.1606
  850MPD2    C312538   4.616   1.271  14.780  0.4695  0.1245  0.9431
  850MPD2    C412539   4.586   1.176  14.684  0.6627  0.1331 -0.0737
  850MPD2    C512540   4.455   1.146  14.653 -0.1299  0.4451  0.1153
  850MPD2     H12541   4.534   1.417  14.916 -0.1119 -1.1883  0.9213
  850MPD2    H112542   4.666   1.122  14.635 -0.6281 -0.7784 -1.1672
  850MPD2    H212543   4.249   1.186  14.676  0.7014 -0.5706 -0.3984
  850MPD2    H312544   4.441   1.079  14.568  0.9458  1.6135 -0.9720
  850MPD2     N12545   0.017   1.297  14.812  0.2034  0.1953  1.2202
  850MPD2    H512546   0.081   1.222  14.788  1.6429  2.1578 -1.0491
  850MPD2    N112547   4.257   1.377  14.849  0.1483 -0.5090  0.1761
  850MPD2    H712548   4.173   1.355  14.798  0.1605  0.0341 -0.0758
  851MPD2     C12549   0.073   1.157  15.472  0.1237 -0.0075 -0.4476
  851MPD2    C112550   4.711   1.113  15.379 -0.4785 -0.7983 -0.1364
  851MPD2    C212551   4.718   0.983  15.336  0.0641  0.4704  0.5903
  851MPD2    C312552   0.082   0.898  15.375 -0.0826  0.3249 -0.3581
  851MPD2    C412553   0.178   0.934  15.468 -0.5827  0.2741 -0.0302
  851MPD2    C512554   0.163   1.065  15.516 -0.4839  1.2177 -0.4767
  851MPD2     H12555   4.646   0.941  15.266 -0.5570 -1.3867  2.3614
  851MPD2    H112556   0.263   0.875  15.498  0.3751  1.1673 -0.9447
  851MPD2    H212557   0.063   1.252  15.523  4.0279  1.0859 -1.7131
  851MPD2    H312558   0.226   1.096  15.599  1.3659 -0.7438 -1.1486
  851MPD2     N12559   0.097   0.774  15.309  0.6358 -0.0630  0.0161
  851MPD2    H512560   0.018   0.743  15.252  0.5762 -3.4569  2.0022
  851MPD2    N112561   4.607   1.199  15.346 -0.5713 -0.4108  0.0976
  851MPD2    H712562   4.622   1.290  15.388 -0.2733  0.0901 -1.0634
  852MPD2     C12563   3.640   3.299   9.968 -0.0020  0.5743  0.4452
  852MPD2    C112564   3.649   3.440   9.952 -0.1025  0.4161  0.2762
  852MPD2    C212565   3.770   3.502   9.941  0.3199  0.3383  0.5505
  852MPD2    C312566   3.885   3.432   9.952 -0.0844 -0.5793 -0.3114
  852MPD2    C412567   3.881   3.296   9.957  0.5903 -0.3935  0.0166
  852MPD2    C512568   3.758   3.240   9.966  0.7134  0.2083  0.2874
  852MPD2     H12569   3.764   3.610   9.939  0.5692  0.3723  1.3513
  852MPD2    H112570   3.963   3.232   9.990  0.1232 -1.2390 -0.4374
  852MPD2    H212571   3.551   3.239   9.983  0.9738 -1.1168 -0.4757
  852MPD2    H312572   3.758   3.133   9.985 -0.5655  0.4206  1.4943
  852MPD2     N12573   4.004   3.506   9.963 -0.0319 -0.2800  0.3899
  852MPD2    H512574   3.987   3.606   9.971  1.3994  0.0181 -0.3795
  852MPD2    N112575   3.534   3.522   9.947  0.2116 -0.4043  0.0522
  852MPD2    H712576   3.550   3.621   9.931  2.3743 -1.2161 -2.8963
  853MPD2     C12577   0.456   2.494  12.170  0.1215 -0.4417  0.1960
  853MPD2    C112578   0.356   2.540  12.092 -0.4348  0.5630  0.2777
  853MPD2    C212579   0.345   2.498  11.960  0.3311  0.1538 -0.0228
  853MPD2    C312580   0.453   2.425  11.905  0.2696 -0.8964 -0.3140
  853MPD2    C412581   0.562   2.392  11.982  0.5461 -0.4014 -0.4035
  853MPD2    C512582   0.566   2.427  12.112  0.0961 -1.0117 -0.1299
  853MPD2     H12583   0.259   2.530  11.903 -0.3848  0.6196  1.3431
  853MPD2    H112584   0.646   2.337  11.941 -0.0368 -1.3052 -0.3874
  853MPD2    H212585   0.466   2.540  12.267  1.1403 -0.8001  0.2635
  853MPD2    H312586   0.654   2.388  12.161  0.3960  0.3412  0.4088
  853MPD2     N12587   0.462   2.394  11.766 -0.6303  0.0883 -0.7780
  853MPD2    H512588   0.547   2.350  11.731  0.5398  0.4562  1.6152
  853MPD2    N112589   0.261   2.628  12.148  0.0024 -0.0044 -0.4536
  853MPD2    H712590   0.286   2.666  12.239 -1.5232 -1.8714  0.7617
  854MPD2     C12591   3.303   3.760  13.083  0.2801 -0.5134  0.3572
  854MPD2    C112592   3.186   3.703  13.124  0.2215  0.0814 -0.2970
  854MPD2    C212593   3.188   3.571  13.164  0.0605 -0.3241  0.2099
  854MPD2    C312594   3.308   3.503  13.172 -0.3641 -0.0165 -0.3390
  854MPD2    C412595   3.419   3.558  13.112 -0.1620  0.1165 -0.6746
  854MPD2    C512596   3.417   3.689  13.069 -0.5651  0.4659  0.5752
  854MPD2     H12597   3.100   3.518  13.197 -0.3312  0.3814  0.2974
  854MPD2    H112598   3.511   3.504  13.095  0.0588  0.5026 -0.7067
  854MPD2    H212599   3.312   3.867  13.070 -0.9388 -0.7328 -2.3116
  854MPD2    H312600   3.507   3.741  13.040 -0.2993 -0.5170 -0.3589
  854MPD2     N12601   3.323   3.372  13.218 -0.1681  1.0850 -0.0984
  854MPD2    H512602   3.409   3.321  13.200 -0.7221  0.5424 -1.2438
  854MPD2    N112603   3.062   3.781  13.125 -0.0561 -0.0080 -0.4500
  854MPD2    H712604   3.078   3.873  13.085  0.7700 -0.3118 -0.8082
  855MPD2     C12605   2.932   3.009  14.065 -0.2296  0.2991  0.2050
  855MPD2    C112606   3.035   2.931  14.033 -0.2170  0.0973  0.0720
  855MPD2    C212607   3.123   2.967  13.935 -0.0571  0.2898  0.0713
  855MPD2    C312608   3.079   3.070  13.849  0.0354 -0.0989 -0.1908
  855MPD2    C412609   2.964   3.144  13.881 -0.3560  0.5140 -0.0034
  855MPD2    C512610   2.897   3.119  13.996 -0.3121 -0.0818  0.1881
  855MPD2     H12611   3.212   2.907  13.920  0.9006  1.6123  0.4992
  855MPD2    H112612   2.936   3.223  13.813  0.0345  1.4262  0.8993
  855MPD2    H212613   2.872   2.987  14.153  1.1195  0.9360  1.3026
  855MPD2    H312614   2.803   3.165  14.024  0.9765  1.0279  2.6285
  855MPD2     N12615   3.149   3.098  13.729 -1.2347 -0.4424  0.1264
  855MPD2    H512616   3.104   3.163  13.665  0.2155  0.0431 -0.3843
  855MPD2    N112617   3.071   2.821  14.110  0.5258 -0.1312  0.1168
  855MPD2    H712618   3.163   2.781  14.091  1.3492  1.7353  0.2287
  856MPD2     C12619   0.827   3.748  13.585  1.2322 -0.0680 -0.0987
  856MPD2    C112620   0.795   3.815  13.696  0.3227  0.8262  0.4993
  856MPD2    C212621   0.667   3.856  13.718 -0.0031 -0.1562 -0.4090
  856MPD2    C312622   0.564   3.831  13.628  2.0847  0.0005  1.1113
  856MPD2    C412623   0.594   3.757  13.512 -0.0640  0.6989  0.3299
  856MPD2    C512624   0.731   3.720  13.491 -0.4241  0.4914 -0.2467
  856MPD2     H12625   0.639   3.910  13.808  1.5380 -1.7609  1.0380
  856MPD2    H112626   0.518   3.741  13.436 -0.1423 -1.7690  0.9191
  856MPD2    H212627   0.930   3.734  13.554  1.2115  1.2133 -0.7813
  856MPD2    H312628   0.755   3.665  13.400  1.4336 -1.6423  1.5398
  856MPD2     N12629   0.428   3.885  13.639  0.3330 -0.3372  0.4020
  856MPD2    H512630   0.364   3.848  13.569 -0.7028 -0.3905  1.3737
  856MPD2    N112631   0.887   3.874  13.777 -0.0455 -0.0576 -0.3676
  856MPD2    H712632   0.865   3.953  13.836  1.7972 -0.1125  0.4202
  857MPD2     C12633   2.057   1.480  12.817  0.4815  0.2971  0.2091
  857MPD2    C112634   2.182   1.480  12.763  0.2660  0.2247 -0.0074
  857MPD2    C212635   2.260   1.594  12.779  0.2594  0.0811 -0.5056
  857MPD2    C312636   2.221   1.706  12.849  0.3493 -0.2001  0.5206
  857MPD2    C412637   2.101   1.688  12.913 -0.0940 -0.0737 -0.2453
  857MPD2    C512638   2.014   1.586  12.895 -0.0575  0.1576 -0.3948
  857MPD2     H12639   2.354   1.604  12.726  1.7240  0.1532  2.1609
  857MPD2    H112640   2.065   1.770  12.974  0.1893  1.1931 -1.7642
  857MPD2    H212641   1.986   1.400  12.803  0.6748  0.1523  0.0500
  857MPD2    H312642   1.924   1.591  12.954 -0.2867 -0.6482 -0.6776
  857MPD2     N12643   2.308   1.812  12.853 -0.0352 -0.7292 -0.0425
  857MPD2    H512644   2.401   1.808  12.813 -0.8491  0.5194 -2.1042
  857MPD2    N112645   2.216   1.365  12.688 -0.0081 -0.3081  0.7058
  857MPD2    H712646   2.136   1.307  12.663 -0.4620  0.7581 -0.3317
  858MPD2     C12647   3.164   1.195  16.358 -0.2043  0.1308  1.2159
  858MPD2    C112648   3.130   1.057  16.373  0.3827  0.5876  0.3197
  858MPD2    C212649   3.101   1.017  16.503  0.4215 -0.7313  0.2118
  858MPD2    C312650   3.111   1.101  16.610  0.6504 -0.9891  0.4581
  858MPD2    C412651   3.134   1.227  16.594 -0.0895 -0.0925 -0.0430
  858MPD2    C512652   3.161   1.277  16.468  1.3912 -0.3920  0.6969
  858MPD2     H12653   3.074   0.913  16.520  0.9124 -1.4146 -3.0966
  858MPD2    H112654   3.148   1.290  16.681 -3.1006  0.3722  0.1046
  858MPD2    H212655   3.206   1.231  16.265  0.1659 -0.9615  0.9605
  858MPD2    H312656   3.185   1.382  16.455 -2.3383  0.5575  1.6271
  858MPD2     N12657   3.072   1.061  16.746  0.0388  0.2800 -0.3972
  858MPD2    H512658   3.027   1.132  16.802  1.1187 -0.4911  1.4492
  858MPD2    N112659   3.130   0.974  16.265 -0.0122  0.2413  0.0610
  858MPD2    H712660   3.163   1.017  16.180 -0.3177 -0.1255 -0.2422
  859MPD2     C12661   1.645   2.877  15.685 -0.3226  0.0368 -0.0375
  859MPD2    C112662   1.666   2.801  15.574 -0.7009  1.0825  0.0650
  859MPD2    C212663   1.592   2.682  15.560 -0.5639 -0.1721 -0.5918
  859MPD2    C312664   1.498   2.645  15.652  0.3485 -0.1145  0.0708
  859MPD2    C412665   1.478   2.725  15.757  0.3532  0.1728 -0.3076
  859MPD2    C512666   1.554   2.839  15.782 -0.2127  0.5702  0.4086
  859MPD2     H12667   1.615   2.619  15.474 -0.8834  1.2757 -1.7453
  859MPD2    H112668   1.406   2.693  15.832  1.1652 -0.1296  0.3505
  859MPD2    H212669   1.704   2.968  15.698  0.7212 -0.8720  1.5578
  859MPD2    H312670   1.544   2.896  15.873 -2.5916  3.7376 -1.8162
  859MPD2     N12671   1.430   2.519  15.654 -0.1082 -0.1873 -0.4043
  859MPD2    H512672   1.403   2.488  15.747  1.7511 -2.0003 -0.4650
  859MPD2    N112673   1.755   2.852  15.479 -0.2076 -0.0707  0.2992
  859MPD2    H712674   1.812   2.932  15.503 -3.0374  1.5826  1.5486
  860MPD2     C12675   3.218   2.781  11.680  0.2237 -0.0893  0.7032
  860MPD2    C112676   3.343   2.753  11.724  0.0824 -0.2950 -0.7747
  860MPD2    C212677   3.373   2.757  11.857  0.4135 -0.8694 -0.3060
  860MPD2    C312678   3.273   2.811  11.946  0.3939 -0.9408 -0.6140
  860MPD2    C412679   3.153   2.850  11.891  0.3441 -0.0275 -0.4096
  860MPD2    C512680   3.127   2.842  11.762  0.3529  0.6961 -0.5635
  860MPD2     H12681   3.478   2.742  11.879  0.6662  0.2031 -0.7953
  860MPD2    H112682   3.081   2.891  11.962  0.6976 -2.7222  1.5138
  860MPD2    H212683   3.186   2.782  11.576  0.0848 -2.9717  0.7339
  860MPD2    H312684   3.034   2.887  11.729  0.9663  0.6967 -2.2991
  860MPD2     N12685   3.290   2.834  12.084  0.0339 -0.7109  0.1526
  860MPD2    H512686   3.223   2.891  12.135 -0.7382 -2.3793  1.0122
  860MPD2    N112687   3.448   2.710  11.646 -0.4922 -0.3608  0.3580
  860MPD2    H712688   3.536   2.719  11.697 -0.5792  0.0472  0.4370
  861MPD2     C12689   2.459   0.640  10.859  0.0888  0.2478 -0.3718
  861MPD2    C112690   2.366   0.719  10.923  0.0790  0.2967  0.4437
  861MPD2    C212691   2.260   0.772  10.848  0.3209 -0.2221  0.7460
  861MPD2    C312692   2.262   0.775  10.714 -1.1142  0.8528  0.1951
  861MPD2    C412693   2.355   0.700  10.652 -0.2373 -0.6085  0.3649
  861MPD2    C512694   2.446   0.620  10.723 -0.2314  0.4874  0.1644
  861MPD2     H12695   2.187   0.829  10.904 -2.6656 -2.4667 -0.8457
  861MPD2    H112696   2.351   0.700  10.544 -1.8441  0.2960  0.4277
  861MPD2    H212697   2.538   0.589  10.913  0.9815  3.1786  1.0604
  861MPD2    H312698   2.518   0.560  10.668 -0.1884  0.1526  0.5905
  861MPD2     N12699   2.175   0.847  10.631 -0.1751 -0.2011  0.5245
  861MPD2    H512700   2.193   0.832  10.533 -1.1708 -0.1571  0.3378
  861MPD2    N112701   2.370   0.748  11.066  0.8918  0.3691  0.5564
  861MPD2    H712702   2.298   0.811  11.102 -0.1845  1.2385 -3.1158
  862MPD2     C12703   1.545   0.748  10.257  0.3651 -0.5369  0.1511
  862MPD2    C112704   1.650   0.718  10.349  0.2753  0.2808  0.1031
  862MPD2    C212705   1.663   0.593  10.396 -0.3686  0.5822  0.4178
  862MPD2    C312706   1.568   0.498  10.368  0.2171  0.2695 -0.0055
  862MPD2    C412707   1.457   0.535  10.292 -0.4196  0.3989 -0.2231
  862MPD2    C512708   1.447   0.663  10.234 -0.4911 -0.0037  0.6485
  862MPD2     H12709   1.754   0.573  10.451  0.3215 -0.3341 -1.0350
  862MPD2    H112710   1.366   0.478  10.278 -0.7745  1.0319 -0.5345
  862MPD2    H212711   1.528   0.850  10.225 -1.2125 -0.3330  1.6322
  862MPD2    H312712   1.368   0.699  10.168 -1.0710 -0.9970  0.8122
  862MPD2     N12713   1.587   0.361  10.396 -0.1779 -0.3603  0.7290
  862MPD2    H512714   1.520   0.291  10.366  0.2512 -0.4946  0.0787
  862MPD2    N112715   1.738   0.816  10.395  0.1142  0.0927 -0.1388
  862MPD2    H712716   1.797   0.791  10.474 -1.4338  1.2521  1.3674
  863MPD2     C12717   1.359   3.797  16.731 -0.3167 -0.5423 -0.3881
  863MPD2    C112718   1.416   3.913  16.693 -0.2167 -0.1419 -0.3947
  863MPD2    C212719   1.525   3.959  16.769  0.1631  0.6122 -0.8070
  863MPD2    C312720   1.565   3.891  16.882  0.2578  0.6026 -0.5975
  863MPD2    C412721   1.508   3.770  16.914 -0.0102  0.4056 -1.1381
  863MPD2    C512722   1.398   3.729  16.844  0.2266 -0.6007 -0.0931
  863MPD2     H12723   1.579   4.049  16.739  0.2895  0.1680 -1.9303
  863MPD2    H112724   1.546   3.704  16.990  0.1537 -0.0493 -1.6161
  863MPD2    H212725   1.271   3.762  16.678 -0.5264  0.3379 -0.6202
  863MPD2    H312726   1.351   3.638  16.880 -0.6873 -0.1792 -0.2247
  863MPD2     N12727   1.672   3.946  16.963 -0.2049 -0.1753  0.6473
  863MPD2    H512728   1.692   3.898  17.051  0.4835  1.1156  1.1883
  863MPD2    N112729   1.359   3.987  16.583 -0.2531 -0.1075 -0.2391
  863MPD2    H712730   1.278   3.953  16.532  1.5680 -1.9192 -1.8717
  864MPD2     C12731   1.893   0.371  17.198 -0.4190 -0.5472  0.0289
  864MPD2    C112732   1.948   0.335  17.071  0.3041  0.7609 -0.7940
  864MPD2    C212733   2.021   0.427  16.997 -0.4932  0.1072  0.3455
  864MPD2    C312734   2.026   0.558  17.048 -0.3897  0.3394 -0.0638
  864MPD2    C412735   1.958   0.592  17.162 -0.6994 -0.3130 -0.0412
  864MPD2    C512736   1.900   0.499  17.243  0.5961 -0.6756  0.4121
  864MPD2     H12737   2.075   0.396  16.908 -0.7568 -1.1910  0.6323
  864MPD2    H112738   1.958   0.695  17.196 -0.5807 -1.0515  2.2237
  864MPD2    H212739   1.853   0.291  17.259 -0.3884 -1.1187 -0.6989
  864MPD2    H312740   1.858   0.529  17.338  0.9940  0.3461  0.2667
  864MPD2     N12741   2.081   0.666  16.974  0.0173 -0.1424 -0.1425
  864MPD2    H512742   2.061   0.756  17.016 -1.8792  0.2059 -1.7398
  864MPD2    N112743   1.922   0.206  17.026 -0.1851  0.1724  0.1994
  864MPD2    H712744   1.887   0.136  17.091  0.0976  0.0270  0.1940
  865MPD2     C12745   2.039   1.070  16.127 -0.0569 -0.4360 -0.0176
  865MPD2    C112746   2.016   0.950  16.193  0.5892 -0.6743  0.5182
  865MPD2    C212747   2.032   0.960  16.334  0.0228  0.2116 -0.3541
  865MPD2    C312748   2.056   1.075  16.397 -0.4056  0.3942 -0.1955
  865MPD2    C412749   2.072   1.195  16.330 -0.6433  0.1154  0.5819
  865MPD2    C512750   2.066   1.187  16.190 -0.1092  0.2828 -0.2731
  865MPD2     H12751   2.029   0.872  16.398 -0.8332  3.1287  3.6717
  865MPD2    H112752   2.101   1.290  16.374 -0.5542  0.0645  0.6333
  865MPD2    H212753   2.048   1.078  16.019  0.1102 -0.5213 -0.0092
  865MPD2    H312754   2.105   1.276  16.142 -2.1031  1.5630  0.5027
  865MPD2     N12755   2.074   1.089  16.535  0.3060  0.2165  0.3395
  865MPD2    H512756   2.119   1.173  16.571 -1.8806  0.9107  1.4040
  865MPD2    N112757   1.995   0.829  16.116  0.2614 -0.0189  0.6385
  865MPD2    H712758   1.991   0.843  16.015  3.1584 -1.5549  0.3162
  866MPD2     C12759   3.106   1.401  11.154 -0.5434  0.0786  0.1685
  866MPD2    C112760   3.050   1.287  11.211  0.2507 -0.2984 -0.1490
  866MPD2    C212761   2.920   1.268  11.173  0.5201 -0.1466  0.0779
  866MPD2    C312762   2.835   1.355  11.100  0.5430 -0.5563  0.3779
  866MPD2    C412763   2.893   1.469  11.068 -0.4453  0.1906 -0.1086
  866MPD2    C512764   3.026   1.489  11.093 -0.5176  0.7173 -0.1541
  866MPD2     H12765   2.865   1.181  11.208 -1.3888  1.1775  0.3686
  866MPD2    H112766   2.842   1.549  11.015 -0.5229  0.7079  0.7520
  866MPD2    H212767   3.205   1.438  11.178 -0.4366  0.8726 -1.4454
  866MPD2    H312768   3.066   1.586  11.069  0.2793  0.3237 -0.4202
  866MPD2     N12769   2.698   1.337  11.071  0.7129 -0.7771  0.1496
  866MPD2    H512770   2.648   1.422  11.046  1.8133  0.2145  1.3278
  866MPD2    N112771   3.130   1.208  11.300  0.3155  0.3011  0.3772
  866MPD2    H712772   3.224   1.238  11.325 -0.0891  0.8911  1.1861
  867MPD2     C12773   0.562   0.904  16.295  0.3397 -0.4610 -0.4161
  867MPD2    C112774   0.653   0.859  16.389  0.0646 -0.6400  0.2885
  867MPD2    C212775   0.686   0.949  16.493  0.2914 -0.0393 -0.0752
  867MPD2    C312776   0.641   1.084  16.498  0.3809 -0.0398  0.2022
  867MPD2    C412777   0.561   1.122  16.401 -0.0369 -0.1729  0.7181
  867MPD2    C512778   0.531   1.037  16.297  0.6267 -0.8809 -0.3015
  867MPD2     H12779   0.754   0.922  16.573  0.4875 -0.1145 -0.2664
  867MPD2    H112780   0.525   1.223  16.386  1.8811  0.5498  0.9318
  867MPD2    H212781   0.527   0.842  16.214  0.4349 -1.7779  0.5629
  867MPD2    H312782   0.482   1.081  16.211 -0.2339 -1.8515 -0.3190
  867MPD2     N12783   0.675   1.181  16.591 -0.4164 -0.8956 -0.5968
  867MPD2    H512784   0.635   1.274  16.587  2.6435  0.5408  2.0126
  867MPD2    N112785   0.685   0.725  16.377 -0.4137  0.0038  0.9811
  867MPD2    H712786   0.659   0.670  16.296 -1.2979  1.3009  0.3892
  868MPD2     C12787   2.434   0.536  13.235  0.1285  0.2020  0.0660
  868MPD2    C112788   2.428   0.421  13.312  0.0440  0.1706  0.1821
  868MPD2    C212789   2.348   0.409  13.418  0.2686 -0.6221  0.5177
  868MPD2    C312790   2.273   0.516  13.460  0.0775  0.2955  0.1760
  868MPD2    C412791   2.270   0.629  13.382  0.4659 -0.0503  0.4387
  868MPD2    C512792   2.347   0.641  13.266 -0.5042 -0.3694  0.3940
  868MPD2     H12793   2.331   0.322  13.481  0.5956 -1.3425 -0.3938
  868MPD2    H112794   2.215   0.719  13.407 -0.1184 -0.9797  2.4430
  868MPD2    H212795   2.497   0.549  13.148  0.8450 -1.4959  0.3407
  868MPD2    H312796   2.343   0.736  13.213  0.1025 -0.3004  0.4706
  868MPD2     N12797   2.201   0.498  13.583  0.1260 -0.2790  0.6108
  868MPD2    H512798   2.218   0.408  13.626 -2.2112 -0.8616  0.3021
  868MPD2    N112799   2.503   0.320  13.257  0.0689  0.5488  0.0263
  868MPD2    H712800   2.542   0.327  13.164 -2.4738  2.1582 -0.9023
  869MPD2     C12801   2.802   2.800   0.345 -0.0786 -0.2728  0.1343
  869MPD2    C112802   2.887   2.865   0.435  0.5359  0.5925 -0.3922
  869MPD2    C212803   3.006   2.807   0.472  0.3960 -0.4495 -0.0455
  869MPD2    C312804   3.045   2.686   0.422  0.1413  0.1648  0.0166
  869MPD2    C412805   2.963   2.624   0.330 -0.1567  0.0979  0.4109
  869MPD2    C512806   2.844   2.682   0.293 -0.6074 -0.2164  0.0564
  869MPD2     H12807   3.070   2.847   0.550  0.2445 -1.7952  0.7793
  869MPD2    H112808   2.994   2.535   0.275  0.2050  3.2020 -4.4091
  869MPD2    H212809   2.708   2.840   0.309  1.4807  0.0925 -3.5344
  869MPD2    H312810   2.781   2.646   0.212 -1.4711  0.1689  0.5566
  869MPD2     N12811   3.170   2.628   0.468  0.0802 -0.9007  1.1885
  869MPD2    H512812   3.220   2.685   0.535 -0.0515  0.4475  0.1361
  869MPD2    N112813   2.841   2.992   0.490 -0.1019  0.1874 -0.2134
  869MPD2    H712814   2.744   3.009   0.469 -0.2653 -1.2724 -0.6848
  870MPD2     C12815   3.845   1.381   1.432 -0.0990  0.2020 -0.7686
  870MPD2    C112816   3.782   1.359   1.314 -0.6288 -0.0362  0.2779
  870MPD2    C212817   3.705   1.457   1.255  0.8154  0.6278  0.3066
  870MPD2    C312818   3.711   1.588   1.306 -0.4255  0.5813  0.7036
  870MPD2    C412819   3.778   1.601   1.423  0.4218  0.0156 -0.0824
  870MPD2    C512820   3.839   1.498   1.491 -0.0871  0.4095  0.0665
  870MPD2     H12821   3.653   1.441   1.161  1.0461 -0.1365  0.3081
  870MPD2    H112822   3.785   1.700   1.467  3.3830  0.1851 -0.9460
  870MPD2    H212823   3.911   1.307   1.476  0.0551  1.2469  0.7212
  870MPD2    H312824   3.891   1.522   1.583 -1.0343  0.4873  0.5842
  870MPD2     N12825   3.639   1.691   1.239  0.6008 -0.8922  0.3039
  870MPD2    H512826   3.593   1.663   1.154 -1.0611 -0.9188  1.2176
  870MPD2    N112827   3.790   1.228   1.261 -0.5272  0.2002 -0.3624
  870MPD2    H712828   3.856   1.171   1.314 -2.5645 -1.3677  0.4977
  871MPD2     C12829   4.489   0.834  16.470  0.1317  0.0134  0.3343
  871MPD2    C112830   4.394   0.798  16.568  0.3030  0.4789  0.8789
  871MPD2    C212831   4.348   0.663  16.573 -0.3774  0.2595 -0.6639
  871MPD2    C312832   4.392   0.572  16.479 -1.0442  0.5444 -0.0903
  871MPD2    C412833   4.486   0.609  16.389  0.7873  0.3570  0.4294
  871MPD2    C512834   4.537   0.740  16.384  0.0704 -0.1757  0.2595
  871MPD2     H12835   4.271   0.638  16.645 -1.3620 -1.4801 -2.3026
  871MPD2    H112836   4.525   0.551  16.307 -1.4969 -0.3082 -0.1653
  871MPD2    H212837   4.521   0.937  16.456  0.7622  0.0545  2.1311
  871MPD2    H312838   4.614   0.771  16.313 -0.7477  1.2107 -0.0269
  871MPD2     N12839   4.363   0.440  16.509 -0.4540  0.7739 -1.1241
  871MPD2    H512840   4.297   0.433  16.585  1.8915 -3.2621  0.5256
  871MPD2    N112841   4.368   0.897  16.664  0.2358  0.3246  0.2089
  871MPD2    H712842   4.402   0.991  16.645  1.0412  0.3092  1.5472
  872MPD2     C12843   0.171   3.228  14.188 -0.2426 -0.3628 -0.2013
  872MPD2    C112844   0.161   3.337  14.093 -0.3128 -0.4741 -0.1138
  872MPD2    C212845   0.035   3.381  14.067  0.5006 -0.0280  0.3143
  872MPD2    C312846   4.656   3.328  14.131 -1.1736 -0.0510  0.2631
  872MPD2    C412847   4.675   3.236  14.232 -0.1265 -0.2727  0.0955
  872MPD2    C512848   0.062   3.179  14.259  0.7039 -0.0212  0.3568
  872MPD2     H12849   0.027   3.466  14.001 -0.5001 -1.5496 -1.5245
  872MPD2    H112850   4.591   3.196  14.288 -1.9145  1.2545 -1.5175
  872MPD2    H212851   0.266   3.177  14.198 -0.9431 -1.0664  2.8189
  872MPD2    H312852   0.067   3.111  14.343  0.9788 -0.2539  0.1509
  872MPD2     N12853   4.525   3.379  14.110  0.2381  0.1702 -0.3321
  872MPD2    H512854   4.461   3.349  14.183  0.8766 -0.4857 -0.0419
  872MPD2    N112855   0.276   3.394  14.029 -0.5660 -0.4034  0.4173
  872MPD2    H712856   0.264   3.458  13.951 -0.1615 -0.2310  0.4970
  873MPD2     C12857   1.926   3.835   0.698 -0.1192 -0.0893 -0.1510
  873MPD2    C112858   2.028   3.771   0.773  0.2885  1.0984  0.2447
  873MPD2    C212859   2.087   3.666   0.706  0.3262 -0.5978 -0.3067
  873MPD2    C312860   2.037   3.596   0.597  0.5244 -0.3400  0.6698
  873MPD2    C412861   1.924   3.651   0.542 -0.4480  0.6775  0.0419
  873MPD2    C512862   1.876   3.769   0.591 -0.3199  0.1670 -0.8766
  873MPD2     H12863   2.178   3.622   0.743 -0.7157 -0.8254  1.9488
  873MPD2    H112864   1.883   3.619   0.447  0.5544 -1.9116  0.4800
  873MPD2    H212865   1.885   3.925   0.743 -0.9959 -1.0024  0.8901
  873MPD2    H312866   1.797   3.821   0.538 -3.9135 -2.8594  1.5261
  873MPD2     N12867   2.105   3.493   0.529  0.4359  0.0854 -0.0725
  873MPD2    H512868   2.065   3.466   0.440 -0.2576 -2.5068  1.0415
  873MPD2    N112869   2.079   3.838   0.886 -0.6927  0.6422 -0.4152
  873MPD2    H712870   2.037   3.928   0.906  2.2034  1.9852 -0.2710
  874MPD2     C12871   1.852   3.615  16.068  0.3233  0.7675 -0.1590
  874MPD2    C112872   1.849   3.562  16.195  0.5037 -0.0756 -0.0157
  874MPD2    C212873   1.924   3.621  16.296  0.9481  0.7471  0.7923
  874MPD2    C312874   1.995   3.733  16.270 -0.0440  0.1966 -0.7079
  874MPD2    C412875   1.999   3.787  16.142 -0.3262 -0.0747  0.3880
  874MPD2    C512876   1.926   3.727  16.044  0.2766 -0.2192 -0.7247
  874MPD2     H12877   1.903   3.597  16.399 -0.0367 -0.8045  0.2305
  874MPD2    H112878   2.068   3.865  16.114 -0.1497  0.3807  2.0911
  874MPD2    H212879   1.809   3.561  15.985  1.3147 -1.1738  0.6018
  874MPD2    H312880   1.926   3.775  15.947  1.5044  1.3350  0.0403
  874MPD2     N12881   2.085   3.777  16.379  0.3100  0.0378 -0.0894
  874MPD2    H512882   2.081   3.724  16.466 -1.8305 -2.3212 -1.6067
  874MPD2    N112883   1.775   3.440  16.217 -0.7229  0.0168 -0.3015
  874MPD2    H712884   1.707   3.414  16.147 -0.4750  1.8457 -1.2361
  875MPD2     C12885   2.669   1.738  14.633 -0.2185  0.5894  0.4206
  875MPD2    C112886   2.758   1.838  14.596 -0.4155 -0.3967  0.2692
  875MPD2    C212887   2.848   1.886  14.689 -0.7428 -0.4773 -0.8596
  875MPD2    C312888   2.870   1.816  14.804 -0.6054 -0.0258  0.3836
  875MPD2    C412889   2.785   1.721  14.840 -0.9083  0.3528 -0.7383
  875MPD2    C512890   2.678   1.688  14.764  0.6046 -0.3568 -0.0910
  875MPD2     H12891   2.906   1.972  14.657  0.1490  0.0561  2.1647
  875MPD2    H112892   2.807   1.652  14.921 -1.5552 -1.2127 -1.8932
  875MPD2    H212893   2.593   1.704  14.562  1.3152 -1.1643 -0.3837
  875MPD2    H312894   2.625   1.604  14.807  0.8676 -0.6691 -0.3737
  875MPD2     N12895   2.965   1.844  14.902  0.2374 -0.6652  0.4434
  875MPD2    H512896   2.958   1.795  14.991  1.9203 -0.3859  0.7180
  875MPD2    N112897   2.765   1.893  14.469  0.1613 -0.0841 -0.0164
  875MPD2    H712898   2.822   1.976  14.454  0.1882 -0.4116 -1.6807
  876MPD2     C12899   1.728   2.920  16.116 -0.1732  0.1852  0.8049
  876MPD2    C112900   1.853   2.923  16.067 -0.5079 -0.1930  0.7373
  876MPD2    C212901   1.938   2.816  16.102  0.6091 -0.3594 -0.2310
  876MPD2    C312902   1.899   2.717  16.189 -1.0905  0.3202 -0.6286
  876MPD2    C412903   1.767   2.718  16.236  0.2282  0.3272 -0.0762
  876MPD2    C512904   1.678   2.817  16.193 -0.0011  0.0454 -0.4046
  876MPD2     H12905   2.042   2.816  16.073  1.1723  2.2883  1.7967
  876MPD2    H112906   1.726   2.640  16.299 -0.4743  0.7678  0.0213
  876MPD2    H212907   1.657   2.997  16.087 -2.0300 -1.2667  1.5420
  876MPD2    H312908   1.573   2.815  16.218  0.2281 -0.2419  0.5352
  876MPD2     N12909   1.989   2.614  16.216  0.5833 -0.3741 -0.0579
  876MPD2    H512910   2.075   2.604  16.164  1.0040 -1.2952  0.8249
  876MPD2    N112911   1.880   3.037  15.990  0.8585  0.7584 -0.4377
  876MPD2    H712912   1.806   3.107  15.983  0.8143  0.7576 -0.0178
  877MPD2     C12913   1.763   3.467  15.351 -0.5276  0.3077  0.7879
  877MPD2    C112914   1.895   3.498  15.387  0.6249  0.3024 -0.1111
  877MPD2    C212915   1.977   3.574  15.307  0.6393  0.8264 -0.3870
  877MPD2    C312916   1.926   3.617  15.185  0.0142 -0.1930 -0.2098
  877MPD2    C412917   1.797   3.590  15.153  0.4627  0.9683 -0.4204
  877MPD2    C512918   1.714   3.508  15.233  0.2882 -0.3444 -0.1198
  877MPD2     H12919   2.072   3.602  15.351  0.4680 -0.2534  0.6596
  877MPD2    H112920   1.758   3.637  15.064 -0.2947  2.2231  0.5639
  877MPD2    H212921   1.692   3.414  15.414  0.6926 -1.6910  0.4760
  877MPD2    H312922   1.609   3.492  15.212  0.2232  0.6430 -0.5696
  877MPD2     N12923   2.002   3.686  15.087  0.2267 -0.1709 -0.0033
  877MPD2    H512924   1.960   3.715  14.999  2.3785  0.5054 -0.8096
  877MPD2    N112925   1.948   3.472  15.521  0.0870 -0.4253  0.0959
  877MPD2    H712926   2.044   3.498  15.544  0.6655 -1.4029 -1.2158
  878MPD2     C12927   1.096   2.643  13.655  0.1935 -0.0597  0.3975
  878MPD2    C112928   1.189   2.740  13.676  0.8281 -0.6465 -0.2270
  878MPD2    C212929   1.242   2.741  13.802  0.0913 -0.7716  0.6100
  878MPD2    C312930   1.221   2.650  13.900 -0.1125 -0.1234 -0.5344
  878MPD2    C412931   1.115   2.563  13.879 -0.1489  0.0907 -0.4863
  878MPD2    C512932   1.064   2.555  13.752 -0.2857 -0.1234  0.1827
  878MPD2     H12933   1.299   2.829  13.832  2.0656 -1.4348 -1.1951
  878MPD2    H112934   1.088   2.491  13.954  0.9897 -1.6573 -1.7558
  878MPD2    H212935   1.058   2.624  13.555 -0.4182 -0.9350  0.7944
  878MPD2    H312936   0.989   2.479  13.731  1.3730 -1.2057 -1.7680
  878MPD2     N12937   1.278   2.684  14.022  0.1134  0.3625 -0.6051
  878MPD2    H512938   1.343   2.762  14.014  3.0045 -1.8178  2.0311
  878MPD2    N112939   1.227   2.838  13.582  0.1926  0.0201  0.3375
  878MPD2    H712940   1.188   2.827  13.488 -0.2265  0.8673  0.4114
  879MPD2     C12941   2.339   3.672  17.109  0.1727  0.5470 -0.6665
  879MPD2    C112942   2.319   3.753  16.996  0.2680 -0.1606  0.7351
  879MPD2    C212943   2.219   3.713  16.908  0.3171  0.6660  0.3965
  879MPD2    C312944   2.126   3.612  16.941  0.7389  0.7991 -0.3338
  879MPD2    C412945   2.142   3.547  17.060  0.3220 -0.6764  0.6749
  879MPD2    C512946   2.248   3.576  17.142 -0.5782 -0.0133  0.5658
  879MPD2     H12947   2.202   3.772  16.819 -1.0319  2.5037  1.8678
  879MPD2    H112948   2.069   3.472  17.089 -1.4128  0.7340 -0.0170
  879MPD2    H212949   2.411   3.700  17.186 -2.5940 -1.6564  2.7489
  879MPD2    H312950   2.255   3.527  17.239 -0.0186 -1.6525 -0.3198
  879MPD2     N12951   2.013   3.584  16.862  0.1500  0.1635  0.0405
  879MPD2    H512952   1.945   3.517  16.899 -2.6816  2.7161 -0.5466
  879MPD2    N112953   2.396   3.870  16.988 -0.0935  0.3780  0.1406
  879MPD2    H712954   2.459   3.890  17.065  1.0827  0.7252 -0.9150
  880MPD2     C12955   3.197   0.950  17.707  0.0643 -0.0182 -0.6913
  880MPD2    C112956   3.248   1.032   0.064 -0.6167  0.2749 -0.6550
  880MPD2    C212957   3.332   0.981   0.161 -0.1898  0.0607  0.2552
  880MPD2    C312958   3.366   0.853   0.158 -0.1441 -0.2580  0.3591
  880MPD2    C412959   3.308   0.769   0.066  0.6645  0.0690  1.0786
  880MPD2    C512960   3.223   0.818  17.710 -0.1575 -0.0230  0.3175
  880MPD2     H12961   3.378   1.052   0.229 -0.4859  0.4890  0.0089
  880MPD2    H112962   3.334   0.664   0.054  0.7106  0.3721 -1.4043
  880MPD2    H212963   3.130   0.985  17.629 -1.6844  1.4921  1.4955
  880MPD2    H312964   3.190   0.747  17.636  0.2249 -0.6835  0.7731
  880MPD2     N12965   3.452   0.811   0.259 -0.6668 -0.3718 -0.0818
  880MPD2    H512966   3.492   0.877   0.325  0.2841 -2.7059  1.6429
  880MPD2    N112967   3.200   1.166   0.075  0.1859 -0.1710 -0.6717
  880MPD2    H712968   3.176   1.220  17.735  0.9460  1.2704  0.0575
  881MPD2     C12969   3.552   2.032  17.495 -0.5805  0.6656 -0.2511
  881MPD2    C112970   3.563   1.894  17.469  0.2252 -0.0163 -0.3040
  881MPD2    C212971   3.478   1.812  17.547 -0.3293  0.1388  0.7248
  881MPD2    C312972   3.416   1.858  17.659 -0.1787 -0.9358 -0.1904
  881MPD2    C412973   3.431   1.993  17.696 -0.3937 -0.6489  0.1047
  881MPD2    C512974   3.504   2.081  17.616 -0.5781  0.0116 -0.4941
  881MPD2     H12975   3.470   1.710  17.512 -1.1706  0.8032 -1.0117
  881MPD2    H112976   3.390   2.038   0.044  0.8075  1.8003 -0.5776
  881MPD2    H212977   3.623   2.092  17.439  1.2304 -2.3108 -1.1054
  881MPD2    H312978   3.507   2.188  17.634 -0.0045 -0.2379  0.9368
  881MPD2     N12979   3.331   1.779   0.004 -0.2890 -0.3666 -0.1494
  881MPD2    H512980   3.304   1.825   0.091 -1.8039 -3.3265  0.9306
  881MPD2    N112981   3.608   1.856  17.345 -0.4830 -0.0056  0.1031
  881MPD2    H712982   3.612   1.927  17.273 -1.1670  1.1236  1.1698
  882MPD2     C12983   2.136   3.699  14.281  0.5369  0.0018  0.3612
  882MPD2    C112984   2.067   3.697  14.401 -0.1451 -0.5202 -0.4734
  882MPD2    C212985   1.949   3.632  14.399 -0.0701 -0.0593  0.0105
  882MPD2    C312986   1.902   3.557  14.292 -0.1224  0.3570 -0.3066
  882MPD2    C412987   1.979   3.564  14.176  0.3798  0.3071  0.1141
  882MPD2    C512988   2.092   3.635  14.173  0.6571 -0.6115 -0.0709
  882MPD2     H12989   1.894   3.639  14.492 -0.5147 -0.0204 -0.2576
  882MPD2    H112990   1.962   3.500  14.090 -0.5812  0.7805 -0.0503
  882MPD2    H212991   2.231   3.750  14.272  1.5790 -2.4779 -3.0893
  882MPD2    H312992   2.150   3.632  14.082  0.6430 -1.5235 -0.0568
  882MPD2     N12993   1.772   3.514  14.291 -1.1600 -1.0240  0.2094
  882MPD2    H512994   1.728   3.489  14.203  1.4953 -0.0582 -1.3785
  882MPD2    N112995   2.126   3.755  14.512  0.1382 -0.1159  0.0235
  882MPD2    H712996   2.224   3.780  14.500 -0.3270  1.0537 -1.2905
  883MPD2     C12997   3.844   3.491  16.298  0.3106  0.1558 -0.4864
  883MPD2    C112998   3.975   3.530  16.271  0.2311  0.1890 -0.1895
  883MPD2    C212999   4.079   3.471  16.332  0.7089  0.7684  0.5482
  883MPD2    C313000   4.063   3.376  16.426  0.0210 -0.2501  0.1974
  883MPD2    C413001   3.940   3.329  16.439  0.6509  0.0760 -0.4919
  883MPD2    C513002   3.829   3.380  16.367  0.4764  0.0949 -0.4715
  883MPD2     H13003   4.179   3.510  16.317 -0.0643  2.9929  1.1978
  883MPD2    H113004   3.931   3.237  16.495 -1.5849  0.3839 -0.3556
  883MPD2    H213005   3.755   3.539  16.260  0.4510 -0.5557 -1.7090
  883MPD2    H313006   3.730   3.336  16.372 -0.3613  2.1377  0.8083
  883MPD2     N13007   4.174   3.326  16.501 -0.2928 -0.8510  0.0947
  883MPD2    H513008   4.269   3.352  16.480  0.5104 -1.1035  3.3541
  883MPD2    N113009   4.013   3.635  16.182  0.4371 -0.3141 -0.2104
  883MPD2    H713010   4.109   3.667  16.175 -0.5477  2.1607 -2.5295
  884MPD2     C13011   0.884   4.190  15.064 -0.7871 -0.6543  0.2011
  884MPD2    C113012   0.880   4.323  15.053 -0.8115  0.2361 -0.2885
  884MPD2    C213013   0.772   4.395  15.097  1.1257 -0.3561 -0.7618
  884MPD2    C313014   0.667   4.336  15.153  0.0047  0.2214 -0.1432
  884MPD2    C413015   0.672   4.201  15.169 -0.1759 -0.4196  0.4621
  884MPD2    C513016   0.776   4.129  15.123  0.0645 -0.8722 -0.4169
  884MPD2     H13017   0.773   4.504  15.090  1.1431 -0.3234 -0.1986
  884MPD2    H113018   0.594   4.140  15.215 -1.1782  0.9885  0.6040
  884MPD2    H213019   0.966   4.120  15.049  0.0210  0.3091  0.1568
  884MPD2    H313020   0.796   4.025  15.146  0.6772 -0.9573 -1.3126
  884MPD2     N13021   0.554   4.413  15.175  0.0736 -0.0890 -0.0962
  884MPD2    H513022   0.559   4.507  15.138  0.5086  0.5523  1.6042
  884MPD2    N113023   0.991   4.400  15.011 -0.3101 -0.1890 -0.7563
  884MPD2    H713024   0.987   4.501  15.014 -0.6479 -0.2699  1.4472
  885MPD2     C13025   3.824   4.591   0.132 -0.6284  0.0151 -0.0651
  885MPD2    C113026   3.952   4.572   0.094  0.0519 -0.1962  0.2892
  885MPD2    C213027   3.994   4.578  17.705  0.4242  0.0148  0.2362
  885MPD2    C313028   3.899   4.586  17.604 -0.7421  0.0103  0.3962
  885MPD2    C413029   3.767   4.589  17.642  0.4691 -0.2233 -0.9667
  885MPD2    C513030   3.731   4.594   0.029  0.8437 -0.3525  0.5928
  885MPD2     H13031   4.098   4.601  17.685  0.3903 -1.0100 -1.1482
  885MPD2    H113032   3.682   4.601  17.576 -1.0150 -0.1582  0.9808
  885MPD2    H213033   3.791   4.613   0.233 -1.7217  0.1492 -0.4490
  885MPD2    H313034   3.625   4.598   0.051  1.0859 -1.6475  2.0062
  885MPD2     N13035   3.932   4.604  17.465 -0.2571 -0.3844 -0.4654
  885MPD2    H513036   4.028   4.593  17.433  0.0834  1.0115  0.0559
  885MPD2    N113037   4.046   4.575   0.201 -0.2813 -0.5174  0.5720
  885MPD2    H713038   4.004   4.594   0.292 -2.1436  2.7501 -0.9860
  886MPD2     C13039   0.988   2.375  14.853  0.1535  0.2221 -0.0469
  886MPD2    C113040   0.938   2.459  14.956 -0.3318 -0.9229 -0.0987
  886MPD2    C213041   0.905   2.587  14.931  0.1984 -0.4614 -0.0555
  886MPD2    C313042   0.928   2.645  14.806 -0.4196  0.0394 -0.1441
  886MPD2    C413043   0.980   2.558  14.707 -0.6826 -0.4740 -0.9085
  886MPD2    C513044   1.007   2.423  14.729  0.1064  0.2384 -0.7425
  886MPD2     H13045   0.865   2.637  15.018  1.2041 -1.8136  1.1908
  886MPD2    H113046   1.007   2.595  14.609 -2.2176 -3.1406 -2.3518
  886MPD2    H213047   1.006   2.269  14.861  1.6718  0.7133  3.3300
  886MPD2    H313048   1.049   2.362  14.650  1.0710  1.2170 -0.9864
  886MPD2     N13049   0.901   2.779  14.783 -0.1197  0.6693  0.1812
  886MPD2    H513050   0.920   2.820  14.692 -1.3152  0.6091 -0.1030
  886MPD2    N113051   0.937   2.423  15.094 -0.2126  0.3261  0.1487
  886MPD2    H713052   0.907   2.491  15.163  0.6868  1.1625 -0.2793
  887MPD2     C13053   1.091   2.719  15.774 -0.4572 -0.4118  0.1594
  887MPD2    C113054   1.103   2.721  15.638  0.5624  0.1535 -0.3217
  887MPD2    C213055   1.130   2.836  15.573  0.1932  0.3303  0.8007
  887MPD2    C313056   1.159   2.949  15.651 -0.5951  0.0462  0.6984
  887MPD2    C413057   1.152   2.941  15.790  0.5871  1.0476  0.4751
  887MPD2    C513058   1.116   2.827  15.848 -0.4999  0.4192 -0.0786
  887MPD2     H13059   1.133   2.830  15.464 -1.6818 -1.6628  0.8522
  887MPD2    H113060   1.176   3.026  15.853  1.5713  2.2969 -1.5651
  887MPD2    H213061   1.076   2.627  15.830 -0.2896 -0.1303  0.6617
  887MPD2    H313062   1.119   2.820  15.956  2.1374  1.8240 -0.0633
  887MPD2     N13063   1.183   3.072  15.593  0.7270  0.0967  0.6694
  887MPD2    H513064   1.202   3.154  15.650  1.1718  0.3954  0.0933
  887MPD2    N113065   1.077   2.604  15.560  0.1007  0.4153 -0.1439
  887MPD2    H713066   1.094   2.608  15.460  0.1524  1.1739 -0.1086
  888MPD2     C13067   2.953   2.979  14.956  0.2710  0.2670 -0.0294
  888MPD2    C113068   2.975   3.014  15.086 -0.6832  0.3990 -0.2591
  888MPD2    C213069   3.038   3.134  15.120 -0.6291 -0.3993  0.2256
  888MPD2    C313070   3.082   3.210  15.014  0.1826  0.6165 -0.5386
  888MPD2    C413071   3.069   3.169  14.884 -0.0576  0.0922  0.6360
  888MPD2    C513072   2.997   3.060  14.854 -0.0986  0.3884  0.0608
  888MPD2     H13073   3.051   3.165  15.223 -0.1890 -1.7046  0.5682
  888MPD2    H113074   3.093   3.227  14.796  0.1932 -0.9833 -0.0009
  888MPD2    H213075   2.922   2.880  14.926 -2.1662 -0.2401  4.1904
  888MPD2    H313076   2.981   3.032  14.751  2.4650  0.9194 -0.4633
  888MPD2     N13077   3.128   3.346  15.030  0.3828  0.4828 -1.5781
  888MPD2    H513078   3.129   3.388  15.122 -0.5501 -1.0335 -0.8714
  888MPD2    N113079   2.940   2.912  15.175  0.5857  0.3471 -0.1003
  888MPD2    H713080   2.892   2.832  15.134  0.5987  0.2021  0.1677
  889MPD2     C13081   2.902   2.418  12.757  0.5389  0.1757 -0.3227
  889MPD2    C113082   2.767   2.440  12.785  0.2913  0.5088  0.7774
  889MPD2    C213083   2.725   2.572  12.805  0.0624  0.5801  0.6120
  889MPD2    C313084   2.808   2.677  12.783 -1.0196 -0.4541  0.1067
  889MPD2    C413085   2.928   2.652  12.723  0.2285 -0.3313 -0.9511
  889MPD2    C513086   2.976   2.519  12.707  0.3065  0.5479 -0.1381
  889MPD2     H13087   2.628   2.579  12.853 -1.4543  1.3622 -2.5547
  889MPD2    H113088   2.996   2.719  12.671  0.6751 -1.1620 -1.4408
  889MPD2    H213089   2.931   2.314  12.747  1.8162  0.1509  3.7266
  889MPD2    H313090   3.070   2.498  12.658 -0.9116  0.8974 -2.6115
  889MPD2     N13091   2.751   2.800  12.817  0.2652 -0.0445 -0.3744
  889MPD2    H513092   2.665   2.809  12.871  0.9918  0.6182  0.6593
  889MPD2    N113093   2.692   2.332  12.826 -0.4530 -0.2566  0.3163
  889MPD2    H713094   2.743   2.244  12.828  0.0441  0.0043 -1.2485
  890MPD2     C13095   1.575   4.494  14.531  0.2819  0.2507  0.0473
  890MPD2    C113096   1.702   4.531  14.571  0.3159 -0.4851 -0.0468
  890MPD2    C213097   1.766   4.454  14.672 -0.2980  0.1223 -0.5155
  890MPD2    C313098   1.694   4.353  14.732  0.3659  0.4013  0.0555
  890MPD2    C413099   1.568   4.310  14.686  0.3351  0.1010 -0.5180
  890MPD2    C513100   1.513   4.382  14.582  0.1141 -1.1100  0.2033
  890MPD2     H13101   1.863   4.483  14.711  0.2316 -0.7111 -1.2071
  890MPD2    H113102   1.510   4.231  14.732 -1.2270  1.2222 -0.5686
  890MPD2    H213103   1.524   4.543  14.448  1.5188 -0.5306 -1.1807
  890MPD2    H313104   1.417   4.354  14.542 -0.4519 -0.0305  0.8166
  890MPD2     N13105   1.756   4.302  14.852  0.5344  0.0404  0.2492
  890MPD2    H513106   1.848   4.336  14.878  0.0539 -0.3193  2.4861
  890MPD2    N113107   1.761   4.648  14.509 -0.2014  0.7855 -0.6258
  890MPD2    H713108   1.696   4.700  14.450 -0.3804  1.6420  0.3379
  891MPD2     C13109   4.529   2.350  16.802 -0.2028 -0.1867 -0.2588
  891MPD2    C113110   4.559   2.478  16.758 -0.2640 -0.2008 -0.4048
  891MPD2    C213111   4.693   2.509  16.752  0.3702  0.2040  0.7642
  891MPD2    C313112   0.058   2.420  16.785  0.2619 -0.1628 -0.4448
  891MPD2    C413113   0.024   2.291  16.827  0.2179 -0.3392  0.2470
  891MPD2    C513114   4.624   2.262  16.834  0.0298  0.3524  0.5359
  891MPD2     H13115   4.712   2.608  16.713 -2.4843 -0.3880 -2.1750
  891MPD2    H113116   0.095   2.218  16.864 -0.2356  0.8574  3.5205
  891MPD2    H213117   4.429   2.310  16.794 -0.2626 -0.6185  2.8761
  891MPD2    H313118   4.582   2.171  16.878 -1.6134  0.2169 -1.2976
  891MPD2     N13119   0.198   2.463  16.788 -0.4197 -0.3981 -0.3696
  891MPD2    H513120   0.219   2.558  16.760 -0.0672 -0.6584 -0.9905
  891MPD2    N113121   4.454   2.563  16.727 -0.1826  0.0080  0.0287
  891MPD2    H713122   4.359   2.526  16.730 -1.4213  2.8023 -3.3635
  892MPD2     C13123   0.923   3.537  14.927 -0.1369 -0.3940 -0.2944
  892MPD2    C113124   0.876   3.604  14.814 -0.2861 -0.7505 -0.1375
  892MPD2    C213125   0.938   3.583  14.690 -0.1653 -0.5369  0.5097
  892MPD2    C313126   1.056   3.513  14.689 -0.1257 -0.0314  0.1175
  892MPD2    C413127   1.109   3.460  14.809  0.5706 -0.4234  0.0704
  892MPD2    C513128   1.041   3.473  14.926 -0.2705 -1.0490 -0.4400
  892MPD2     H13129   0.896   3.632  14.603  0.8457 -0.8991 -0.1777
  892MPD2    H113130   1.207   3.415  14.821  0.9659  0.2156 -0.7921
  892MPD2    H213131   0.879   3.568  15.021 -0.3152 -1.7195  0.0506
  892MPD2    H313132   1.064   3.424  15.019  0.1665  1.0075  0.5316
  892MPD2     N13133   1.132   3.514  14.570  0.5109  0.5791  0.8258
  892MPD2    H513134   1.088   3.539  14.482 -1.0619  0.7666  1.6714
  892MPD2    N113135   0.778   3.704  14.817 -0.4449  0.0678 -0.0020
  892MPD2    H713136   0.734   3.726  14.728  2.2776  0.9550 -1.1280
  893MPD2     C13137   3.311   2.041   1.473 -0.6492 -0.1947 -0.4661
  893MPD2    C113138   3.252   2.121   1.370  0.5051  0.3079 -0.1693
  893MPD2    C213139   3.196   2.058   1.264 -0.1397  0.0161  1.0082
  893MPD2    C313140   3.199   1.923   1.252 -0.0387  0.3984  0.2290
  893MPD2    C413141   3.264   1.849   1.349  0.8473  0.3865 -0.1652
  893MPD2    C513142   3.312   1.911   1.457  0.4983 -0.3436  0.5041
  893MPD2     H13143   3.138   2.121   1.198  1.4341 -3.9185 -4.1825
  893MPD2    H113144   3.255   1.741   1.350 -1.4111  0.5780  0.2286
  893MPD2    H213145   3.340   2.083   1.569  0.0243 -1.7461  0.0047
  893MPD2    H313146   3.356   1.850   1.536  0.4050 -1.7090 -0.4870
  893MPD2     N13147   3.134   1.858   1.147 -0.1336 -0.3295 -0.2353
  893MPD2    H513148   3.161   1.762   1.131  2.1977  0.0453  1.5048
  893MPD2    N113149   3.250   2.262   1.391  0.3623  0.0929  0.0642
  893MPD2    H713150   3.287   2.292   1.480  1.1204 -0.7713  0.0421
  894MPD2     C13151   0.900   0.280   0.797  0.0215 -0.2222  0.9341
  894MPD2    C113152   0.958   0.279   0.922  0.0850 -0.5647 -0.8015
  894MPD2    C213153   1.031   0.389   0.965  0.3323 -0.6456 -0.0459
  894MPD2    C313154   1.056   0.492   0.873 -0.2049 -0.6383 -0.4315
  894MPD2    C413155   0.999   0.495   0.745 -0.1949  0.5514  0.7956
  894MPD2    C513156   0.918   0.389   0.714 -0.3405 -0.8445  0.5003
  894MPD2     H13157   1.073   0.391   1.064 -1.4200  1.7914  0.6738
  894MPD2    H113158   1.006   0.581   0.678 -1.7444  0.1980  0.1950
  894MPD2    H213159   0.841   0.197   0.759  0.7529  0.1333 -0.9872
  894MPD2    H313160   0.871   0.386   0.616 -0.7028 -0.1557  0.6566
  894MPD2     N13161   1.129   0.604   0.917 -0.6457 -0.2139  0.1171
  894MPD2    H513162   1.149   0.603   1.016  0.3607  0.8351 -0.0712
  894MPD2    N113163   0.926   0.162   0.995  0.6259  0.7412 -0.5366
  894MPD2    H713164   0.875   0.088   0.947 -1.9908  2.1572  0.0087
  895MPD2     C13165   4.442   2.840  13.196 -0.4382  0.4286  0.5904
  895MPD2    C113166   4.399   2.853  13.065 -0.0102  0.1117  0.2362
  895MPD2    C213167   4.399   2.740  12.986  0.3756 -0.6078  0.2007
  895MPD2    C313168   4.437   2.617  13.031  0.2552  0.9342  0.0543
  895MPD2    C413169   4.482   2.601  13.159  0.4700 -0.1321  0.1362
  895MPD2    C513170   4.478   2.712  13.239  0.3371 -0.1761  0.2673
  895MPD2     H13171   4.376   2.772  12.884 -1.4041 -0.3415  0.6880
  895MPD2    H113172   4.530   2.513  13.200 -0.1107  0.2946  1.7051
  895MPD2    H213173   4.442   2.922  13.266 -0.5771  0.9751 -0.0475
  895MPD2    H313174   4.520   2.700  13.338 -0.4875  1.2789  0.7843
  895MPD2     N13175   4.452   2.502  12.950 -0.7753 -0.6959 -0.4907
  895MPD2    H513176   4.484   2.415  12.993 -0.4378 -1.1270 -1.6055
  895MPD2    N113177   4.350   2.971  13.011  0.0139  0.2980  0.6609
  895MPD2    H713178   4.328   2.969  12.912 -1.2126  1.3148  0.9049
  896MPD2     C13179   2.634   1.183   1.348  0.0450 -0.3249  0.0245
  896MPD2    C113180   2.596   1.056   1.297 -0.6950  0.0930 -0.6014
  896MPD2    C213181   2.503   0.980   1.364 -0.4759  0.5731 -0.0509
  896MPD2    C313182   2.441   1.033   1.479 -0.1874  1.0569 -0.1169
  896MPD2    C413183   2.486   1.158   1.532  0.9595  0.4025  0.7003
  896MPD2    C513184   2.583   1.229   1.466 -0.1089  0.7756 -0.2775
  896MPD2     H13185   2.472   0.885   1.322  0.5910 -0.4664  1.5186
  896MPD2    H113186   2.451   1.200   1.625 -0.9511 -1.6938  0.9421
  896MPD2    H213187   2.707   1.248   1.300  1.2051 -2.7245 -1.4486
  896MPD2    H313188   2.626   1.320   1.505 -1.5914  1.3047  0.1430
  896MPD2     N13189   2.332   0.955   1.528 -0.3720  0.1609  0.0130
  896MPD2    H513190   2.310   0.873   1.472 -2.9999 -0.1367  1.4571
  896MPD2    N113191   2.646   1.013   1.168  0.8566 -0.0559  0.0946
  896MPD2    H713192   2.727   1.066   1.136  1.3056 -0.4031  0.6445
  897MPD2     C13193   3.384   2.067  10.647  0.5864  0.1671 -0.2232
  897MPD2    C113194   3.269   2.076  10.568 -0.0642  0.0307  0.2460
  897MPD2    C213195   3.142   2.048  10.630  0.1601 -0.7849 -0.8242
  897MPD2    C313196   3.145   2.003  10.760  0.3882  0.3431  0.1908
  897MPD2    C413197   3.258   1.989  10.829 -0.2950 -0.0532  0.0949
  897MPD2    C513198   3.377   2.012  10.771  0.1725  0.3483  0.0250
  897MPD2     H13199   3.051   2.044  10.571  0.0133  3.6369 -0.9323
  897MPD2    H113200   3.244   1.955  10.931  0.8372  0.9262  0.5773
  897MPD2    H213201   3.489   2.072  10.622  0.6862 -1.9992 -0.2915
  897MPD2    H313202   3.472   1.985  10.816  0.4259  1.3653  0.0853
  897MPD2     N13203   3.028   1.978  10.835 -0.5202  0.1503 -0.0929
  897MPD2    H513204   3.048   1.945  10.929 -0.9008 -0.4962 -0.2345
  897MPD2    N113205   3.287   2.109  10.429  0.4312 -0.4543 -0.1808
  897MPD2    H713206   3.366   2.166  10.400 -0.4734  1.0245  0.2499
  898MPD2     C13207   0.253   2.946  17.696  0.4174 -0.4892 -0.5381
  898MPD2    C113208   0.389   2.957  17.705  0.2502  0.0313  0.2116
  898MPD2    C213209   0.451   3.082  17.680  0.3264 -0.0649 -0.1837
  898MPD2    C313210   0.371   3.195  17.639  0.7434  0.3779  0.0220
  898MPD2    C413211   0.238   3.176  17.624  0.0145  0.7159  0.3245
  898MPD2    C513212   0.173   3.054  17.657 -0.1498  0.0825  0.9991
  898MPD2     H13213   0.558   3.094  17.685  0.4093 -0.3475 -1.2305
  898MPD2    H113214   0.172   3.259  17.602  0.8712  1.0062 -1.1391
  898MPD2    H213215   0.199   2.858  17.730  0.7570 -0.4089  0.2053
  898MPD2    H313216   0.067   3.044  17.635  0.2967 -0.7233 -0.8191
  898MPD2     N13217   0.439   3.315  17.613 -0.1315  0.0960 -0.4297
  898MPD2    H513218   0.539   3.319  17.629 -0.5103 -0.4513  2.0078
  898MPD2    N113219   0.464   2.837  17.726  0.8024  0.3588 -0.4183
  898MPD2    H713220   0.565   2.849  17.721  1.1232 -0.4028  4.4531
  899MPD2     C13221   1.568   3.837  17.582  0.4088 -0.6941 -0.4805
  899MPD2    C113222   1.597   3.971  17.551 -0.4449 -0.0689  0.1408
  899MPD2    C213223   1.533   4.072  17.626  0.5419  0.2449  0.0979
  899MPD2    C313224   1.437   4.041  17.723  0.1222  0.0174  0.3527
  899MPD2    C413225   1.406   3.908   0.000 -0.3974 -0.0586  0.2024
  899MPD2    C513226   1.477   3.806  17.682  0.3389  0.0972  0.6006
  899MPD2     H13227   1.555   4.177  17.605 -0.2040 -0.1526 -2.7249
  899MPD2    H113228   1.339   3.879   0.081  0.0363 -0.3733  0.4453
  899MPD2    H213229   1.613   3.762  17.519 -1.5788 -2.5051  0.2889
  899MPD2    H313230   1.453   3.703  17.704  0.6251 -0.0827  0.0867
  899MPD2     N13231   1.368   4.136   0.057  0.3855  0.3945  0.4190
  899MPD2    H513232   1.301   4.105   0.127  2.4212 -0.1687  2.1197
  899MPD2    N113233   1.678   4.005  17.441  0.2902  0.5052  0.1197
  899MPD2    H713234   1.712   3.926  17.386 -2.0905  0.2474 -0.9713
  900MPD2     C13235   0.877   0.721  12.817 -0.2078 -0.9119 -0.2030
  900MPD2    C113236   0.889   0.609  12.743 -0.1705  0.0304 -0.2321
  900MPD2    C213237   0.770   0.557  12.695 -0.1887  0.1220  0.3787
  900MPD2    C313238   0.649   0.611  12.719 -0.1166  0.1312  0.0457
  900MPD2    C413239   0.641   0.731  12.786  0.0005 -0.1043 -0.2716
  900MPD2    C513240   0.759   0.782  12.839 -0.5556  0.5103  0.1366
  900MPD2     H13241   0.771   0.473  12.625 -0.2048  0.0471  0.4688
  900MPD2    H113242   0.551   0.783  12.815  0.2203  0.0664  0.1105
  900MPD2    H213243   0.967   0.763  12.860 -0.2205 -2.1415  1.0142
  900MPD2    H313244   0.743   0.883  12.875 -0.2526  1.1271 -1.4399
  900MPD2     N13245   0.534   0.538  12.670  1.0667 -0.0872 -0.3287
  900MPD2    H513246   0.552   0.446  12.630  5.4454  0.5925  0.0572
  900MPD2    N113247   1.012   0.538  12.734  0.2978  0.0570  0.1520
  900MPD2    H713248   1.083   0.577  12.795  0.1110  0.3663  0.1729
  901MPD2     C13249   1.405   4.661  13.356  0.0261  0.4396 -0.0927
  901MPD2    C113250   1.331   4.601  13.250 -0.1372 -0.9783  0.5012
  901MPD2    C213251   1.343   4.669  13.128 -0.5600 -0.1511  0.0290
  901MPD2    C313252   1.380   0.065  13.122 -0.3758 -0.1138 -0.7493
  901MPD2    C413253   1.426   0.125  13.234  0.9399 -0.1110  0.4091
  901MPD2    C513254   1.445   0.057  13.346 -0.3955 -0.1366 -0.1799
  901MPD2     H13255   1.319   4.612  13.039  0.3880  0.5651 -0.6880
  901MPD2    H113256   1.451   0.231  13.233  1.9508 -0.3656 -2.5108
  901MPD2    H213257   1.417   4.617  13.455 -0.7203  0.0781 -0.1615
  901MPD2    H313258   1.476   0.112  13.435 -0.9247 -1.2989  0.7236
  901MPD2     N13259   1.351   0.130  13.002  0.9806 -1.3020 -0.1722
  901MPD2    H513260   1.308   0.066  12.936  0.6557  1.2672 -2.3937
  901MPD2    N113261   1.302   4.462  13.256 -0.1849 -0.4724  0.1968
  901MPD2    H713262   1.328   4.405  13.336 -1.2734 -2.2590 -0.7302
  902MPD2     C13263   4.342   3.406  12.559 -0.5192  0.0523  0.0172
  902MPD2    C113264   4.308   3.357  12.434  0.0636  0.4071  0.8760
  902MPD2    C213265   4.276   3.224  12.426  0.4441 -0.7312  0.7666
  902MPD2    C313266   4.286   3.142  12.535  0.1001  0.7242  0.7601
  902MPD2    C413267   4.315   3.193  12.659 -1.3447  0.8841  0.0447
  902MPD2    C513268   4.334   3.328  12.675  0.1097 -0.0139 -0.3656
  902MPD2     H13269   4.249   3.173  12.334 -1.5260  2.3730 -0.3685
  902MPD2    H113270   4.339   3.130  12.744 -1.4362 -0.1647 -0.7018
  902MPD2    H213271   4.367   3.509  12.579  0.0982  0.0566 -0.7936
  902MPD2    H313272   4.361   3.387  12.761 -1.1129  1.4933 -1.0186
  902MPD2     N13273   4.290   3.004  12.503  0.2062  0.6623 -0.4754
  902MPD2    H513274   4.308   2.985  12.404 -1.4240 -0.0881 -0.6243
  902MPD2    N113275   4.321   3.450  12.318 -0.4857 -0.4033  0.0242
  902MPD2    H713276   4.364   3.541  12.334 -1.7713 -0.1592  2.1084
  903MPD2     C13277   4.296   2.455  11.885 -0.4457 -0.9927 -0.3569
  903MPD2    C113278   4.249   2.572  11.939 -0.9025  0.3069 -0.2179
  903MPD2    C213279   4.148   2.644  11.873  0.1993 -0.5690 -0.2538
  903MPD2    C313280   4.090   2.578  11.762  0.5180  0.8907 -0.2217
  903MPD2    C413281   4.147   2.461  11.715  0.5644 -0.0494  0.2286
  903MPD2    C513282   4.247   2.396  11.778  0.1995 -0.4501 -0.1684
  903MPD2     H13283   4.101   2.735  11.908 -0.6545  0.4602 -4.0740
  903MPD2    H113284   4.116   2.420  11.620 -0.0997  0.6339  0.1575
  903MPD2    H213285   4.382   2.404  11.927  0.7962  1.0102 -0.4779
  903MPD2    H313286   4.289   2.306  11.735  0.0509 -1.2827  1.4151
  903MPD2     N13287   3.983   2.645  11.694 -0.6298 -0.2795  0.4711
  903MPD2    H513288   3.944   2.734  11.724 -1.0192 -0.2681 -0.0440
  903MPD2    N113289   4.293   2.604  12.067  0.0131  0.3009 -0.5862
  903MPD2    H713290   4.357   2.534  12.102 -1.0277 -0.1244  0.4902
  904MPD2     C13291   0.340   2.000  13.678 -0.1937 -0.1111 -0.2375
  904MPD2    C113292   0.307   2.122  13.748 -0.1904  0.3004  0.3009
  904MPD2    C213293   0.388   2.176  13.838 -0.2046 -0.0377 -0.0083
  904MPD2    C313294   0.505   2.105  13.857 -0.0967 -0.0282 -0.1452
  904MPD2    C413295   0.532   1.984  13.804 -0.1549 -0.5175  0.5732
  904MPD2    C513296   0.456   1.939  13.706  0.2242 -0.2392  0.2758
  904MPD2     H13297   0.382   2.277  13.875  1.9500 -0.5178  1.6165
  904MPD2    H113298   0.626   1.931  13.817  0.5899  0.8319  0.7316
  904MPD2    H213299   0.271   1.951  13.611  0.5991  0.6312 -1.5953
  904MPD2    H313300   0.481   1.847  13.653  0.0887  0.5308 -1.1153
  904MPD2     N13301   0.603   2.177  13.932  0.5918 -0.5958 -0.2134
  904MPD2    H513302   0.579   2.275  13.938  0.7323 -0.6115  0.5931
  904MPD2    N113303   0.186   2.189  13.732 -0.4043 -0.5966  0.6614
  904MPD2    H713304   0.172   2.256  13.807  0.0978  0.8178 -0.5042
  905MPD2     C13305   4.118   2.549  13.391  0.2013  0.7888 -0.0690
  905MPD2    C113306   4.204   2.444  13.378 -0.3990  1.1239  0.0930
  905MPD2    C213307   4.209   2.372  13.263 -0.0241  0.3085 -0.1245
  905MPD2    C313308   4.124   2.397  13.159 -0.5055 -0.3317 -0.6150
  905MPD2    C413309   4.033   2.498  13.177  0.4314  0.0786 -0.1850
  905MPD2    C513310   4.030   2.576  13.295 -0.1066 -0.1606  0.5631
  905MPD2     H13311   4.291   2.302  13.255 -1.9573 -1.8792 -0.5876
  905MPD2    H113312   3.956   2.523  13.105 -1.1787 -1.0444  1.1205
  905MPD2    H213313   4.105   2.608  13.481 -1.0953  0.0739  0.2143
  905MPD2    H313314   3.963   2.661  13.303  1.3654  1.0258  0.4583
  905MPD2     N13315   4.124   2.329  13.036  0.5155 -0.0992 -0.1775
  905MPD2    H513316   4.063   2.361  12.961  0.0399  0.3562  0.4021
  905MPD2    N113317   4.302   2.426  13.478 -0.2569 -0.2093  0.0628
  905MPD2    H713318   4.303   2.490  13.557  0.6221  1.0501 -0.9766
  906MPD2     C13319   1.347   2.008  11.341 -0.1721  0.5664 -0.6642
  906MPD2    C113320   1.455   1.935  11.295 -0.2971 -0.2690 -0.5288
  906MPD2    C213321   1.489   1.819  11.357  0.2021 -0.2667 -0.0206
  906MPD2    C313322   1.404   1.762  11.453  0.2936 -0.1753 -0.1635
  906MPD2    C413323   1.304   1.840  11.505 -1.0710 -0.3511 -0.2410
  906MPD2    C513324   1.286   1.963  11.456 -0.6075 -0.6564  0.0467
  906MPD2     H13325   1.574   1.763  11.320  2.7199  1.3071  3.3473
  906MPD2    H113326   1.238   1.807  11.584 -0.8236 -0.5307 -0.1084
  906MPD2    H213327   1.319   2.097  11.288 -0.2476 -1.8406 -4.6257
  906MPD2    H313328   1.201   2.009  11.505 -1.4126  0.3948 -2.3304
  906MPD2     N13329   1.431   1.631  11.501 -0.2030 -0.1728 -0.0534
  906MPD2    H513330   1.376   1.609  11.583 -0.1579  0.9639  0.2805
  906MPD2    N113331   1.523   1.965  11.178 -0.3811 -0.6431  0.3339
  906MPD2    H713332   1.602   1.904  11.157 -1.0704 -1.8213  1.1647
  907MPD2     C13333   1.079   1.539  16.109 -0.4843  0.7467 -0.3324
  907MPD2    C113334   1.120   1.429  16.036 -0.3477 -0.5543  0.4994
  907MPD2    C213335   1.215   1.350  16.092 -0.5656  0.2574 -0.8801
  907MPD2    C313336   1.275   1.389  16.211 -0.2229 -0.2470  0.9127
  907MPD2    C413337   1.226   1.494  16.283  0.2010 -0.3283  0.1394
  907MPD2    C513338   1.124   1.567  16.234 -0.6490  0.2063 -0.0951
  907MPD2     H13339   1.258   1.272  16.030 -0.5435  0.4709 -1.1335
  907MPD2    H113340   1.258   1.520  16.384 -0.6787  2.2319 -0.2450
  907MPD2    H213341   1.001   1.605  16.072 -3.1731 -2.0714  0.2576
  907MPD2    H313342   1.077   1.651  16.284 -1.2078  0.2981 -0.7725
  907MPD2     N13343   1.380   1.309  16.253  0.3018 -0.4836  0.6164
  907MPD2    H513344   1.418   1.237  16.192  2.0859  1.5497 -0.6624
  907MPD2    N113345   1.071   1.400  15.902  0.1837  0.7273  0.0056
  907MPD2    H713346   1.115   1.329  15.845  2.4468 -0.6032  3.4240
  908MPD2     C13347   2.899   1.740   9.575 -0.4256  0.3670 -0.5677
  908MPD2    C113348   3.022   1.704   9.631 -0.4562 -0.0444  0.0502
  908MPD2    C213349   3.075   1.794   9.726 -0.2552  0.3607  0.3132
  908MPD2    C313350   3.009   1.910   9.745 -0.1661  0.2921  0.1656
  908MPD2    C413351   2.895   1.947   9.681 -0.2595 -0.4982 -0.6474
  908MPD2    C513352   2.836   1.856   9.593 -0.9700  0.4697 -0.5990
  908MPD2     H13353   3.172   1.783   9.772  0.6137  2.5731 -1.0048
  908MPD2    H113354   2.847   2.043   9.698 -0.0643 -0.7862  1.4445
  908MPD2    H213355   2.845   1.668   9.515  1.8516 -0.5008 -1.5841
  908MPD2    H313356   2.744   1.877   9.538  0.2106  0.6357 -2.5184
  908MPD2     N13357   3.061   1.989   9.849 -0.6049  0.2577 -0.5447
  908MPD2    H513358   3.144   1.946   9.887 -2.3277 -2.1369  0.4427
  908MPD2    N113359   3.087   1.583   9.591  0.4824 -0.2583 -0.0774
  908MPD2    H713360   3.040   1.530   9.518  1.0144 -0.2473 -0.4231
  909MPD2     C13361   3.576   0.381  12.149 -0.8290  0.2817  0.9463
  909MPD2    C113362   3.552   0.457  12.031 -0.3420 -0.1087  0.3933
  909MPD2    C213363   3.445   0.542  12.031  0.2016  0.2121  0.0031
  909MPD2    C313364   3.363   0.557  12.143 -0.2731  0.0427 -0.3967
  909MPD2    C413365   3.389   0.484  12.257 -0.0331 -0.2578  0.0998
  909MPD2    C513366   3.494   0.398  12.262 -0.9728  0.1133 -0.6499
  909MPD2     H13367   3.418   0.596  11.941  0.0638  0.3543  0.1307
  909MPD2    H113368   3.333   0.498  12.349 -0.6277  0.3216 -0.3527
  909MPD2    H213369   3.658   0.311  12.163  0.1803  1.5730  1.4571
  909MPD2    H313370   3.520   0.350  12.355 -1.1310 -0.6514 -0.9988
  909MPD2     N13371   3.258   0.658  12.137 -0.0138  0.0332 -0.3838
  909MPD2    H513372   3.254   0.722  12.059  0.4822 -0.2287 -0.6255
  909MPD2    N113373   3.615   0.417  11.910  0.3451 -0.1804  0.2862
  909MPD2    H713374   3.592   0.469  11.826 -0.5769 -0.9131  0.0922
  910MPD2     C13375   0.574   1.909  15.949 -0.2154 -0.5206  0.5116
  910MPD2    C113376   0.646   1.805  15.904 -0.0968 -0.0472 -0.6348
  910MPD2    C213377   0.660   1.795  15.763  0.4747  0.0523 -0.2775
  910MPD2    C313378   0.604   1.892  15.675  0.0553  0.2184  0.3155
  910MPD2    C413379   0.540   2.001  15.730 -0.4501  0.1733 -0.6279
  910MPD2    C513380   0.517   2.005  15.865  0.0910 -0.2558  0.5438
  910MPD2     H13381   0.712   1.711  15.719  0.0782 -1.2335  1.7584
  910MPD2    H113382   0.496   2.078  15.668  1.0495  2.4069  1.0759
  910MPD2    H213383   0.555   1.922  16.055  2.2483  1.0826  0.7616
  910MPD2    H313384   0.457   2.079  15.916  0.0460 -0.4446  0.7641
  910MPD2     N13385   0.623   1.878  15.534  0.3443  0.0981  0.2149
  910MPD2    H513386   0.674   1.793  15.510  1.8498  0.2299  2.8726
  910MPD2    N113387   0.696   1.702  15.988  0.6154  0.0675 -0.1010
  910MPD2    H713388   0.757   1.632  15.947 -2.8647 -2.6522 -0.6007
  911MPD2     C13389   3.077   2.669  16.114 -0.1738 -0.9331 -0.7798
  911MPD2    C113390   3.056   2.706  16.248 -0.6464 -0.2431 -0.3669
  911MPD2    C213391   2.950   2.788  16.273 -0.1252  0.5032  0.3813
  911MPD2    C313392   2.860   2.829  16.176  0.0059  0.1960  0.2735
  911MPD2    C413393   2.879   2.781  16.049  0.3654  0.3512  0.1787
  911MPD2    C513394   2.984   2.705  16.019 -0.3478  0.3075 -0.3347
  911MPD2     H13395   2.936   2.816  16.377 -0.4151 -2.0151  1.0235
  911MPD2    H113396   2.800   2.796  15.977  0.0727  0.4681  0.5228
  911MPD2    H213397   3.162   2.608  16.086 -0.0752 -1.2378  0.1680
  911MPD2    H313398   2.991   2.661  15.920 -0.0696  0.7921 -0.5325
  911MPD2     N13399   2.753   2.915  16.196  0.1669  0.2101 -0.5363
  911MPD2    H513400   2.686   2.924  16.119 -0.2012 -1.5130 -0.4233
  911MPD2    N113401   3.141   2.642  16.344 -0.6603  0.9011  0.3741
  911MPD2    H713402   3.223   2.588  16.318 -0.0224  1.7084  0.6924
  912MPD2     C13403   2.555   2.854  15.754 -0.1711 -0.5188  0.6701
  912MPD2    C113404   2.510   2.824  15.883 -0.9431  0.5693 -0.2674
  912MPD2    C213405   2.548   2.702  15.931  0.7130 -0.4035  0.7372
  912MPD2    C313406   2.610   2.610  15.853 -0.7543 -0.1250  0.2135
  912MPD2    C413407   2.634   2.630  15.714  0.2474 -0.5522 -0.0489
  912MPD2    C513408   2.612   2.763  15.677 -0.3923  0.3223  1.4033
  912MPD2     H13409   2.531   2.673  16.034  1.6013  0.8932  1.2482
  912MPD2    H113410   2.673   2.552  15.650  0.8395 -2.5517  2.7841
  912MPD2    H213411   2.532   2.946  15.701  0.1939 -0.4825  0.5747
  912MPD2    H313412   2.635   2.796  15.576  0.1298 -2.0431  0.7497
  912MPD2     N13413   2.640   2.483  15.912  0.1296  0.4161 -0.3179
  912MPD2    H513414   2.631   2.472  16.012  1.2619 -1.5392 -0.4331
  912MPD2    N113415   2.449   2.927  15.955  0.2774 -0.3020 -0.2250
  912MPD2    H713416   2.464   3.015  15.906  1.2892  0.1644  0.9161
  913MPD2     C13417   2.787   3.726  10.764  0.3680 -0.0646 -0.2314
  913MPD2    C113418   2.789   3.658  10.643 -0.5481 -0.5002 -0.2219
  913MPD2    C213419   2.833   3.736  10.538 -0.0195  0.2788  0.0327
  913MPD2    C313420   2.860   3.876  10.550 -0.2281 -1.1171  0.0299
  913MPD2    C413421   2.864   3.937  10.673  0.0716  0.9590 -0.4288
  913MPD2    C513422   2.839   3.853  10.784 -0.0367 -0.7877 -0.0679
  913MPD2     H13423   2.835   3.681  10.444  1.0936  1.2408 -0.5064
  913MPD2    H113424   2.901   4.039  10.672  1.8801  0.2915 -0.7994
  913MPD2    H213425   2.745   3.677  10.851 -1.0922  3.0966  0.8483
  913MPD2    H313426   2.832   3.896  10.883 -0.6091  0.9484 -0.8660
  913MPD2     N13427   2.890   3.954  10.434  0.3416 -0.8852  0.3628
  913MPD2    H513428   2.926   4.047  10.451  1.1526 -1.2878  0.8848
  913MPD2    N113429   2.765   3.517  10.643  0.0565 -0.6598  0.4349
  913MPD2    H713430   2.705   3.475  10.713 -0.6728 -1.3357 -0.5888
  914MPD2     C13431   0.831   3.891  12.592 -0.3774 -0.4466  0.3687
  914MPD2    C113432   0.844   4.026  12.598 -0.3371 -0.0690  0.3649
  914MPD2    C213433   0.867   4.081  12.721  0.9174  0.2718  0.2130
  914MPD2    C313434   0.892   3.998  12.831  0.3302  0.0540 -0.7060
  914MPD2    C413435   0.879   3.856  12.820 -0.2728 -0.5989 -0.1663
  914MPD2    C513436   0.852   3.810  12.696 -0.5240 -0.4674  0.3138
  914MPD2     H13437   0.879   4.188  12.725  1.1921  0.1997  1.5788
  914MPD2    H113438   0.867   3.795  12.909  0.4945 -1.9205 -0.9575
  914MPD2    H213439   0.804   3.838  12.502  1.1865 -0.8566  0.1452
  914MPD2    H313440   0.843   3.702  12.690 -1.4368 -0.1739 -3.2132
  914MPD2     N13441   0.928   4.054  12.955  0.0426  0.3107 -0.1992
  914MPD2    H513442   0.924   4.155  12.959  0.1380  0.1600  3.4352
  914MPD2    N113443   0.819   4.099  12.477 -0.0626 -0.3045  1.1615
  914MPD2    H713444   0.803   4.041  12.395 -0.6201 -1.9033  2.3882
  915MPD2     C13445   4.404   4.024  15.898  0.6168 -0.4956 -0.4565
  915MPD2    C113446   4.305   4.069  15.814 -0.4730  0.3058 -0.5108
  915MPD2    C213447   4.192   4.128  15.863  0.1889 -0.3200 -0.0492
  915MPD2    C313448   4.169   4.134  15.999 -0.0732  0.3923  1.0700
  915MPD2    C413449   4.271   4.093  16.083 -0.1801 -0.4390 -0.6258
  915MPD2    C513450   4.380   4.031  16.030  0.0757 -0.8694 -0.1980
  915MPD2     H13451   4.114   4.159  15.795 -1.8465 -0.3685  2.2424
  915MPD2    H113452   4.262   4.110  16.189  3.2150 -0.5807 -0.3015
  915MPD2    H213453   4.496   3.982  15.859  1.8311  0.7085  1.1169
  915MPD2    H313454   4.456   3.992  16.097  0.7133  0.5651 -0.0678
  915MPD2     N13455   4.046   4.197  16.040 -0.4827 -0.3047  0.1500
  915MPD2    H513456   3.991   4.242  15.967  3.4380  1.1034 -1.9322
  915MPD2    N113457   4.323   4.054  15.676  0.6246  0.1194  0.2886
  915MPD2    H713458   4.402   4.001  15.642  1.7676  2.2606 -0.3992
  916MPD2     C13459   2.316   2.378  15.782 -0.5730 -0.6681 -0.4454
  916MPD2    C113460   2.329   2.274  15.865 -0.5094 -0.1770 -0.0476
  916MPD2    C213461   2.375   2.155  15.816 -0.0249  0.6993  0.0434
  916MPD2    C313462   2.409   2.138  15.686 -0.1830 -0.2007  0.1135
  916MPD2    C413463   2.392   2.251  15.605  0.1328  1.4638 -0.6589
  916MPD2    C513464   2.343   2.371  15.652 -0.6398  0.0184  0.0660
  916MPD2     H13465   2.381   2.068  15.880 -1.7275  1.0541  0.6780
  916MPD2    H113466   2.412   2.238  15.499  1.0130  0.2340 -0.3353
  916MPD2    H213467   2.264   2.462  15.827  0.0053  0.4473 -1.8724
  916MPD2    H313468   2.324   2.454  15.584 -1.2317 -0.9594 -0.9565
  916MPD2     N13469   2.458   2.014  15.642 -0.8547 -0.1551  0.2939
  916MPD2    H513470   2.462   1.944  15.715  3.2319 -0.0451  0.1340
  916MPD2    N113471   2.283   2.293  15.994 -0.7844  0.3443  1.0653
  916MPD2    H713472   2.265   2.390  16.015 -0.7568  0.0881  2.3092
  917MPD2     C13473   1.713   3.638  11.320  0.4361 -0.7260 -0.2975
  917MPD2    C113474   1.776   3.724  11.408  0.1864 -0.5359  0.1531
  917MPD2    C213475   1.883   3.802  11.368  0.5424  0.0587  1.0690
  917MPD2    C313476   1.906   3.823  11.235 -0.0381 -0.1694  0.2224
  917MPD2    C413477   1.837   3.741  11.142 -0.2468  0.8386 -0.6764
  917MPD2    C513478   1.749   3.647  11.190 -0.6506 -0.3015 -0.9893
  917MPD2     H13479   1.949   3.857  11.434  2.9361 -1.2559 -0.2665
  917MPD2    H113480   1.857   3.745  11.036 -1.7572 -0.7882 -1.0153
  917MPD2    H213481   1.640   3.563  11.347  0.0820 -0.3264 -0.1483
  917MPD2    H313482   1.689   3.584  11.125 -0.2382  0.2225 -1.8782
  917MPD2     N13483   2.001   3.910  11.183  0.1461 -0.7525  0.8301
  917MPD2    H513484   2.002   3.918  11.081 -1.8264 -2.9327  0.6291
  917MPD2    N113485   1.733   3.710  11.543 -0.1195 -0.5012 -0.0598
  917MPD2    H713486   1.664   3.636  11.555  0.5195 -1.1255 -0.2462
  918MPD2     C13487   2.128   4.096  12.368 -0.0084 -0.1942  0.0579
  918MPD2    C113488   2.090   4.172  12.257 -0.5265 -0.4460 -0.0804
  918MPD2    C213489   2.016   4.102  12.164  0.0712  1.1607 -0.1834
  918MPD2    C313490   1.974   3.974  12.192  0.4081 -0.5768  0.1819
  918MPD2    C413491   2.008   3.906  12.315  0.3443 -0.6926 -0.3189
  918MPD2    C513492   2.092   3.970  12.400  0.0024 -0.0625 -0.0305
  918MPD2     H13493   1.984   4.161  12.079  0.5501 -0.7586 -1.6685
  918MPD2    H113494   1.971   3.807  12.337  1.7147 -1.2662 -0.6160
  918MPD2    H213495   2.183   4.132  12.454 -0.8002  1.8053 -0.2829
  918MPD2    H313496   2.125   3.916  12.488  0.5147  0.4077  0.0598
  918MPD2     N13497   1.883   3.915  12.109  0.3551 -0.1572  0.6680
  918MPD2    H513498   1.864   3.971  12.027  0.2464 -0.7241  0.3108
  918MPD2    N113499   2.132   4.311  12.246 -0.3588 -0.3974 -0.0794
  918MPD2    H713500   2.194   4.345  12.319  1.2421 -1.8010 -0.7853
  919MPD2     C13501   2.659   3.448  11.551  0.2706  0.0905  0.0948
  919MPD2    C113502   2.579   3.330  11.550  0.1558  0.6130 -0.1972
  919MPD2    C213503   2.495   3.305  11.444 -0.3243 -0.7605 -0.7865
  919MPD2    C313504   2.498   3.382  11.327  0.1158 -0.0177 -0.9614
  919MPD2    C413505   2.579   3.495  11.328  0.0093 -0.9556  0.2713
  919MPD2    C513506   2.654   3.530  11.439  0.4439 -0.6170  0.2574
  919MPD2     H13507   2.444   3.210  11.431 -1.4995 -0.6086  2.7955
  919MPD2    H113508   2.595   3.559  11.241  0.7413 -1.6220 -0.0780
  919MPD2    H213509   2.711   3.492  11.635  0.3443 -0.3224  0.2604
  919MPD2    H313510   2.713   3.620  11.430 -0.2211 -0.0915  1.2094
  919MPD2     N13511   2.437   3.364  11.205  0.0379  0.2931  0.2973
  919MPD2    H513512   2.462   3.434  11.137 -0.8802 -0.4308 -0.7836
  919MPD2    N113513   2.593   3.250  11.666  0.2373 -0.0747  0.2870
  919MPD2    H713514   2.666   3.275  11.731  1.1136 -0.5796 -0.5036
  920MPD2     C13515   2.454   3.630  10.243  0.1382 -0.2185  0.0473
  920MPD2    C113516   2.351   3.540  10.240  0.5776 -0.2975 -0.0121
  920MPD2    C213517   2.331   3.455  10.347 -0.1910  0.0544 -0.4245
  920MPD2    C313518   2.390   3.483  10.468  0.4933 -0.5195  0.4884
  920MPD2    C413519   2.477   3.589  10.478 -0.1450  0.0158  0.1575
  920MPD2    C513520   2.524   3.643  10.359  0.3086  0.7548  0.4754
  920MPD2     H13521   2.271   3.365  10.338  1.9578 -1.4145  0.0678
  920MPD2    H113522   2.523   3.612  10.574  3.4297  0.4353 -1.6476
  920MPD2    H213523   2.495   3.678  10.155  0.8691  0.0724  0.5368
  920MPD2    H313524   2.604   3.716  10.363  1.0189  0.0293 -0.5455
  920MPD2     N13525   2.355   3.409  10.579 -0.6545  0.3406  0.6670
  920MPD2    H513526   2.295   3.328  10.565 -0.2192  0.0178  0.6723
  920MPD2    N113527   2.277   3.514  10.127  0.2733  0.4857 -0.1889
  920MPD2    H713528   2.206   3.444  10.145 -0.5030  1.8957  2.2053
  921MPD2     C13529   3.753   3.101  16.723  0.2399 -0.1532 -0.1787
  921MPD2    C113530   3.796   2.968  16.716  0.4944 -0.4877  0.0701
  921MPD2    C213531   3.705   2.861  16.747  0.1190  0.2085  0.6579
  921MPD2    C313532   3.573   2.895  16.752  0.3589 -0.0068  0.0669
  921MPD2    C413533   3.532   3.023  16.745  0.5992 -0.4534 -0.0454
  921MPD2    C513534   3.616   3.128  16.740  0.0875 -0.2032 -0.7384
  921MPD2     H13535   3.743   2.761  16.731 -3.5364 -1.1150  0.2886
  921MPD2    H113536   3.426   3.046  16.745  1.1020  1.9124  0.1409
  921MPD2    H213537   3.817   3.188  16.714  0.6946 -0.3832  0.7893
  921MPD2    H313538   3.572   3.227  16.734 -0.8945 -0.7536 -2.8046
  921MPD2     N13539   3.465   2.800  16.757  0.4348 -0.3029  0.2838
  921MPD2    H513540   3.375   2.844  16.742 -0.2440 -1.6747  0.3636
  921MPD2    N113541   3.930   2.945  16.684  0.1509 -0.0071  0.8082
  921MPD2    H713542   3.994   3.023  16.689  0.4025 -0.1514 -0.0518
  922MPD2     C13543   4.527   0.664  17.142 -0.2647 -0.5143 -0.1724
  922MPD2    C113544   4.490   0.737  17.261  0.7894  0.1422  0.1594
  922MPD2    C213545   4.427   0.670  17.363  0.0283  0.4618  0.6026
  922MPD2    C313546   4.403   0.537  17.350 -0.3479 -0.2810  0.2959
  922MPD2    C413547   4.428   0.470  17.234  0.2028  0.4604  0.5673
  922MPD2    C513548   4.499   0.530  17.137 -0.4477 -0.2648 -0.3947
  922MPD2     H13549   4.415   0.720  17.459  0.6994 -1.0134  1.4484
  922MPD2    H113550   4.395   0.369  17.213 -0.0184  0.7189 -0.3447
  922MPD2    H213551   4.591   0.707  17.066 -1.5902  0.8858 -0.5033
  922MPD2    H313552   4.522   0.470  17.049 -2.9479 -1.5184 -0.1828
  922MPD2     N13553   4.334   0.471  17.460 -0.5557  0.5000 -0.1498
  922MPD2    H513554   4.275   0.529  17.519 -0.2560 -0.3220  0.9523
  922MPD2    N113555   4.528   0.873  17.276  0.0830  0.1472 -0.2166
  922MPD2    H713556   4.488   0.918  17.358  0.2557  2.1176 -1.2379
  923MPD2     C13557   0.837   2.442   8.443  0.0174  0.2271  0.1007
  923MPD2    C113558   0.744   2.443   8.541  0.0490 -0.0982  0.2337
  923MPD2    C213559   0.785   2.387   8.667 -0.5200  0.3494 -0.3342
  923MPD2    C313560   0.910   2.338   8.685 -0.5262  0.1504 -0.5220
  923MPD2    C413561   0.999   2.333   8.584  0.6315  0.6230 -0.0627
  923MPD2    C513562   0.962   2.384   8.465 -0.9411  0.1279 -0.7326
  923MPD2     H13563   0.711   2.387   8.747  0.4435  0.6401  0.5481
  923MPD2    H113564   1.097   2.287   8.589 -0.1483 -0.8891  1.0565
  923MPD2    H213565   0.824   2.474   8.340 -1.3637  2.1029  0.8589
  923MPD2    H313566   1.035   2.370   8.386 -0.4865  0.6711 -0.4007
  923MPD2     N13567   0.946   2.269   8.805 -0.0137 -0.5961 -0.1791
  923MPD2    H513568   1.040   2.233   8.812  0.4412  0.4583 -0.9645
  923MPD2    N113569   0.623   2.509   8.522  0.0966  0.5434 -0.1383
  923MPD2    H713570   0.612   2.541   8.426 -0.7388 -0.5792 -0.4175
  924MPD2     C13571   1.544   0.553  15.911  0.3518 -0.6258  0.3261
  924MPD2    C113572   1.548   0.530  16.045  0.2099 -0.5543  0.3476
  924MPD2    C213573   1.588   0.635  16.123  0.1754 -0.0569  0.7085
  924MPD2    C313574   1.625   0.762  16.076 -0.0434  0.1484 -0.0360
  924MPD2    C413575   1.638   0.774  15.942 -0.7963 -0.8667 -0.3750
  924MPD2    C513576   1.594   0.672  15.862  0.5277  0.1932 -0.6076
  924MPD2     H13577   1.562   0.633  16.229 -2.4630  0.9097  0.0909
  924MPD2    H113578   1.671   0.863  15.891 -0.2427 -1.8015 -1.6521
  924MPD2    H213579   1.507   0.484  15.836  0.1904  1.1896 -1.2356
  924MPD2    H313580   1.598   0.692  15.755  0.4700 -0.7107 -0.7762
  924MPD2     N13581   1.644   0.860  16.163  0.6424 -0.6765  0.0164
  924MPD2    H513582   1.633   0.834  16.261 -1.4880  0.0896 -0.0404
  924MPD2    N113583   1.492   0.409  16.098 -0.8113  0.0472  0.9719
  924MPD2    H713584   1.437   0.348  16.039  0.4673 -0.1981  0.0429
  925MPD2     C13585   4.724   3.546  14.419  0.2424 -0.7389  0.0883
  925MPD2    C113586   4.622   3.619  14.480 -0.9744 -0.0291  0.0870
  925MPD2    C213587   4.614   3.614  14.616 -0.0222  0.2497  0.9758
  925MPD2    C313588   4.716   3.549  14.682  0.5442 -0.4316  0.0269
  925MPD2    C413589   0.083   3.476  14.622 -0.6580 -0.5495 -0.1775
  925MPD2    C513590   0.083   3.474  14.487 -0.1040  1.1217 -0.3363
  925MPD2     H13591   4.533   3.660  14.670  0.9205  2.7087  0.3061
  925MPD2    H113592   0.165   3.428  14.674 -1.7858 -0.8449  1.3318
  925MPD2    H213593   4.720   3.531  14.311 -1.0531 -0.9342  0.1672
  925MPD2    H313594   0.156   3.416  14.432 -1.1660  0.3989 -0.9890
  925MPD2     N13595   0.002   3.562  14.821 -0.4943  0.0053  0.2837
  925MPD2    H513596   0.067   3.494  14.858 -1.4711 -1.6288 -1.0335
  925MPD2    N113597   4.521   3.682  14.405  0.0511 -0.2357  0.1277
  925MPD2    H713598   4.434   3.705  14.453 -2.1601 -2.5005 -2.7650
  926MPD2     C13599   3.667   1.816  13.662 -0.2874  0.7457  0.5177
  926MPD2    C113600   3.555   1.797  13.589 -0.2817  0.5282  0.9258
  926MPD2    C213601   3.552   1.818  13.454  0.4039 -0.4285 -0.2502
  926MPD2    C313602   3.656   1.877  13.396 -0.4101  0.0302  0.4152
  926MPD2    C413603   3.772   1.891  13.467  0.1874  0.1970  0.1100
  926MPD2    C513604   3.779   1.857  13.600  0.2136  0.1652 -0.2243
  926MPD2     H13605   3.457   1.796  13.406 -0.3703 -1.1069  1.5923
  926MPD2    H113606   3.867   1.920  13.422 -0.3908  0.8898 -0.6746
  926MPD2    H213607   3.677   1.804  13.769  0.2429  1.9695  0.6034
  926MPD2    H313608   3.874   1.869  13.651 -0.3998 -1.6215  1.3531
  926MPD2     N13609   3.648   1.919  13.265 -1.2234 -0.1967  0.3280
  926MPD2    H513610   3.737   1.949  13.227 -1.5189  1.2937  0.7962
  926MPD2    N113611   3.434   1.748  13.647  0.4504 -0.2884  0.6370
  926MPD2    H713612   3.364   1.718  13.581  2.2898 -1.6307 -0.6779
  927MPD2     C13613   3.011   4.287  17.613  0.0724 -0.3261  0.5876
  927MPD2    C113614   3.096   4.189  17.642  0.3760 -0.0953 -0.0374
  927MPD2    C213615   3.204   4.171  17.566  0.6103  0.3869 -0.8100
  927MPD2    C313616   3.226   4.249  17.458 -0.4086 -0.1937 -0.5044
  927MPD2    C413617   3.130   4.343  17.422  0.5172  0.4573  0.6858
  927MPD2    C513618   3.016   4.361  17.498 -0.4808  0.3150 -0.2097
  927MPD2     H13619   3.271   4.091  17.596  0.3889  0.4644 -0.1001
  927MPD2    H113620   3.156   4.398  17.331  0.8239  0.8369  0.9992
  927MPD2    H213621   2.927   4.317  17.675  1.4878 -0.8547  2.7585
  927MPD2    H313622   2.939   4.437  17.484 -1.3310 -0.6421 -0.7141
  927MPD2     N13623   3.344   4.238  17.376 -0.9737  0.0474 -0.2574
  927MPD2    H513624   3.349   4.291  17.290 -0.0377  2.3292  1.2012
  927MPD2    N113625   3.065   4.095   0.009  0.0120  0.0031  0.1852
  927MPD2    H713626   2.977   4.108   0.058 -1.2814  2.6402 -2.7934
  928MPD2     C13627   1.655   2.903   0.787 -0.5178  0.6606  0.0393
  928MPD2    C113628   1.549   2.995   0.791  0.3716  0.5195  0.3875
  928MPD2    C213629   1.446   2.976   0.705  0.3912  0.6884 -0.1120
  928MPD2    C313630   1.438   2.872   0.608 -0.0722 -0.3713 -0.8982
  928MPD2    C413631   1.543   2.782   0.613 -0.7405 -0.1347  0.3061
  928MPD2    C513632   1.648   2.802   0.704  0.2499 -0.3133  0.4499
  928MPD2     H13633   1.357   3.038   0.709 -1.3209 -1.6254 -2.3828
  928MPD2    H113634   1.560   2.699   0.545  0.5799  0.1905  0.2429
  928MPD2    H213635   1.746   2.918   0.842 -0.7531  1.6605  0.1507
  928MPD2    H313636   1.736   2.741   0.690 -1.3572 -2.4753 -0.2153
  928MPD2     N13637   1.328   2.841   0.519 -0.9051  0.0117  0.8014
  928MPD2    H513638   1.324   2.746   0.481 -0.4927  0.8166 -1.2627
  928MPD2    N113639   1.553   3.095   0.889 -0.5375 -0.4163  0.0238
  928MPD2    H713640   1.636   3.093   0.946 -2.1274 -1.0463  2.3039
  929MPD2     C13641   0.227   1.468   9.663 -0.0647  0.4756 -0.6693
  929MPD2    C113642   0.320   1.570   9.654  0.2631  0.3800 -0.5950
  929MPD2    C213643   0.308   1.662   9.542  0.0621 -0.3327  0.2258
  929MPD2    C313644   0.189   1.671   9.476  0.3117  0.2161 -0.4266
  929MPD2    C413645   0.098   1.572   9.493  0.1200  0.7593  0.5834
  929MPD2    C513646   0.115   1.467   9.582  0.2142  0.0380 -0.3954
  929MPD2     H13647   0.375   1.747   9.540 -1.0058  0.5107  0.2009
  929MPD2    H113648   0.002   1.580   9.443  0.4318 -1.1453 -0.3183
  929MPD2    H213649   0.237   1.389   9.737 -1.1029  0.5115 -0.4957
  929MPD2    H313650   0.040   1.390   9.596  1.0307 -0.9008 -1.1780
  929MPD2     N13651   0.149   1.782   9.399  0.2591 -0.1269  0.3324
  929MPD2    H513652   0.051   1.785   9.373  0.2285  0.2886  0.4944
  929MPD2    N113653   0.417   1.585   9.757  0.5542  0.3167  0.6326
  929MPD2    H713654   0.413   1.516   9.832  1.1531 -0.4250 -0.0246
  930MPD2     C13655   3.346   4.426  14.126 -0.6461  0.1104 -0.2385
  930MPD2    C113656   3.282   4.532  14.069  0.0619 -0.4290 -0.1667
  930MPD2    C213657   3.184   4.517  13.968  0.9341 -0.4006 -0.3331
  930MPD2    C313658   3.168   4.388  13.905  0.0020 -0.5791  0.6647
  930MPD2    C413659   3.233   4.282  13.968 -0.6412  0.3422  0.0902
  930MPD2    C513660   3.314   4.301  14.078  0.2730  0.5353 -0.0078
  930MPD2     H13661   3.124   4.594  13.922  1.1638  2.1250  3.5605
  930MPD2    H113662   3.232   4.179  13.934 -1.5485  0.2062  0.4999
  930MPD2    H213663   3.408   4.437  14.214  0.8203 -0.4496 -1.1946
  930MPD2    H313664   3.355   4.211  14.122  0.0852  0.4387 -0.0306
  930MPD2     N13665   3.109   4.375  13.776 -0.6661  0.4707  0.2958
  930MPD2    H513666   3.134   4.296  13.718  1.0751  1.0319  0.2795
  930MPD2    N113667   3.307   4.660  14.123 -0.2468  0.2727  0.5865
  930MPD2    H713668   3.388   4.669  14.183  1.0423 -1.0243 -0.9320
  931MPD2     C13669   3.402   3.438   0.324  0.2447  0.1857  0.3744
  931MPD2    C113670   3.278   3.475   0.372  0.6815 -0.2883  0.3297
  931MPD2    C213671   3.251   3.433   0.499  0.0625  0.3933  0.3518
  931MPD2    C313672   3.335   3.364   0.581 -1.0058  0.7372  0.0474
  931MPD2    C413673   3.448   3.309   0.520 -0.2240  0.0884 -0.2689
  931MPD2    C513674   3.484   3.348   0.389  0.5936  0.0075 -0.0740
  931MPD2     H13675   3.170   3.488   0.546  1.2096  0.2122  2.5482
  931MPD2    H113676   3.513   3.248   0.581  0.8369  1.5906  0.1217
  931MPD2    H213677   3.437   3.476   0.229  0.2298 -1.0065 -0.1048
  931MPD2    H313678   3.571   3.313   0.335  0.9388 -0.0949  0.5532
  931MPD2     N13679   3.305   3.334   0.716 -0.5188  0.3882  0.5502
  931MPD2    H513680   3.380   3.286   0.764  0.5281  1.8674  0.3974
  931MPD2    N113681   3.201   3.561   0.296 -0.2004  1.3471 -0.1000
  931MPD2    H713682   3.255   3.623   0.235 -0.1595 -0.2198 -1.6732
  932MPD2     C13683   4.591   2.370  11.110 -0.4456 -0.6044  0.5259
  932MPD2    C113684   4.622   2.461  11.208  0.2172 -0.3504 -0.0338
  932MPD2    C213685   4.683   2.420  11.329  0.4468  0.7284 -1.0215
  932MPD2    C313686   4.710   2.285  11.345  0.1832  0.4916 -0.1080
  932MPD2    C413687   4.680   2.191  11.240  0.4158 -0.6421  0.0277
  932MPD2    C513688   4.629   2.240  11.125 -0.2062  0.1506 -0.0124
  932MPD2     H13689   4.696   2.484  11.416  0.9403 -0.0484 -0.5196
  932MPD2    H113690   4.694   2.084  11.246  0.2470 -0.8361 -2.7676
  932MPD2    H213691   4.557   2.404  11.013  2.3372 -1.3541 -0.7132
  932MPD2    H313692   4.609   2.167  11.048 -0.4003  0.3088 -0.1143
  932MPD2     N13693   0.029   2.249  11.473 -0.5445 -0.2868 -0.0483
  932MPD2    H513694   0.014   2.311  11.552 -0.9102 -1.1004  0.5226
  932MPD2    N113695   4.600   2.596  11.174  0.7809  0.1955  0.2009
  932MPD2    H713696   4.588   2.611  11.074  1.0322  0.9217  0.2785
  933MPD2     C13697   1.395   3.924   1.301  0.1264  0.0999  0.1339
  933MPD2    C113698   1.343   3.832   1.214 -0.6950  0.7185 -0.5373
  933MPD2    C213699   1.223   3.853   1.152 -0.0966 -0.5909  0.0336
  933MPD2    C313700   1.156   3.971   1.167  0.0195 -0.2806 -0.0482
  933MPD2    C413701   1.205   4.063   1.254 -0.1606 -0.5197 -0.3733
  933MPD2    C513702   1.320   4.035   1.326 -0.7724  0.0560 -0.6419
  933MPD2     H13703   1.187   3.786   1.076 -1.7937  0.2453  0.1180
  933MPD2    H113704   1.166   4.163   1.269  1.2630 -0.4720  3.0386
  933MPD2    H213705   1.483   3.902   1.361  0.1534  0.6281  0.2856
  933MPD2    H313706   1.359   4.107   1.397 -1.7259 -1.6616  1.6182
  933MPD2     N13707   1.028   3.992   1.102  0.0030  0.1390  0.6183
  933MPD2    H513708   1.009   3.911   1.043  1.0600 -0.3976  1.0140
  933MPD2    N113709   1.412   3.703   1.211  0.5234 -0.2700  0.4420
  933MPD2    H713710   1.508   3.715   1.242  0.6612 -1.1711  0.3669
  934MPD2     C13711   2.511   0.700   1.757  0.1819 -0.2835 -0.3741
  934MPD2    C113712   2.538   0.674   1.622  0.0675  0.1114 -0.5975
  934MPD2    C213713   2.461   0.583   1.556  0.1935  0.5089 -0.1570
  934MPD2    C313714   2.363   0.508   1.629 -0.1777 -0.0766 -0.0388
  934MPD2    C413715   2.331   0.545   1.757  0.7247 -0.4064 -0.0315
  934MPD2    C513716   2.410   0.641   1.820  0.4528 -0.3868  0.3112
  934MPD2     H13717   2.481   0.565   1.451  1.4805 -1.3721  0.4045
  934MPD2    H113718   2.270   0.488   1.825 -0.0665 -0.2990 -0.6466
  934MPD2    H213719   2.571   0.766   1.818 -1.2165  0.1561  0.5394
  934MPD2    H313720   2.384   0.686   1.915 -3.4656  0.0845 -0.9714
  934MPD2     N13721   2.273   0.414   1.567 -0.0630  0.3550 -0.4781
  934MPD2    H513722   2.189   0.392   1.620  0.5694  0.1789  0.4450
  934MPD2    N113723   2.646   0.738   1.558 -0.0796 -0.1886  0.1337
  934MPD2    H713724   2.660   0.703   1.464  1.5600 -1.4418  0.8387
  935MPD2     C13725   2.422   4.308   1.058  0.3963 -0.4462  0.6628
  935MPD2    C113726   2.320   4.369   0.976 -0.4457  0.3329 -0.6213
  935MPD2    C213727   2.274   4.495   1.019  0.4038  0.2402 -0.1166
  935MPD2    C313728   2.318   4.558   1.130  0.3610 -0.2474  0.1907
  935MPD2    C413729   2.415   4.496   1.210 -0.1024  0.3214 -0.5782
  935MPD2    C513730   2.467   4.377   1.165 -0.5500  0.0293  0.1657
  935MPD2     H13731   2.200   4.545   0.957 -0.6644  0.5016  1.3693
  935MPD2    H113732   2.457   4.535   1.302 -1.4728  0.9808 -0.2259
  935MPD2    H213733   2.481   4.221   1.031  0.8898  0.5891 -1.6828
  935MPD2    H313734   2.530   4.327   1.237 -1.5022  1.2602  1.8501
  935MPD2     N13735   2.260   4.673   1.185 -0.0442 -0.2492  0.0554
  935MPD2    H513736   2.302   4.698   1.274  1.9482 -1.7028 -0.4802
  935MPD2    N113737   2.270   4.320   0.858 -0.4671 -0.0072 -0.4087
  935MPD2    H713738   2.216   4.383   0.801 -1.9912 -0.1286  0.9155
  936MPD2     C13739   0.986   1.118  13.205 -0.1245  0.3902  0.1207
  936MPD2    C113740   0.886   1.198  13.261 -0.0027  0.1153 -0.3090
  936MPD2    C213741   0.781   1.241  13.184 -0.3003 -0.0764 -0.0778
  936MPD2    C313742   0.768   1.216  13.051 -0.2433  0.1780  0.4769
  936MPD2    C413743   0.865   1.129  12.999  0.0061 -0.8090  0.0263
  936MPD2    C513744   0.961   1.080  13.076 -1.5161 -0.4731  0.0199
  936MPD2     H13745   0.710   1.307  13.232  1.7821  2.1507 -0.0210
  936MPD2    H113746   0.848   1.088  12.900  0.2802  2.7827 -1.4902
  936MPD2    H213747   1.065   1.069  13.261  0.3845  2.0258  0.8265
  936MPD2    H313748   1.032   1.014  13.027  0.7267  1.3863  0.7729
  936MPD2     N13749   0.657   1.269  12.981  0.7022 -1.0631  0.3600
  936MPD2    H513750   0.611   1.342  13.035 -2.3911 -2.4774 -0.3351
  936MPD2    N113751   0.870   1.209  13.400 -0.0863 -0.8050 -0.5355
  936MPD2    H713752   0.771   1.229  13.414  0.0745  2.9048 -4.8360
  937MPD2     C13753   2.918   2.559  11.529  0.0571  0.5140  0.2332
  937MPD2    C113754   2.883   2.695  11.515 -0.3605 -0.2547 -0.0180
  937MPD2    C213755   2.958   2.763  11.418 -1.0278  0.2402  0.7325
  937MPD2    C313756   3.027   2.701  11.316  0.3576  0.4543  0.0859
  937MPD2    C413757   3.058   2.567  11.337  0.5333 -0.0727 -0.2420
  937MPD2    C513758   3.008   2.499  11.446 -0.3658 -0.2342 -0.0406
  937MPD2     H13759   2.939   2.870  11.417 -0.8377  0.2467 -1.3772
  937MPD2    H113760   3.121   2.517  11.264  2.5841  0.0342  1.4409
  937MPD2    H213761   2.868   2.503  11.607 -1.9820  0.4223 -1.1606
  937MPD2    H313762   3.035   2.394  11.451 -1.3077 -0.4358  0.7540
  937MPD2     N13763   3.090   2.772  11.220  0.5154 -0.0662 -0.4697
  937MPD2    H513764   3.086   2.871  11.241 -1.7944 -0.0832 -0.8523
  937MPD2    N113765   2.830   2.780  11.618  0.1481 -0.1118 -0.2323
  937MPD2    H713766   2.825   2.877  11.591 -1.6168 -0.1417 -0.0542
  938MPD2     C13767   1.214   0.318   0.398 -0.6620  0.3547  0.1306
  938MPD2    C113768   1.266   0.333   0.528 -0.0142  0.1880 -1.1215
  938MPD2    C213769   1.226   0.236   0.620 -0.1100 -0.6448  0.3478
  938MPD2    C313770   1.185   0.112   0.573  0.4214 -0.1481 -0.1826
  938MPD2    C413771   1.136   0.100   0.443  0.0982 -0.2947  0.0550
  938MPD2    C513772   1.151   0.205   0.359 -0.1417 -0.4565  0.7311
  938MPD2     H13773   1.260   0.244   0.723 -1.8177 -0.9925  0.9420
  938MPD2    H113774   1.095   0.005   0.412 -0.9801 -0.5083  2.0904
  938MPD2    H213775   1.242   0.385   0.318  0.4815 -2.2404 -1.6580
  938MPD2    H313776   1.123   0.192   0.255 -0.2284  0.7022  0.6134
  938MPD2     N13777   1.166   0.005   0.668 -0.2750  0.1346  0.1759
  938MPD2    H513778   1.113   4.657   0.643 -0.4819  0.6658 -1.1856
  938MPD2    N113779   1.322   0.452   0.580 -0.1872 -0.1315 -0.0930
  938MPD2    H713780   1.337   0.454   0.681  0.4156  0.6087 -0.1932
  939MPD2     C13781   2.171   1.163   0.388 -0.2520 -0.2652  0.4407
  939MPD2    C113782   2.185   1.066   0.482  0.0248  0.2958  0.0231
  939MPD2    C213783   2.219   0.947   0.441  0.3832  0.0885 -0.8714
  939MPD2    C313784   2.228   0.912   0.309 -0.4605  0.3322  0.0726
  939MPD2    C413785   2.211   1.011   0.212 -0.0597 -0.4743 -0.0209
  939MPD2    C513786   2.184   1.138   0.254  0.1662 -0.4274  0.9457
  939MPD2     H13787   2.237   0.870   0.515  0.1487 -0.8404 -1.7758
  939MPD2    H113788   2.222   0.987   0.107  1.4242 -0.5160  0.1544
  939MPD2    H213789   2.151   1.268   0.405  1.7427  0.3380 -0.9587
  939MPD2    H313790   2.182   1.227   0.192 -2.8789 -0.3107  1.2533
  939MPD2     N13791   2.260   0.783   0.281 -0.0561  0.4850 -0.3596
  939MPD2    H513792   2.250   0.719   0.358 -0.6666 -0.8496 -1.5464
  939MPD2    N113793   2.181   1.102   0.617 -0.1931  0.2444  0.3185
  939MPD2    H713794   2.156   1.195   0.648 -2.1740 -0.1227 -0.1765
  940MPD2     C13795   1.153   1.497  12.993  0.3600 -0.0536  0.3959
  940MPD2    C113796   1.219   1.381  13.032 -0.2058 -0.6494  0.1195
  940MPD2    C213797   1.210   1.268  12.957 -0.8155 -0.0777 -0.1611
  940MPD2    C313798   1.145   1.268  12.836 -0.0678  0.1279 -0.1594
  940MPD2    C413799   1.076   1.379  12.794  0.0456 -0.4016  0.3708
  940MPD2    C513800   1.081   1.489  12.874 -0.4295  0.0462 -0.2507
  940MPD2     H13801   1.266   1.182  12.993 -1.0338  0.3878  1.2894
  940MPD2    H113802   1.026   1.377  12.698  2.8548 -0.1001 -1.1036
  940MPD2    H213803   1.147   1.592  13.045  0.7265 -0.4790  1.2113
  940MPD2    H313804   1.048   1.584  12.833  0.6036 -0.0972 -1.3991
  940MPD2     N13805   1.137   1.151  12.756  0.0039 -0.7597 -0.7900
  940MPD2    H513806   1.068   1.148  12.681 -1.4720 -0.8664  0.5652
  940MPD2    N113807   1.292   1.371  13.151 -0.9366  0.7325 -0.8148
  940MPD2    H713808   1.329   1.280  13.176 -2.0685 -0.2904 -2.8529
  941MPD2     C13809   4.715   0.695   9.324 -0.0116  0.1638 -0.3494
  941MPD2    C113810   0.092   0.660   9.390 -0.5766 -0.4127 -0.1158
  941MPD2    C213811   0.075   0.553   9.475  0.3710 -0.1393  0.0228
  941MPD2    C313812   4.693   0.488   9.493  0.2292  0.0591 -0.1772
  941MPD2    C413813   4.579   0.529   9.426  0.2526  0.2180  0.3028
  941MPD2    C513814   4.590   0.630   9.333 -0.1200 -0.7851 -0.1883
  941MPD2     H13815   0.171   0.526   9.517  0.8171 -1.1086 -1.6190
  941MPD2    H113816   4.482   0.488   9.450  1.2385 -1.2003  1.8470
  941MPD2    H213817   4.718   0.768   9.245  2.7863 -0.5982 -0.9595
  941MPD2    H313818   4.515   0.660   9.261 -0.6425 -0.7598  0.3656
  941MPD2     N13819   4.681   0.368   9.567  0.1074 -0.1084 -0.3342
  941MPD2    H513820   4.588   0.329   9.579 -0.2233  1.2741  1.5447
  941MPD2    N113821   0.218   0.719   9.373  0.1477  0.3452  0.2024
  941MPD2    H713822   0.287   0.683   9.437  0.6866 -0.4792 -0.8495
  942MPD2     C13823   4.220   1.697   8.652  0.7020  0.0731  0.7634
  942MPD2    C113824   4.112   1.772   8.615  0.1783  0.2871 -0.2442
  942MPD2    C213825   4.138   1.902   8.565 -0.5723  0.6401 -0.2859
  942MPD2    C313826   4.267   1.954   8.563  0.1637 -0.3758 -0.2309
  942MPD2    C413827   4.369   1.868   8.598  0.6038  0.1171 -0.1277
  942MPD2    C513828   4.351   1.744   8.644  0.5296  0.1483 -0.3319
  942MPD2     H13829   4.051   1.963   8.544 -0.1764  0.4434 -2.5058
  942MPD2    H113830   4.470   1.906   8.602  0.3298  0.7056  1.2498
  942MPD2    H213831   4.205   1.594   8.683  2.6333 -0.1726  0.8476
  942MPD2    H313832   4.440   1.682   8.655  0.5406  0.5329  1.6992
  942MPD2     N13833   4.301   2.080   8.513 -0.2688  0.1901  0.3085
  942MPD2    H513834   4.388   2.127   8.536 -0.3112  1.1104 -1.3946
  942MPD2    N113835   3.975   1.725   8.630 -0.2110 -0.3755 -0.0693
  942MPD2    H713836   3.906   1.797   8.611  1.1553  1.4744  2.0359
  943MPD2     C13837   3.552   0.763  10.308 -0.0988  0.5056 -0.1954
  943MPD2    C113838   3.492   0.644  10.335  0.4840 -0.2255 -0.4169
  943MPD2    C213839   3.404   0.636  10.444  0.4456 -0.3140 -0.1218
  943MPD2    C313840   3.407   0.744  10.529  0.1253  0.0207  0.5431
  943MPD2    C413841   3.480   0.852  10.511  0.0845  0.0286  0.1186
  943MPD2    C513842   3.555   0.865  10.399 -0.0913 -0.5599  0.5564
  943MPD2     H13843   3.349   0.544  10.459 -0.7849  0.2741 -1.0324
  943MPD2    H113844   3.481   0.925  10.592  0.3261 -0.0190  0.1604
  943MPD2    H213845   3.627   0.776  10.231  0.7990 -0.5823  0.4932
  943MPD2    H313846   3.613   0.955  10.380 -1.0691  0.2313  1.2997
  943MPD2     N13847   3.352   0.739  10.662 -0.5977  0.4979  0.2613
  943MPD2    H513848   3.386   0.810  10.726 -0.8902  1.2573 -0.4234
  943MPD2    N113849   3.505   0.530  10.248  0.3352 -0.2898 -0.0117
  943MPD2    H713850   3.462   0.442  10.276 -1.1367  0.7438  0.9937
  944MPD2     C13851   3.613   4.631  11.901 -0.8006 -0.3020 -0.0129
  944MPD2    C113852   3.522   4.577  11.814 -0.1397 -0.5332 -0.1358
  944MPD2    C213853   3.395   4.640  11.801  0.1655 -0.0206  0.7684
  944MPD2    C313854   3.363   0.013  11.883  0.2232  0.2517  0.3098
  944MPD2    C413855   3.459   0.065  11.967  0.5057  0.6742 -0.4759
  944MPD2    C513856   3.586   0.010  11.972  0.1059  0.3763 -0.1964
  944MPD2     H13857   3.322   4.601  11.731  1.5825  0.5891 -1.0488
  944MPD2    H113858   3.451   0.153  12.030  1.6197  1.3818 -1.3246
  944MPD2    H213859   3.711   4.586  11.916 -1.8103 -2.5948 -0.3145
  944MPD2    H313860   3.661   0.057  12.034 -1.2634  0.7868  1.1556
  944MPD2     N13861   3.235   0.074  11.871 -0.2103 -0.2083  0.1995
  944MPD2    H513862   3.181   0.024  11.801 -1.7240 -0.4692  1.5601
  944MPD2    N113863   3.560   4.456  11.750  0.1660  0.1245  0.4662
  944MPD2    H713864   3.656   4.428  11.766  0.3252  0.0819 -0.5833
    1TMC1    C113865   2.487   0.788  14.240  0.1060  0.5349  0.2989
    1TMC1    C213866   2.366   0.798  14.178 -0.0347  0.0531  0.3746
    1TMC1    C313867   2.301   0.687  14.143  0.7981 -0.0114  0.0016
    1TMC1    C413868   2.549   0.667  14.251 -0.4234 -0.1344  0.2478
    1TMC1    C513869   2.490   0.557  14.195 -0.4059 -0.1257 -0.4043
    1TMC1    C613870   2.363   0.567  14.140 -0.6467 -0.0699 -1.1327
    1TMC1     C13871   2.560   0.906  14.296  1.2208  0.0898 -0.4491
    1TMC1     O13872   2.660   0.878  14.365 -0.1788  0.2949 -0.0896
    1TMC1     H13873   2.311   0.891  14.177  0.2812  0.2242 -1.6103
    1TMC1    H113874   2.645   0.664  14.302  0.9175  2.6467 -2.1322
    1TMC1    H213875   2.320   0.473  14.106 -1.3208  0.0632 -0.6441
    1TMC1    C713876   2.548   0.432  14.198  0.5734  0.2111  0.3242
    1TMC1    C813877   2.166   0.697  14.107 -0.0023 -0.4063  0.6889
    1TMC1    O113878   2.484   0.332  14.189 -0.1507 -0.5778  0.4523
    1TMC1    O213879   2.123   0.808  14.094 -0.0978  0.0853  0.2585
    1TMC1    O313880   2.677   0.441  14.166 -0.3219  0.2979  0.5915
    1TMC1    H313881   2.713   0.532  14.155  0.8542 -0.4018 -1.3156
    1TMC1    O513882   2.098   0.608  14.180 -0.3728  0.7769  0.0481
    1TMC1    H513883   2.149   0.539  14.228 -1.4664 -0.7240 -0.9627
    2MPD2     C13884   2.635   1.407  14.418 -0.5222 -0.1936  1.1603
    2MPD2    C113885   2.529   1.397  14.323 -0.0442  0.0333  0.2237
    2MPD2    C213886   2.492   1.269  14.277 -0.1803 -0.4447 -0.6332
    2MPD2    C313887   2.547   1.153  14.329 -0.6452 -0.0008 -0.6261
    2MPD2    C413888   2.653   1.171  14.422 -0.2581 -0.4556  0.1839
    2MPD2    C513889   2.691   1.295  14.471 -0.0998 -0.1408 -0.0587
    2MPD2     H13890   2.419   1.276  14.197 -0.2932 -1.2449 -0.6065
    2MPD2    H113891   2.706   1.082  14.453  1.8711  0.6547 -0.2626
    2MPD2    H213892   2.686   1.499  14.446  1.2524 -0.1250 -2.2815
    2MPD2    H313893   2.767   1.300  14.548 -0.0250  3.0879 -0.3239
    2MPD2     N13894   2.500   1.031  14.274 -0.4325  0.1063 -0.1599
    2MPD2    H513895   2.417   1.041  14.218 -0.4206 -0.6565 -0.3097
    2MPD2    N113896   2.485   1.518  14.273  0.0885 -0.4126 -0.0327
    2MPD2    H713897   2.537   1.600  14.304  0.3803  0.6588 -3.3664
    3TMC2    C113898   2.379   1.673  14.143 -0.0669 -0.9425 -0.1687
    3TMC2    C213899   2.368   1.772  14.235  0.4735  0.5154 -0.0545
    3TMC2    C313900   2.307   1.884  14.187  0.1284 -0.4961  0.0650
    3TMC2    C413901   2.340   1.683  14.009  0.3484 -0.0946 -0.3644
    3TMC2    C513902   2.296   1.804  13.963  0.4929  0.5377 -0.1692
    3TMC2    C613903   2.278   1.907  14.054 -0.5314  0.1377 -0.0751
    3TMC2     C13904   2.380   1.538  14.192 -0.1589 -0.3509 -0.2808
    3TMC2     O13905   2.307   1.462  14.139 -0.0095  0.1445  0.0848
    3TMC2     H13906   2.397   1.763  14.339 -0.6252 -0.3734  0.1799
    3TMC2    H113907   2.329   1.598  13.944  0.6927  0.2064 -0.8120
    3TMC2    H213908   2.228   1.998  14.023 -0.0255  0.5423  0.3048
    3TMC2    C713909   2.216   1.811  13.840  0.4773  0.0746 -0.3409
    3TMC2    C813910   2.307   2.003  14.275  0.1402  0.3346 -0.3861
    3TMC2    O113911   2.219   1.710  13.772 -0.2041  0.2934 -0.0855
    3TMC2    O213912   2.388   2.025  14.367  0.0614 -0.2322 -0.6750
    3TMC2    O513913   2.197   2.076  14.249  0.0022 -0.4552 -0.1490
    3TMC2    H513914   2.132   2.036  14.187  0.3079 -0.3282 -0.5493
    4TMC2    C113915   1.366   2.293  13.663  0.2524 -0.3324  0.5312
    4TMC2    C213916   1.375   2.430  13.640  0.6937  0.3293 -0.4479
    4TMC2    C313917   1.478   2.500  13.692 -0.3149 -0.0059  1.0091
    4TMC2    C413918   1.461   2.225  13.727 -0.1020  0.4598  0.1346
    4TMC2    C513919   1.575   2.297  13.758 -1.2190 -0.1473  0.7755
    4TMC2    C613920   1.582   2.430  13.746  0.6254  0.5068  0.1204
    4TMC2     C13921   1.245   2.227  13.623  0.0771 -0.0574  0.3982
    4TMC2     O13922   1.180   2.280  13.537 -0.2926  0.3605 -0.0258
    4TMC2     H13923   1.300   2.484  13.583  0.5865  0.1926 -0.4388
    4TMC2    H113924   1.463   2.120  13.752  1.7773  1.1507  2.8181
    4TMC2    H213925   1.675   2.477  13.776  0.0969  0.3227  2.0583
    4TMC2    C713926   1.701   2.218  13.771 -0.8492 -0.2356  0.0749
    4TMC2    C813927   1.510   2.634  13.654  0.8383  0.0703  0.5032
    4TMC2    O113928   1.784   2.277  13.844  0.2693 -0.2878  0.4465
    4TMC2    O213929   1.599   2.693  13.712 -0.2521 -0.4747 -0.8029
    4TMC2    O513930   1.506   2.645  13.520  0.6125  0.2284 -0.5571
    4TMC2    H513931   1.449   2.579  13.475 -1.1927  0.5159  1.3135
    5MPD2     C13932   0.866   1.891  13.701  0.2878  0.1757  0.1392
    5MPD2    C113933   0.899   1.958  13.582 -0.1072  0.1224 -0.1316
    5MPD2    C213934   1.021   2.027  13.575 -0.2447  0.2933  0.3422
    5MPD2    C313935   1.094   2.042  13.689  0.5504 -0.1295  0.1110
    5MPD2    C413936   1.065   1.980  13.807  0.1443  1.0940 -0.0131
    5MPD2    C513937   0.955   1.898  13.805 -0.1848 -0.3147 -0.4895
    5MPD2     H13938   1.058   2.077  13.486 -1.1364  0.0995 -0.1397
    5MPD2    H113939   1.130   1.994  13.893  1.3869  0.9885 -0.9375
    5MPD2    H213940   0.774   1.834  13.707  1.0687 -1.2588 -1.4877
    5MPD2    H313941   0.923   1.843  13.892  1.3782 -1.0474 -0.3711
    5MPD2     N13942   1.214   2.120  13.696 -0.2457 -0.1659 -0.3942
    5MPD2    H513943   1.275   2.108  13.776 -0.6724 -0.3533 -0.0963
    5MPD2    N113944   0.806   1.960  13.481  0.1366  0.5428  0.0133
    5MPD2    H713945   0.736   1.887  13.486 -1.6881  2.3521  0.3717
    6MPD1     C13946   4.637   3.528  12.916 -0.3188 -0.1398  0.9707
    6MPD1    C113947   4.652   3.442  12.809 -0.6215  0.1681  0.5034
    6MPD1    C213948   4.662   3.307  12.825 -0.2420  0.2902 -0.4240
    6MPD1    C313949   4.630   3.250  12.949 -0.7565  0.0285  0.3274
    6MPD1    C413950   4.600   3.335  13.055  0.3710  0.1686  0.7042
    6MPD1    C513951   4.597   3.472  13.036 -0.9451  0.1716 -0.5093
    6MPD1     H13952   4.695   3.247  12.741  1.5275 -0.0193  0.4861
    6MPD1    H113953   4.565   3.301  13.152 -1.6801 -4.4200 -1.6796
    6MPD1    H213954   4.642   3.635  12.896  2.7392 -0.1822  1.6215
    6MPD1    H313955   4.563   3.538  13.116 -0.8542  0.7851 -0.9763
    6MPD1     N13956   4.653   3.112  12.973 -0.1501  0.2995  0.6128
    6MPD1    H513957   4.662   3.080  13.069 -1.0116  1.2377  1.0135
    6MPD1    N113958   4.698   3.498  12.686  0.5076  0.0457  0.8010
    6MPD1    H613959   4.678   3.445  12.601  0.1497  2.5064 -0.6608
    6MPD1    H713960   4.680   3.597  12.671  0.1158  0.1171  1.7346
    7MPD2     C13961   0.247   2.626  13.470 -0.0641 -0.3046  0.7601
    7MPD2    C113962   0.200   2.554  13.356 -0.5839 -0.0265 -0.0698
    7MPD2    C213963   0.233   2.420  13.349  0.8725 -0.4765  0.0894
    7MPD2    C313964   0.312   2.356  13.440 -0.2367 -0.8112 -0.1884
    7MPD2    C413965   0.343   2.421  13.555 -0.2286 -0.0486 -0.2736
    7MPD2    C513966   0.317   2.555  13.563  0.0409  0.0639 -0.1731
    7MPD2     H13967   0.198   2.368  13.261  1.0138 -0.4921  0.0428
    7MPD2    H113968   0.406   2.378  13.633  0.5444  0.0890 -0.8192
    7MPD2    H213969   0.215   2.728  13.487  1.0179  0.1359  0.1751
    7MPD2    H313970   0.347   2.614  13.649 -0.1725 -0.2259  0.1015
    7MPD2     N13971   0.368   2.234  13.424  0.0165  0.6125 -0.5510
    7MPD2    H513972   0.427   2.189  13.493 -2.9583  0.1072  1.6484
    7MPD2    N113973   0.135   2.608  13.247  0.8473  0.4661 -0.3961
    7MPD2    H713974   0.108   2.540  13.177  1.3738 -2.4201  2.1675
    8TMC3    C113975   0.451   2.060  13.291 -0.4728  0.1849  0.2676
    8TMC3    C213976   0.564   2.063  13.363 -0.2718  0.7474  0.2219
    8TMC3    C313977   0.684   2.048  13.301 -0.5240 -0.1151 -0.0065
    8TMC3    C413978   0.450   2.016  13.156  0.4706 -1.1517 -0.4359
    8TMC3    C513979   0.574   2.023  13.096  0.4371 -0.6398 -0.2088
    8TMC3    C613980   0.687   2.042  13.166  0.4032 -0.1035 -0.4079
    8TMC3     C13981   0.358   2.167  13.302  0.2416  0.2514 -0.4537
    8TMC3     O13982   0.317   2.205  13.190  0.0467 -0.5773 -0.5708
    8TMC3     H13983   0.565   2.077  13.471  1.3477 -2.6950  0.6611
    8TMC3    H113984   0.354   2.012  13.106  0.7854  0.1503 -1.1471
    8TMC3    H213985   0.780   2.041  13.111 -1.0371  0.0729 -2.8345
    8TMC3    C713986   0.574   2.074  12.954  0.4173 -0.4573 -0.3660
    8TMC3    C813987   0.815   2.037  13.367  0.4490  0.3964 -0.3198
    8TMC3    O113988   0.681   2.074  12.894  0.0896  0.3965  0.4576
    8TMC3    O213989   0.895   2.125  13.331  0.1228 -0.3167  0.0568
    9TMC3    C113990   4.727   2.899  12.922  0.0088  0.0146  0.1425
    9TMC3    C213991   4.733   2.798  12.821  0.8829 -0.4879 -0.2974
    9TMC3    C313992   0.043   2.678  12.861  0.6109 -0.1432 -0.0815
    9TMC3    C413993   0.036   2.879  13.047 -0.2141 -0.0531 -0.2791
    9TMC3    C513994   0.097   2.756  13.074 -0.0797  0.3081  0.6308
    9TMC3    C613995   0.085   2.656  12.990  0.0511 -0.3117 -0.7052
    9TMC3     C13996   4.661   3.021  12.870 -0.3090  0.2130 -0.2120
    9TMC3     O13997   4.641   3.027  12.749  0.0227 -0.5357  0.0001
    9TMC3     H13998   4.705   2.808  12.717 -3.1116 -0.6269  0.7603
    9TMC3    H113999   0.029   2.949  13.129 -0.3483  1.0937 -1.2820
    9TMC3    H214000   0.142   2.570  13.024 -0.0809  0.5260  1.5869
    9TMC3    C714001   0.130   2.742  13.217 -0.5247  0.4266  0.1248
    9TMC3    C814002   0.105   2.599  12.751  0.3800  0.5025 -0.1111
    9TMC3    O114003   0.153   2.839  13.287 -0.1512  0.3128 -0.5433
    9TMC3    O214004   0.128   2.663  12.651 -0.0656 -0.1872  0.2910
   10MPD2     C14005   0.491   2.252  12.723  0.4770  0.0571 -0.4211
   10MPD2    C114006   0.422   2.233  12.834 -0.1718 -0.1063  0.1371
   10MPD2    C214007   0.310   2.309  12.856  0.4611 -0.1851  0.1469
   10MPD2    C314008   0.259   2.402  12.766 -0.0550  1.1883  0.5563
   10MPD2    C414009   0.328   2.415  12.642 -0.4462 -0.4549 -0.7682
   10MPD2    C514010   0.445   2.343  12.632 -0.0319 -0.6243 -0.2545
   10MPD2     H14011   0.253   2.293  12.947 -1.0597  1.5301 -0.5144
   10MPD2    H114012   0.305   2.477  12.555 -1.9757  1.8155  1.2648
   10MPD2    H214013   0.588   2.205  12.717 -0.3859 -1.8811  0.5667
   10MPD2    H314014   0.503   2.359  12.542 -0.0922 -0.7007 -0.3068
   10MPD2     N14015   0.149   2.479  12.803  0.1851  0.7160 -0.5697
   10MPD2    H514016   0.117   2.446  12.894  2.1737  0.1473 -0.0805
   10MPD2    N114017   0.459   2.149  12.941 -0.0951  0.5673 -0.3034
   10MPD2    H714018   0.399   2.152  13.022 -2.3380 -1.2362 -1.9059
   11MPD2     C14019   2.034   1.868  13.613 -0.0117 -0.3966 -0.5052
   11MPD2    C114020   2.025   1.930  13.738  0.0794 -0.7367  0.5206
   11MPD2    C214021   1.917   2.011  13.761 -0.2590  0.2140 -0.3863
   11MPD2    C314022   1.821   2.024  13.666 -0.6855  0.0584 -0.5036
   11MPD2    C414023   1.825   1.961  13.543  0.4032  0.1270 -0.2032
   11MPD2    C514024   1.935   1.891  13.523 -0.0178 -0.7701  0.0118
   11MPD2     H14025   1.913   2.063  13.856 -0.2166 -0.3585 -0.0706
   11MPD2    H114026   1.748   1.966  13.467  0.4695  1.0671 -0.1973
   11MPD2    H214027   2.119   1.802  13.601  1.3194  1.5841 -1.9520
   11MPD2    H314028   1.951   1.853  13.423 -2.9976  0.8688 -1.0909
   11MPD2     N14029   1.712   2.116  13.681 -0.5635  1.2539 -0.1311
   11MPD2    H514030   1.639   2.105  13.612 -0.8652  1.9751  0.0719
   11MPD2    N114031   2.123   1.905  13.838 -0.4294 -0.1550 -0.2189
   11MPD2    H714032   2.114   1.953  13.927 -1.2265 -0.4951 -0.1085
    1MPD1     C14033   0.871   4.110  16.413 -0.1409  0.2064 -0.1575
    1MPD1    C114034   0.856   3.980  16.368  0.0383  0.8874 -0.3374
    1MPD1    C214035   0.785   3.889  16.448  0.3153  0.7205 -0.0028
    1MPD1    C314036   0.703   3.927  16.549  0.0600  0.6120  0.2893
    1MPD1    C414037   0.710   4.059  16.590 -0.3484 -0.3418 -0.5377
    1MPD1    C514038   0.790   4.142  16.524 -0.0844 -0.0850  0.0082
    1MPD1     H14039   0.779   3.786  16.413  1.7631  0.7778 -0.3803
    1MPD1    H114040   0.661   4.098  16.678  2.0022  3.4962 -0.8818
    1MPD1    H214041   0.927   4.199  16.385 -1.9384  1.5012  0.3529
    1MPD1    H314042   0.789   4.247  16.553  4.5488  0.2765 -1.1588
    1MPD1     N14043   0.624   3.840  16.622  0.3989  0.4272 -0.4713
    1MPD1    H514044   0.568   3.885  16.694 -1.9880 -1.0617 -1.3954
    1MPD1    N114045   0.939   3.929  16.271 -0.3579 -0.0877 -0.1948
    1MPD1    H614046   0.918   3.837  16.232 -3.5810 -0.0202  1.3664
    1MPD1    H714047   0.953   3.992  16.193 -0.3946  1.1394  0.8020
    2MPD1     C14048   0.885   2.972  17.009  0.4263  0.2726 -0.2943
    2MPD1    C114049   0.946   3.074  16.941 -0.1552  0.3937  0.7828
    2MPD1    C214050   0.864   3.177  16.914 -0.0456 -0.4169 -0.2918
    2MPD1    C314051   0.731   3.180  16.930 -0.3787  0.3076 -0.2394
    2MPD1    C414052   0.665   3.071  16.979 -0.1137  0.6514  0.6339
    2MPD1    C514053   0.748   2.968  17.020  0.5490  0.4546 -0.4084
    2MPD1     H14054   0.909   3.265  16.869  0.3143 -1.0336 -1.1482
    2MPD1    H114055   0.559   3.058  16.999  0.1333 -1.2558  0.6663
    2MPD1    H214056   0.942   2.888  17.048  0.8868  0.8509  0.2699
    2MPD1    H314057   0.712   2.872  17.055 -0.7613  0.8875 -0.5869
    2MPD1     N14058   0.660   3.299  16.898 -0.1670  0.1408  0.1334
    2MPD1    H514059   0.715   3.381  16.874  1.4547 -0.7805  0.6941
    2MPD1    N114060   1.090   3.080  16.936 -0.3978 -0.0352 -0.3032
    2MPD1    H614061   1.124   3.143  16.864 -0.7051 -0.9326 -1.2425
    2MPD1    H714062   1.134   2.990  16.919  0.7305  0.3841  0.4237
    3TMC3    C114063   0.487   3.440  16.841 -0.4164  0.3935 -0.2172
    3TMC3    C214064   0.384   3.502  16.902 -0.2706  0.4438 -0.0437
    3TMC3    C314065   0.354   3.633  16.868 -0.1294  0.2217  0.6768
    3TMC3    C414066   0.576   3.510  16.758 -0.6347  0.6056  0.1573
    3TMC3    C514067   0.535   3.635  16.724 -0.2395 -0.0487  0.7941
    3TMC3    C614068   0.435   3.705  16.782  0.0014  0.1387 -0.0649
    3TMC3     C14069   0.528   3.314  16.888 -0.1850 -0.8193  0.3095
    3TMC3     O14070   0.444   3.230  16.924 -0.0960 -0.5320 -0.7638
    3TMC3     H14071   0.321   3.442  16.967  1.5187 -0.0754  1.2411
    3TMC3    H114072   0.649   3.460  16.697 -0.7449 -0.0726  0.5814
    3TMC3    H214073   0.420   3.812  16.774 -1.4652 -0.0396  0.2535
    3TMC3    C714074   0.628   3.700  16.631 -0.0157  0.3555 -0.7674
    3TMC3    C814075   0.266   3.714  16.947  1.0049  0.3395 -1.0156
    3TMC3    O114076   0.700   3.622  16.570 -0.4642 -0.0468  0.5432
    3TMC3    O214077   0.221   3.810  16.884 -0.3841 -0.1687  0.1593
    4MPD1     C14078   0.009   3.841  17.379  0.3224 -0.5106  0.1270
    4MPD1    C114079   0.095   3.741  17.412  0.4783  0.9521  0.3825
    4MPD1    C214080   0.174   3.698  17.312  0.3055 -0.2696  0.2649
    4MPD1    C314081   0.170   3.742  17.177 -0.4002 -0.9073  0.1245
    4MPD1    C414082   0.076   3.834  17.145 -0.0192  0.0937  0.6301
    4MPD1    C514083   4.732   3.886  17.241 -0.3949  0.0259 -0.3625
    4MPD1     H14084   0.250   3.623  17.333  1.8370  1.1645 -0.0943
    4MPD1    H114085   0.066   3.882  17.048  0.4427 -1.6341 -0.2733
    4MPD1    H214086   4.678   3.889  17.449  1.1054  1.5552 -0.5489
    4MPD1    H314087   4.660   3.965  17.223  0.8580  1.1657 -0.3225
    4MPD1     N14088   0.260   3.680  17.082 -0.4926  0.0488 -0.0331
    4MPD1    H514089   0.324   3.610  17.117  0.0600  0.1338 -0.8747
    4MPD1    N114090   0.129   3.709  17.549 -0.3028  0.6574 -0.4440
    4MPD1    H614091   0.055   3.733  17.615  0.3653 -1.3834  1.0639
    4MPD1    H714092   0.159   3.615  17.577  0.5858  0.7251 -1.1731
    1TCq1    O114093   0.317   1.199  12.123 -0.4096  0.4840 -0.4959
    1TCq1    C114094   0.313   1.311  12.064 -0.1254 -0.0710  0.0669
    1TCq1    O214095   0.253   1.413  12.104  0.4196  0.0043  0.4577
    1TCq1    C214096   0.422   1.345  11.977 -0.0609 -0.4301  0.2948
    1TCq1    C314097   0.539   1.274  11.990  0.4103  0.5586 -0.5569
    1TCq1    C414098   0.636   1.300  11.897 -1.0732 -0.4844  0.4581
    1TCq1    C514099   0.624   1.395  11.805 -0.3200 -0.4145  0.3376
    1TCq1    C614100   0.504   1.457  11.793 -0.3313  0.1969 -0.7311
    1TCq1    C714101   0.399   1.435  11.878 -0.1032 -0.1496 -1.0974
    1TCq1    C814102   0.501   1.580  11.713 -0.0193  0.3216 -0.1227
    1TCq1    O414103   0.397   1.647  11.728 -0.2319  0.9444 -0.0680
    1TCq1    C914104   0.772   1.268  11.941 -0.4441 -0.2975  0.4595
    1TCq1    O514105   0.791   1.200  12.044  0.1211  0.3220 -0.2125
    1TCq1    O614106   0.864   1.297  11.858 -0.4809  0.2928 -0.4925
    1TCq1    H114107   0.365   1.140  12.061  2.0207 -0.4370  2.2545
    1TCq1    H214108   0.573   1.207  12.068 -1.1285 -0.1487 -0.4979
    1TCq1    H314109   0.709   1.427  11.746 -0.0998 -2.0932 -0.2471
    1TCq1    H414110   0.308   1.490  11.857  1.1796  2.5389  0.4217
    2MPD1     C14111   0.570   1.795  11.247  0.2640 -0.1297 -0.0417
    2MPD1    C114112   0.661   1.690  11.260 -0.3553 -0.0638 -0.8638
    2MPD1    C214113   0.664   1.617  11.380  0.0724 -0.9996  0.0681
    2MPD1    C314114   0.579   1.649  11.484  1.0207  0.5072  0.1727
    2MPD1    C414115   0.478   1.745  11.464  0.0813  0.0100  0.6065
    2MPD1    C514116   0.486   1.820  11.348  0.5535 -0.3215 -0.0040
    2MPD1     H14117   0.730   1.531  11.388  0.5397 -0.5011  1.5814
    2MPD1    H114118   0.422   1.793  11.543  4.0186  1.6464  2.4210
    2MPD1    H214119   0.564   1.859  11.159  0.6720  1.7464  1.2899
    2MPD1    H314120   0.412   1.899  11.341 -1.6681 -2.2266  2.2411
    2MPD1     N14121   0.590   1.576  11.602 -0.1940 -0.3209 -0.0611
    2MPD1    H514122   0.655   1.498  11.604  0.4313  0.2716  4.3681
    2MPD1    N114123   0.760   1.681  11.163 -0.0563 -0.2420 -0.2601
    2MPD1    H614124   0.803   1.773  11.157  1.8930 -1.0270  1.4359
    2MPD1    H714125   0.828   1.609  11.187 -1.0111 -1.6560 -1.8155
    1TMC1    C114126   3.497   3.911   0.087 -0.4122  0.2242 -1.0108
    1TMC1    C214127   3.466   3.817  17.735 -0.1963 -0.8164  0.0575
    1TMC1    C314128   3.551   3.812  17.622 -0.0657  0.7299  0.4059
    1TMC1    C414129   3.603   4.001   0.074  0.1243  0.1948  0.1256
    1TMC1    C514130   3.679   3.997  17.695 -0.3625 -0.5152 -0.2949
    1TMC1    C614131   3.651   3.899  17.602 -0.3460 -0.4838 -0.2045
    1TMC1     C14132   3.427   3.899   0.211  0.1286  0.4778  0.1274
    1TMC1     O14133   3.407   3.782   0.241  0.0728  0.3911 -0.0398
    1TMC1     H14134   3.384   3.746   0.004 -0.0190 -0.6737  2.3180
    1TMC1    H114135   3.626   4.081   0.143  1.4619  0.8978 -1.1585
    1TMC1    H214136   3.716   3.882  17.517  1.5551  1.1968  0.9110
    1TMC1    C714137   3.779   4.093  17.665  0.0816  0.3820  1.0488
    1TMC1    C814138   3.496   3.743  17.513  0.1531  0.5674  0.0416
    1TMC1    O114139   3.884   4.095  17.726 -0.3867  0.0618 -0.3650
    1TMC1    O214140   3.574   3.696  17.429 -0.4058 -0.1476 -0.0200
    1TMC1    O314141   3.753   4.122  17.540 -0.0414  0.0276  0.1163
    1TMC1    H314142   3.659   4.108  17.518  0.2333 -1.0275 -0.3865
    1TMC1    O514143   3.370   3.798  17.496  0.5496 -0.3511  0.4302
    1TMC1    H514144   3.349   3.845  17.579  1.3958 -0.6911  0.8440
    2MPD1     C14145   3.184   4.089   0.605  0.5280  0.3327  0.4089
    2MPD1    C114146   3.191   4.194   0.520  0.6582 -0.8991  0.0280
    2MPD1    C214147   3.261   4.167   0.403  0.5259 -0.8076  0.3111
    2MPD1    C314148   3.309   4.046   0.367  0.0662  0.4643  0.1953
    2MPD1    C414149   3.284   3.938   0.454  0.0562  0.4647 -0.2411
    2MPD1    C514150   3.222   3.963   0.570 -0.3056  0.3198  0.2830
    2MPD1     H14151   3.278   4.246   0.331  1.7825 -1.4307 -0.0624
    2MPD1    H114152   3.311   3.834   0.439 -1.7899 -0.2519  1.4026
    2MPD1    H214153   3.141   4.093   0.704  1.4940  1.3157  0.7871
    2MPD1    H314154   3.209   3.880   0.640  0.0384  2.8715  3.3835
    2MPD1     N14155   3.381   4.025   0.255  0.3446 -0.3064  1.0509
    2MPD1    H514156   3.416   4.108   0.209  0.9016  0.4199  2.7515
    2MPD1    N114157   3.143   4.319   0.572 -0.9409  0.1596 -0.5277
    2MPD1    H614158   3.110   4.382   0.500  1.7407  1.9210 -0.2196
    2MPD1    H714159   3.059   4.299   0.624 -1.4562 -0.3027 -1.5254
    1MPD1     C14160   0.992   2.298  11.926 -0.0966  0.2940 -0.1816
    1MPD1    C114161   1.045   2.326  11.806 -0.1626  0.4494 -0.0953
    1MPD1    C214162   1.043   2.461  11.774 -0.2698  0.8323 -0.4654
    1MPD1    C314163   1.014   2.559  11.870 -0.1367 -0.1976  0.1216
    1MPD1    C414164   0.998   2.522  12.000  0.7051 -0.3535 -0.0679
    1MPD1    C514165   0.972   2.392  12.026 -0.0037 -0.1421 -0.3475
    1MPD1     H14166   1.050   2.491  11.670  3.8383 -1.1345 -0.7644
    1MPD1    H114167   0.972   2.593  12.078  0.2100 -0.0617 -0.4963
    1MPD1    H214168   0.972   2.198  11.963 -1.9284  0.0273 -1.9056
    1MPD1    H314169   0.925   2.359  12.118 -2.4769  3.9647 -0.1200
    1MPD1     N14170   1.005   2.687  11.820 -0.5674 -0.4811  0.0820
    1MPD1    H514171   1.011   2.694  11.719  0.6980  1.0504  0.2628
    1MPD1    N114172   1.069   2.224  11.719 -0.6860 -0.8537  0.1921
    1MPD1    H614173   1.138   2.250  11.649 -0.7944 -0.7931  0.1080
    1MPD1    H714174   1.108   2.139  11.760  0.8173 -0.3042 -0.1040
    2MPD1     C14175   2.919   2.109  11.420 -0.0412 -0.8103  0.0181
    2MPD1    C114176   2.899   2.121  11.554 -1.2041 -0.3197  0.2114
    2MPD1    C214177   2.804   2.195  11.609 -0.3176 -0.3808  0.6033
    2MPD1    C314178   2.716   2.264  11.533  0.2133 -0.3414  0.4250
    2MPD1    C414179   2.732   2.258  11.394 -0.4182 -0.1331 -0.5015
    2MPD1    C514180   2.836   2.186  11.338 -0.2100 -0.4393 -0.4344
    2MPD1     H14181   2.796   2.207  11.716 -1.1828  1.5344  0.3173
    2MPD1    H114182   2.673   2.326  11.333  0.3706  0.1421 -0.9543
    2MPD1    H214183   2.994   2.048  11.371 -0.1845  0.5771 -1.9107
    2MPD1    H314184   2.847   2.194  11.230  0.3721  1.7364 -0.2252
    2MPD1     N14185   2.617   2.349  11.586  0.4796 -0.3785  0.1559
    2MPD1    H514186   2.577   2.409  11.514  1.7522  1.7866  1.2342
    2MPD1    N114187   2.988   2.048  11.642 -0.0300  0.1157  0.2274
    2MPD1    H614188   3.014   2.111  11.717  3.1244  0.3798 -1.0940
    2MPD1    H714189   3.075   2.037  11.590  0.4104  2.7869  0.4000
    3MPD1     C14190   2.243   3.200  12.050  0.0870 -0.0780  0.1007
    3MPD1    C114191   2.215   3.189  11.916  0.2371 -0.3886 -0.1790
    3MPD1    C214192   2.249   3.063  11.857  0.6805  0.2253 -0.3890
    3MPD1    C314193   2.292   2.956  11.934  0.4879 -0.0865 -0.1758
    3MPD1    C414194   2.323   2.976  12.067  0.4964  0.4788 -0.2309
    3MPD1    C514195   2.292   3.097  12.123  0.1461 -0.3310  0.0507
    3MPD1     H14196   2.241   3.042  11.751  2.6453 -1.5414 -0.1858
    3MPD1    H114197   2.368   2.899  12.129 -0.4536  1.2208  1.3625
    3MPD1    H214198   2.227   3.299  12.091  0.8490  1.1887 -2.6455
    3MPD1    H314199   2.298   3.099  12.231 -0.8873 -0.6484  0.1141
    3MPD1     N14200   2.311   2.831  11.867  0.0019 -0.0005 -0.4580
    3MPD1    H514201   2.291   2.832  11.768 -0.8590 -2.3084 -0.3093
    3MPD1    N114202   2.199   3.309  11.849 -0.2332 -0.1746  0.4409
    3MPD1    H614203   2.168   3.292  11.753 -2.6647  1.5806  0.9033
    3MPD1    H714204   2.147   3.382  11.899  0.4142 -0.0146  0.8710
    4MPD2     C14205   1.057   2.916  11.204  0.6769 -0.4910 -0.0209
    4MPD2    C114206   1.115   3.001  11.296 -0.0754 -0.0452  0.8184
    4MPD2    C214207   1.246   3.039  11.271  0.3751 -0.0686  0.2212
    4MPD2    C314208   1.311   3.010  11.153  0.9524  0.3355 -0.5630
    4MPD2    C414209   1.252   2.933  11.055 -0.1380  0.5637 -0.0546
    4MPD2    C514210   1.123   2.891  11.084  0.3947  0.4342 -0.5686
    4MPD2     H14211   1.295   3.096  11.350 -0.0458 -1.1922  1.2958
    4MPD2    H114212   1.299   2.898  10.964  0.9153  0.6783  0.4443
    4MPD2    H214213   0.953   2.888  11.208  0.5999 -0.5545 -2.9706
    4MPD2    H314214   1.063   2.826  11.022  2.3408  1.4779 -3.6001
    4MPD2     N14215   1.440   3.056  11.142 -0.5333 -0.9207  0.0004
    4MPD2    H514216   1.469   3.110  11.223 -3.6960 -1.6865  1.6381
    4MPD2    N114217   1.052   3.047  11.418  0.1844  0.0847 -0.0139
    4MPD2    H714218   1.112   3.116  11.463 -1.4911 -0.0584  2.4322
    5TMC3    C114219   0.937   3.042  11.615  0.2325  0.2307  0.3597
    5TMC3    C214220   0.925   2.936  11.695 -0.2981 -0.4494 -0.1003
    5TMC3    C314221   1.005   2.928  11.807 -0.0611 -0.3840  0.9902
    5TMC3    C414222   1.019   3.141  11.639 -0.2315  0.1496 -0.0538
    5TMC3    C514223   1.099   3.137  11.748 -0.1407  0.3081  0.0757
    5TMC3    C614224   1.094   3.030  11.832 -0.5598  0.0433  0.0313
    5TMC3     C14225   0.945   2.991  11.478 -0.9286  0.0866  1.3193
    5TMC3     O14226   0.865   2.906  11.441 -0.1788  0.2645  0.3671
    5TMC3     H14227   0.852   2.857  11.681  1.1654 -1.9364  0.6798
    5TMC3    H114228   1.013   3.228  11.574 -1.2944 -0.2958 -0.5376
    5TMC3    H214229   1.162   3.030  11.917 -2.2972  0.0993  1.4181
    5TMC3    C714230   1.232   3.188  11.711  0.8607 -0.7435  0.2638
    5TMC3    C814231   1.013   2.806  11.889  0.1128  0.1141  0.1014
    5TMC3    O114232   1.242   3.219  11.594 -0.5146  1.0536 -0.4425
    5TMC3    O214233   1.060   2.818  12.000  0.5220 -0.0859  0.7310
    6TMC3    C114234   2.463   2.451  11.717 -0.3358  0.2514  0.0803
    6TMC3    C214235   2.443   2.519  11.830 -0.3055  0.5586  0.3482
    6TMC3    C314236   2.333   2.604  11.829 -0.1174 -0.2493 -0.3574
    6TMC3    C414237   2.380   2.469  11.612  0.2316  0.4330  0.0782
    6TMC3    C514238   2.268   2.547  11.618  0.0236  0.2547 -0.0068
    6TMC3    C614239   2.234   2.608  11.733  0.2999  0.3648  0.6349
    6TMC3     C14240   2.577   2.368  11.715 -1.0560 -0.2443  0.4112
    6TMC3     O14241   2.625   2.326  11.822 -0.0159  0.8371  0.1965
    6TMC3     H14242   2.513   2.515  11.913 -2.2170 -0.8049  1.8950
    6TMC3    H114243   2.389   2.400  11.529 -2.0119 -0.0256  0.1959
    6TMC3    H214244   2.144   2.669  11.743  1.3755  2.0393  0.0321
    6TMC3    C714245   2.189   2.585  11.502  0.3912 -0.0647 -0.3244
    6TMC3    C814246   2.341   2.711  11.927 -0.4273 -0.3578  0.9522
    6TMC3    O114247   2.080   2.638  11.529  0.2860  0.3742 -0.1068
    6TMC3    O214248   2.413   2.699  12.025  0.1875  0.1406 -0.3377
    7MPD2     C14249   1.746   3.255  11.753 -0.5507 -0.4690 -0.1969
    7MPD2    C114250   1.656   3.241  11.650  0.7765 -0.0919 -0.2413
    7MPD2    C214251   1.522   3.213  11.676  0.5915 -0.4263  0.0356
    7MPD2    C314252   1.463   3.206  11.798  0.1623 -0.0657 -0.0510
    7MPD2    C414253   1.553   3.210  11.904  0.6547 -0.1965 -0.3427
    7MPD2    C514254   1.689   3.232  11.879 -0.8490  0.9975  0.1561
    7MPD2     H14255   1.458   3.181  11.594  1.0671 -1.2530 -0.0066
    7MPD2    H114256   1.522   3.176  12.002 -0.2231 -0.9838 -0.8980
    7MPD2    H214257   1.853   3.264  11.744 -0.6101 -0.0784 -0.5063
    7MPD2    H314258   1.759   3.226  11.962 -0.9170 -0.5805  0.1056
    7MPD2     N14259   1.324   3.185  11.814 -0.0054  0.2731 -0.0225
    7MPD2    H514260   1.291   3.180  11.910  0.6815  1.8499  0.2972
    7MPD2    N114261   1.701   3.252  11.514  0.5860 -0.4513 -0.2924
    7MPD2    H714262   1.793   3.292  11.498  0.0271  0.1671 -1.9599
    8TMC3    C114263   1.708   3.237  11.277 -0.4493  0.8599 -0.5013
    8TMC3    C214264   1.827   3.170  11.286  0.6816 -0.0059  0.4489
    8TMC3    C314265   1.851   3.080  11.189 -0.1974 -0.3960  0.4208
    8TMC3    C414266   1.636   3.209  11.158  0.7568  0.7027 -0.1710
    8TMC3    C514267   1.654   3.110  11.066  0.2866  0.4815  0.2274
    8TMC3    C614268   1.769   3.045  11.081  0.0810  0.3493 -0.5440
    8TMC3     C14269   1.624   3.241  11.396 -0.0673 -0.0221 -0.2550
    8TMC3     O14270   1.506   3.244  11.369  0.3621 -0.2251 -0.4490
    8TMC3     H14271   1.882   3.174  11.380 -0.9104  3.2107  1.2442
    8TMC3    H114272   1.543   3.262  11.142 -1.5681 -2.7918  1.9485
    8TMC3    H214273   1.787   2.967  11.008  1.1815  0.1913 -0.0950
    8TMC3    C714274   1.532   3.034  11.042 -0.3730 -0.6074 -0.4516
    8TMC3    C814275   1.935   2.966  11.232  0.3502 -0.0404 -0.1059
    8TMC3    O114276   1.521   2.956  10.947  0.5415  0.2542 -0.4102
    8TMC3    O214277   1.946   2.959  11.353 -0.2514  0.0407 -0.1201
    9MPD2     C14278   2.180   2.770  11.031 -0.4791 -0.2097 -0.5992
    9MPD2    C114279   2.095   2.795  11.136 -0.0344  0.3233 -0.0564
    9MPD2    C214280   2.119   2.729  11.255 -1.2622 -0.4060  0.1187
    9MPD2    C314281   2.215   2.630  11.257 -0.1206 -0.2698  0.9645
    9MPD2    C414282   2.289   2.600  11.152 -0.1182  0.5520  0.7108
    9MPD2    C514283   2.286   2.683  11.045  0.4126  0.3374 -0.4217
    9MPD2     H14284   2.059   2.759  11.341  0.0165 -0.4911  1.0497
    9MPD2    H114285   2.362   2.520  11.150 -1.8401 -1.0193  0.0673
    9MPD2    H214286   2.155   2.823  10.940 -0.4630  0.0533 -0.4508
    9MPD2    H314287   2.349   2.657  10.960 -0.1079  1.6555 -1.2091
    9MPD2     N14288   2.254   2.571  11.378 -0.3453 -0.0021 -0.1829
    9MPD2    H514289   2.343   2.524  11.370  0.5333  1.5127  0.5916
    9MPD2    N114290   2.016   2.908  11.131 -0.0957  0.1859  0.2072
    9MPD2    H714291   2.001   2.938  11.035  0.2343 -0.2005  0.0337
    1MPD1     C14292   2.395   1.710  16.660  0.2379 -0.3341  0.0003
    1MPD1    C114293   2.277   1.657  16.704 -0.5376 -0.3701  0.1824
    1MPD1    C214294   2.165   1.672  16.626 -0.4811 -0.0187 -0.2630
    1MPD1    C314295   2.172   1.729  16.498  0.7249 -0.2606 -0.2573
    1MPD1    C414296   2.292   1.769  16.450  0.2508  0.2356  0.5726
    1MPD1    C514297   2.405   1.767  16.535 -0.1346 -0.0243  0.1684
    1MPD1     H14298   2.071   1.639  16.667 -0.5570 -0.8022 -1.0671
    1MPD1    H114299   2.311   1.817  16.355  1.2965 -0.9086  0.2008
    1MPD1    H214300   2.482   1.720  16.723  0.2211 -3.5578  0.5184
    1MPD1    H314301   2.495   1.803  16.486 -1.1583 -1.0408 -2.4543
    1MPD1     N14302   2.066   1.741  16.413  0.0624 -0.3356  0.1240
    1MPD1    H514303   2.097   1.767  16.320  0.3765  0.5759  0.4908
    1MPD1    N114304   2.254   1.640  16.842 -0.3272  0.3943 -0.5088
    1MPD1    H614305   2.333   1.611  16.899 -0.0103 -0.0222 -1.1541
    1MPD1    H714306   2.187   1.566  16.861 -1.9274  1.6002 -1.4993
    2TMC2    C114307   1.814   1.926  16.169 -0.2571  0.5045  0.1584
    2TMC2    C214308   1.686   1.880  16.152 -0.0141  0.8170  0.0442
    2TMC2    C314309   1.649   1.766  16.215 -0.3164  0.5169  0.1608
    2TMC2    C414310   1.890   1.864  16.261  0.1330  0.6408 -0.0240
    2TMC2    C514311   1.850   1.754  16.331  0.2318  0.0488 -0.2455
    2TMC2    C614312   1.726   1.695  16.307 -0.4720  0.4588 -0.4403
    2TMC2     C14313   1.846   2.065  16.146 -0.2590  0.0393 -0.1392
    2TMC2     O14314   1.882   2.125  16.242  0.1468  0.2517 -0.0330
    2TMC2     H14315   1.606   1.931  16.099  0.0021  0.4354 -0.3454
    2TMC2    H114316   1.983   1.920  16.267  0.6072 -0.1584  0.1753
    2TMC2    H214317   1.682   1.625  16.377 -0.5150  0.1733 -0.7557
    2TMC2    C714318   1.940   1.700  16.432  0.0652 -0.5057 -0.1085
    2TMC2    C814319   1.518   1.703  16.179  1.0742  0.6846  0.4526
    2TMC2    O114320   1.891   1.637  16.517  0.1591  0.3935  0.2554
    2TMC2    O214321   1.425   1.763  16.127 -0.5306 -0.1742 -0.0439
    2TMC2    O514322   1.562   1.575  16.162 -0.3789  0.0530 -0.4567
    2TMC2    H514323   1.652   1.564  16.201  0.2259  2.6680 -1.0850
    3MPD1     C14324   1.739   2.497  15.891  0.4741  0.0884  0.8330
    3MPD1    C114325   1.737   2.388  15.804  0.1917 -0.5570  0.5319
    3MPD1    C214326   1.758   2.259  15.847 -0.1104 -0.0883  0.7792
    3MPD1    C314327   1.784   2.237  15.977 -0.5175  0.8043  0.3343
    3MPD1    C414328   1.782   2.341  16.068  0.6071 -0.3192  0.2929
    3MPD1    C514329   1.742   2.461  16.022 -0.1687  0.2563 -0.3126
    3MPD1     H14330   1.756   2.171  15.783 -0.4166  0.0080  0.6566
    3MPD1    H114331   1.785   2.328  16.175 -1.1716 -1.9687  0.1398
    3MPD1    H214332   1.711   2.599  15.866 -1.9321 -0.9067 -0.5804
    3MPD1    H314333   1.719   2.529  16.103 -0.0966  0.7875 -0.7425
    3MPD1     N14334   1.808   2.106  16.022 -0.0992  0.3369 -0.1573
    3MPD1    H514335   1.786   2.029  15.960  1.7304 -0.2361 -0.0999
    3MPD1    N114336   1.732   2.413  15.669 -0.0802  0.1823 -0.0019
    3MPD1    H614337   1.695   2.502  15.637  0.4717  0.2793 -0.3617
    3MPD1    H714338   1.680   2.338  15.624 -0.4660  0.8739 -0.7132
    1TMC1    C114339   0.276   0.866  13.311  0.0621  0.2904 -0.0359
    1TMC1    C214340   0.273   0.829  13.178  0.3613  0.0144 -0.1189
    1TMC1    C314341   0.307   0.927  13.085 -0.3410 -0.8688 -0.6590
    1TMC1    C414342   0.309   0.999  13.347 -0.3623 -0.3641  0.2081
    1TMC1    C514343   0.336   1.095  13.251  0.2059 -0.3386  0.2088
    1TMC1    C614344   0.339   1.052  13.124  0.3864  0.5241  0.3480
    1TMC1     C14345   0.255   0.771  13.414  0.4509  0.6969 -0.8697
    1TMC1     O14346   0.186   0.806  13.510  0.2510  0.0617  0.0124
    1TMC1     H14347   0.247   0.730  13.143  0.5376 -0.8159  2.1301
    1TMC1    H114348   0.294   1.038  13.447 -0.1353 -1.9638  0.8581
    1TMC1    H214349   0.345   1.120  13.040  0.5055 -0.3871 -0.3794
    1TMC1    C714350   0.423   1.215  13.274 -0.3533 -0.1300  0.1157
    1TMC1    C814351   0.300   0.899  12.944  0.8229  0.1014  0.6489
    1TMC1    O114352   0.454   1.292  13.182 -0.4388  0.3482 -0.5609
    1TMC1    O214353   0.367   0.971  12.867  0.3055 -0.0795 -0.0696
    1TMC1    O314354   0.512   1.187  13.371 -0.4541  0.3578  0.6254
    1TMC1    H314355   0.502   1.092  13.392 -1.8452  0.8409  2.1421
    1TMC1    O514356   0.178   0.842  12.929 -0.3895 -0.2568 -0.3794
    1TMC1    H514357   0.139   0.793  13.005  0.8017 -1.2121 -0.3854
    2MPD2     C14358   0.224   0.525  13.581 -0.2376 -0.6275  0.2861
    2MPD2    C114359   0.319   0.545  13.481 -0.2778 -0.5897 -0.2710
    2MPD2    C214360   0.404   0.436  13.453  0.3139  0.2994  0.1902
    2MPD2    C314361   0.386   0.317  13.519  0.1761  0.6078  0.5381
    2MPD2    C414362   0.289   0.296  13.610 -0.3520 -1.0009  0.3966
    2MPD2    C514363   0.209   0.400  13.639 -0.1180 -0.2666  0.1414
    2MPD2     H14364   0.493   0.448  13.392  0.1100 -1.1870 -0.3892
    2MPD2    H114365   0.272   0.199  13.655 -0.0813 -1.3601 -0.2918
    2MPD2    H214366   0.140   0.593  13.592 -0.4601 -0.6534 -1.3287
    2MPD2    H314367   0.132   0.366  13.707  0.3706  4.2911  2.9413
    2MPD2     N14368   0.465   0.211  13.475  0.1758  0.0028 -0.2374
    2MPD2    H514369   0.521   0.234  13.394  0.0964 -0.1913 -0.3466
    2MPD2    N114370   0.319   0.656  13.389  0.3272 -0.1629 -0.0621
    2MPD2    H714371   0.390   0.654  13.316  0.1494 -0.1540 -0.2349
    3TCq1    O114372   0.849   4.575  13.605 -0.3983  0.0141 -0.0197
    3TCq1    C114373   0.802   4.472  13.530  0.2373 -0.6944  0.6340
    3TCq1    O214374   0.860   4.363  13.512 -0.3695 -0.4636  0.3530
    3TCq1    C214375   0.690   4.527  13.454 -0.2089  0.4691 -0.0217
    3TCq1    C314376   0.718   4.546  13.321  0.0696 -0.3550 -0.0656
    3TCq1    C414377   0.652   4.648  13.248  0.1137 -0.3445 -0.9988
    3TCq1    C514378   0.567   0.006  13.307  0.7091  0.3352 -0.4284
    3TCq1    C614379   0.544   4.719  13.443  0.0482 -0.0279 -0.3916
    3TCq1    C714380   0.602   4.616  13.521 -0.2908  0.0400 -0.2765
    3TCq1    C814381   0.462   0.079  13.514 -0.1006 -0.0729 -0.2229
    3TCq1    O414382   0.416   0.027  13.614  0.4282  0.3298 -0.0018
    3TCq1    C914383   0.696   4.662  13.114 -0.0992  0.5510  0.3693
    3TCq1    O514384   0.631   0.018  13.056  0.2179  0.0428  0.6545
    3TCq1    O614385   0.799   4.605  13.067 -0.1940  0.1640 -0.1655
    3TCq1    H114386   0.806   4.659  13.576  0.4926 -0.2894 -2.1851
    3TCq1    H214387   0.790   4.479  13.275  0.3903 -0.3088  0.3688
    3TCq1    H314388   0.523   0.086  13.248 -0.3089 -0.9795 -1.4537
    3TCq1    H414389   0.576   4.602  13.626 -3.3955 -0.5478 -1.1475
    1MPD2     C14390   4.658   2.619  15.085 -0.5253  0.3411  0.1488
    1MPD2    C114391   4.654   2.485  15.119 -0.2764 -0.9366  0.9396
    1MPD2    C214392   0.023   2.406  15.070 -0.4344  0.4596 -0.0132
    1MPD2    C314393   0.117   2.449  14.988 -0.3785  0.1981 -0.5546
    1MPD2    C414394   0.115   2.586  14.956  0.2202  0.6416  0.3306
    1MPD2    C514395   0.017   2.666  15.006 -0.0810  1.0447  0.7798
    1MPD2     H14396   0.024   2.303  15.104 -1.8987  0.1204 -1.0158
    1MPD2    H114397   0.185   2.628  14.884 -0.1657  2.0029  0.7576
    1MPD2    H214398   4.571   2.681  15.106  0.2005  1.4389 -0.0562
    1MPD2    H314399   0.023   2.772  14.983  0.0999  0.5244 -1.5860
    1MPD2     N14400   0.215   2.365  14.931  0.1713  0.4873 -0.1852
    1MPD2    H514401   0.255   2.408  14.848 -1.6078  1.1298 -0.7056
    1MPD2    N114402   4.549   2.434  15.202  0.3304  0.3342 -0.3944
    1MPD2    H714403   4.481   2.501  15.236 -2.6587 -2.1246 -1.5305
    2TMC3    C114404   4.404   2.263  15.309 -0.8306  0.2276  0.2306
    2TMC3    C214405   4.402   2.128  15.338  0.0990 -0.5978  0.5781
    2TMC3    C314406   4.294   2.053  15.301  0.5154 -0.9449 -0.4313
    2TMC3    C414407   4.289   2.330  15.266  0.0771  0.0348 -0.1025
    2TMC3    C514408   4.181   2.250  15.239 -0.5454  0.3911  0.0125
    2TMC3    C614409   4.180   2.116  15.251  1.0904 -0.2261 -0.3559
    2TMC3     C14410   4.534   2.306  15.240 -1.3137  0.3444  0.3255
    2TMC3     O14411   4.599   2.203  15.215 -0.2940  0.2163  0.0338
    2TMC3     H14412   4.498   2.087  15.368 -0.2306 -0.5996  1.6281
    2TMC3    H114413   4.294   2.436  15.243 -1.8625 -0.1340 -1.2960
    2TMC3    H214414   4.104   2.053  15.206  0.4701  0.5829 -0.4622
    2TMC3    C714415   4.054   2.313  15.265  0.5322  0.1867 -0.1658
    2TMC3    C814416   4.332   1.946  15.211  0.3132 -0.5177  0.7336
    2TMC3    O114417   3.955   2.259  15.216 -0.0217 -0.5188  0.3422
    2TMC3    O214418   4.245   1.873  15.180 -0.4840 -0.4769  0.5194
    3TCq1    O114419   4.087   3.430  15.883  0.5356 -0.1258  0.3883
    3TCq1    C114420   4.008   3.411  15.770  0.4911 -0.1322  0.4519
    3TCq1    O214421   3.905   3.473  15.740 -0.6023 -0.1550  1.2328
    3TCq1    C214422   4.058   3.289  15.707 -0.2267 -0.0777  0.9684
    3TCq1    C314423   4.194   3.267  15.711  0.7294 -0.0721 -0.2319
    3TCq1    C414424   4.245   3.145  15.688  0.0085  0.4685  0.0122
    3TCq1    C514425   4.163   3.046  15.658 -0.0193 -0.0218  0.2112
    3TCq1    C614426   4.028   3.062  15.642 -0.2026  0.0632  0.2258
    3TCq1    C714427   3.974   3.188  15.660 -0.1097  0.8906  0.7064
    3TCq1    C814428   3.934   2.955  15.616  0.1316  0.7759 -0.5438
    3TCq1    O414429   3.815   2.977  15.616  0.5827  0.4175 -0.1187
    3TCq1    C914430   4.381   3.116  15.701  0.1233  0.2278  0.2199
    3TCq1    O514431   4.434   3.001  15.668 -0.0865  0.3540 -0.2192
    3TCq1    O614432   4.443   3.222  15.727 -0.2940 -0.2015 -0.2725
    3TCq1    H114433   4.122   3.345  15.917  1.3920  0.7751  1.7697
    3TCq1    H214434   4.258   3.345  15.752 -0.5655 -0.2623  2.1275
    3TCq1    H314435   4.205   2.947  15.644  2.0159  0.9781 -0.7383
    3TCq1    H414436   3.867   3.204  15.661 -0.3272 -0.5188 -0.2274
    4MPD2     C14437   3.811   2.701  15.494  0.2109 -0.6539 -0.0244
    4MPD2    C114438   3.952   2.726  15.502 -0.4443  0.1627 -0.4633
    4MPD2    C214439   4.032   2.640  15.443  0.4348 -0.2499 -0.1231
    4MPD2    C314440   3.978   2.527  15.377 -0.5438  0.0289  0.3542
    4MPD2    C414441   3.843   2.509  15.372  0.0328  0.2384 -0.4215
    4MPD2    C514442   3.760   2.599  15.424  0.7864  0.1260 -0.2940
    4MPD2     H14443   4.140   2.647  15.450  0.4988 -0.6767 -0.6351
    4MPD2    H114444   3.797   2.422  15.327 -0.5167  0.1684  0.2791
    4MPD2    H214445   3.746   2.766  15.552 -0.1479 -0.8621 -0.1952
    4MPD2    H314446   3.653   2.587  15.435  1.0752 -0.4511  2.0377
    4MPD2     N14447   4.075   2.433  15.331  1.1600  0.2246  0.1182
    4MPD2    H514448   4.171   2.448  15.358  1.0838 -0.8976  1.0165
    4MPD2    N114449   4.001   2.844  15.558  0.0923 -0.0166 -0.0404
    4MPD2    H714450   4.101   2.854  15.543  0.3926 -1.8123  0.6695
    5TMC2    C114451   0.328   1.948  14.783  0.7495  0.2099  0.2059
    5TMC2    C214452   0.339   1.995  14.652  0.2037  0.0247  0.2425
    5TMC2    C314453   0.342   2.127  14.627 -0.8045 -0.0247  0.0682
    5TMC2    C414454   0.343   2.036  14.890 -0.1276 -0.5851 -0.0001
    5TMC2    C514455   0.327   2.171  14.861 -0.4596  0.2175  0.0073
    5TMC2    C614456   0.333   2.219  14.734 -0.5844  0.5470  0.4659
    5TMC2     C14457   0.218   1.857  14.802  0.9134  0.1249 -0.2579
    5TMC2     O14458   0.214   1.753  14.737 -0.4946 -0.1616 -0.0925
    5TMC2     H14459   0.318   1.930  14.568 -0.2890 -0.5895  0.8456
    5TMC2    H114460   0.363   1.999  14.990 -0.6897  0.5929  0.5457
    5TMC2    H214461   0.311   2.323  14.712  0.5717  0.6512 -0.1744
    5TMC2    C714462   0.235   2.233  14.953  0.1305 -0.6351 -0.0044
    5TMC2    C814463   0.306   2.159  14.494 -0.2114 -0.4711  0.1308
    5TMC2    O114464   0.182   2.152  15.027 -0.2479  0.5001  0.2994
    5TMC2    O214465   0.237   2.078  14.431 -0.1858 -0.2636  0.1214
    5TMC2    O514466   0.323   2.295  14.471 -0.4421  0.3714 -0.4702
    5TMC2    H514467   0.389   2.340  14.528 -0.1257 -0.2832 -0.3152
    6MPD2     C14468   4.461   1.792  14.993 -0.4746  0.5316  0.1473
    6MPD2    C114469   4.518   1.906  15.046  0.3785  0.0416 -0.4225
    6MPD2    C214470   4.646   1.946  15.001 -0.2846  0.2283 -0.8112
    6MPD2    C314471   4.724   1.869  14.921  0.3051 -0.2570  0.8285
    6MPD2    C414472   4.665   1.763  14.865 -0.4172 -0.8037 -0.3908
    6MPD2    C514473   4.533   1.730  14.893 -0.3605  0.1702 -0.2180
    6MPD2     H14474   4.692   2.027  15.057  2.0681 -2.3635  1.0083
    6MPD2    H114475   4.723   1.692  14.808  1.4996 -0.7208  1.4829
    6MPD2    H214476   4.365   1.753  15.025  0.1069 -1.6149 -0.7352
    6MPD2    H314477   4.490   1.641  14.849  0.2164  0.7344 -1.9056
    6MPD2     N14478   0.124   1.911  14.888 -0.2938  0.5658  0.1820
    6MPD2    H514479   0.146   2.003  14.925  1.7554  1.0621 -2.2602
    6MPD2    N114480   4.451   1.978  15.147 -0.0323 -0.5832  1.0031
    6MPD2    H714481   4.502   2.061  15.176 -0.7386  1.3406 -3.2565
  945NH4     N114482   2.846   0.368   1.931  0.0900  0.3235  0.3925
  945NH4     H214483   2.931   0.316   1.961 -0.6241 -1.0469  0.0171
  945NH4     H314484   2.809   0.335   1.840  0.2118  0.0279  0.4499
  945NH4     H414485   2.853   0.472   1.937 -1.6241  0.4922 -0.6568
  945NH4     H514486   2.780   0.347   2.008  0.3594 -1.6744  0.0687
  946SOD     NA14487   1.985   3.250  12.582 -0.5089 -0.1844 -0.0933
  947SOD     NA14488   4.638   1.988  17.644 -0.6881  0.4987  0.0806
  948SOD     NA14489   2.514   0.111  14.099  0.0791 -0.3100  0.1517
  949SOD     NA14490   1.361   2.406  17.002  0.1920 -0.0704 -0.4239
  950SOD     NA14491   2.581   2.471   9.058 -0.5606 -0.1075 -0.5485
  951SOD     NA14492   1.298   2.267  13.331 -0.3897 -0.2040 -0.0785
  952SOD     NA14493   4.243   3.874   8.838 -0.4465  0.1236 -0.2332
  953SOL     OW14494   3.495   2.647   1.953  0.1423  0.1275 -0.3686
  953SOL    HW114495   3.548   2.656   2.032  1.0928  0.0832 -0.9989
  953SOL    HW214496   3.547   2.590   1.897  0.1157  0.1952 -0.4622
  954SOL     OW14497   2.259   3.136  10.420 -0.6409 -0.0261  0.2026
  954SOL    HW114498   2.170   3.103  10.404 -0.9182  0.2789  1.1341
  954SOL    HW214499   2.288   3.146  10.329 -0.5551 -0.1005  0.2220
  955SOL     OW14500   1.269   0.136   1.641  0.4601 -0.5957 -0.5071
  955SOL    HW114501   1.305   0.047   1.637  1.2439 -0.4617  2.8600
  955SOL    HW214502   1.198   0.121   1.579  3.0754 -0.8846 -3.4354
  956SOL     OW14503   2.272   4.464  11.418  0.4886  0.0669  0.0445
  956SOL    HW114504   2.203   4.520  11.384  1.7831  1.8150  0.2955
  956SOL    HW214505   2.270   4.501  11.507 -0.5700 -0.9565  0.4539
  957SOL     OW14506   2.444   2.628   8.494 -0.3202  0.0291  0.2382
  957SOL    HW114507   2.472   2.714   8.525 -1.4333  0.5869 -0.2831
  957SOL    HW214508   2.509   2.609   8.426 -0.3151  1.0392 -0.0305
  958SOL     OW14509   1.804   2.023  12.032  0.1245  0.3727 -0.7517
  958SOL    HW114510   1.873   2.000  12.094  2.7733  0.6256 -3.6428
  958SOL    HW214511   1.752   2.080  12.090  1.9315  1.0876  0.1790
  959SOL     OW14512   4.174   1.168   4.653  0.4146 -0.3420 -0.0288
  959SOL    HW114513   4.208   1.242   4.705 -3.0808 -0.0881  1.8854
  959SOL    HW214514   4.108   1.216   4.602 -0.0655 -2.0058 -0.9399
  960SOL     OW14515   4.057   3.921   2.342  0.1090 -0.3467  0.1068
  960SOL    HW114516   4.105   3.864   2.282  1.6883  0.5319  0.5387
  960SOL    HW214517   4.131   3.942   2.398 -0.1097  1.6564 -0.3498
  961SOL     OW14518   1.317   4.639   6.826 -0.5427 -0.0629 -0.2738
  961SOL    HW114519   1.229   4.671   6.846 -0.4679 -1.2414  1.9887
  961SOL    HW214520   1.282   4.562   6.781 -0.5822  0.1449 -0.5978
  962SOL     OW14521   3.045   3.379  14.194 -0.0094  0.3573 -0.6397
  962SOL    HW114522   3.004   3.322  14.259  1.8941 -0.0591  0.1915
  962SOL    HW214523   3.128   3.331  14.180 -0.3473  0.3090 -2.4988
  963SOL     OW14524   2.172   2.190   8.436  0.3646 -0.1019  0.1389
  963SOL    HW114525   2.079   2.212   8.441  0.5175  0.6473 -0.3323
  963SOL    HW214526   2.192   2.178   8.529 -0.2536  0.1470  0.3059
  964SOL     OW14527   2.898   1.150   1.117  0.0544 -0.4109  0.1111
  964SOL    HW114528   2.988   1.142   1.149 -0.5926 -1.1974  1.7055
  964SOL    HW214529   2.912   1.181   1.027 -1.1488  1.5192  0.5968
  965SOL     OW14530   1.025   3.840   2.761 -0.3788  0.8986 -0.4244
  965SOL    HW114531   1.114   3.873   2.776  0.7865 -2.0580 -0.6889
  965SOL    HW214532   1.036   3.801   2.675 -0.1038  1.0117 -0.4397
  966SOL     OW14533   1.785   4.454  12.834 -0.3354  0.1909 -0.8001
  966SOL    HW114534   1.799   4.486  12.923 -2.8654  2.5920 -1.2786
  966SOL    HW214535   1.700   4.492  12.816 -1.7264 -1.5125  2.2543
  967SOL     OW14536   3.846   0.819   8.908 -0.0254 -0.0633  0.3849
  967SOL    HW114537   3.810   0.908   8.902 -1.7752 -0.7399  0.8418
  967SOL    HW214538   3.910   0.834   8.977 -0.2253 -0.9148  0.7533
  968SOL     OW14539   3.744   0.385   1.548  0.1714 -0.2178  0.2603
  968SOL    HW114540   3.763   0.333   1.469 -0.8332 -0.5671  0.2521
  968SOL    HW214541   3.712   0.466   1.507 -2.6263 -1.9847 -0.9751
  969SOL     OW14542   3.510   1.286  15.886  0.3466 -0.2397  0.0869
  969SOL    HW114543   3.595   1.280  15.843  0.3079 -0.1709  0.0018
  969SOL    HW214544   3.462   1.340  15.823 -0.9803 -0.3460  0.9981
  970SOL     OW14545   2.319   0.407   3.848  0.7346  0.0914  0.3456
  970SOL    HW114546   2.296   0.423   3.940 -0.2942  0.3640  0.0416
  970SOL    HW214547   2.311   0.492   3.805  0.3583 -1.1552 -2.0081
  971SOL     OW14548   1.194   2.660   3.792  0.2064  0.3856 -0.3733
  971SOL    HW114549   1.114   2.608   3.793 -0.0504  0.7545 -1.5614
  971SOL    HW214550   1.250   2.593   3.830  0.1540 -1.8897 -4.3681
  972SOL     OW14551   2.896   1.722   1.948 -0.1369 -0.4424 -0.1724
  972SOL    HW114552   2.882   1.661   2.020  1.2146  1.2217  1.4886
  972SOL    HW214553   2.805   1.752   1.940 -1.1308 -3.5266 -0.5434
  973SOL     OW14554   1.913   0.958  15.070 -0.1124  0.4734 -0.3459
  973SOL    HW114555   1.952   1.020  15.131  0.2720 -0.0862 -0.0222
  973SOL    HW214556   1.866   0.897  15.127  0.0724  1.5557  0.9609
  974SOL     OW14557   3.657   1.361  16.283  0.2499  0.4929 -0.0755
  974SOL    HW114558   3.591   1.410  16.234  0.9954  2.0024  0.4100
  974SOL    HW214559   3.640   1.395  16.371  0.0227  0.9214 -0.2864
  975SOL     OW14560   0.648   1.698   1.992  0.1966 -0.3090 -0.0688
  975SOL    HW114561   0.605   1.622   2.032 -1.6296  0.6737 -0.1779
  975SOL    HW214562   0.584   1.748   1.942  0.0475  0.8968  1.3136
  976SOL     OW14563   2.304   0.313  16.822 -0.4279 -0.1303 -0.1567
  976SOL    HW114564   2.244   0.386  16.814 -0.9644 -0.8023 -2.2169
  976SOL    HW214565   2.285   0.264  16.742  0.2882 -0.9404  0.1646
  977SOL     OW14566   0.014   3.204   4.395  0.0411  0.1443  0.1759
  977SOL    HW114567   4.735   3.113   4.370  0.7491 -0.6036  2.4650
  977SOL    HW214568   0.024   3.243   4.308 -0.0038 -0.0501  0.0856
  978SOL     OW14569   2.458   4.466  12.645 -0.5316 -0.6672 -0.1698
  978SOL    HW114570   2.475   4.501  12.732 -1.9618  0.2826 -0.2777
  978SOL    HW214571   2.395   4.524  12.602  1.8386  1.0553 -1.2694
  979SOL     OW14572   4.349   4.362   8.131  0.6130  0.2823 -0.2266
  979SOL    HW114573   4.362   4.346   8.038  4.3333 -0.5263  0.4332
  979SOL    HW214574   4.335   4.456   8.140  1.2223  0.4947 -1.4412
  980SOL     OW14575   0.198   2.275  16.317 -0.0369  0.7180 -0.0138
  980SOL    HW114576   0.280   2.324  16.308  0.2512  0.2119 -0.1347
  980SOL    HW214577   0.224   2.243  16.404 -1.6764  0.3989  0.3462
  981SOL     OW14578   4.644   1.432   2.148 -0.4505 -0.2442  0.1812
  981SOL    HW114579   4.685   1.517   2.163 -3.5206  1.0796  1.1062
  981SOL    HW214580   4.704   1.392   2.085  0.3993  0.5325  0.5122
  982SOL     OW14581   3.312   4.002   5.160 -0.6962  0.2213  0.1280
  982SOL    HW114582   3.291   3.972   5.248 -2.7257  2.1757  0.3160
  982SOL    HW214583   3.231   3.984   5.112 -1.8178  1.5391  1.5036
  983SOL     OW14584   2.799   3.867   5.161  0.1637 -0.1637 -0.2329
  983SOL    HW114585   2.818   3.794   5.221 -1.0838 -0.0079  0.3577
  983SOL    HW214586   2.839   3.836   5.080 -0.4308 -0.4943 -0.4016
  984SOL     OW14587   1.626   1.395  15.920  0.8382 -0.5478 -0.4300
  984SOL    HW114588   1.680   1.469  15.890  0.5251 -0.8461 -1.6996
  984SOL    HW214589   1.605   1.430  16.007  2.5072  0.2531 -0.3501
  985SOL     OW14590   1.126   4.574   4.358  1.2843 -0.3242 -0.3717
  985SOL    HW114591   1.173   4.657   4.370 -1.9311  1.4508 -0.1379
  985SOL    HW214592   1.165   4.539   4.278  1.4137  0.2807 -0.5712
  986SOL     OW14593   2.335   2.410   4.325 -0.5139 -0.2506  0.4159
  986SOL    HW114594   2.400   2.392   4.258  2.2685 -1.1300  3.3638
  986SOL    HW214595   2.273   2.458   4.271  0.6873 -0.6312 -1.2799
  987SOL     OW14596   3.898   3.076  10.536  0.6100  0.3568  0.4996
  987SOL    HW114597   3.902   3.082  10.441 -2.8994  0.9291  0.4010
  987SOL    HW214598   3.811   3.043  10.560  0.6952 -0.9529 -1.0590
  988SOL     OW14599   4.392   2.504   5.274 -0.1808  0.2215 -0.9734
  988SOL    HW114600   4.364   2.494   5.365 -2.5998 -1.7984 -1.9659
  988SOL    HW214601   4.315   2.501   5.218  0.5195  1.0193 -1.9759
  989SOL     OW14602   1.049   3.364   1.236 -0.1807  0.1070 -0.5552
  989SOL    HW114603   1.110   3.437   1.238 -1.3316  1.1260 -2.1996
  989SOL    HW214604   1.018   3.369   1.145 -0.9112 -1.5802 -0.3879
  990SOL     OW14605   3.996   3.862   6.990  0.1949  0.1405  0.1472
  990SOL    HW114606   3.919   3.917   7.004 -1.5484 -2.2474 -0.0326
  990SOL    HW214607   3.969   3.782   7.036 -0.2089  0.3207  0.2197
  991SOL     OW14608   0.111   1.981   2.307 -0.4622  0.5198  0.0188
  991SOL    HW114609   0.096   1.954   2.216  0.7826  0.8840 -0.2999
  991SOL    HW214610   0.110   1.898   2.355  0.9909  1.6750  2.0377
  992SOL     OW14611   1.116   2.247  11.068 -0.2247  0.3518  0.2692
  992SOL    HW114612   1.059   2.184  11.023 -0.3736  0.7441 -0.0902
  992SOL    HW214613   1.200   2.200  11.070  0.5373  1.6745 -0.8182
  993SOL     OW14614   3.452   3.596   6.133 -0.6638  0.3816  0.2362
  993SOL    HW114615   3.519   3.536   6.099  0.3351  1.5727  0.0881
  993SOL    HW214616   3.477   3.589   6.225 -2.0936 -1.4459  0.4913
  994SOL     OW14617   4.570   0.833   7.223  0.8919  0.2267 -0.0173
  994SOL    HW114618   4.589   0.747   7.261 -0.2452 -1.3800 -3.0902
  994SOL    HW214619   4.547   0.875   7.306 -0.5288  1.1400 -0.8657
  995SOL     OW14620   0.474   3.184  11.898  0.0596 -0.6432 -0.2273
  995SOL    HW114621   0.495   3.266  11.854 -1.4566 -2.0039 -3.5031
  995SOL    HW214622   0.445   3.220  11.982 -2.6008  2.2038 -2.3818
  996SOL     OW14623   0.341   2.420   6.540  0.6819  0.5397  0.0202
  996SOL    HW114624   0.371   2.353   6.478  1.6003  0.3528  0.6738
  996SOL    HW214625   0.309   2.486   6.478 -0.3997  1.3220  1.4131
  997SOL     OW14626   0.817   0.107  14.648  0.8124  0.6093 -0.4145
  997SOL    HW114627   0.852   0.026  14.610  2.2287  1.4885 -0.9989
  997SOL    HW214628   0.787   0.075  14.733 -2.5116  0.6810 -1.5797
  998SOL     OW14629   3.995   2.138   2.269  0.4444 -0.4011  0.5813
  998SOL    HW114630   4.016   2.184   2.187  5.5081 -0.6867  1.6853
  998SOL    HW214631   3.903   2.114   2.258 -0.0818  0.9550  2.1504
  999SOL     OW14632   3.976   4.449   9.114 -0.2176 -0.3074  0.2457
  999SOL    HW114633   4.014   4.490   9.036  1.9418 -0.6382  1.1198
  999SOL    HW214634   3.935   4.372   9.076 -3.6708  2.1564 -1.0842
 1000SOL     OW14635   2.110   0.531   2.576 -0.8599  0.1280  0.1588
 1000SOL    HW114636   2.118   0.624   2.557 -2.0915  0.5962  1.8911
 1000SOL    HW214637   2.076   0.501   2.492 -1.7864 -0.6024  0.7964
 1001SOL     OW14638   0.596   0.170   1.077 -0.1810 -0.3708  0.5249
 1001SOL    HW114639   0.522   0.196   1.023  2.2640  1.0094 -2.1303
 1001SOL    HW214640   0.648   0.250   1.084  1.4677 -1.5224  1.4907
 1002SOL     OW14641   3.375   1.724   6.225  0.1541  0.2161 -0.8834
 1002SOL    HW114642   3.316   1.661   6.183 -1.2723 -0.7616  2.5537
 1002SOL    HW214643   3.386   1.786   6.152 -1.4226  0.5697 -0.8329
 1003SOL     OW14644   1.381   2.268  17.173  0.5816  0.0762  0.2040
 1003SOL    HW114645   1.322   2.244  17.244  0.1291  1.0239  0.1499
 1003SOL    HW214646   1.447   2.200  17.184  0.8839  0.1592 -1.1265
 1004SOL     OW14647   3.483   1.489   5.994  0.0555 -0.4626  0.1356
 1004SOL    HW114648   3.510   1.413   5.943 -0.8977  0.5047 -1.8025
 1004SOL    HW214649   3.420   1.440   6.046 -0.1473 -1.2844 -0.8938
 1005SOL     OW14650   3.654   3.839   6.209 -0.1821 -0.3269  0.5249
 1005SOL    HW114651   3.576   3.784   6.206  1.6063 -2.8217  0.2850
 1005SOL    HW214652   3.631   3.889   6.288  0.6250 -0.2496  0.7123
 1006SOL     OW14653   4.496   2.223   3.769  0.1019  0.0286  0.1455
 1006SOL    HW114654   4.491   2.305   3.719  2.0610  0.8322  1.2826
 1006SOL    HW214655   4.436   2.169   3.717  1.3683  0.5197 -1.8633
 1007SOL     OW14656   2.702   3.588   2.266  0.5265 -0.4400  0.0458
 1007SOL    HW114657   2.781   3.535   2.256  2.0276  2.1301 -1.7536
 1007SOL    HW214658   2.635   3.526   2.238 -1.2845  1.1925  0.7380
 1008SOL     OW14659   3.648   2.658   5.624 -0.5184  0.3061 -0.3014
 1008SOL    HW114660   3.707   2.733   5.628  1.5097 -1.2523 -1.2650
 1008SOL    HW214661   3.609   2.674   5.538 -0.2589  1.4620 -0.2021
 1009SOL     OW14662   2.138   1.755   8.738  0.5858 -0.2938  0.1369
 1009SOL    HW114663   2.186   1.791   8.812 -0.7843 -1.2097  1.4735
 1009SOL    HW214664   2.068   1.820   8.738 -0.7188 -1.7071 -0.2713
 1010SOL     OW14665   2.685   2.434   1.060 -0.1440 -0.0109 -0.4373
 1010SOL    HW114666   2.610   2.451   1.117  0.3299  0.3806  0.0593
 1010SOL    HW214667   2.759   2.452   1.118 -0.3929 -0.2031 -0.0579
 1011SOL     OW14668   1.924   0.047  17.583  0.5504 -0.0181  0.2990
 1011SOL    HW114669   1.838   0.085  17.570  0.2445 -0.8731 -0.1926
 1011SOL    HW214670   1.939   0.004  17.498  0.2803  1.5593 -0.5363
 1012SOL     OW14671   2.930   3.653   5.555  0.0164 -0.2279  0.0521
 1012SOL    HW114672   2.870   3.728   5.559 -0.0064 -0.1900 -0.8618
 1012SOL    HW214673   2.894   3.612   5.476  4.0143  0.8494 -2.3303
 1013SOL     OW14674   1.847   3.299   5.523  0.0358 -0.1854  0.3421
 1013SOL    HW114675   1.938   3.328   5.525  1.1899 -3.8892  1.0144
 1013SOL    HW214676   1.851   3.238   5.449  0.0518  0.7112 -0.3992
 1014SOL     OW14677   2.683   4.065   6.100  0.1996  0.1077  0.0439
 1014SOL    HW114678   2.752   4.014   6.141  1.9891  2.5640  0.0961
 1014SOL    HW214679   2.688   4.023   6.015 -2.3433 -2.5189  1.1921
 1015SOL     OW14680   1.447   2.387   7.314  0.0040 -0.1425  0.1996
 1015SOL    HW114681   1.492   2.303   7.325 -0.1509 -0.1491  0.7354
 1015SOL    HW214682   1.502   2.423   7.243 -0.2968  0.7824  0.4366
 1016SOL     OW14683   4.369   4.172   7.140  0.6703  0.1774  0.3472
 1016SOL    HW114684   4.295   4.181   7.200  1.8988 -0.9506  2.0594
 1016SOL    HW214685   4.419   4.101   7.181  2.0172  0.6266 -0.5129
 1017SOL     OW14686   3.475   1.002  15.551  0.7019  0.2863  0.4803
 1017SOL    HW114687   3.473   1.061  15.626  1.4880  0.8715  0.0400
 1017SOL    HW214688   3.488   0.913  15.585 -2.4714  0.2461  1.5501
 1018SOL     OW14689   4.359   3.192   9.815 -0.3434  0.3013 -0.0260
 1018SOL    HW114690   4.444   3.237   9.816  0.1378 -0.6168  0.5875
 1018SOL    HW214691   4.298   3.255   9.853  0.2045  0.8254 -0.0087
 1019SOL     OW14692   3.879   1.297   9.701  0.1108 -0.2905  0.2076
 1019SOL    HW114693   3.878   1.202   9.716  2.1248 -0.4040 -0.2667
 1019SOL    HW214694   3.796   1.304   9.654  1.8710 -0.0620 -2.9014
 1020SOL     OW14695   3.123   1.170   4.313  0.5749 -0.2694 -0.0037
 1020SOL    HW114696   3.037   1.204   4.338 -0.1568 -2.1142 -0.0242
 1020SOL    HW214697   3.172   1.165   4.395  1.1786  0.0626 -0.3505
 1021SOL     OW14698   4.651   3.942   3.698  0.0109 -0.8653 -0.4984
 1021SOL    HW114699   4.596   3.883   3.646  0.1356  1.7672 -3.6198
 1021SOL    HW214700   4.729   3.950   3.642 -0.1151 -0.3390 -0.5971
 1022SOL     OW14701   1.302   2.568   4.190 -0.3233  0.0452  0.4467
 1022SOL    HW114702   1.314   2.477   4.166  2.3587  0.6782 -0.6034
 1022SOL    HW214703   1.213   2.581   4.158 -0.0569 -1.2702 -0.7959
 1023SOL     OW14704   2.981   3.238   3.213  0.1517  0.4389 -0.1576
 1023SOL    HW114705   3.074   3.248   3.234  0.0247 -0.2604  0.7223
 1023SOL    HW214706   2.949   3.325   3.187  1.9685  2.1961  3.5701
 1024SOL     OW14707   3.920   3.749   2.525  0.0548  0.1716  0.1410
 1024SOL    HW114708   3.953   3.814   2.463  1.1708 -0.7480 -0.2160
 1024SOL    HW214709   3.904   3.812   2.595 -2.1087 -0.3620  0.1340
 1025SOL     OW14710   4.299   3.385   2.293 -0.5749  0.0223 -0.0779
 1025SOL    HW114711   4.311   3.304   2.343  0.0029 -1.2045 -2.1800
 1025SOL    HW214712   4.391   3.410   2.284 -0.0851 -1.9213 -0.5289
 1026SOL     OW14713   4.074   0.741   6.657 -0.0384 -0.0034 -0.2785
 1026SOL    HW114714   4.081   0.833   6.683  2.6701  0.5175 -2.8705
 1026SOL    HW214715   4.150   0.701   6.697  0.1073 -0.3937 -0.9544
 1027SOL     OW14716   0.944   2.371   4.023 -0.1623 -0.2542  0.1863
 1027SOL    HW114717   0.860   2.401   4.058  1.0111  1.6750  1.3326
 1027SOL    HW214718   0.968   2.314   4.096 -1.4786 -0.1697  0.6798
 1028SOL     OW14719   1.421   2.493  11.637  0.1147 -0.5422  0.5156
 1028SOL    HW114720   1.371   2.412  11.629  0.5904 -0.8296  0.4223
 1028SOL    HW214721   1.442   2.483  11.730  0.1653 -1.4602  0.4068
 1029SOL     OW14722   3.746   3.164  12.056  0.0756 -0.1259  0.2307
 1029SOL    HW114723   3.714   3.239  12.006  0.6934 -0.1541 -0.2117
 1029SOL    HW214724   3.707   3.095  12.001 -1.4613  1.1444 -0.2721
 1030SOL     OW14725   1.295   2.489  14.726 -0.5057  0.1101 -0.6614
 1030SOL    HW114726   1.297   2.584  14.736 -1.5350 -0.1558  2.0689
 1030SOL    HW214727   1.239   2.475  14.802  1.8682 -1.1554  0.8704
 1031SOL     OW14728   0.636   1.821   1.609  0.0904 -0.2536 -0.4649
 1031SOL    HW114729   0.637   1.900   1.556 -2.5397 -0.2663 -0.5565
 1031SOL    HW214730   0.731   1.813   1.618  0.2365  0.5076 -1.3296
 1032SOL     OW14731   4.162   0.194   1.882  0.6692  0.3858 -0.0824
 1032SOL    HW114732   4.204   0.240   1.955  1.8167 -0.6341 -0.0936
 1032SOL    HW214733   4.179   0.102   1.902 -1.5866 -0.4105 -1.9362
 1033SOL     OW14734   0.295   1.377  13.936 -0.1830  0.1563  0.1899
 1033SOL    HW114735   0.311   1.312  14.005  0.1298 -0.9655 -0.9616
 1033SOL    HW214736   0.260   1.322  13.867  0.5410 -1.7958  1.3860
 1034SOL     OW14737   4.538   1.359   7.927 -0.1433 -0.3158 -0.5684
 1034SOL    HW114738   4.554   1.450   7.899  1.4372 -0.3993  0.0343
 1034SOL    HW214739   4.484   1.388   8.000 -4.4457  0.2405 -3.9635
 1035SOL     OW14740   2.355   4.297  12.448  0.0023 -0.2312  0.0473
 1035SOL    HW114741   2.383   4.354  12.520  0.4662 -0.7346  0.2637
 1035SOL    HW214742   2.419   4.226  12.457 -1.6315 -1.9908 -2.1809
 1036SOL     OW14743   0.859   2.576   4.284 -0.5060  0.1329  0.1656
 1036SOL    HW114744   0.800   2.649   4.267  0.8683  0.2842 -3.9536
 1036SOL    HW214745   0.886   2.593   4.374 -0.1600  0.5547 -0.0212
 1037SOL     OW14746   2.189   2.390  12.037 -0.2713 -0.4629 -0.6982
 1037SOL    HW114747   2.243   2.315  12.061  0.2550  0.2013  0.2203
 1037SOL    HW214748   2.102   2.352  12.042  0.4894 -2.0801  0.2111
 1038SOL     OW14749   0.984   0.141   5.483 -0.4272  0.0089 -0.1535
 1038SOL    HW114750   0.891   0.119   5.490 -0.9285  1.3864 -2.5347
 1038SOL    HW214751   1.016   0.059   5.444 -0.8181  0.4499 -1.3869
 1039SOL     OW14752   1.013   1.077   9.052 -0.0982  0.1030  0.0146
 1039SOL    HW114753   0.987   1.115   8.968  3.2620  1.7193 -0.2940
 1039SOL    HW214754   1.104   1.106   9.054  0.2688 -1.0418 -0.1803
 1040SOL     OW14755   2.808   2.566   5.406 -0.4679  0.5089  0.1571
 1040SOL    HW114756   2.716   2.561   5.432 -0.0969  2.9160  1.9708
 1040SOL    HW214757   2.838   2.636   5.464  1.0925  0.1900 -0.2592
 1041SOL     OW14758   4.016   4.428   3.471  0.0998  0.1941  0.2382
 1041SOL    HW114759   4.006   4.439   3.376  0.6094 -0.2880  0.1263
 1041SOL    HW214760   4.099   4.473   3.487 -0.3771  0.5604  1.6388
 1042SOL     OW14761   4.105   0.668   7.790  0.0564  0.2933  0.2526
 1042SOL    HW114762   4.150   0.611   7.851  2.1944  0.7499 -0.8924
 1042SOL    HW214763   4.142   0.643   7.705 -0.1856  1.9491 -0.3459
 1043SOL     OW14764   0.390   2.812   5.460 -0.5512 -0.2332  0.1872
 1043SOL    HW114765   0.399   2.874   5.388  0.4267 -2.1484 -1.3419
 1043SOL    HW214766   0.303   2.784   5.432 -0.6838 -0.6562  1.0336
 1044SOL     OW14767   4.048   2.378   4.865 -0.4169 -0.2177  0.5370
 1044SOL    HW114768   4.061   2.290   4.831 -1.8845  0.3240 -1.4285
 1044SOL    HW214769   3.972   2.356   4.920  0.2743  0.2158  1.6814
 1045SOL     OW14770   3.396   3.732   1.071  0.6132  0.0102  0.6276
 1045SOL    HW114771   3.479   3.751   1.117  0.0204  0.9981  1.3016
 1045SOL    HW214772   3.328   3.785   1.113 -0.9000 -0.1045 -1.6713
 1046SOL     OW14773   3.199   1.526   4.552  0.5272 -0.6303  0.2560
 1046SOL    HW114774   3.113   1.555   4.581 -0.2542 -1.2031 -1.4929
 1046SOL    HW214775   3.206   1.435   4.579  4.1059 -0.8101 -1.2618
 1047SOL     OW14776   0.191   0.260  11.743 -0.4693 -0.5573  0.0228
 1047SOL    HW114777   0.194   0.212  11.660  2.0857 -0.4071  0.0205
 1047SOL    HW214778   0.095   0.254  11.743 -0.5381  1.2093 -5.4742
 1048SOL     OW14779   2.978   1.171   7.311 -0.3062  0.4771  0.3570
 1048SOL    HW114780   2.923   1.221   7.252 -0.8559  1.0153  1.3427
 1048SOL    HW214781   3.040   1.242   7.329  0.9433 -0.5541  0.2017
 1049SOL     OW14782   2.487   3.091   8.502  0.2464 -0.0127  0.0394
 1049SOL    HW114783   2.544   3.125   8.433 -0.0257 -0.7479 -0.5492
 1049SOL    HW214784   2.499   3.166   8.560 -1.3050  0.2902 -0.0230
 1050SOL     OW14785   0.267   1.112   8.515 -0.1100 -0.4798  0.1769
 1050SOL    HW114786   0.203   1.179   8.537  0.3624 -1.0381  3.2073
 1050SOL    HW214787   0.345   1.166   8.528  1.0597 -1.8509 -1.0430
 1051SOL     OW14788   4.626   1.183   5.350 -0.0594  0.2266  0.2794
 1051SOL    HW114789   4.678   1.132   5.412 -0.1798 -1.3479 -0.9238
 1051SOL    HW214790   4.596   1.106   5.301  1.6161  0.6675 -1.4186
 1052SOL     OW14791   3.529   3.468   7.196 -0.8340 -0.2032 -0.0464
 1052SOL    HW114792   3.437   3.485   7.177 -0.2232  1.2563 -1.7658
 1052SOL    HW214793   3.525   3.401   7.264 -1.3876  0.2427  0.3536
 1053SOL     OW14794   2.143   0.142  13.394  0.2743 -0.3614  0.1945
 1053SOL    HW114795   2.135   0.161  13.300  1.2225  2.5890  0.7202
 1053SOL    HW214796   2.063   0.174  13.436 -0.0018 -0.1512 -0.4845
 1054SOL     OW14797   1.992   2.670   5.237  0.5525  0.5575  0.1180
 1054SOL    HW114798   1.937   2.597   5.207  0.0486  0.7036  0.6800
 1054SOL    HW214799   2.066   2.628   5.281 -1.0574 -0.1981  2.1019
 1055SOL     OW14800   4.365   0.086   2.704 -0.4747 -0.0136 -0.0725
 1055SOL    HW114801   4.411   0.016   2.658 -1.1682 -0.5010 -0.0306
 1055SOL    HW214802   4.277   0.090   2.667 -0.2564 -3.0095 -0.8872
 1056SOL     OW14803   2.089   1.271   6.598 -0.4368 -0.3724  0.3852
 1056SOL    HW114804   2.026   1.199   6.599 -1.1845  0.2720 -2.1955
 1056SOL    HW214805   2.042   1.336   6.547  1.3011  0.5693  0.0089
 1057SOL     OW14806   3.709   2.136   8.010  0.3752  0.5777 -0.3964
 1057SOL    HW114807   3.697   2.229   7.994 -2.8929  0.0898 -0.6795
 1057SOL    HW214808   3.701   2.110   7.918  0.7034  3.0945 -1.1291
 1058SOL     OW14809   0.454   3.987   3.669 -0.1345  0.2261 -0.0220
 1058SOL    HW114810   0.362   3.969   3.653 -0.1007 -0.0170  0.0567
 1058SOL    HW214811   0.439   4.003   3.762 -0.9505 -1.9735  0.2220
 1059SOL     OW14812   1.030   0.848   2.980 -0.1909 -0.1372  0.6023
 1059SOL    HW114813   1.045   0.774   2.921  0.3672  0.9648 -0.6438
 1059SOL    HW214814   0.974   0.805   3.045 -1.4437  2.7497  1.4301
 1060SOL     OW14815   4.298   1.997   5.901  0.6541  0.4461  0.0129
 1060SOL    HW114816   4.227   1.993   5.836 -0.7797 -1.8651  1.6963
 1060SOL    HW214817   4.253   2.001   5.986  0.6004  0.3571 -0.0108
 1061SOL     OW14818   0.384   0.639   9.589 -0.4825  0.1162  0.1426
 1061SOL    HW114819   0.386   0.562   9.645  2.2382  0.3385  0.3382
 1061SOL    HW214820   0.474   0.667   9.605 -0.1760 -2.1652  2.3802
 1062SOL     OW14821   2.130   4.694   9.180  0.0686  0.0773 -0.3075
 1062SOL    HW114822   2.156   0.017   9.109  0.8889  0.5099  0.3582
 1062SOL    HW214823   2.060   4.647   9.135 -2.3564  1.2708  2.2293
 1063SOL     OW14824   2.265   4.346   8.170 -0.8215  0.1499  0.1889
 1063SOL    HW114825   2.283   4.265   8.122 -1.0225  0.7154 -0.8247
 1063SOL    HW214826   2.298   4.403   8.102 -0.0253 -1.3326 -0.6693
 1064SOL     OW14827   2.880   1.260   9.048 -0.3659  0.4857  0.2201
 1064SOL    HW114828   2.894   1.269   8.954  1.0025  0.7576  0.4590
 1064SOL    HW214829   2.943   1.191   9.068  0.3436  1.2311  0.5326
 1065SOL     OW14830   1.561   1.406   8.515 -0.0412 -0.0821  0.7104
 1065SOL    HW114831   1.507   1.433   8.590 -1.3529  0.1704 -0.3188
 1065SOL    HW214832   1.612   1.487   8.506 -0.4868  0.4769  3.0994
 1066SOL     OW14833   3.040   1.652   2.916  0.0283 -0.1833 -0.8363
 1066SOL    HW114834   3.112   1.714   2.924 -0.2348  0.0816 -0.4995
 1066SOL    HW214835   3.087   1.571   2.931  1.9719  1.3691  1.5042
 1067SOL     OW14836   3.998   2.334   7.185  0.0599  0.5192 -0.1700
 1067SOL    HW114837   4.059   2.384   7.240  0.1653  0.4630 -0.2359
 1067SOL    HW214838   3.989   2.262   7.247  3.9534 -0.3794 -0.6191
 1068SOL     OW14839   2.327   3.374   2.618  0.3027  0.1577 -0.7200
 1068SOL    HW114840   2.366   3.387   2.705 -0.3011 -3.7269  0.0971
 1068SOL    HW214841   2.280   3.291   2.627  0.2310  0.3161  0.4401
 1069SOL     OW14842   2.086   0.477   6.074 -0.5463 -0.2186  0.2129
 1069SOL    HW114843   2.017   0.419   6.042  0.7135 -2.0004  0.7677
 1069SOL    HW214844   2.032   0.556   6.068  0.7974  0.7496  0.8310
 1070SOL     OW14845   4.168   0.462   9.198  0.4935  0.7737  0.0381
 1070SOL    HW114846   4.185   0.368   9.192 -1.3662  0.3408  1.9883
 1070SOL    HW214847   4.123   0.478   9.281  0.5003 -3.1068  0.7503
 1071SOL     OW14848   4.376   3.105   2.977  0.4831  0.1198  0.1324
 1071SOL    HW114849   4.293   3.079   3.017  0.3995 -0.8276 -0.6645
 1071SOL    HW214850   4.356   3.199   2.978 -1.9581 -0.3836  0.2326
 1072SOL     OW14851   4.239   0.590   9.745  0.3644  0.0683  0.5699
 1072SOL    HW114852   4.202   0.607   9.659  2.4751  0.8690 -0.1910
 1072SOL    HW214853   4.161   0.625   9.788  0.0285 -1.3087  1.0799
 1073SOL     OW14854   2.517   3.778   5.944  0.0861  0.4853  0.3763
 1073SOL    HW114855   2.606   3.808   5.927  0.4216 -0.3530  0.6715
 1073SOL    HW214856   2.501   3.721   5.869 -1.4414  1.5574 -0.1234
 1074SOL     OW14857   3.190   4.238   9.816 -0.1842 -0.5552  1.0524
 1074SOL    HW114858   3.223   4.179   9.884 -0.3733  0.7934  2.3249
 1074SOL    HW214859   3.196   4.313   9.875 -2.2049 -0.7944  1.5877
 1075SOL     OW14860   1.265   1.300   1.940  0.5498  0.4917 -0.9069
 1075SOL    HW114861   1.310   1.378   1.972  1.5689  0.2950 -1.8355
 1075SOL    HW214862   1.338   1.260   1.892 -0.0351  0.1213 -1.4888
 1076SOL     OW14863   2.166   0.587   6.640  0.1237 -0.3090 -0.1358
 1076SOL    HW114864   2.201   0.499   6.651 -2.6562 -1.4542 -0.5845
 1076SOL    HW214865   2.196   0.600   6.550  0.5122  0.1337  0.0587
 1077SOL     OW14866   2.277   2.636   9.447 -0.3959  0.1009 -0.3628
 1077SOL    HW114867   2.320   2.709   9.403  0.1265 -1.4133 -2.3672
 1077SOL    HW214868   2.189   2.673   9.455 -0.0457  0.9440 -0.4354
 1078SOL     OW14869   2.180   2.657   1.659 -0.5190 -0.2427 -0.3562
 1078SOL    HW114870   2.269   2.625   1.672 -0.2027  0.9670  0.4071
 1078SOL    HW214871   2.156   2.694   1.744  0.4473 -2.8158  1.0551
 1079SOL     OW14872   3.714   3.756  10.484 -0.3076  0.1766  0.1653
 1079SOL    HW114873   3.806   3.755  10.509 -0.7155  0.0549  1.6251
 1079SOL    HW214874   3.677   3.761  10.572 -1.7279  0.6152 -0.4492
 1080SOL     OW14875   4.552   2.198  14.377 -0.2028  0.4033 -0.1556
 1080SOL    HW114876   4.524   2.203  14.285 -1.2544  0.8796  0.1937
 1080SOL    HW214877   4.629   2.141  14.375 -0.5315 -0.0578  0.2976
 1081SOL     OW14878   4.456   2.435  17.511 -0.2334  0.0207 -0.2344
 1081SOL    HW114879   4.516   2.420  17.438 -0.8107 -1.8516 -0.3292
 1081SOL    HW214880   4.425   2.524  17.491 -2.1437 -0.7220 -0.6009
 1082SOL     OW14881   3.638   4.711   3.226 -0.5593 -0.2131 -0.0986
 1082SOL    HW114882   3.627   4.646   3.157  1.6949 -1.0945  0.3707
 1082SOL    HW214883   3.719   0.022   3.205  0.1433 -1.0044  0.8862
 1083SOL     OW14884   4.546   3.979   4.862 -0.2220  0.3307  0.3641
 1083SOL    HW114885   4.534   4.050   4.799  0.9661 -1.0416 -1.4252
 1083SOL    HW214886   4.542   3.900   4.808  1.0294  1.8656 -2.0042
 1084SOL     OW14887   4.379   4.227   2.154 -0.1622  0.6173 -0.3705
 1084SOL    HW114888   4.449   4.278   2.114 -0.0054  1.3558  0.8516
 1084SOL    HW214889   4.340   4.180   2.081 -2.0401  4.0119 -1.5737
 1085SOL     OW14890   1.233   2.347   6.582  0.1557 -0.3762 -0.2998
 1085SOL    HW114891   1.311   2.325   6.531  0.6564 -1.1231  0.7733
 1085SOL    HW214892   1.232   2.442   6.593  0.2411 -0.2160 -1.7233
 1086SOL     OW14893   4.150   1.422   7.861  0.2234 -0.3028  0.9821
 1086SOL    HW114894   4.101   1.354   7.905 -0.2609 -0.8655 -0.4304
 1086SOL    HW214895   4.203   1.453   7.934  0.1169  0.7727  0.6065
 1087SOL     OW14896   4.010   0.987   3.062  0.2343  0.6206 -0.4311
 1087SOL    HW114897   4.005   0.892   3.072 -0.0824  0.7214  0.3653
 1087SOL    HW214898   4.063   0.998   2.983 -0.0826 -1.7678 -1.0019
 1088SOL     OW14899   2.661   2.284   1.417 -0.5940  0.2024 -0.4582
 1088SOL    HW114900   2.739   2.231   1.433 -2.0083 -2.0544 -1.1497
 1088SOL    HW214901   2.610   2.243   1.348 -1.9179  0.0847  0.5799
 1089SOL     OW14902   2.261   2.178   1.652  0.4550 -0.0605  0.3777
 1089SOL    HW114903   2.355   2.193   1.663  0.3340  2.1584 -1.5855
 1089SOL    HW214904   2.253   2.097   1.702 -1.2318 -0.3527 -0.3634
 1090SOL     OW14905   2.555   4.188  14.145 -0.2871 -0.0131  0.2898
 1090SOL    HW114906   2.649   4.206  14.151  0.0159 -0.8402 -2.0306
 1090SOL    HW214907   2.523   4.271  14.108  0.8587  0.4713  0.3821
 1091SOL     OW14908   2.998   3.540   3.533  0.1110  0.4373 -0.1643
 1091SOL    HW114909   2.965   3.562   3.620  1.0095  0.2004  0.2318
 1091SOL    HW214910   2.996   3.444   3.536  0.4283  0.4360  0.0063
 1092SOL     OW14911   1.235   1.020   8.357  0.1265  0.1112 -0.1785
 1092SOL    HW114912   1.170   1.067   8.410 -1.2061 -1.7213 -0.1818
 1092SOL    HW214913   1.185   0.943   8.329 -0.9253  0.1557  1.5338
 1093SOL     OW14914   0.518   2.176   2.975  0.5062 -0.5847 -0.0159
 1093SOL    HW114915   0.528   2.092   2.930  0.0276 -0.9369  0.5315
 1093SOL    HW214916   0.430   2.196   2.944  0.1032  2.0167  2.7781
 1094SOL     OW14917   4.228   2.058  11.962  0.5378 -0.1891  0.5314
 1094SOL    HW114918   4.219   1.968  11.931 -1.2235 -0.2323  1.1776
 1094SOL    HW214919   4.168   2.098  11.899 -0.2110 -0.8334  0.8434
 1095SOL     OW14920   4.435   1.028  15.757  0.2708  0.0169  0.2633
 1095SOL    HW114921   4.368   0.999  15.696 -1.1824  0.3536  1.7148
 1095SOL    HW214922   4.393   1.020  15.843  2.7502 -0.6255  1.4387
 1096SOL     OW14923   0.905   3.431   4.909  0.7249  0.0737  0.9923
 1096SOL    HW114924   0.989   3.462   4.942  1.1413 -1.9668  1.8250
 1096SOL    HW214925   0.854   3.426   4.989  1.0839 -0.3444  1.1945
 1097SOL     OW14926   2.268   3.219   5.955 -0.1935  1.0422 -0.4416
 1097SOL    HW114927   2.322   3.274   5.898 -1.0745  1.7320 -0.6225
 1097SOL    HW214928   2.209   3.187   5.887 -1.3485 -2.5292  2.2772
 1098SOL     OW14929   0.050   3.117  15.050 -0.1744 -0.4863 -0.0251
 1098SOL    HW114930   0.018   3.046  15.106 -2.0625 -0.7955 -1.4887
 1098SOL    HW214931   0.022   3.183  15.114  0.4489 -0.1438 -0.1061
 1099SOL     OW14932   2.684   0.332   3.349 -0.3904  0.5390 -0.2647
 1099SOL    HW114933   2.745   0.263   3.376 -1.3257 -0.2955 -0.3064
 1099SOL    HW214934   2.716   0.406   3.402  1.0137 -0.6757  0.6056
 1100SOL     OW14935   2.813   2.751   6.163 -0.2830  0.0581 -0.6019
 1100SOL    HW114936   2.893   2.713   6.127 -0.4824 -2.4404  1.5813
 1100SOL    HW214937   2.827   2.730   6.256 -1.2985  2.1480  0.0323
 1101SOL     OW14938   3.442   1.539   7.496  0.5925 -0.5939  0.8259
 1101SOL    HW114939   3.441   1.491   7.413 -3.3738  0.7651  0.0477
 1101SOL    HW214940   3.436   1.464   7.555 -2.5193 -0.5208  0.6262
 1102SOL     OW14941   2.004   1.983   8.975  0.1980  0.1116 -0.2489
 1102SOL    HW114942   1.969   1.941   8.896 -0.0339  1.7291 -1.0134
 1102SOL    HW214943   2.012   1.907   9.032  1.7945 -1.2300 -2.2532
 1103SOL     OW14944   3.180   4.446   0.097 -0.0365  0.2277  0.6819
 1103SOL    HW114945   3.173   4.497   0.016 -2.7172 -1.5965 -0.2290
 1103SOL    HW214946   3.089   4.423   0.118  0.4839 -1.6919  0.8791
 1104SOL     OW14947   1.942   0.682   5.610  0.0045  0.9647 -0.7884
 1104SOL    HW114948   1.942   0.764   5.561  0.6189  0.1889 -2.1126
 1104SOL    HW214949   1.872   0.706   5.670  0.2434 -0.9303  0.2664
 1105SOL     OW14950   0.031   4.355   5.186 -0.6876  0.1813  0.0426
 1105SOL    HW114951   4.724   4.351   5.101 -2.7734 -0.6827  1.1338
 1105SOL    HW214952   0.117   4.384   5.154 -0.8359 -0.5840 -1.0185
 1106SOL     OW14953   0.655   1.029   4.384  0.0263  0.0075 -0.3819
 1106SOL    HW114954   0.586   1.015   4.319 -0.4518 -1.1221  0.3558
 1106SOL    HW214955   0.605   1.012   4.464 -0.3078  0.5498 -0.4779
 1107SOL     OW14956   2.876   0.625  10.143  0.2939  0.2866 -0.2760
 1107SOL    HW114957   2.927   0.650  10.220  0.8004  0.9255 -0.8331
 1107SOL    HW214958   2.788   0.620  10.180  1.1015 -5.0096  0.9409
 1108SOL     OW14959   0.971   1.415   6.602 -0.0110 -0.1247 -0.8735
 1108SOL    HW114960   0.906   1.380   6.662  0.6659 -1.3953 -0.8752
 1108SOL    HW214961   0.927   1.394   6.520  0.3865  0.0236 -1.1251
 1109SOL     OW14962   0.085   1.477   6.338  0.6427 -0.3387 -0.7342
 1109SOL    HW114963   0.055   1.457   6.250  1.5452  1.1384 -1.3872
 1109SOL    HW214964   0.118   1.567   6.329 -0.6442  0.1890 -0.1635
 1110SOL     OW14965   3.723   0.160  14.875 -0.1808  0.0786 -0.1022
 1110SOL    HW114966   3.743   0.244  14.833  0.9013 -0.3314 -0.4033
 1110SOL    HW214967   3.700   0.109  14.797  1.5219 -1.7680  0.6076
 1111SOL     OW14968   0.476   0.034  12.254 -0.1420 -0.0829 -0.4109
 1111SOL    HW114969   0.522   0.061  12.334 -0.9072  2.6274 -0.8994
 1111SOL    HW214970   0.528   4.692  12.233 -0.4488 -0.8134  1.5008
 1112SOL     OW14971   4.484   0.426  11.818  0.2761 -0.7921 -0.8831
 1112SOL    HW114972   4.502   0.520  11.811 -2.8358 -0.2679 -1.9257
 1112SOL    HW214973   4.527   0.399  11.899 -0.5687 -0.3984 -0.2956
 1113SOL     OW14974   3.704   1.604   9.444  0.3923  0.7876  0.5419
 1113SOL    HW114975   3.729   1.530   9.500 -0.6238  0.2571  0.2957
 1113SOL    HW214976   3.728   1.681   9.495  2.4429  0.0449  0.7065
 1114SOL     OW14977   1.353   2.053   6.945 -0.6079 -0.1999  0.6185
 1114SOL    HW114978   1.423   2.098   6.993 -0.8424  0.1092  0.6762
 1114SOL    HW214979   1.275   2.098   6.979  0.2678  1.1615  0.8557
 1115SOL     OW14980   0.356   2.628   0.783 -0.1632  0.3093 -0.1535
 1115SOL    HW114981   0.284   2.651   0.725  1.7111  0.9641 -2.2307
 1115SOL    HW214982   0.348   2.690   0.856  1.7295 -0.1329  0.4397
 1116SOL     OW14983   1.122   0.122   3.873 -0.7208  0.0555 -0.0801
 1116SOL    HW114984   1.046   0.143   3.926  0.1139  0.1005  1.1068
 1116SOL    HW214985   1.100   0.032   3.847 -1.6743  0.0755  0.6873
 1117SOL     OW14986   4.168   1.431   5.070 -0.4612 -0.3998  0.1699
 1117SOL    HW114987   4.239   1.487   5.040 -0.2935 -0.3742  0.6118
 1117SOL    HW214988   4.096   1.489   5.097  0.5623  0.0819  1.8873
 1118SOL     OW14989   2.602   0.590   4.996 -0.1195  0.5828  1.0508
 1118SOL    HW114990   2.686   0.591   5.043 -0.1072  0.2995  1.0359
 1118SOL    HW214991   2.620   0.507   4.953 -0.9020  1.6013 -1.2014
 1119SOL     OW14992   4.684   3.034   5.559  0.3479 -0.0210 -0.5377
 1119SOL    HW114993   4.667   2.998   5.472  0.7501  1.4265 -1.2125
 1119SOL    HW214994   4.614   2.991   5.607  2.0494 -0.9404  1.1344
 1120SOL     OW14995   0.186   1.033  11.504  0.0914  0.1669 -0.1644
 1120SOL    HW114996   0.156   1.122  11.523  0.1565 -0.0041  0.7404
 1120SOL    HW214997   0.162   0.980  11.580  0.4299 -1.3947 -1.1494
 1121SOL     OW14998   1.036   2.302   1.913  0.0865 -0.6823 -0.5930
 1121SOL    HW114999   1.089   2.365   1.961 -0.1527 -2.3928  1.9090
 1121SOL    HW215000   0.962   2.281   1.971 -0.5547  1.2229 -0.7227
 1122SOL     OW15001   3.245   2.151  16.839 -0.7280 -0.1977 -0.0422
 1122SOL    HW115002   3.169   2.113  16.883  1.2029 -0.8076  2.7618
 1122SOL    HW215003   3.216   2.149  16.748  1.2601  1.9790 -0.7204
 1123SOL     OW15004   2.519   1.498   3.907 -0.5836 -0.3235 -0.0064
 1123SOL    HW115005   2.544   1.484   3.816 -1.3657 -2.6564  0.1519
 1123SOL    HW215006   2.506   1.411   3.944  1.9450 -1.0109 -0.7423
 1124SOL     OW15007   2.782   2.800   4.585  0.0297  0.3519  0.2351
 1124SOL    HW115008   2.845   2.871   4.598  0.3630 -0.0681  0.9102
 1124SOL    HW215009   2.697   2.843   4.599 -0.4934 -0.7981  0.5550
 1125SOL     OW15010   2.461   2.374   9.243 -0.1930  0.4599  0.0117
 1125SOL    HW115011   2.471   2.282   9.269 -0.2321  0.3071 -0.5053
 1125SOL    HW215012   2.372   2.399   9.264 -0.6327 -0.3952 -0.7903
 1126SOL     OW15013   2.189   1.926   3.509 -0.3603 -0.6381 -0.0734
 1126SOL    HW115014   2.179   1.830   3.513 -0.6869 -0.6050 -0.1215
 1126SOL    HW215015   2.149   1.946   3.425  3.0301  3.9648 -0.5664
 1127SOL     OW15016   3.752   0.390   5.349  0.5437 -0.0543 -0.3915
 1127SOL    HW115017   3.756   0.345   5.264 -1.2845 -2.6642  0.9007
 1127SOL    HW215018   3.675   0.446   5.335  0.1502 -0.2402  1.1180
 1128SOL     OW15019   0.130   3.797  13.203  0.3800  0.1433  0.2920
 1128SOL    HW115020   0.151   3.770  13.114  0.0070 -0.7501  0.4742
 1128SOL    HW215021   0.037   3.820  13.201  0.3533 -0.0706 -0.6441
 1129SOL     OW15022   2.812   2.768   6.837  0.3183  0.0692  0.0137
 1129SOL    HW115023   2.844   2.717   6.912  0.5777  1.2882  0.7276
 1129SOL    HW215024   2.884   2.830   6.830  0.9049 -0.4766  1.2109
 1130SOL     OW15025   3.666   3.514   3.447 -0.5292  0.1340 -0.1132
 1130SOL    HW115026   3.696   3.474   3.365  0.3646 -0.4149  0.4758
 1130SOL    HW215027   3.619   3.595   3.427 -0.0086  0.5598  0.4032
 1131SOL     OW15028   0.625   2.289  13.608 -0.0191 -0.2120  0.3769
 1131SOL    HW115029   0.615   2.366  13.552  1.0297 -0.8300 -0.6577
 1131SOL    HW215030   0.716   2.268  13.585  0.2380 -2.0146  3.0652
 1132SOL     OW15031   4.697   0.395   7.998 -0.1763 -0.2431  0.3266
 1132SOL    HW115032   4.730   0.480   7.968 -0.7619 -0.2467 -0.3296
 1132SOL    HW215033   4.652   0.366   7.919  0.4165 -1.3226  0.3942
 1133SOL     OW15034   1.168   1.596   9.849 -0.7317 -0.1724  0.2855
 1133SOL    HW115035   1.242   1.635   9.896 -1.6805  0.3851  1.3050
 1133SOL    HW215036   1.094   1.650   9.876 -0.9544  0.0283 -0.7469
 1134SOL     OW15037   4.187   2.754   3.558 -0.0363  0.1265  0.8460
 1134SOL    HW115038   4.134   2.679   3.531  0.7280  0.3798 -1.3609
 1134SOL    HW215039   4.168   2.817   3.489  2.4256 -0.1541 -0.0878
 1135SOL     OW15040   0.528   1.726   5.016  0.3681  0.3447  0.2220
 1135SOL    HW115041   0.439   1.733   4.981  0.3751 -0.6413 -0.0017
 1135SOL    HW215042   0.518   1.748   5.109 -1.5201  1.8169 -0.3471
 1136SOL     OW15043   0.624   2.668   4.031 -0.2070 -0.0498 -0.2020
 1136SOL    HW115044   0.636   2.705   4.118 -1.9500 -2.4761  1.0738
 1136SOL    HW215045   0.577   2.742   3.993  1.6831  0.2895 -1.8637
 1137SOL     OW15046   0.344   2.576  16.144  0.2301 -0.5631  0.2173
 1137SOL    HW115047   0.377   2.661  16.115  1.1400 -0.5842  1.1976
 1137SOL    HW215048   0.254   2.598  16.169  0.4928  0.4957  0.2145
 1138SOL     OW15049   1.654   4.340   7.261  0.6682  0.3683  0.4362
 1138SOL    HW115050   1.564   4.372   7.257  0.8751  1.2724  2.8113
 1138SOL    HW215051   1.659   4.287   7.181 -0.5198  1.2994 -0.2701
 1139SOL     OW15052   3.397   3.605   1.744 -0.1879 -0.7375  0.3287
 1139SOL    HW115053   3.463   3.580   1.679  0.1535 -0.5080  0.5899
 1139SOL    HW215054   3.317   3.591   1.693 -0.3634  1.2127  0.0673
 1140SOL     OW15055   1.337   1.148   2.665  0.3940  0.1671  0.2624
 1140SOL    HW115056   1.377   1.204   2.598 -1.6596  1.1562 -0.1499
 1140SOL    HW215057   1.413   1.115   2.712  1.2401  1.0854 -0.4714
 1141SOL     OW15058   2.899   2.427   5.684 -0.7781 -0.1403  0.2357
 1141SOL    HW115059   2.856   2.352   5.643 -2.5505  2.2983 -2.3700
 1141SOL    HW215060   2.956   2.460   5.614  1.7834  0.4074  2.6160
 1142SOL     OW15061   2.494   2.115   1.267 -0.2507 -0.0674  0.2343
 1142SOL    HW115062   2.484   2.081   1.178 -3.7105 -4.2166  2.1857
 1142SOL    HW215063   2.407   2.125   1.306 -0.7126  0.5457 -0.9404
 1143SOL     OW15064   4.625   0.184  14.423 -0.3680  0.0417 -0.6080
 1143SOL    HW115065   4.624   0.094  14.454 -1.7968 -0.5151 -2.2532
 1143SOL    HW215066   4.696   0.195  14.360 -0.7167  1.1404 -0.8149
 1144SOL     OW15067   1.607   3.715   8.752  0.4049  0.1475 -0.2498
 1144SOL    HW115068   1.521   3.725   8.793 -0.4702 -0.7294 -1.8655
 1144SOL    HW215069   1.598   3.777   8.680 -0.6000  1.5669  1.0765
 1145SOL     OW15070   1.828   3.989  14.622 -0.4131 -0.1231 -0.2601
 1145SOL    HW115071   1.903   4.048  14.615 -0.6744  0.1631 -0.6346
 1145SOL    HW215072   1.878   3.911  14.649  0.0588 -0.3845 -1.9043
 1146SOL     OW15073   1.145   0.461   2.188 -0.1225  0.3858  0.4023
 1146SOL    HW115074   1.186   0.538   2.148 -0.8124  0.6876  0.2644
 1146SOL    HW215075   1.103   0.424   2.110  1.2202  0.8694 -0.5577
 1147SOL     OW15076   2.151   3.350   5.584  0.3990 -0.0721 -0.4259
 1147SOL    HW115077   2.237   3.330   5.619 -0.0333 -2.1230 -0.5789
 1147SOL    HW215078   2.181   3.337   5.494  0.5189  2.7421 -0.8099
 1148SOL     OW15079   3.726   1.482   9.971  0.6499 -0.3135 -0.3887
 1148SOL    HW115080   3.669   1.409   9.945 -1.0420  0.9291 -0.1255
 1148SOL    HW215081   3.703   1.484  10.064 -0.4683 -2.3856 -0.6109
 1149SOL     OW15082   3.239   2.321   7.529  0.4979  0.2215 -0.4573
 1149SOL    HW115083   3.236   2.284   7.617 -0.9887  1.6201  0.0895
 1149SOL    HW215084   3.201   2.406   7.550  2.0569  0.3073  1.9480
 1150SOL     OW15085   3.590   1.664   7.795 -0.3473 -0.2372 -0.3902
 1150SOL    HW115086   3.664   1.609   7.821 -4.1469 -4.3162  1.7691
 1150SOL    HW215087   3.637   1.748   7.792 -0.8381  0.0172 -1.0122
 1151SOL     OW15088   0.914   1.106   8.800 -0.5682  0.1475  0.1032
 1151SOL    HW115089   0.974   1.103   8.725 -0.5956  0.3178  0.0737
 1151SOL    HW215090   0.883   1.016   8.803  2.6159 -0.9685  0.0267
 1152SOL     OW15091   3.107   2.756   3.642 -0.4472  0.8392 -0.1190
 1152SOL    HW115092   3.114   2.851   3.629 -0.7050  0.8161 -0.4168
 1152SOL    HW215093   3.135   2.755   3.734 -0.0435  0.0265 -0.2516
 1153SOL     OW15094   0.917   2.028   7.793 -0.5029 -0.0702 -0.5263
 1153SOL    HW115095   0.994   2.076   7.762 -1.0417  1.4995  0.5310
 1153SOL    HW215096   0.850   2.087   7.760 -0.7942  0.1795  0.4993
 1154SOL     OW15097   1.442   0.541   5.106 -0.3726 -0.5295  0.0902
 1154SOL    HW115098   1.502   0.518   5.177  1.2282  3.1969 -0.0459
 1154SOL    HW215099   1.490   0.577   5.031  1.0964  1.1882  1.8378
 1155SOL     OW15100   1.730   4.012   2.389 -0.0643 -0.5860 -0.8585
 1155SOL    HW115101   1.754   3.984   2.301  0.6363 -0.6986 -0.6282
 1155SOL    HW215102   1.808   3.987   2.439 -1.9442  1.5278  3.1641
 1156SOL     OW15103   3.718   1.828   9.126 -0.1566 -0.0587 -0.0571
 1156SOL    HW115104   3.786   1.894   9.113  0.9472 -0.5538  3.3057
 1156SOL    HW215105   3.776   1.757   9.099 -0.9842 -0.4584 -0.7820
 1157SOL     OW15106   4.093   4.156   0.982  0.3410  0.0409  0.0982
 1157SOL    HW115107   4.143   4.230   0.949  0.6657  0.0215  0.5466
 1157SOL    HW215108   4.121   4.168   1.072 -1.3945  2.0092  0.3669
 1158SOL     OW15109   1.767   1.764  11.983 -0.5814 -0.1369  0.0702
 1158SOL    HW115110   1.778   1.738  11.892 -0.9361  0.1806 -0.0631
 1158SOL    HW215111   1.760   1.860  11.982  2.2905  0.0636 -1.1401
 1159SOL     OW15112   3.329   3.889  14.084  0.2402  0.0723 -0.0303
 1159SOL    HW115113   3.384   3.841  14.022  0.1359  2.1869 -1.7762
 1159SOL    HW215114   3.384   3.892  14.162  1.6502 -0.6846 -0.9878
 1160SOL     OW15115   3.097   1.846   5.867 -0.6224  0.7114 -0.1344
 1160SOL    HW115116   3.148   1.926   5.875 -0.7149  0.6191  1.3716
 1160SOL    HW215117   3.087   1.818   5.959  1.7717 -0.2916 -0.1874
 1161SOL     OW15118   0.171   1.722   2.405  0.1182 -0.0162  0.0095
 1161SOL    HW115119   0.081   1.691   2.406 -0.6101  2.0668 -0.8675
 1161SOL    HW215120   0.212   1.649   2.360 -0.9058  0.1658 -1.1981
 1162SOL     OW15121   4.001   1.033   2.102  0.0176  0.4763 -0.0283
 1162SOL    HW115122   4.063   1.061   2.169 -0.9483  1.9637  0.2430
 1162SOL    HW215123   4.030   1.107   2.050  2.7622 -0.4767  0.1294
 1163SOL     OW15124   2.574   3.862   4.700  0.3209 -0.2680  0.0955
 1163SOL    HW115125   2.543   3.779   4.736 -1.6952  1.8712  3.2865
 1163SOL    HW215126   2.535   3.926   4.759  0.4809 -0.3570  0.2942
 1164SOL     OW15127   3.686   3.598   4.328 -0.1200  0.1770  0.5087
 1164SOL    HW115128   3.644   3.574   4.246 -0.6484 -1.6082  1.3045
 1164SOL    HW215129   3.659   3.515   4.367  0.7211  0.2278  1.1916
 1165SOL     OW15130   3.628   2.057  16.173  0.2150 -0.2165 -0.3316
 1165SOL    HW115131   3.590   2.041  16.259  0.8197 -0.6129 -0.1392
 1165SOL    HW215132   3.615   2.149  16.152  1.0212  0.1247  0.6641
 1166SOL     OW15133   1.298   1.933   1.086  0.1077  0.6409  0.0305
 1166SOL    HW115134   1.275   1.962   0.998  1.5520  0.4256 -0.4225
 1166SOL    HW215135   1.280   2.006   1.145 -1.1821 -2.3330  3.3027
 1167SOL     OW15136   4.562   3.551   2.771 -0.3723  0.3200 -0.2661
 1167SOL    HW115137   4.613   3.621   2.731 -2.2463  2.3033  0.8128
 1167SOL    HW215138   4.481   3.539   2.720  0.6046 -2.5055 -1.1660
 1168SOL     OW15139   1.579   0.594  17.112  0.3507 -0.6172  0.0808
 1168SOL    HW115140   1.506   0.641  17.072  0.1120 -0.4394  0.7166
 1168SOL    HW215141   1.634   0.570  17.038  0.9991  0.3209  0.2679
 1169SOL     OW15142   2.132   0.902  17.138  0.1505  0.6397 -0.1446
 1169SOL    HW115143   2.228   0.905  17.141  0.1339  0.9117  0.0603
 1169SOL    HW215144   2.104   0.991  17.155 -2.4091  0.2371 -2.3128
 1170SOL     OW15145   1.236   0.726   8.880  0.6119  0.3087  1.1869
 1170SOL    HW115146   1.324   0.720   8.843  0.1255 -2.2751  0.4790
 1170SOL    HW215147   1.225   0.639   8.917  2.0000 -0.5386 -0.3712
 1171SOL     OW15148   2.283   2.196   2.542 -0.9592  0.5523  1.0276
 1171SOL    HW115149   2.219   2.262   2.514 -1.6554 -0.0797  1.1232
 1171SOL    HW215150   2.340   2.258   2.586  0.7469 -0.6189  0.4803
 1172SOL     OW15151   2.091   4.661  12.696  0.0027  0.3913 -0.1230
 1172SOL    HW115152   2.166   4.621  12.653  0.7573  2.0231 -0.3426
 1172SOL    HW215153   2.040   4.580  12.693 -3.1212  2.3444  0.3371
 1173SOL     OW15154   3.923   0.389   1.994  0.4577 -0.0993 -0.0485
 1173SOL    HW115155   3.937   0.310   1.943  2.3139  1.3666 -1.8389
 1173SOL    HW215156   3.898   0.460   1.935  3.0530 -1.2785 -2.5265
 1174SOL     OW15157   1.859   2.597  11.331 -0.4292 -0.0436  0.5519
 1174SOL    HW115158   1.946   2.588  11.371  0.1328 -0.1420 -0.6886
 1174SOL    HW215159   1.797   2.562  11.395  0.9582  0.1086  2.0016
 1175SOL     OW15160   3.132   3.503   8.530  0.6614 -0.0454  0.2728
 1175SOL    HW115161   3.227   3.497   8.526  0.7852  0.6605  1.9180
 1175SOL    HW215162   3.105   3.561   8.459 -0.8968 -2.8074 -1.3877
 1176SOL     OW15163   2.063   3.682   4.894  0.0230  0.0647  0.1389
 1176SOL    HW115164   1.988   3.699   4.837 -0.1533  0.7975  0.5871
 1176SOL    HW215165   2.029   3.703   4.981  0.8556  1.0193  0.2367
 1177SOL     OW15166   3.990   0.249  12.718 -0.4887  0.1078 -0.2869
 1177SOL    HW115167   3.992   0.323  12.779 -1.5587 -0.4105  0.3723
 1177SOL    HW215168   4.034   0.185  12.773 -0.5245 -1.3041 -1.9209
 1178SOL     OW15169   2.898   4.218   8.440  0.4236 -0.2756 -0.1197
 1178SOL    HW115170   2.971   4.261   8.396 -0.7410  0.5719 -1.2494
 1178SOL    HW215171   2.826   4.273   8.407 -1.6065 -2.2699  0.9825
 1179SOL     OW15172   1.832   1.512   0.180  0.4200 -0.6160 -0.5204
 1179SOL    HW115173   1.752   1.535   0.228  0.8068 -0.5271  0.0825
 1179SOL    HW215174   1.866   1.595   0.146  1.9661 -1.1196 -0.1871
 1180SOL     OW15175   4.131   3.852   0.195  0.2809 -0.0071  0.1806
 1180SOL    HW115176   4.215   3.894   0.175  1.1172 -1.9074 -0.3214
 1180SOL    HW215177   4.139   3.761   0.167 -0.1651  0.5571 -1.8009
 1181SOL     OW15178   3.150   1.081   3.661 -0.3386 -0.2656 -0.2258
 1181SOL    HW115179   3.243   1.094   3.643 -0.7177 -0.3321 -2.2507
 1181SOL    HW215180   3.159   1.061   3.754  1.1392 -0.1877 -0.3636
 1182SOL     OW15181   0.704   2.258   6.903 -0.0028 -0.9036  0.0399
 1182SOL    HW115182   0.617   2.221   6.921 -1.3448  2.6349  0.7959
 1182SOL    HW215183   0.689   2.292   6.814 -0.6388  3.2922  1.7389
 1183SOL     OW15184   1.110   0.294   1.419  0.5733  0.4176 -0.0206
 1183SOL    HW115185   1.083   0.224   1.478  0.2349 -0.1372 -0.8429
 1183SOL    HW215186   1.092   0.261   1.331 -2.4834  0.5321  0.5535
 1184SOL     OW15187   2.145   2.619   4.137 -0.4668 -0.0185  0.4810
 1184SOL    HW115188   2.157   2.622   4.231  1.9312 -1.1464  0.2046
 1184SOL    HW215189   2.061   2.663   4.146 -0.5088 -0.0547  0.2753
 1185SOL     OW15190   2.973   3.199  11.832 -0.2731  0.1109  0.0228
 1185SOL    HW115191   3.055   3.248  11.827  1.3772 -2.6879 -0.6869
 1185SOL    HW215192   2.936   3.250  11.904  0.8264 -1.1925  1.5081
 1186SOL     OW15193   2.511   1.997   2.849 -0.3301 -0.2464 -0.0431
 1186SOL    HW115194   2.541   1.941   2.778  0.7977  0.5317 -0.1875
 1186SOL    HW215195   2.565   2.071   2.823  1.1538 -1.9805 -1.8830
 1187SOL     OW15196   1.808   4.604   8.084 -0.5628  0.3964  0.1639
 1187SOL    HW115197   1.771   4.524   8.120  2.0456 -0.0918  1.7802
 1187SOL    HW215198   1.880   4.618   8.146 -1.7723  2.8818  1.0501
 1188SOL     OW15199   2.821   4.487   8.926 -0.2113 -0.0843 -0.2432
 1188SOL    HW115200   2.744   4.457   8.876  0.2727  0.8039 -1.5063
 1188SOL    HW215201   2.883   4.428   8.882  0.1104 -1.2228  1.7577
 1189SOL     OW15202   1.937   0.899  15.845  0.2644  0.1666  0.8081
 1189SOL    HW115203   1.893   0.855  15.773 -0.2733  2.1692 -0.0920
 1189SOL    HW215204   1.915   0.988  15.817  0.8339  0.1009  0.1405
 1190SOL     OW15205   3.698   2.887   2.995  0.0702 -0.5029  0.3493
 1190SOL    HW115206   3.638   2.858   3.063 -0.9489 -1.2319 -0.8558
 1190SOL    HW215207   3.697   2.810   2.938 -0.2062 -0.9070  0.9023
 1191SOL     OW15208   2.104   3.038   2.442 -0.2952  0.8701  0.5903
 1191SOL    HW115209   2.029   2.990   2.405 -0.4553  1.1072  0.6055
 1191SOL    HW215210   2.071   3.124   2.468  2.8632  1.6101  2.1236
 1192SOL     OW15211   1.299   1.686   5.272  0.0808  0.0829  0.6584
 1192SOL    HW115212   1.371   1.739   5.306  0.0083  1.5066 -1.4024
 1192SOL    HW215213   1.323   1.598   5.302  0.6395  0.5515  1.5872
 1193SOL     OW15214   2.687   0.447   0.885 -0.1814 -0.0588 -0.0835
 1193SOL    HW115215   2.663   0.506   0.814  0.9879 -0.1795 -0.5737
 1193SOL    HW215216   2.742   0.388   0.835  0.6518 -0.2900  1.0948
 1194SOL     OW15217   1.653   0.974   5.913  0.6139  0.3839  0.2908
 1194SOL    HW115218   1.673   0.912   5.983  0.8937  2.2197  1.8549
 1194SOL    HW215219   1.664   1.057   5.960 -0.4041  0.7078 -0.0508
 1195SOL     OW15220   0.902   0.796   1.118  0.0720  0.3712  0.1262
 1195SOL    HW115221   0.864   0.877   1.084 -0.6330  0.6774  1.6355
 1195SOL    HW215222   0.855   0.729   1.067 -0.0329  0.0745  0.6132
 1196SOL     OW15223   2.903   0.858   9.989  0.0412 -0.0234 -0.1245
 1196SOL    HW115224   2.884   0.771  10.023  0.9411 -0.6649 -1.2754
 1196SOL    HW215225   2.902   0.911  10.070 -0.9944  1.5040 -1.1340
 1197SOL     OW15226   2.885   0.087  13.024  0.0050  0.4387  0.2949
 1197SOL    HW115227   2.975   0.100  12.995  0.1158 -0.4655  0.2646
 1197SOL    HW215228   2.900   0.073  13.118 -2.1120  1.5275  0.8009
 1198SOL     OW15229   4.313   1.819   4.365  0.2377  0.1821 -0.6210
 1198SOL    HW115230   4.226   1.780   4.359  0.0011  0.4356  0.9984
 1198SOL    HW215231   4.367   1.752   4.323 -2.1926 -1.4000 -1.1721
 1199SOL     OW15232   2.649   0.850   2.073 -0.1440  0.8710 -0.2332
 1199SOL    HW115233   2.617   0.761   2.058 -3.8488  1.8452  1.9040
 1199SOL    HW215234   2.723   0.824   2.128 -1.3309 -1.4376  0.2380
 1200SOL     OW15235   0.114   1.992   0.003  0.0636 -0.2662  1.0384
 1200SOL    HW115236   0.201   1.994  17.705 -0.4337 -1.3653 -0.1293
 1200SOL    HW215237   0.124   1.924   0.069  0.0514  0.6457  1.9749
 1201SOL     OW15238   0.897   2.039   6.938 -0.0870 -0.0251  0.0496
 1201SOL    HW115239   0.841   2.116   6.954  0.5096  0.2526  0.7696
 1201SOL    HW215240   0.907   2.045   6.843  1.3328 -0.1295  0.1910
 1202SOL     OW15241   2.415   3.925  15.566 -0.5578 -0.5283 -0.0721
 1202SOL    HW115242   2.422   3.868  15.642  1.4085  3.8062  3.0099
 1202SOL    HW215243   2.338   3.879  15.533 -1.9612  0.6613  1.5267
 1203SOL     OW15244   0.755   1.196  15.145 -0.2467  0.1429 -0.6017
 1203SOL    HW115245   0.685   1.174  15.207 -0.5125  0.7717 -0.6789
 1203SOL    HW215246   0.815   1.121  15.142  1.7313  1.6628  0.4746
 1204SOL     OW15247   1.027   1.491   1.764 -0.4150 -0.4187 -0.7866
 1204SOL    HW115248   1.026   1.456   1.675 -3.0236  1.3677 -1.4680
 1204SOL    HW215249   1.008   1.406   1.805  0.1679 -0.1563  0.0257
 1205SOL     OW15250   2.074   3.665   3.533  0.5565 -0.1743 -0.0742
 1205SOL    HW115251   1.982   3.641   3.539  0.4815 -0.0715 -0.8694
 1205SOL    HW215252   2.069   3.760   3.534 -1.0770 -0.2560 -0.7300
 1206SOL     OW15253   1.581   1.693   5.368  0.2074  0.6089  0.4493
 1206SOL    HW115254   1.644   1.653   5.428  0.3142 -0.8665 -0.6352
 1206SOL    HW215255   1.532   1.742   5.433 -1.0374  0.2100 -0.1944
 1207SOL     OW15256   0.570   0.527   8.747  0.5139 -0.5835  0.5153
 1207SOL    HW115257   0.631   0.486   8.808  0.1141 -0.8325  0.7437
 1207SOL    HW215258   0.634   0.561   8.684 -0.1313  0.3121  0.3530
 1208SOL     OW15259   3.332   2.835   0.598 -0.2040 -0.1411 -0.4079
 1208SOL    HW115260   3.312   2.907   0.539 -0.1763  1.8511  2.0397
 1208SOL    HW215261   3.386   2.876   0.665 -0.1607 -0.9023  0.0227
 1209SOL     OW15262   2.294   0.547   2.136  0.9934 -0.6653 -0.8355
 1209SOL    HW115263   2.291   0.453   2.121  0.7007 -0.5822 -1.2903
 1209SOL    HW215264   2.332   0.547   2.224  1.4234  2.0001 -1.0032
 1210SOL     OW15265   4.597   0.406  11.316  0.9674  0.4362 -0.3965
 1210SOL    HW115266   4.656   0.331  11.310  0.8414  0.3191 -0.1683
 1210SOL    HW215267   4.664   0.463  11.353 -0.5593  1.5120  0.6876
 1211SOL     OW15268   2.544   1.629   3.084  0.0279  0.4704  0.3150
 1211SOL    HW115269   2.635   1.653   3.068  0.1759 -1.5556 -1.7735
 1211SOL    HW215270   2.500   1.713   3.101  2.2505  1.5154  0.9013
 1212SOL     OW15271   3.393   2.404   1.767  0.4771  0.1094  0.7313
 1212SOL    HW115272   3.466   2.457   1.799  0.1558  0.6508  0.5645
 1212SOL    HW215273   3.328   2.473   1.756  1.4545  1.0628  0.9547
 1213SOL     OW15274   3.265   1.105  12.579 -0.2188 -0.3788 -0.1792
 1213SOL    HW115275   3.360   1.118  12.574 -0.1586 -0.6243  0.3236
 1213SOL    HW215276   3.260   1.016  12.614  1.2135 -0.2954  0.2456
 1214SOL     OW15277   2.382   4.345   4.393 -0.8677  0.2091 -0.2192
 1214SOL    HW115278   2.461   4.300   4.422 -0.5927  2.2378  2.1238
 1214SOL    HW215279   2.318   4.277   4.374 -1.9527  0.9070  0.8927
 1215SOL     OW15280   4.076   0.614   2.573  0.6440  0.0149  0.8073
 1215SOL    HW115281   4.047   0.668   2.647  1.0808  1.2684  0.0707
 1215SOL    HW215282   3.992   0.580   2.544  0.8421  1.1560 -1.1199
 1216SOL     OW15283   2.698   1.891   5.310 -0.5884 -0.2000  0.5304
 1216SOL    HW115284   2.696   1.835   5.387 -1.5855  0.6445  1.1112
 1216SOL    HW215285   2.606   1.878   5.284 -0.0653  2.1613 -2.5004
 1217SOL     OW15286   1.771   4.389   1.666 -0.1248 -0.5337 -0.1447
 1217SOL    HW115287   1.844   4.409   1.724 -1.0908  0.5509  0.6835
 1217SOL    HW215288   1.712   4.462   1.682  0.7842  0.6682 -2.2428
 1218SOL     OW15289   2.037   0.489   7.630 -0.4656  0.3994  0.0904
 1218SOL    HW115290   1.949   0.508   7.598 -0.9436 -2.9070 -0.5610
 1218SOL    HW215291   2.073   0.429   7.565 -2.6466  1.3864 -2.0429
 1219SOL     OW15292   1.871   0.681   6.572  0.1600  0.1219 -0.4299
 1219SOL    HW115293   1.851   0.590   6.549 -1.4541  0.3463  0.0792
 1219SOL    HW215294   1.947   0.667   6.628  0.7862 -0.1669 -1.3408
 1220SOL     OW15295   3.829   0.903  10.135  0.0327  0.3843 -0.3728
 1220SOL    HW115296   3.741   0.920  10.102  0.1737  0.8597 -0.5000
 1220SOL    HW215297   3.872   0.986  10.115 -1.5457  0.2399 -4.3173
 1221SOL     OW15298   4.236   1.624   9.898 -0.0767 -0.1307 -0.1398
 1221SOL    HW115299   4.287   1.654   9.974  0.6954  0.9362 -1.0772
 1221SOL    HW215300   4.178   1.563   9.943 -1.2559  0.9035 -0.2738
 1222SOL     OW15301   1.916   2.119   6.557 -0.1537 -0.0782  0.1058
 1222SOL    HW115302   1.867   2.201   6.558 -2.0348 -1.1503 -3.1514
 1222SOL    HW215303   1.852   2.056   6.590  1.0828 -1.3019  0.1311
 1223SOL     OW15304   2.257   1.172   7.476 -0.2627  0.6537 -0.2021
 1223SOL    HW115305   2.323   1.114   7.515  1.1598  0.1182 -3.4214
 1223SOL    HW215306   2.312   1.239   7.437 -1.2175  1.3045 -0.4297
 1224SOL     OW15307   3.574   2.989   9.749 -0.9401  0.5298 -0.1062
 1224SOL    HW115308   3.601   3.077   9.777 -3.5113  0.8471  1.3098
 1224SOL    HW215309   3.590   2.984   9.655  2.3864  1.0869  0.4375
 1225SOL     OW15310   0.494   1.460  17.514  0.0824  0.5020  0.5499
 1225SOL    HW115311   0.495   1.502  17.600 -0.2803  0.7380  0.4400
 1225SOL    HW215312   0.550   1.383  17.518  0.0300  0.4027 -0.8821
 1226SOL     OW15313   2.746   0.428   6.838  0.2525  0.1579 -0.2822
 1226SOL    HW115314   2.787   0.347   6.805 -2.9215 -1.4906 -0.1334
 1226SOL    HW215315   2.739   0.411   6.932 -0.4675 -0.6681 -0.4827
 1227SOL     OW15316   3.640   3.365  16.071 -0.0928 -0.1018 -0.0038
 1227SOL    HW115317   3.710   3.425  16.099 -0.0276  0.1413 -0.6782
 1227SOL    HW215318   3.653   3.368  15.976 -2.3954  1.3132 -0.2646
 1228SOL     OW15319   3.774   3.985   5.985 -0.0148  0.2725 -0.0875
 1228SOL    HW115320   3.728   3.933   5.920  0.6168  0.5553 -0.7613
 1228SOL    HW215321   3.736   3.949   6.064 -0.5695  0.5308 -0.2392
 1229SOL     OW15322   0.712   2.031  16.271  0.0120 -0.6017  0.1902
 1229SOL    HW115323   0.762   2.034  16.189 -1.8700 -1.0357 -0.9524
 1229SOL    HW215324   0.655   1.955  16.264 -1.4275  0.5294 -0.2781
 1230SOL     OW15325   4.573   2.300   6.698  0.1286  0.1863  0.3785
 1230SOL    HW115326   4.610   2.358   6.764  1.9540  0.2127 -0.6621
 1230SOL    HW215327   4.596   2.347   6.618 -1.6388  1.5127  0.6348
 1231SOL     OW15328   3.942   4.347   5.445 -0.5972 -0.0229 -0.1180
 1231SOL    HW115329   4.035   4.371   5.442 -0.6596  0.4902  2.0781
 1231SOL    HW215330   3.904   4.425   5.406  2.5273  1.8280  0.5246
 1232SOL     OW15331   0.773   3.398   4.124 -0.7990  0.0770  0.1571
 1232SOL    HW115332   0.679   3.384   4.138 -0.6462 -0.9772  0.1306
 1232SOL    HW215333   0.794   3.395   4.217 -0.2268 -1.7590 -0.0341
 1233SOL     OW15334   0.975   2.544  13.320 -0.2029  0.3368  0.1489
 1233SOL    HW115335   0.885   2.533  13.351  0.6066 -0.9288  2.0062
 1233SOL    HW215336   1.008   2.458  13.296 -0.0833  0.3546  0.2472
 1234SOL     OW15337   4.114   0.110   2.601  0.4736  0.0788  0.5011
 1234SOL    HW115338   4.063   0.038   2.639 -0.3058  0.9519  1.1265
 1234SOL    HW215339   4.051   0.183   2.600  0.8514  0.3829 -0.8704
 1235SOL     OW15340   1.482   4.477   6.420  0.8594  0.4314  0.0316
 1235SOL    HW115341   1.545   4.532   6.373  0.3137  1.8167  0.9289
 1235SOL    HW215342   1.429   4.456   6.343 -1.1777 -3.4821  2.4821
 1236SOL     OW15343   4.022   2.161   3.009 -0.2198  0.0090  0.3554
 1236SOL    HW115344   3.935   2.166   3.049 -0.8677 -1.1827 -0.8784
 1236SOL    HW215345   4.007   2.091   2.945 -0.0840  1.3018 -1.0907
 1237SOL     OW15346   4.458   0.768   7.854  0.7883 -0.1825 -0.4538
 1237SOL    HW115347   4.525   0.814   7.905  0.5886  1.4149 -1.6533
 1237SOL    HW215348   4.407   0.721   7.920  2.6825  1.1472  1.9880
 1238SOL     OW15349   1.282   0.124   9.709  0.3248  0.3155  0.4061
 1238SOL    HW115350   1.352   0.066   9.739  0.2966  1.7006  3.1269
 1238SOL    HW215351   1.304   0.200   9.762 -1.6807 -0.5577  2.4958
 1239SOL     OW15352   3.013   4.274  15.372  0.4148 -0.4299 -0.1022
 1239SOL    HW115353   3.051   4.317  15.296  0.3798  1.9012  1.1873
 1239SOL    HW215354   3.081   4.300  15.434  0.3412 -0.9996  0.2165
 1240SOL     OW15355   1.339   0.894  13.381  0.2035 -0.2375 -0.2229
 1240SOL    HW115356   1.409   0.958  13.396 -0.2900  0.2319  0.0375
 1240SOL    HW215357   1.323   0.849  13.464  1.8453 -1.4842 -0.5648
 1241SOL     OW15358   3.015   1.329   1.770  0.0611 -0.0158  0.4540
 1241SOL    HW115359   3.020   1.406   1.713 -1.7003 -2.2814 -2.8013
 1241SOL    HW215360   3.062   1.368   1.844  1.2826  1.0401 -0.8745
 1242SOL     OW15361   1.368   2.012   8.311  0.2927 -0.2190  0.3104
 1242SOL    HW115362   1.375   2.106   8.294  2.5744 -0.8779 -2.3822
 1242SOL    HW215363   1.308   1.984   8.242  0.5514 -1.3165  0.5198
 1243SOL     OW15364   3.286   3.492  14.102 -0.4591  0.3999  0.1386
 1243SOL    HW115365   3.302   3.529  14.189  1.1632  1.0734 -0.4578
 1243SOL    HW215366   3.247   3.409  14.132 -0.4592 -0.0514 -1.1059
 1244SOL     OW15367   3.145   2.758   3.921  0.1419 -0.0393  0.0124
 1244SOL    HW115368   3.165   2.680   3.973 -1.2279 -0.3189  0.1159
 1244SOL    HW215369   3.152   2.829   3.985  0.3155  0.5049 -0.6101
 1245SOL     OW15370   1.663   2.275   9.548  0.1189  0.5146 -0.2047
 1245SOL    HW115371   1.616   2.262   9.630 -2.9128 -0.5038 -2.1024
 1245SOL    HW215372   1.755   2.262   9.571 -0.1303 -1.5389 -0.3183
 1246SOL     OW15373   0.534   2.558   5.409 -0.4720 -0.0511  0.4973
 1246SOL    HW115374   0.543   2.567   5.314 -0.3175 -0.1646  0.5017
 1246SOL    HW215375   0.477   2.629   5.438 -2.0197 -1.3763  0.7044
 1247SOL     OW15376   1.759   3.984   9.300 -0.3219  0.3454 -0.2368
 1247SOL    HW115377   1.674   4.028   9.297 -0.3697  0.1433 -1.9399
 1247SOL    HW215378   1.821   4.050   9.332 -3.1399  3.1632 -0.5211
 1248SOL     OW15379   2.755   1.351   8.229 -0.0913 -0.4367  0.7559
 1248SOL    HW115380   2.679   1.354   8.288  0.8743 -1.6511  2.0579
 1248SOL    HW215381   2.795   1.267   8.249 -0.4512 -0.8371 -0.2324
 1249SOL     OW15382   2.855   4.707  13.975  0.0201  0.1895 -0.3077
 1249SOL    HW115383   2.887   4.658  13.900 -0.7585 -0.5919 -0.1190
 1249SOL    HW215384   2.922   0.040  13.982 -0.0933  0.4352 -1.6213
 1250SOL     OW15385   4.382   0.718   3.836 -0.4130 -0.4042  0.1348
 1250SOL    HW115386   4.450   0.667   3.792  1.5864  1.2945  1.2584
 1250SOL    HW215387   4.350   0.782   3.772 -0.4890 -1.8249 -1.2550
 1251SOL     OW15388   3.990   1.623  11.925 -0.0298  0.1983  0.1165
 1251SOL    HW115389   3.900   1.605  11.895  0.6716 -0.4624 -1.6143
 1251SOL    HW215390   3.963   1.645  12.014 -4.3346  0.6822 -1.2880
 1252SOL     OW15391   1.018   3.954  14.747 -0.3439 -0.1873 -0.0914
 1252SOL    HW115392   0.990   3.986  14.833  0.6847 -0.6858  0.4204
 1252SOL    HW215393   1.076   3.885  14.778 -0.2955 -0.5389 -0.9790
 1253SOL     OW15394   1.174   1.478   4.306  0.5113 -0.0656  0.1830
 1253SOL    HW115395   1.097   1.427   4.330  0.5903 -0.3692 -0.2089
 1253SOL    HW215396   1.225   1.466   4.387 -0.1208  0.7091  0.6948
 1254SOL     OW15397   3.062   3.991   9.737  0.2734 -0.1118  0.3904
 1254SOL    HW115398   3.109   4.074   9.742 -0.4221  0.2606  0.7795
 1254SOL    HW215399   3.004   4.002   9.662 -0.5274 -2.5623  0.6352
 1255SOL     OW15400   1.439   1.324   6.019  0.2135  0.6548 -0.3001
 1255SOL    HW115401   1.393   1.360   6.095  1.2002 -1.6530  1.3837
 1255SOL    HW215402   1.379   1.251   6.001 -1.3566  1.6071  1.0863
 1256SOL     OW15403   2.551   1.812  12.724  0.3594 -1.0628 -0.0393
 1256SOL    HW115404   2.572   1.802  12.631  1.0400 -0.2912  0.0373
 1256SOL    HW215405   2.629   1.774  12.764  0.5048  0.8480  1.4668
 1257SOL     OW15406   3.592   4.539   3.004 -0.1197 -0.2460  0.3754
 1257SOL    HW115407   3.503   4.504   3.017 -0.4504  0.4483 -0.0108
 1257SOL    HW215408   3.577   4.621   2.957  1.9510  0.1407  0.4163
 1258SOL     OW15409   0.617   0.387   5.964 -0.2279  0.1817 -0.1842
 1258SOL    HW115410   0.549   0.327   5.933 -0.7133  0.7826 -0.2748
 1258SOL    HW215411   0.572   0.466   5.934  0.6972 -0.3407 -2.9899
 1259SOL     OW15412   2.016   4.688  11.564 -0.8597 -0.0321  0.9773
 1259SOL    HW115413   1.961   4.693  11.642  0.7816  0.4166  2.1186
 1259SOL    HW215414   2.100   4.658  11.599 -0.8350 -1.1145 -0.0339
 1260SOL     OW15415   1.596   2.422   8.355  0.2476 -0.4470  0.1236
 1260SOL    HW115416   1.662   2.357   8.332  0.3369 -0.6292  0.8939
 1260SOL    HW215417   1.639   2.463   8.430  0.7177  0.1284 -0.4621
 1261SOL     OW15418   0.242   3.797  16.098  0.3410 -0.2139 -0.4451
 1261SOL    HW115419   0.328   3.840  16.102 -1.2477  2.8404  0.9563
 1261SOL    HW215420   0.188   3.872  16.075  4.1653  2.3341 -1.0872
 1262SOL     OW15421   4.111   3.801   0.877 -0.6433 -0.4853 -0.3729
 1262SOL    HW115422   4.070   3.874   0.831 -0.3521 -0.5896 -0.8038
 1262SOL    HW215423   4.056   3.725   0.858 -0.8671 -0.5462  0.5270
 1263SOL     OW15424   0.324   0.208   8.516 -0.4007 -0.3706  0.1647
 1263SOL    HW115425   0.304   0.212   8.609 -2.5640 -0.7310 -0.2792
 1263SOL    HW215426   0.236   0.230   8.485 -0.7363 -1.1971  0.5348
 1264SOL     OW15427   1.010   2.186   0.997 -0.1064  0.4525 -0.0322
 1264SOL    HW115428   1.039   2.113   0.943 -2.2068  1.0775 -2.0061
 1264SOL    HW215429   0.949   2.232   0.938 -0.2631  0.9095  0.4887
 1265SOL     OW15430   3.540   4.137   3.737 -0.0575  0.7517 -0.2782
 1265SOL    HW115431   3.452   4.140   3.774  0.5013  2.4968  0.8676
 1265SOL    HW215432   3.544   4.220   3.691  2.3348  1.0624  0.4401
 1266SOL     OW15433   0.723   3.539   6.225 -0.0634  0.2243 -0.1611
 1266SOL    HW115434   0.755   3.454   6.195  0.0329  1.6166 -4.0957
 1266SOL    HW215435   0.645   3.552   6.172  1.6679  3.9051 -1.8230
 1267SOL     OW15436   3.598   3.858   5.235  0.3430  0.3251 -0.8213
 1267SOL    HW115437   3.576   3.898   5.151 -3.2684  0.1512  0.0284
 1267SOL    HW215438   3.570   3.932   5.289 -1.3136 -0.9341  0.0777
 1268SOL     OW15439   1.679   3.180  13.277 -0.3125  0.1616 -0.5414
 1268SOL    HW115440   1.745   3.126  13.233  0.6412  1.9419 -1.2721
 1268SOL    HW215441   1.654   3.238  13.205 -0.8701  0.7308  0.1149
 1269SOL     OW15442   4.411   2.747  10.367  0.4564  0.1939  0.1709
 1269SOL    HW115443   4.346   2.738  10.297  0.9798 -0.5640 -0.2291
 1269SOL    HW215444   4.356   2.757  10.444 -0.7804  0.2468 -0.7313
 1270SOL     OW15445   3.759   4.027   6.994 -0.4500  0.0595  0.4516
 1270SOL    HW115446   3.712   3.944   7.000  0.5319 -0.5750 -0.5328
 1270SOL    HW215447   3.694   4.065   6.935  0.1818  2.6519  1.4165
 1271SOL     OW15448   3.401   2.342   8.317 -0.0221  0.1570 -0.5595
 1271SOL    HW115449   3.412   2.261   8.268  0.2665 -0.3988  0.4358
 1271SOL    HW215450   3.327   2.369   8.263  0.5232  1.5126 -0.6509
 1272SOL     OW15451   3.859   3.490  15.479 -0.4487 -0.5420  0.0420
 1272SOL    HW115452   3.855   3.525  15.568 -2.2030 -0.3016 -0.1293
 1272SOL    HW215453   3.952   3.477  15.465 -0.0517  1.7189  0.5444
 1273SOL     OW15454   1.760   3.497   7.605  0.3506  1.2901  0.2101
 1273SOL    HW115455   1.732   3.511   7.514 -0.9876 -2.4002  0.0406
 1273SOL    HW215456   1.747   3.403   7.619  2.1285  1.1727  1.0612
 1274SOL     OW15457   1.661   0.236  16.482  0.0160  0.5010  0.2814
 1274SOL    HW115458   1.750   0.249  16.515  0.0569 -1.0326  0.7637
 1274SOL    HW215459   1.659   0.314  16.427  1.8042  1.2727  1.2900
 1275SOL     OW15460   1.853   3.211   2.726 -0.3979  0.1429 -0.7207
 1275SOL    HW115461   1.909   3.224   2.650  0.6592 -0.5205 -0.0564
 1275SOL    HW215462   1.838   3.296   2.767 -3.7779 -1.2567  0.9906
 1276SOL     OW15463   1.612   3.268  13.679 -0.0962 -0.0027  0.2463
 1276SOL    HW115464   1.660   3.211  13.619 -0.0363  0.2670  0.0377
 1276SOL    HW215465   1.620   3.216  13.759 -1.0312 -0.3879  0.0891
 1277SOL     OW15466   4.214   0.240   9.470 -0.1930 -0.3909  0.0361
 1277SOL    HW115467   4.260   0.173   9.521  0.9534  0.0684 -0.4124
 1277SOL    HW215468   4.279   0.286   9.418  2.2626 -0.8829  2.6706
 1278SOL     OW15469   0.148   3.439  12.391 -0.1720  0.4588  0.4876
 1278SOL    HW115470   0.088   3.374  12.426 -0.1920  1.5686  2.5233
 1278SOL    HW215471   0.213   3.438  12.461  0.0202 -1.6367  0.2714
 1279SOL     OW15472   4.396   0.154   5.407 -0.0029  0.0660 -0.7099
 1279SOL    HW115473   4.339   0.129   5.480  0.1047  1.4361 -0.1607
 1279SOL    HW215474   4.465   0.206   5.447  0.2733 -0.0035 -1.0978
 1280SOL     OW15475   0.012   1.851  17.506  0.3133  0.1504  0.1047
 1280SOL    HW115476   0.090   1.892  17.471 -0.5393  1.9942  0.3310
 1280SOL    HW215477   4.721   1.800  17.430 -1.8515  2.9449 -1.0454
 1281SOL     OW15478   2.293   0.468  16.558 -0.3286  0.0318  0.5212
 1281SOL    HW115479   2.357   0.447  16.626 -0.4079  1.2177  0.9694
 1281SOL    HW215480   2.221   0.514  16.602 -1.5342 -1.2397 -0.1202
 1282SOL     OW15481   2.251   2.569   7.695  0.0137 -0.0424 -0.7087
 1282SOL    HW115482   2.300   2.530   7.767 -1.9044 -0.0207  0.6187
 1282SOL    HW215483   2.160   2.574   7.724  0.0651  1.0042 -0.7323
 1283SOL     OW15484   3.521   2.970   5.274 -0.0258  0.0420  0.0351
 1283SOL    HW115485   3.562   2.930   5.197  1.3524  0.5916  0.4786
 1283SOL    HW215486   3.441   2.918   5.278 -0.3581  0.4585 -1.1696
 1284SOL     OW15487   3.945   2.796   6.898 -0.6382 -0.6416  0.1599
 1284SOL    HW115488   3.908   2.765   6.816  1.3926 -4.0531  0.5348
 1284SOL    HW215489   4.031   2.753   6.890 -0.7574 -0.6265 -1.2492
 1285SOL     OW15490   0.241   1.454   5.085  0.4277  0.6309  0.3403
 1285SOL    HW115491   0.192   1.375   5.063 -0.9941  1.4763  0.4951
 1285SOL    HW215492   0.169   1.506   5.120 -1.3906 -1.0197 -0.9982
 1286SOL     OW15493   4.092   1.721   4.271  0.5467  0.1134  0.2084
 1286SOL    HW115494   4.027   1.651   4.279 -2.5872  2.7146 -2.3262
 1286SOL    HW215495   4.033   1.790   4.241  0.6725 -0.1524 -0.6807
 1287SOL     OW15496   3.809   3.397   3.765  0.2131 -0.5412 -0.1789
 1287SOL    HW115497   3.834   3.353   3.683  0.9414  1.4219 -1.0080
 1287SOL    HW215498   3.723   3.429   3.738  1.1601  2.1511  0.0221
 1288SOL     OW15499   4.008   3.949   5.662  0.0397  0.3420  0.2505
 1288SOL    HW115500   4.008   4.028   5.717 -0.4887 -0.1964  1.0271
 1288SOL    HW215501   3.939   3.986   5.607  0.5088  1.2913  0.2907
 1289SOL     OW15502   3.164   1.766   8.832 -0.5095  0.3257  0.5120
 1289SOL    HW115503   3.155   1.853   8.794  0.3835 -0.3671 -1.2859
 1289SOL    HW215504   3.244   1.772   8.885 -0.3669  0.5288  0.2700
 1290SOL     OW15505   0.211   2.280   5.508 -0.3559 -0.6217 -0.1647
 1290SOL    HW115506   0.134   2.264   5.562  0.3158 -1.9671  0.3943
 1290SOL    HW215507   0.223   2.373   5.529  2.5891 -0.7784 -1.1517
 1291SOL     OW15508   2.595   4.374  14.861  0.3295 -0.1774 -0.5483
 1291SOL    HW115509   2.598   4.436  14.934  3.6196  0.8487 -1.5525
 1291SOL    HW215510   2.513   4.327  14.878  0.2324  0.4206  0.5750
 1292SOL     OW15511   0.492   2.915  13.213 -0.5061  0.4562  0.0419
 1292SOL    HW115512   0.406   2.947  13.241 -0.5753  0.0036  0.3538
 1292SOL    HW215513   0.541   2.993  13.241 -0.0062  0.4977 -0.9676
 1293SOL     OW15514   0.872   4.109   6.082 -0.1823 -0.0824  0.1524
 1293SOL    HW115515   0.907   4.189   6.121  0.4549  0.4874 -1.5721
 1293SOL    HW215516   0.841   4.060   6.158 -2.2389  1.4874  0.3169
 1294SOL     OW15517   1.870   3.333  13.028  0.2783  0.0331  0.3073
 1294SOL    HW115518   1.776   3.317  13.034 -0.0491  1.0575 -1.9581
 1294SOL    HW215519   1.875   3.428  13.040 -1.2568  0.1334  0.1356
 1295SOL     OW15520   3.469   0.165  12.521  0.3978 -0.2727 -0.3291
 1295SOL    HW115521   3.456   0.074  12.545 -0.4092 -0.0607  0.0414
 1295SOL    HW215522   3.407   0.182  12.450 -0.8511  0.2872  0.8986
 1296SOL     OW15523   2.650   0.552   5.678  0.2453  0.4446  0.3033
 1296SOL    HW115524   2.691   0.635   5.704  0.5112  0.8723 -1.4894
 1296SOL    HW215525   2.724   0.495   5.701 -0.7038 -0.1097  1.9775
 1297SOL     OW15526   3.780   2.938   0.882 -0.2192 -0.4700 -0.1677
 1297SOL    HW115527   3.790   2.885   0.961  1.9817  0.2380  0.0425
 1297SOL    HW215528   3.860   2.920   0.832  1.3642  2.5859  1.2671
 1298SOL     OW15529   4.263   3.951   3.786  0.3630  0.1731 -0.1222
 1298SOL    HW115530   4.356   3.971   3.800  0.1779  1.8056 -1.1739
 1298SOL    HW215531   4.263   3.862   3.820 -0.9846 -0.5426 -1.9994
 1299SOL     OW15532   1.031   4.670   6.883 -0.4056 -0.0890  0.1460
 1299SOL    HW115533   1.049   0.025   6.858  3.4677 -0.0095  3.4257
 1299SOL    HW215534   0.939   4.672   6.909 -0.3365  0.1997  0.3634
 1300SOL     OW15535   1.554   3.459  16.036  0.1314 -0.6641  0.3725
 1300SOL    HW115536   1.526   3.546  16.006  1.2310 -0.3631  0.2428
 1300SOL    HW215537   1.490   3.440  16.105 -0.9393  1.3925 -0.0408
 1301SOL     OW15538   3.433   4.222  13.695  0.3141 -0.9555 -0.0505
 1301SOL    HW115539   3.456   4.171  13.773 -1.8318 -0.5852  0.8066
 1301SOL    HW215540   3.432   4.154  13.627 -1.4230 -0.0233 -0.9317
 1302SOL     OW15541   4.464   2.180   4.334  0.0235 -0.5114 -0.5841
 1302SOL    HW115542   4.525   2.109   4.351  0.5423  0.7935  2.8514
 1302SOL    HW215543   4.412   2.147   4.260 -1.8672  1.0459  0.0401
 1303SOL     OW15544   3.296   0.023   3.990  0.5722  0.1327  0.1591
 1303SOL    HW115545   3.204   0.048   3.977 -0.0649 -1.6051  1.2413
 1303SOL    HW215546   3.321   0.034   3.899  0.9718 -0.6098  0.1790
 1304SOL     OW15547   0.667   0.856  16.896 -0.2032  0.4242 -0.4117
 1304SOL    HW115548   0.682   0.768  16.861 -1.2907  0.3967 -0.7934
 1304SOL    HW215549   0.719   0.916  16.843  2.3576 -0.0316  1.5704
 1305SOL     OW15550   3.800   4.361   0.464  0.8226 -0.6119 -0.6564
 1305SOL    HW115551   3.720   4.348   0.414 -0.6016 -0.2572  1.5324
 1305SOL    HW215552   3.777   4.347   0.555  1.3194 -0.4497 -0.5046
 1306SOL     OW15553   0.937   0.140   8.277  0.5227 -0.1123 -0.0048
 1306SOL    HW115554   0.868   0.128   8.212  0.1340 -1.1095  0.5860
 1306SOL    HW215555   1.002   0.074   8.254 -0.2628 -0.4136 -1.3516
 1307SOL     OW15556   4.012   2.918   6.507 -0.2082 -0.2312 -0.1209
 1307SOL    HW115557   3.930   2.944   6.549  0.6102 -0.4393  1.5953
 1307SOL    HW215558   3.992   2.829   6.478 -3.1730  0.5242 -0.4026
 1308SOL     OW15559   2.477   1.360  15.292  0.0338 -0.6877  0.1311
 1308SOL    HW115560   2.392   1.376  15.250  1.5688  3.3344 -1.4431
 1308SOL    HW215561   2.480   1.264  15.287 -2.6842 -0.7176 -1.0238
 1309SOL     OW15562   2.404   1.947   7.204  0.3230  0.3863 -0.5295
 1309SOL    HW115563   2.483   1.924   7.252  0.2045 -0.2109 -0.6251
 1309SOL    HW215564   2.433   2.038   7.201  0.0664  0.4554 -0.8372
 1310SOL     OW15565   0.446   0.801   3.896 -0.5173  0.0105  0.2120
 1310SOL    HW115566   0.409   0.786   3.809 -0.5553  2.1365 -0.1293
 1310SOL    HW215567   0.509   0.860   3.854 -1.9020  1.3824  0.0418
 1311SOL     OW15568   0.966   3.152   9.347 -0.2343 -0.0217 -0.4854
 1311SOL    HW115569   0.931   3.209   9.416  0.4603  1.0671 -1.0289
 1311SOL    HW215570   1.061   3.157   9.360  0.0069 -0.4340 -2.1519
 1312SOL     OW15571   2.602   1.222   8.981 -0.4060 -0.4306  0.6025
 1312SOL    HW115572   2.606   1.137   8.937  0.1257 -0.0398 -0.0967
 1312SOL    HW215573   2.691   1.244   9.007 -0.2526  0.1156 -0.4038
 1313SOL     OW15574   2.164   2.974   5.508 -0.4177 -0.3743 -0.3922
 1313SOL    HW115575   2.187   2.900   5.453 -1.6464  2.0929 -4.1696
 1313SOL    HW215576   2.222   3.036   5.464 -2.5840  0.6917 -1.7006
 1314SOL     OW15577   0.484   2.981   6.366  0.5066  0.1761 -0.1555
 1314SOL    HW115578   0.496   3.015   6.455 -0.2512  2.0394 -0.7577
 1314SOL    HW215579   0.411   2.920   6.377  2.2278 -1.6903  0.9798
 1315SOL     OW15580   2.894   1.754   8.129 -0.0634  0.1968  0.0166
 1315SOL    HW115581   2.799   1.746   8.134 -0.1058  0.8947  0.3327
 1315SOL    HW215582   2.907   1.849   8.128 -2.9668  0.5910  1.1352
 1316SOL     OW15583   3.011   2.533   7.954  0.1632  0.5102  0.0442
 1316SOL    HW115584   2.918   2.519   7.938  0.0635 -0.0800  1.0944
 1316SOL    HW215585   3.018   2.552   8.048 -2.9706 -0.3643  0.4726
 1317SOL     OW15586   4.215   1.087   8.951 -0.4813 -0.0760  0.1949
 1317SOL    HW115587   4.174   1.148   8.890 -1.0053 -1.4713 -0.8502
 1317SOL    HW215588   4.287   1.140   8.984  0.4641 -0.9778 -0.4019
 1318SOL     OW15589   3.587   4.317  10.712  0.4083  0.4957  0.1537
 1318SOL    HW115590   3.550   4.345  10.796 -0.6647 -2.4706  0.6524
 1318SOL    HW215591   3.641   4.394  10.694  2.4802 -0.3607  2.7626
 1319SOL     OW15592   4.615   0.581  13.299 -0.5184  0.4933 -0.5196
 1319SOL    HW115593   4.611   0.542  13.387  1.6035  1.1128 -0.1594
 1319SOL    HW215594   4.523   0.602  13.283 -1.1336 -1.8753 -0.1811
 1320SOL     OW15595   3.436   3.212   5.424 -0.3105 -0.5484  0.5991
 1320SOL    HW115596   3.505   3.195   5.360 -0.5083 -0.4049  0.3449
 1320SOL    HW215597   3.478   3.198   5.508  0.9630  1.7901  0.3642
 1321SOL     OW15598   4.495   0.887  12.645 -0.1017  0.7696  0.8367
 1321SOL    HW115599   4.553   0.934  12.706 -0.9778  0.3203  2.0293
 1321SOL    HW215600   4.550   0.830  12.592 -0.0794  1.3523  0.2320
 1322SOL     OW15601   2.203   3.822   2.400 -0.0835  0.1087  0.0079
 1322SOL    HW115602   2.255   3.860   2.330  4.3811 -1.1731  2.5997
 1322SOL    HW215603   2.271   3.773   2.447  2.2571  3.4090  0.0168
 1323SOL     OW15604   1.077   3.088   4.388 -0.2647  0.5812  0.1965
 1323SOL    HW115605   1.115   3.027   4.451 -1.7197  0.1226  0.6342
 1323SOL    HW215606   0.990   3.049   4.398 -1.3995  2.6233 -1.6682
 1324SOL     OW15607   4.480   3.813   3.521  0.0464  0.0654  0.0545
 1324SOL    HW115608   4.401   3.780   3.480  1.1359  0.2217 -2.1733
 1324SOL    HW215609   4.475   3.755   3.597  0.0239  0.6367  0.4903
 1325SOL     OW15610   1.480   3.426   6.990 -0.0287 -0.4597 -0.1130
 1325SOL    HW115611   1.516   3.439   7.078 -0.8075  1.7003 -0.1130
 1325SOL    HW215612   1.519   3.502   6.946 -0.1853 -0.2499  0.1143
 1326SOL     OW15613   1.329   0.132   5.231 -0.2854 -0.2516 -0.1742
 1326SOL    HW115614   1.393   0.118   5.161  2.3037 -0.6598  2.2357
 1326SOL    HW215615   1.302   0.043   5.254 -1.1622 -0.2795 -1.3468
 1327SOL     OW15616   2.790   3.354   4.885 -0.3320  0.4273  0.4044
 1327SOL    HW115617   2.746   3.291   4.827  0.8230 -0.9810  1.0490
 1327SOL    HW215618   2.771   3.318   4.972 -0.4447 -0.3775  0.0524
 1328SOL     OW15619   4.409   2.864  15.919  0.3071 -0.9516  0.5449
 1328SOL    HW115620   4.443   2.902  15.838  0.8994  0.5519  1.5126
 1328SOL    HW215621   4.430   2.770  15.916 -0.2481 -1.1847  3.7018
 1329SOL     OW15622   1.638   1.035   8.230 -0.0191  0.3980 -0.0517
 1329SOL    HW115623   1.655   0.946   8.200 -0.0374 -0.0305  1.1729
 1329SOL    HW215624   1.664   1.035   8.323 -0.8282  0.5090  0.1764
 1330SOL     OW15625   4.401   0.191  15.400 -0.4393 -0.4874 -0.1156
 1330SOL    HW115626   4.481   0.217  15.353 -1.5999  3.1917 -0.0784
 1330SOL    HW215627   4.430   0.204  15.491  5.0240 -0.5592 -1.8604
 1331SOL     OW15628   0.483   4.237   2.849 -0.1340  0.2731 -0.3073
 1331SOL    HW115629   0.560   4.248   2.906 -0.3971  0.2835  0.0458
 1331SOL    HW215630   0.458   4.147   2.867  0.0799  0.2270 -0.2323
 1332SOL     OW15631   3.298   4.057  16.812 -0.3545 -0.7990 -0.0276
 1332SOL    HW115632   3.380   4.098  16.784 -0.0625 -0.5394  1.2082
 1332SOL    HW215633   3.247   4.138  16.820 -1.0781 -1.1749 -0.9225
 1333SOL     OW15634   0.688   4.006   8.866 -0.4397  0.5078 -0.3296
 1333SOL    HW115635   0.650   4.004   8.779 -0.1689  4.5905 -0.5762
 1333SOL    HW215636   0.652   4.090   8.896  0.2639 -0.5423  3.5015
 1334SOL     OW15637   4.560   2.535   2.202 -0.5358  0.2598 -0.2155
 1334SOL    HW115638   4.624   2.599   2.234  0.7897 -1.1546 -0.0280
 1334SOL    HW215639   4.611   2.495   2.132  0.5043  1.4891 -0.1628
 1335SOL     OW15640   1.913   0.338  17.543  0.2907 -0.3905  0.5809
 1335SOL    HW115641   1.911   0.249  17.507 -0.7712 -0.5426  1.0102
 1335SOL    HW215642   2.000   0.372  17.521 -0.9953  3.3126  1.2260
 1336SOL     OW15643   2.191   2.185   9.214  0.3272 -0.1708  0.1478
 1336SOL    HW115644   2.197   2.271   9.256 -0.8006  0.2422 -0.5561
 1336SOL    HW215645   2.107   2.150   9.242  1.1845 -0.3619  2.5331
 1337SOL     OW15646   2.568   0.631   8.560 -0.0621 -0.0950 -0.2155
 1337SOL    HW115647   2.481   0.670   8.568  0.3218  0.5509  0.7148
 1337SOL    HW215648   2.561   0.588   8.475 -1.3784 -0.1376 -0.0822
 1338SOL     OW15649   1.911   2.962  14.532  0.1895  0.1207 -0.2269
 1338SOL    HW115650   1.830   2.991  14.491 -0.1387  1.6594  1.5338
 1338SOL    HW215651   1.985   2.963  14.470  0.9792 -4.2132  0.6329
 1339SOL     OW15652   0.655   0.858   9.857 -0.0933  0.3151  0.0653
 1339SOL    HW115653   0.737   0.815   9.879  0.2395  0.8566 -0.1152
 1339SOL    HW215654   0.657   0.851   9.762  1.2044 -0.9576  0.1901
 1340SOL     OW15655   0.500   0.612   0.448 -0.0999  0.1619 -0.0343
 1340SOL    HW115656   0.534   0.682   0.505  0.2512  1.7684 -2.2002
 1340SOL    HW215657   0.418   0.655   0.422  0.0657 -0.3755 -1.4460
 1341SOL     OW15658   1.179   2.166   6.046 -0.2194 -0.0109 -0.1549
 1341SOL    HW115659   1.259   2.157   5.994 -0.2148  0.2437 -0.1935
 1341SOL    HW215660   1.146   2.252   6.021  2.0646  1.1883  0.9434
 1342SOL     OW15661   1.890   0.464   2.737 -0.1049 -0.7329 -0.0578
 1342SOL    HW115662   1.856   0.553   2.749  2.7994  0.1640  1.5544
 1342SOL    HW215663   1.963   0.487   2.679  0.4358  0.9339  1.3022
 1343SOL     OW15664   1.440   1.436   5.122  0.3510 -0.1433 -0.2959
 1343SOL    HW115665   1.532   1.464   5.120  0.1355  0.6889  1.5260
 1343SOL    HW215666   1.440   1.392   5.207  0.7351  0.4333  0.0021
 1344SOL     OW15667   0.754   4.664   7.687 -0.5220  0.2307 -0.3156
 1344SOL    HW115668   0.824   4.623   7.637 -0.5519 -0.2765  0.0582
 1344SOL    HW215669   0.779   0.019   7.670  0.9630 -0.4449 -1.7351
 1345SOL     OW15670   4.432   2.747   7.918  0.1580  0.3954 -0.0828
 1345SOL    HW115671   4.511   2.693   7.923 -0.0606 -0.0377 -1.2473
 1345SOL    HW215672   4.367   2.677   7.925  2.4685 -1.6757  0.7148
 1346SOL     OW15673   1.295   0.035   8.617  0.1257 -0.1569  0.5310
 1346SOL    HW115674   1.256   4.711   8.680  1.4106  1.3164  2.7019
 1346SOL    HW215675   1.362   4.724   8.569  0.0970  0.8686 -0.5203
 1347SOL     OW15676   1.085   0.584   2.870  0.4333 -0.1012  0.2922
 1347SOL    HW115677   1.049   0.538   2.794 -1.0939  0.3831  0.7397
 1347SOL    HW215678   1.167   0.539   2.892 -1.3504 -3.1018  0.7775
 1348SOL     OW15679   1.738   0.033  12.040 -0.3341  0.0797 -0.6895
 1348SOL    HW115680   1.677   0.071  12.103  1.5802  0.4344  0.9604
 1348SOL    HW215681   1.769   4.699  12.098  1.1549  0.0344 -1.5579
 1349SOL     OW15682   1.585   2.519   5.903 -0.2230 -0.0775  0.1301
 1349SOL    HW115683   1.632   2.571   5.968  0.7483 -0.1004 -0.5565
 1349SOL    HW215684   1.609   2.573   5.828  1.6200 -0.8615  0.1434
 1350SOL     OW15685   2.041   1.407  16.851 -0.4681 -0.3559  0.2280
 1350SOL    HW115686   1.991   1.336  16.810  0.5360 -0.7949 -0.2410
 1350SOL    HW215687   1.987   1.396  16.929 -1.0714  2.1819  0.1606
 1351SOL     OW15688   2.740   4.655   0.648  0.0022 -0.1186  0.5460
 1351SOL    HW115689   2.766   4.566   0.670  1.2206 -0.0791 -0.6880
 1351SOL    HW215690   2.655   4.661   0.691  0.2354 -0.9868  1.1269
 1352SOL     OW15691   3.213   0.008   1.469  0.1231  0.7187  0.0660
 1352SOL    HW115692   3.277   0.014   1.540  0.7505 -0.3293 -0.4079
 1352SOL    HW215693   3.200   0.099   1.442  2.0513  0.9785  0.0143
 1353SOL     OW15694   4.238   2.584   1.827  0.5543 -0.3826 -0.4615
 1353SOL    HW115695   4.265   2.580   1.736  1.0801 -3.2559 -0.1662
 1353SOL    HW215696   4.309   2.639   1.860 -0.1773 -0.9338  2.0392
 1354SOL     OW15697   2.794   2.721   7.853 -0.2465 -0.7357 -0.1321
 1354SOL    HW115698   2.844   2.761   7.923 -2.2584 -1.6989  1.8589
 1354SOL    HW215699   2.704   2.721   7.886 -0.0647  1.2643  0.3355
 1355SOL     OW15700   0.724   2.425   3.331 -0.2849 -0.4140  0.0792
 1355SOL    HW115701   0.736   2.339   3.291  0.4526 -0.1599 -0.2442
 1355SOL    HW215702   0.735   2.483   3.255  0.5926  0.0492  0.5596
 1356SOL     OW15703   3.799   1.143  12.999  0.3875 -0.1009 -0.6533
 1356SOL    HW115704   3.795   1.090  13.079  0.6112  0.5402 -0.2184
 1356SOL    HW215705   3.808   1.066  12.942  1.8010  1.5083 -2.6204
 1357SOL     OW15706   3.738   0.829   1.414 -0.2325 -0.0700 -0.3277
 1357SOL    HW115707   3.806   0.896   1.405 -0.6304  0.1559 -1.5906
 1357SOL    HW215708   3.670   0.875   1.463 -0.2415 -0.4106 -0.0219
 1358SOL     OW15709   4.182   3.630   7.602  0.1393  0.2914  0.0662
 1358SOL    HW115710   4.270   3.604   7.629  0.8194  2.1200 -0.3631
 1358SOL    HW215711   4.134   3.600   7.680 -1.8409  0.5466 -1.0516
 1359SOL     OW15712   0.915   0.380  15.839  0.3354  0.9181 -0.6528
 1359SOL    HW115713   0.836   0.367  15.892  0.0430  0.5469 -1.1743
 1359SOL    HW215714   0.982   0.401  15.904  2.2870  0.0952 -2.3854
 1360SOL     OW15715   3.922   0.848  16.049  0.6427 -0.2181  0.5355
 1360SOL    HW115716   3.922   0.764  16.003 -2.6258 -1.0554  2.0867
 1360SOL    HW215717   4.003   0.882  16.010 -1.8950  2.2216 -2.6430
 1361SOL     OW15718   1.508   2.447   3.540  0.4397 -0.1087 -0.0573
 1361SOL    HW115719   1.545   2.434   3.453 -2.0468  1.1530 -1.3194
 1361SOL    HW215720   1.554   2.527   3.566 -1.4045  0.9333  0.0131
 1362SOL     OW15721   4.498   3.831   7.174  0.6441  0.4770 -0.0713
 1362SOL    HW115722   4.404   3.816   7.166  0.5310  2.1338 -1.7045
 1362SOL    HW215723   4.499   3.896   7.244  0.7886  1.1329 -0.6934
 1363SOL     OW15724   0.681   2.130  10.015 -0.1592 -0.2630  0.3736
 1363SOL    HW115725   0.650   2.169   9.934 -1.2153 -0.7701  0.5278
 1363SOL    HW215726   0.616   2.157  10.080  0.4266  1.5481  0.2114
 1364SOL     OW15727   3.284   2.146   2.728  0.1554  0.3084  0.3085
 1364SOL    HW115728   3.233   2.163   2.649 -1.0148 -0.2938  0.9348
 1364SOL    HW215729   3.216   2.155   2.795  1.0222  0.1466  1.2109
 1365SOL     OW15730   4.227   0.779  10.931 -0.4049 -0.4481 -0.2422
 1365SOL    HW115731   4.296   0.715  10.949 -2.1168 -2.5748 -1.1607
 1365SOL    HW215732   4.189   0.787  11.019  1.2942  2.5338  0.2277
 1366SOL     OW15733   3.297   2.179   4.643  0.0943 -0.6377 -0.2551
 1366SOL    HW115734   3.260   2.263   4.670 -1.0667 -0.6613 -1.7901
 1366SOL    HW215735   3.247   2.111   4.689  1.8429 -0.2909  2.2064
 1367SOL     OW15736   2.660   0.455   9.157  0.1472 -0.2133  0.2809
 1367SOL    HW115737   2.676   0.361   9.160  0.7241 -0.2130 -2.2531
 1367SOL    HW215738   2.572   0.459   9.196 -1.5609  2.4534 -3.8836
 1368SOL     OW15739   4.173   3.177   0.724 -0.3376 -0.1037 -0.0605
 1368SOL    HW115740   4.126   3.235   0.664  0.9085  0.4059 -0.5527
 1368SOL    HW215741   4.169   3.227   0.806 -0.4510 -1.0694  0.5165
 1369SOL     OW15742   2.666   4.474  11.288  0.5643  0.0645 -0.1699
 1369SOL    HW115743   2.719   4.395  11.279  2.4247  1.3056  0.0099
 1369SOL    HW215744   2.646   4.464  11.381  0.0208 -1.1230 -0.4051
 1370SOL     OW15745   4.693   4.734   3.852 -0.2597 -0.8697  0.1575
 1370SOL    HW115746   0.035   4.682   3.872 -0.0907  0.4743  3.0131
 1370SOL    HW215747   4.732   0.084   3.835  1.3226 -1.6833 -0.2827
 1371SOL     OW15748   1.341   2.591   5.304 -0.2699  0.2530 -0.2935
 1371SOL    HW115749   1.422   2.582   5.254  0.4939 -0.9517  1.1745
 1371SOL    HW215750   1.337   2.683   5.332  0.0290 -0.7330  2.8956
 1372SOL     OW15751   2.631   4.724   6.056  0.1162  0.2001 -0.0762
 1372SOL    HW115752   2.666   0.043   5.985  0.0884  0.3739  0.0418
 1372SOL    HW215753   2.612   0.055   6.122 -2.7075 -1.2662  0.5827
 1373SOL     OW15754   1.268   4.074   3.065  0.2663 -0.2669  0.2727
 1373SOL    HW115755   1.237   3.984   3.077  0.0573 -0.1761  0.4134
 1373SOL    HW215756   1.362   4.056   3.064  0.0079 -1.6208 -0.5534
 1374SOL     OW15757   3.865   3.526  16.694  0.3545 -0.3111  0.0968
 1374SOL    HW115758   3.902   3.454  16.644 -1.1937 -1.6468  0.8630
 1374SOL    HW215759   3.835   3.594  16.634  1.1008  0.5921  0.7657
 1375SOL     OW15760   2.583   2.119   9.345  0.3670  0.0950  0.7034
 1375SOL    HW115761   2.560   2.141   9.435  2.3942  2.5468  0.6258
 1375SOL    HW215762   2.673   2.153   9.348  0.7867 -0.7512 -2.3227
 1376SOL     OW15763   0.439   2.809   2.652  0.0630  0.6020  0.3605
 1376SOL    HW115764   0.387   2.840   2.726 -2.1574  0.8135 -1.2879
 1376SOL    HW215765   0.517   2.783   2.700 -0.6570 -3.3560 -0.5884
 1377SOL     OW15766   4.311   1.147  10.601  0.3405 -0.4350  0.1387
 1377SOL    HW115767   4.376   1.115  10.537  1.7353  0.3626  1.1522
 1377SOL    HW215768   4.314   1.076  10.665  2.2781  0.3233  0.8934
 1378SOL     OW15769   1.234   1.505  17.730  0.7342  0.1750 -0.4111
 1378SOL    HW115770   1.193   1.459   0.062 -2.2718  0.9468 -1.6042
 1378SOL    HW215771   1.199   1.445  17.664 -1.8390  1.6372 -0.3626
 1379SOL     OW15772   0.892   0.889   1.665  0.1547 -0.1357  0.1466
 1379SOL    HW115773   0.831   0.818   1.643 -0.4473 -0.1561  1.8671
 1379SOL    HW215774   0.916   0.923   1.578  1.0097 -3.0235 -0.7554
 1380SOL     OW15775   0.189   3.142  15.464 -0.2409 -0.2797  0.1418
 1380SOL    HW115776   0.212   3.124  15.555  1.1237 -1.9216 -0.5288
 1380SOL    HW215777   0.270   3.167  15.421 -0.7994 -0.1720 -0.8563
 1381SOL     OW15778   0.813   2.946  13.315 -0.1810 -0.4907 -0.3925
 1381SOL    HW115779   0.722   2.978  13.311  0.6307  1.6668 -1.8817
 1381SOL    HW215780   0.847   2.972  13.229 -0.0283 -1.7416 -0.7089
 1382SOL     OW15781   1.152   0.791   7.006  0.2826  0.6722 -0.0554
 1382SOL    HW115782   1.130   0.879   7.035  0.1645  0.2814  1.0371
 1382SOL    HW215783   1.199   0.804   6.923  0.0662 -0.7977 -0.4088
 1383SOL     OW15784   1.669   1.342   3.807 -0.0702  0.1565 -0.4846
 1383SOL    HW115785   1.647   1.375   3.721 -0.1617  1.4388  0.0306
 1383SOL    HW215786   1.582   1.335   3.847  0.8355  2.2737  1.8885
 1384SOL     OW15787   4.240   1.543   3.063  0.1308 -0.1610  0.2695
 1384SOL    HW115788   4.279   1.502   2.985 -1.3258 -0.1726 -0.4530
 1384SOL    HW215789   4.146   1.539   3.048  0.0432 -1.6299  1.2703
 1385SOL     OW15790   0.342   4.712   4.256 -0.7572 -0.3133 -0.6942
 1385SOL    HW115791   0.416   0.003   4.310 -0.0525 -0.6576 -1.4857
 1385SOL    HW215792   0.321   0.057   4.210  1.9798 -0.7225 -2.6545
 1386SOL     OW15793   1.404   0.706   9.161 -0.2876 -0.1280 -0.1007
 1386SOL    HW115794   1.411   0.744   9.074 -2.9995  1.0943  0.2371
 1386SOL    HW215795   1.350   0.630   9.143  0.0501 -0.0616 -1.3881
 1387SOL     OW15796   2.798   1.247  16.247  0.0839 -0.3459 -0.1085
 1387SOL    HW115797   2.787   1.152  16.249 -1.5428 -0.0637  4.0130
 1387SOL    HW215798   2.734   1.267  16.316  1.0319  1.9870  0.0944
 1388SOL     OW15799   2.290   2.965   1.704  0.1231  0.4477  0.1263
 1388SOL    HW115800   2.366   2.911   1.684 -0.1489 -0.4314  1.4852
 1388SOL    HW215801   2.293   2.938   1.795 -0.8865 -0.6923 -0.1696
 1389SOL     OW15802   2.653   0.583   9.500  0.4247  0.0479 -0.0980
 1389SOL    HW115803   2.620   0.672   9.487 -3.9769 -1.5992 -0.1052
 1389SOL    HW215804   2.653   0.580   9.596 -2.0749 -2.8362 -0.1718
 1390SOL     OW15805   0.546   0.936  13.470 -0.5839  0.1200 -0.0107
 1390SOL    HW115806   0.503   0.859  13.507  0.8455 -0.5862  0.1765
 1390SOL    HW215807   0.617   0.951  13.532 -1.7786  2.3249  0.8237
 1391SOL     OW15808   1.546   0.201  10.158  0.1087  0.1823  0.8252
 1391SOL    HW115809   1.593   0.283  10.141 -1.4475  0.8144 -0.3898
 1391SOL    HW215810   1.607   0.132  10.130  0.3369  0.6088  0.2548
 1392SOL     OW15811   0.899   2.320  13.527 -0.3613 -0.4184 -0.0442
 1392SOL    HW115812   0.993   2.337  13.524 -0.2060 -1.3642 -0.5964
 1392SOL    HW215813   0.890   2.241  13.473  2.2069  0.5442 -1.8727
 1393SOL     OW15814   1.808   1.572  16.779 -0.0484 -0.1904  0.2400
 1393SOL    HW115815   1.824   1.611  16.693  0.5754  0.9141  0.8703
 1393SOL    HW215816   1.891   1.526  16.789  1.1322  2.2414  1.3966
 1394SOL     OW15817   0.692   3.312   7.757 -0.3847 -0.1030  0.2044
 1394SOL    HW115818   0.618   3.258   7.785  1.0392 -4.3035 -4.2537
 1394SOL    HW215819   0.758   3.252   7.793  1.6043  2.2011  0.3818
 1395SOL     OW15820   4.364   2.349  13.922 -0.0574  0.4999  0.1596
 1395SOL    HW115821   4.272   2.356  13.948 -0.7904  0.0862 -2.3493
 1395SOL    HW215822   4.357   2.394  13.838  1.0556  1.0345  0.3517
 1396SOL     OW15823   2.530   1.836   0.377 -0.0951 -0.0734  0.4416
 1396SOL    HW115824   2.593   1.868   0.441 -1.8668  2.2502  1.0414
 1396SOL    HW215825   2.570   1.757   0.341 -0.1735 -0.6853  1.7096
 1397SOL     OW15826   4.363   4.383   9.072  0.2303  0.0565 -0.1722
 1397SOL    HW115827   4.309   4.424   9.139  0.2936  0.5947 -0.4522
 1397SOL    HW215828   4.346   4.290   9.088  1.5455 -0.1240  0.1662
 1398SOL     OW15829   2.514   3.844   7.268  0.0356 -0.4765 -0.0985
 1398SOL    HW115830   2.454   3.770   7.267 -2.4930  1.5576  0.0754
 1398SOL    HW215831   2.448   3.913   7.267 -0.1305 -0.6504 -0.6073
 1399SOL     OW15832   1.137   4.368   3.017  0.2384 -0.4412 -0.1489
 1399SOL    HW115833   1.158   4.356   2.925  1.4244  1.8601 -0.1685
 1399SOL    HW215834   1.082   4.289   3.021 -1.2645  0.7014  1.6038
 1400SOL     OW15835   1.053   0.825   8.334 -0.0011  0.6958 -0.3759
 1400SOL    HW115836   1.043   0.812   8.428 -1.9826  1.0861 -0.5356
 1400SOL    HW215837   1.064   0.734   8.305  0.7901  0.3319  1.0776
 1401SOL     OW15838   1.918   4.199  13.899  0.2939  0.3515  0.1834
 1401SOL    HW115839   2.000   4.225  13.943  1.1831 -0.0368 -1.2491
 1401SOL    HW215840   1.869   4.150  13.965 -1.8608 -0.5540 -2.1181
 1402SOL     OW15841   3.261   3.205   1.738 -0.0788  0.2525 -0.1543
 1402SOL    HW115842   3.319   3.196   1.814 -1.9397 -0.0580  1.2342
 1402SOL    HW215843   3.214   3.287   1.753 -2.0276 -0.7905 -0.5924
 1403SOL     OW15844   2.451   3.418   9.685 -0.5004  0.6194  0.0399
 1403SOL    HW115845   2.475   3.345   9.742  0.1803 -0.0804 -1.1515
 1403SOL    HW215846   2.518   3.486   9.690 -1.8177  1.8670  0.9702
 1404SOL     OW15847   2.845   1.022   4.082  0.3488 -0.1208 -0.4954
 1404SOL    HW115848   2.884   1.109   4.083 -0.7238  0.3757 -1.4035
 1404SOL    HW215849   2.823   1.011   4.174  0.5502  0.3259 -0.3962
 1405SOL     OW15850   3.676   2.886   5.046  0.0979  0.0586 -0.3380
 1405SOL    HW115851   3.761   2.920   5.019  0.4246  1.3693  2.3368
 1405SOL    HW215852   3.633   2.865   4.963 -0.7827 -2.7862  0.8355
 1406SOL     OW15853   2.166   3.243   2.988 -0.1122 -0.1103 -0.5503
 1406SOL    HW115854   2.095   3.293   3.027  0.3040 -0.0669  0.1322
 1406SOL    HW215855   2.193   3.185   3.059  1.2620 -0.1435 -1.0879
 1407SOL     OW15856   4.643   4.615   2.046 -0.3753  0.4304 -0.0972
 1407SOL    HW115857   4.732   4.649   2.039 -0.2126 -0.0677 -0.3937
 1407SOL    HW215858   4.632   4.651   2.134 -2.3883  0.6370 -0.4218
 1408SOL     OW15859   3.369   2.189   8.819  0.4243  0.4521 -0.8645
 1408SOL    HW115860   3.415   2.106   8.823 -1.9562 -0.7775  1.2523
 1408SOL    HW215861   3.417   2.231   8.890 -0.9142  1.2548 -0.4301
 1409SOL     OW15862   3.385   4.536   5.693  0.3376  0.3319  0.4344
 1409SOL    HW115863   3.335   4.613   5.721  1.1577  0.7421  0.7855
 1409SOL    HW215864   3.330   4.479   5.640 -2.9208  0.4899  3.6835
 1410SOL     OW15865   3.152   0.206   7.021  0.7914  0.3092  0.1812
 1410SOL    HW115866   3.060   0.179   7.024  1.2651 -1.0444  2.2609
 1410SOL    HW215867   3.183   0.198   7.111 -0.9499 -0.5441  0.7125
 1411SOL     OW15868   4.389   1.252   7.672 -0.0166 -0.0819  0.3689
 1411SOL    HW115869   4.373   1.332   7.621  0.6486  0.0809  0.4166
 1411SOL    HW215870   4.397   1.283   7.763 -0.4137 -0.7110  0.6192
 1412SOL     OW15871   1.437   3.575   1.867 -0.0924 -0.7003 -0.6681
 1412SOL    HW115872   1.383   3.513   1.916 -0.3447 -0.8319 -1.1117
 1412SOL    HW215873   1.522   3.534   1.882  0.5677  1.0547  0.3831
 1413SOL     OW15874   2.896   4.715   8.508  0.3248  0.0470 -0.3020
 1413SOL    HW115875   2.869   4.735   8.597  0.7456 -0.4465 -0.0605
 1413SOL    HW215876   2.950   0.058   8.508  1.1052 -0.4865  0.6219
 1414SOL     OW15877   4.308   3.698  16.174  0.7179 -0.1567  0.1681
 1414SOL    HW115878   4.379   3.634  16.172  0.6828 -0.1513 -1.2459
 1414SOL    HW215879   4.333   3.752  16.249 -0.7580  2.4899 -1.2184
 1415SOL     OW15880   3.583   1.041   1.912 -0.2607  0.0457  0.3567
 1415SOL    HW115881   3.553   1.045   2.002  3.0880 -1.6117  1.5591
 1415SOL    HW215882   3.505   1.083   1.877 -0.7540  0.9285  2.5430
 1416SOL     OW15883   4.344   4.632   8.193  0.2903 -0.0710  0.7223
 1416SOL    HW115884   4.347   4.682   8.275 -1.0225 -0.3759  0.9550
 1416SOL    HW215885   4.302   4.694   8.134 -1.1302 -2.0301 -0.2800
 1417SOL     OW15886   4.266   0.844   8.233  0.0757 -0.0731  0.4568
 1417SOL    HW115887   4.191   0.800   8.194  1.2477 -2.0960  0.5113
 1417SOL    HW215888   4.336   0.780   8.239 -0.5253 -0.7380  0.3366
 1418SOL     OW15889   3.652   3.093   2.710  0.0299  0.3693 -0.1222
 1418SOL    HW115890   3.657   3.159   2.641  1.2001  0.0810 -0.3041
 1418SOL    HW215891   3.628   3.012   2.664  1.0170  0.7513 -1.3115
 1419SOL     OW15892   2.367   1.972   6.498 -0.2643  0.1009  0.2212
 1419SOL    HW115893   2.287   2.016   6.469  0.6843  0.7595 -1.4662
 1419SOL    HW215894   2.433   2.041   6.489  0.2224 -0.4061 -0.0836
 1420SOL     OW15895   1.758   4.120  13.593 -0.2486 -0.2440 -0.2012
 1420SOL    HW115896   1.781   4.206  13.628  2.7707 -1.4209  0.7257
 1420SOL    HW215897   1.738   4.066  13.669 -1.1435  1.0511  0.4804
 1421SOL     OW15898   4.210   3.196   6.487 -0.2912  0.3805  0.1662
 1421SOL    HW115899   4.137   3.172   6.429 -0.0068 -3.1743  1.2635
 1421SOL    HW215900   4.226   3.116   6.538  0.4547  1.0449  0.9626
 1422SOL     OW15901   0.669   1.563   5.894 -0.0034 -0.2897  0.1881
 1422SOL    HW115902   0.595   1.620   5.914  0.3851  0.5708 -0.8124
 1422SOL    HW215903   0.671   1.571   5.799 -0.6819  0.2806  0.2266
 1423SOL     OW15904   2.517   3.932   5.117 -0.1032 -0.5746 -0.2512
 1423SOL    HW115905   2.545   3.936   5.026 -0.9849  3.7817 -0.3270
 1423SOL    HW215906   2.469   4.015   5.122 -0.0473 -0.5558 -0.0332
 1424SOL     OW15907   3.136   4.626   6.707 -0.3061  0.0761 -0.0078
 1424SOL    HW115908   3.209   4.644   6.648  0.3664 -0.4296  0.6712
 1424SOL    HW215909   3.062   4.602   6.651  0.4278 -0.6934 -0.6205
 1425SOL     OW15910   4.101   4.509   3.218 -0.2074  0.0144  0.2417
 1425SOL    HW115911   4.096   4.554   3.134  1.7804  1.3818  0.8489
 1425SOL    HW215912   4.139   4.427   3.185 -0.1974 -0.4829  1.5053
 1426SOL     OW15913   3.784   3.332   7.500  0.2841 -0.3302 -0.0425
 1426SOL    HW115914   3.768   3.282   7.420  1.4686 -0.7716  0.0030
 1426SOL    HW215915   3.856   3.391   7.477 -0.2852  0.5082  0.3169
 1427SOL     OW15916   3.291   0.548   4.585 -0.3436 -0.0575 -0.0969
 1427SOL    HW115917   3.208   0.541   4.537 -0.7727  0.4922  0.5601
 1427SOL    HW215918   3.350   0.490   4.537 -0.5277 -1.0862  0.9100
 1428SOL     OW15919   1.504   2.779   2.328 -0.0370 -0.9301  0.1003
 1428SOL    HW115920   1.439   2.779   2.257 -0.6680  1.6180  0.6926
 1428SOL    HW215921   1.445   2.758   2.401  0.6461  0.1574  0.9592
 1429SOL     OW15922   4.424   4.150   6.868  0.3058 -0.4012  0.1421
 1429SOL    HW115923   4.409   4.193   6.952 -0.7470  0.3384 -0.4329
 1429SOL    HW215924   4.445   4.065   6.907 -1.0417 -1.2107 -0.9443
 1430SOL     OW15925   3.756   3.544   4.880 -0.0299 -0.0773 -0.0268
 1430SOL    HW115926   3.819   3.605   4.917 -1.5369  1.6329 -0.3211
 1430SOL    HW215927   3.681   3.601   4.868 -1.2684 -1.9158 -1.0437
 1431SOL     OW15928   2.207   1.760   7.281  0.7940  0.2397  0.0323
 1431SOL    HW115929   2.279   1.819   7.256  2.2859 -1.4257  0.3975
 1431SOL    HW215930   2.215   1.758   7.376 -2.9903 -1.7178  0.2876
 1432SOL     OW15931   4.472   3.652   7.577 -0.0153 -0.2720  0.4841
 1432SOL    HW115932   4.499   3.626   7.665  0.1139 -0.4756  0.3844
 1432SOL    HW215933   4.457   3.746   7.569 -1.0067 -0.7163 -3.0509
 1433SOL     OW15934   3.864   4.610   4.763 -0.0615 -0.5930 -0.0244
 1433SOL    HW115935   3.932   4.563   4.812  0.1187  1.1870  1.4385
 1433SOL    HW215936   3.783   4.586   4.808  0.8770  0.5689  2.2638
 1434SOL     OW15937   2.665   3.539  15.748  0.3790  0.0918 -0.2849
 1434SOL    HW115938   2.690   3.488  15.671  4.4425  1.4629  0.1063
 1434SOL    HW215939   2.743   3.533  15.804  0.2211  0.7416  0.0021
 1435SOL     OW15940   2.976   2.694   2.060  0.0468 -0.7775 -0.3843
 1435SOL    HW115941   2.886   2.666   2.045 -0.0578 -0.7161  0.1352
 1435SOL    HW215942   3.005   2.703   1.969  2.1664 -0.2411  0.3454
 1436SOL     OW15943   3.139   4.679   5.729  0.4519 -0.2169 -0.0448
 1436SOL    HW115944   3.074   4.611   5.712  2.4899 -1.9187 -0.9203
 1436SOL    HW215945   3.086   0.004   5.781  1.3930  0.9947 -0.4918
 1437SOL     OW15946   2.740   0.970   8.084 -0.0204  0.5191  0.2221
 1437SOL    HW115947   2.660   1.012   8.114 -0.2627 -0.4427  0.9362
 1437SOL    HW215948   2.771   0.921   8.160  0.5867  0.6185  0.0384
 1438SOL     OW15949   4.089   2.174   4.236 -0.1127 -0.2744  0.1105
 1438SOL    HW115950   4.036   2.253   4.235  2.8554  1.6767 -1.9255
 1438SOL    HW215951   4.133   2.188   4.152 -0.4504  0.7664  0.1213
 1439SOL     OW15952   3.733   0.060   8.505 -0.0857 -0.2255 -0.2108
 1439SOL    HW115953   3.823   0.034   8.482 -0.5604 -2.5146  0.4773
 1439SOL    HW215954   3.731   0.051   8.600  0.5263 -0.2026 -0.1913
 1440SOL     OW15955   0.961   1.289  12.229  0.1146 -0.4025 -0.3573
 1440SOL    HW115956   0.907   1.263  12.154 -0.4656  0.3216 -0.1897
 1440SOL    HW215957   0.890   1.286  12.293 -1.7392 -2.0559 -2.4965
 1441SOL     OW15958   1.970   1.562   8.974  0.0234 -0.7100  0.1216
 1441SOL    HW115959   1.947   1.470   8.980  0.5563 -0.9331 -1.1087
 1441SOL    HW215960   1.901   1.591   8.914 -0.0933 -3.0259 -0.8379
 1442SOL     OW15961   2.979   4.044  11.773  0.0976 -0.0326  0.5378
 1442SOL    HW115962   3.011   4.001  11.853  0.4879 -0.0630  0.3653
 1442SOL    HW215963   2.967   4.134  11.803  0.8142  0.5292 -0.9004
 1443SOL     OW15964   2.191   4.098  12.763  0.3503 -0.4594 -0.4147
 1443SOL    HW115965   2.162   4.122  12.851 -1.1541  1.0050 -1.3193
 1443SOL    HW215966   2.269   4.150  12.746 -1.4585  2.1360 -0.7349
 1444SOL     OW15967   1.728   1.200  12.063  0.3351  0.1578 -0.8089
 1444SOL    HW115968   1.800   1.208  12.125 -0.7374  1.1105  0.3155
 1444SOL    HW215969   1.740   1.108  12.041  0.4390 -0.2546  1.0034
 1445SOL     OW15970   0.603   4.699   4.991 -0.0664  0.1223  0.6014
 1445SOL    HW115971   0.694   4.674   5.010 -0.6063 -0.9179  1.8116
 1445SOL    HW215972   0.554   4.727   5.069 -1.6220  0.7405 -0.6062
 1446SOL     OW15973   0.425   3.603   6.139  0.1527  0.4415  0.3367
 1446SOL    HW115974   0.410   3.663   6.212  1.9174 -0.8606  1.7620
 1446SOL    HW215975   0.427   3.665   6.066  2.0320 -0.9951 -0.8645
 1447SOL     OW15976   2.511   2.785   1.720  0.1407 -0.6309 -0.2280
 1447SOL    HW115977   2.596   2.793   1.762  1.1332  0.1505 -2.3940
 1447SOL    HW215978   2.465   2.727   1.780 -0.8105  1.7794  1.4037
 1448SOL     OW15979   3.116   0.551   1.938  0.8390  0.2791  0.2374
 1448SOL    HW115980   3.205   0.545   1.971  1.3587  1.5227 -0.9503
 1448SOL    HW215981   3.118   0.471   1.886 -2.0500  0.6606 -0.4880
 1449SOL     OW15982   3.570   3.366   9.602 -0.3150  0.2680 -0.2077
 1449SOL    HW115983   3.634   3.296   9.619  0.2013  0.5641 -0.9666
 1449SOL    HW215984   3.501   3.322   9.552  1.0138 -2.1777  0.1124
 1450SOL     OW15985   4.486   0.042   1.316 -0.1171  0.3530  0.0167
 1450SOL    HW115986   4.463   0.001   1.400 -0.1138  2.2555  0.9457
 1450SOL    HW215987   4.434   0.121   1.330 -1.3925 -0.6883  1.2209
 1451SOL     OW15988   1.200   3.415  11.403 -0.1241 -0.6154 -0.3247
 1451SOL    HW115989   1.107   3.397  11.392 -0.2305  0.1764 -0.7161
 1451SOL    HW215990   1.217   3.345  11.465  0.4318 -1.1049 -1.0328
 1452SOL     OW15991   1.739   2.411  10.863  0.0027  0.0753  0.7932
 1452SOL    HW115992   1.813   2.445  10.914  0.6335 -0.0738 -0.0107
 1452SOL    HW215993   1.673   2.450  10.920 -0.3146  2.4728 -1.1892
 1453SOL     OW15994   1.216   2.334   2.456 -0.0428  0.0596  0.1771
 1453SOL    HW115995   1.152   2.384   2.405  1.0035  1.3266  0.0929
 1453SOL    HW215996   1.234   2.260   2.398 -0.4194  0.3257 -0.2818
 1454SOL     OW15997   1.496   2.682   4.003  0.2074  0.1885 -0.1778
 1454SOL    HW115998   1.409   2.683   4.043  0.7368 -2.2700  1.0222
 1454SOL    HW215999   1.516   2.590   4.022 -0.9330 -0.0755 -0.2574
 1455SOL     OW16000   4.576   2.692  11.819  0.3589 -0.3486  0.1249
 1455SOL    HW116001   4.604   2.783  11.810 -1.0709  0.0176 -0.5999
 1455SOL    HW216002   4.531   2.669  11.738 -0.1658 -0.7571  0.5292
 1456SOL     OW16003   2.736   3.640   7.158  1.0049  0.7376  0.2832
 1456SOL    HW116004   2.730   3.637   7.253  0.9554  1.4674  0.3042
 1456SOL    HW216005   2.675   3.712   7.146  0.5374  0.1462 -0.8922
 1457SOL     OW16006   3.832   2.336   9.728  0.2562  0.5223  0.3881
 1457SOL    HW116007   3.878   2.408   9.684  0.6803  1.8804  3.0586
 1457SOL    HW216008   3.883   2.328   9.808 -1.6951  0.3507  1.5971
 1458SOL     OW16009   1.205   4.708   2.932 -0.2480  0.2430 -0.3781
 1458SOL    HW116010   1.270   4.661   2.880  1.6646 -0.0088  2.2350
 1458SOL    HW216011   1.122   4.692   2.887 -0.7440 -0.5743  0.8206
 1459SOL     OW16012   3.043   3.927   3.367  0.0191 -0.1514  0.2318
 1459SOL    HW116013   3.033   4.013   3.326  1.2850 -0.6083 -1.0272
 1459SOL    HW216014   3.139   3.930   3.370 -0.0446  3.4383 -1.7454
 1460SOL     OW16015   1.437   1.146   7.525  0.0684  0.2788  0.2432
 1460SOL    HW116016   1.429   1.065   7.475 -2.0480 -0.4362  1.7671
 1460SOL    HW216017   1.384   1.208   7.475 -1.3760 -2.5934 -1.7766
 1461SOL     OW16018   3.376   4.666   8.079  0.2686 -0.1698 -0.1841
 1461SOL    HW116019   3.392   4.733   8.145  0.4457 -0.3645 -0.0305
 1461SOL    HW216020   3.456   4.616   8.099  0.2930  0.3969  1.0892
 1462SOL     OW16021   3.987   2.299  17.703  0.0600 -0.2939  0.8586
 1462SOL    HW116022   4.080   2.308  17.723  0.3802 -0.5231 -0.5086
 1462SOL    HW216023   3.973   2.212  17.665 -1.4617 -0.2493  1.3056
 1463SOL     OW16024   0.140   2.357   0.858 -0.2353 -0.1328  0.2264
 1463SOL    HW116025   0.096   2.428   0.810 -1.1399 -0.4709  0.5496
 1463SOL    HW216026   0.231   2.363   0.830 -0.2413 -1.6256 -0.0854
 1464SOL     OW16027   2.930   3.474   4.610 -0.5168 -0.4860  0.3736
 1464SOL    HW116028   2.885   3.483   4.694 -0.9613  1.6413 -0.0936
 1464SOL    HW216029   3.021   3.463   4.637 -1.0197  2.3765  3.1561
 1465SOL     OW16030   4.596   3.610  17.035 -0.1879  0.1510 -0.2568
 1465SOL    HW116031   4.585   3.704  17.022  1.7956  0.4629  0.4333
 1465SOL    HW216032   4.574   3.612  17.128 -0.2416  1.7512 -0.3046
 1466SOL     OW16033   2.803   3.795   7.818  0.3367  0.6314 -0.0068
 1466SOL    HW116034   2.839   3.711   7.789  3.3893  1.5406  1.1561
 1466SOL    HW216035   2.726   3.764   7.865  0.1629  1.0171 -0.0358
 1467SOL     OW16036   2.274   0.978   8.227  0.3140  0.5711 -0.2523
 1467SOL    HW116037   2.236   1.065   8.214 -1.2205 -0.1787 -0.9054
 1467SOL    HW216038   2.360   0.992   8.265 -0.7944  2.1090  1.7481
 1468SOL     OW16039   1.338   4.414   3.193 -0.0947 -0.1278  0.5485
 1468SOL    HW116040   1.310   4.503   3.214  0.8379  0.5814 -1.2225
 1468SOL    HW216041   1.271   4.396   3.126 -1.1203  4.4446  0.3293
 1469SOL     OW16042   3.744   3.178   9.608  0.3088  0.3700  0.3949
 1469SOL    HW116043   3.816   3.182   9.672  1.6222  2.1326 -1.2113
 1469SOL    HW216044   3.788   3.123   9.543 -0.4597  1.2175 -0.8256
 1470SOL     OW16045   1.839   4.553  11.327 -0.0272  0.0618 -0.3760
 1470SOL    HW116046   1.807   4.591  11.408 -1.7593  1.8601 -1.9085
 1470SOL    HW216047   1.876   4.474  11.367  0.0721  1.4222  2.1668
 1471SOL     OW16048   2.974   2.338  16.322  0.0873 -0.2002  0.0207
 1471SOL    HW116049   2.937   2.264  16.370  0.6448 -0.7483 -0.3945
 1471SOL    HW216050   3.065   2.309  16.313 -0.2228 -1.1758  0.0217
 1472SOL     OW16051   2.226   0.198   3.726  0.3991 -0.1916  0.3999
 1472SOL    HW116052   2.134   0.212   3.751  1.4085  1.4903  3.1819
 1472SOL    HW216053   2.259   0.281   3.759  1.0497 -0.1546 -0.3538
 1473SOL     OW16054   2.200   2.004   1.445  0.2545 -0.1692 -0.5160
 1473SOL    HW116055   2.221   2.079   1.500  1.2393  0.3309 -1.5721
 1473SOL    HW216056   2.122   2.036   1.402 -0.4919 -2.1392 -0.6465
 1474SOL     OW16057   1.607   2.403   3.302  0.0461  0.4934 -0.0371
 1474SOL    HW116058   1.533   2.384   3.243  0.0780 -2.3295  0.8250
 1474SOL    HW216059   1.660   2.326   3.280  1.5158  1.4025  0.3248
 1475SOL     OW16060   3.052   2.886   6.719  0.3531  0.7546  0.2789
 1475SOL    HW116061   3.134   2.871   6.765 -0.4811 -0.6540  1.3096
 1475SOL    HW216062   3.047   2.805   6.668 -2.7186 -0.3086  2.2620
 1476SOL     OW16063   4.022   2.594   0.232  0.4575 -0.0278 -0.4074
 1476SOL    HW116064   4.000   2.588   0.325  0.5584 -3.5143 -0.5922
 1476SOL    HW216065   4.005   2.503   0.205  1.1641  0.2709 -1.8598
 1477SOL     OW16066   2.558   1.206  16.384  0.6598 -0.0624  0.7101
 1477SOL    HW116067   2.560   1.128  16.438  3.5124 -0.9890 -0.7386
 1477SOL    HW216068   2.487   1.184  16.322 -0.1581  0.7175  1.3674
 1478SOL     OW16069   0.151   2.305   4.093  0.8061  0.5583 -0.1960
 1478SOL    HW116070   0.163   2.223   4.141 -0.3486  0.0566 -0.7760
 1478SOL    HW216071   0.058   2.324   4.085  1.0205  2.1846  1.1238
 1479SOL     OW16072   1.182   1.828  17.271  0.3664  0.3035  1.0739
 1479SOL    HW116073   1.088   1.828  17.292  0.1702 -0.1753  0.1794
 1479SOL    HW216074   1.203   1.736  17.253  1.8254  0.9054 -0.3155
 1480SOL     OW16075   3.556   4.433   5.901 -0.3086 -0.3435  0.3066
 1480SOL    HW116076   3.610   4.380   5.843 -1.7971  0.2357 -1.6123
 1480SOL    HW216077   3.481   4.448   5.844 -1.1886 -2.5442  0.9036
 1481SOL     OW16078   0.572   1.499  12.223 -0.6582  0.0254  0.1332
 1481SOL    HW116079   0.624   1.515  12.302  2.3507  1.7034 -2.1674
 1481SOL    HW216080   0.630   1.530  12.153 -0.6553  2.5019  1.2222
 1482SOL     OW16081   3.409   0.418   6.720  0.3355 -0.3022 -0.2157
 1482SOL    HW116082   3.416   0.357   6.647 -2.1801  0.3098 -0.9804
 1482SOL    HW216083   3.486   0.474   6.711 -0.2012  0.6777  1.1613
 1483SOL     OW16084   1.030   0.044   9.641  0.5885 -0.3710 -0.2256
 1483SOL    HW116085   1.036   0.056   9.546 -0.7130  2.5584  0.0584
 1483SOL    HW216086   1.118   0.074   9.666 -0.0890  0.5651  1.0094
 1484SOL     OW16087   0.052   4.254   8.438  0.0009  0.0834  0.0190
 1484SOL    HW116088   0.030   4.347   8.429  1.1354  0.2236 -1.3159
 1484SOL    HW216089   0.133   4.262   8.388  0.7124  0.0553  1.1717
 1485SOL     OW16090   0.907   0.544  11.740  0.6857 -0.5209  0.6557
 1485SOL    HW116091   0.841   0.563  11.674  0.2053  0.3711  1.3928
 1485SOL    HW216092   0.890   0.604  11.812  0.9853 -0.4294  0.6513
 1486SOL     OW16093   3.274   4.554   0.308 -0.0987 -0.2693  0.5381
 1486SOL    HW116094   3.186   4.553   0.345 -1.1553  1.3034 -1.9989
 1486SOL    HW216095   3.255   4.525   0.219 -3.3973 -1.7978  1.7357
 1487SOL     OW16096   4.431   3.174   6.887 -0.6188  0.2316  0.3027
 1487SOL    HW116097   4.426   3.261   6.847  0.0862  0.6935  1.1969
 1487SOL    HW216098   4.512   3.169   6.938  1.0298  1.1497 -2.2179
 1488SOL     OW16099   4.404   1.352   3.943 -0.3750 -0.6308  0.0271
 1488SOL    HW116100   4.318   1.311   3.950 -0.4485 -0.8306 -2.1012
 1488SOL    HW216101   4.384   1.445   3.933  0.3760 -0.3550  0.9866
 1489SOL     OW16102   2.859   1.282  13.358 -0.1983  0.3292  0.5945
 1489SOL    HW116103   2.830   1.358  13.409 -0.8502  0.5058 -0.0413
 1489SOL    HW216104   2.858   1.332  13.276  0.6595 -4.0061 -2.0395
 1490SOL     OW16105   1.377   2.466   7.572  0.9588  0.3121  0.5114
 1490SOL    HW116106   1.394   2.447   7.480  0.7540  0.4034  0.4554
 1490SOL    HW216107   1.372   2.382   7.617 -0.8303 -0.0900 -0.4269
 1491SOL     OW16108   1.629   1.428   6.557 -0.6751  0.2908 -0.3966
 1491SOL    HW116109   1.584   1.419   6.641  0.5704 -1.1952  0.1112
 1491SOL    HW216110   1.643   1.335   6.536  2.5223  0.6957  0.0635
 1492SOL     OW16111   2.583   4.238   3.961 -0.1681  0.5415  0.1320
 1492SOL    HW116112   2.657   4.222   4.020  0.1734  0.6668 -0.2627
 1492SOL    HW216113   2.600   4.331   3.945 -1.8884  0.3743 -2.7584
 1493SOL     OW16114   0.869   2.946   4.489  0.1242  0.1494 -0.0878
 1493SOL    HW116115   0.885   2.867   4.540 -0.3648  0.1647  0.0908
 1493SOL    HW216116   0.805   2.990   4.545 -0.5312 -0.9358  0.0080
 1494SOL     OW16117   2.087   0.413   5.712 -0.4972 -0.0271  0.3299
 1494SOL    HW116118   2.067   0.451   5.627  3.3047  0.7931 -0.2201
 1494SOL    HW216119   2.183   0.411   5.704 -0.6018  0.9487 -1.2052
 1495SOL     OW16120   3.185   1.365   7.213  0.0549  0.2012  0.1773
 1495SOL    HW116121   3.277   1.385   7.229 -0.1718 -0.1085  1.8808
 1495SOL    HW216122   3.181   1.368   7.118  1.6960 -1.2196  0.0397
 1496SOL     OW16123   4.541   2.989  17.626 -0.1201  0.2127  1.0606
 1496SOL    HW116124   4.526   3.048  17.700  0.7000  0.7826  0.7673
 1496SOL    HW216125   4.532   3.049  17.551 -1.0743 -0.8816  0.2852
 1497SOL     OW16126   0.962   2.095   9.977  0.5050 -0.0871 -0.2971
 1497SOL    HW116127   1.000   2.153  10.043 -0.4706  1.3295 -0.9845
 1497SOL    HW216128   0.867   2.088   9.989  0.4593  2.5170  0.7967
 1498SOL     OW16129   2.815   1.481   3.200  0.1140  0.5013  0.1841
 1498SOL    HW116130   2.785   1.433   3.123  2.4869  0.7886 -0.8919
 1498SOL    HW216131   2.843   1.564   3.162 -1.0314 -0.0320 -1.8216
 1499SOL     OW16132   0.934   1.677   4.198 -0.0356  0.3854 -0.2992
 1499SOL    HW116133   1.022   1.654   4.165  0.5403  2.0260  0.0930
 1499SOL    HW216134   0.897   1.723   4.122  0.6905  0.3892 -0.6609
 1500SOL     OW16135   1.522   3.842  15.037 -0.0893  0.5568 -0.4811
 1500SOL    HW116136   1.455   3.775  15.053 -0.8150  1.6004  0.7810
 1500SOL    HW216137   1.483   3.904  15.097  1.1124 -0.1252  0.9956
 1501SOL     OW16138   3.192   3.004   0.844 -0.7779  0.4032 -0.1294
 1501SOL    HW116139   3.120   3.021   0.783 -1.1886 -0.7191  0.0357
 1501SOL    HW216140   3.238   2.935   0.795  2.2140  2.3197 -0.0210
 1502SOL     OW16141   1.810   0.028  15.610  0.0333  0.2543  0.0567
 1502SOL    HW116142   1.871   4.724  15.547  1.3545  0.8903  0.9545
 1502SOL    HW216143   1.846   0.113  15.633  2.0576 -1.1297  2.0390
 1503SOL     OW16144   1.219   2.239   2.723 -0.2115 -0.4826  0.2005
 1503SOL    HW116145   1.185   2.158   2.684  0.0960  0.1637 -1.4051
 1503SOL    HW216146   1.219   2.287   2.640  0.5449 -0.9085 -0.0510
 1504SOL     OW16147   3.046   0.098  17.534 -0.1653  0.6994  0.1021
 1504SOL    HW116148   3.093   0.025  17.495  0.2203  0.7918  0.3941
 1504SOL    HW216149   2.959   0.057  17.541 -0.7019  1.4654 -2.0682
 1505SOL     OW16150   3.978   3.449  14.570  0.0534  0.4539  0.1065
 1505SOL    HW116151   4.008   3.495  14.492  1.0255 -2.5035 -1.2679
 1505SOL    HW216152   3.887   3.425  14.553 -0.2850  1.8399  0.0065
 1506SOL     OW16153   3.756   3.222   7.227 -0.5594  0.2031 -0.1356
 1506SOL    HW116154   3.765   3.249   7.136  1.2383 -0.3776 -0.1279
 1506SOL    HW216155   3.783   3.130   7.222 -0.7066  0.2541 -1.7851
 1507SOL     OW16156   1.122   3.237   8.116  0.2301 -0.4252  0.4984
 1507SOL    HW116157   1.196   3.293   8.138  0.3123 -0.8099  1.2025
 1507SOL    HW216158   1.137   3.221   8.023 -1.5237 -0.3055  0.1865
 1508SOL     OW16159   2.830   4.684  17.510 -0.3621 -0.2811  0.1914
 1508SOL    HW116160   2.783   4.633  17.444  1.0021  1.7807 -2.3321
 1508SOL    HW216161   2.765   4.669  17.579  0.5792 -0.9792  0.9257
 1509SOL     OW16162   3.289   1.030   6.484  0.7470 -0.2255  0.1613
 1509SOL    HW116163   3.329   0.956   6.530 -0.3713 -1.6080 -1.0849
 1509SOL    HW216164   3.213   0.995   6.438 -0.0026  2.6885 -0.8466
 1510SOL     OW16165   1.984   1.283   3.297 -0.1044  0.1321 -0.3095
 1510SOL    HW116166   1.971   1.205   3.243 -0.8607  1.4777 -2.0871
 1510SOL    HW216167   2.051   1.262   3.362 -0.0193  1.2467 -0.0315
 1511SOL     OW16168   4.108   2.373   9.496 -0.3014  0.0043 -0.6126
 1511SOL    HW116169   4.044   2.414   9.555  0.7221  0.2081  0.3478
 1511SOL    HW216170   4.136   2.302   9.553 -3.0429  0.1186  0.8895
 1512SOL     OW16171   3.088   1.862   1.825  0.2807 -0.2008  0.2274
 1512SOL    HW116172   3.109   1.814   1.905 -2.0330 -0.8941  0.4055
 1512SOL    HW216173   2.996   1.847   1.804  0.0624 -0.9850  1.8005
 1513SOL     OW16174   0.600   1.647  17.308  0.3840  0.1468  0.6050
 1513SOL    HW116175   0.543   1.618  17.379  0.1062  1.5502  0.9583
 1513SOL    HW216176   0.545   1.622  17.234 -0.4336 -0.2427  1.3499
 1514SOL     OW16177   3.355   0.049   3.039 -0.2213 -0.2240  0.0211
 1514SOL    HW116178   3.313   0.134   3.027  2.4939  1.4584  2.3543
 1514SOL    HW216179   3.307   0.023   3.117 -1.8642  0.1395 -0.8779
 1515SOL     OW16180   0.754   2.152   7.617  0.6161 -0.0077  0.6809
 1515SOL    HW116181   0.803   2.179   7.540 -2.2545  1.3778 -0.6860
 1515SOL    HW216182   0.687   2.104   7.568  0.4876  0.5253  0.3425
 1516SOL     OW16183   0.126   1.117   7.648 -0.2124 -0.2311  0.0416
 1516SOL    HW116184   0.199   1.136   7.589  0.2976 -1.3735  0.3089
 1516SOL    HW216185   0.081   1.201   7.654  1.8710  0.7522  1.9262
 1517SOL     OW16186   1.512   2.495   1.578 -0.2141 -0.2844 -0.4606
 1517SOL    HW116187   1.478   2.510   1.490 -1.3429  0.7724  0.1420
 1517SOL    HW216188   1.543   2.584   1.596 -2.4318  0.8229 -2.1004
 1518SOL     OW16189   1.108   1.584   6.061  0.3103  0.0044 -0.5114
 1518SOL    HW116190   1.141   1.640   6.131 -0.0246 -0.7567  0.2583
 1518SOL    HW216191   1.018   1.576   6.093  0.6654  2.3855  1.0873
 1519SOL     OW16192   2.280   3.759   6.299  0.4119 -0.1845  0.0582
 1519SOL    HW116193   2.288   3.759   6.395 -0.3484 -1.1974  0.1212
 1519SOL    HW216194   2.185   3.760   6.301  0.4420 -0.4936  2.3153
 1520SOL     OW16195   1.435   2.463   4.433 -0.2413 -0.1810 -0.1905
 1520SOL    HW116196   1.445   2.375   4.398 -0.7273 -1.5528  3.1152
 1520SOL    HW216197   1.344   2.468   4.461 -0.6764 -1.4054 -1.4107
 1521SOL     OW16198   1.135   2.304  11.421 -0.4882  0.0532  0.2214
 1521SOL    HW116199   1.049   2.330  11.455 -1.6885 -2.6507 -0.7311
 1521SOL    HW216200   1.122   2.301  11.326  0.3614 -1.8839  0.1699
 1522SOL     OW16201   2.743   0.918  14.653 -0.0228 -0.7355 -0.1146
 1522SOL    HW116202   2.708   1.001  14.687  0.0150 -1.9018  2.8018
 1522SOL    HW216203   2.659   0.876  14.634  0.1328 -1.2381  0.3019
 1523SOL     OW16204   4.074   2.933   3.388  0.6284  0.0107  0.5859
 1523SOL    HW116205   3.985   2.906   3.366  0.8549  1.3354 -1.9429
 1523SOL    HW216206   4.052   3.024   3.408  3.3567  0.8232 -0.1512
 1524SOL     OW16207   4.201   3.088  15.251  0.4146 -0.4688 -0.0483
 1524SOL    HW116208   4.125   3.146  15.244  0.2785 -0.7292 -0.6999
 1524SOL    HW216209   4.264   3.155  15.279  0.5844  0.2948 -2.3037
 1525SOL     OW16210   4.042   4.584   8.584 -0.5554  0.1867 -0.2135
 1525SOL    HW116211   4.108   4.528   8.544  0.9445  3.2479 -2.0543
 1525SOL    HW216212   4.016   4.635   8.508  1.7070  1.6171 -0.0474
 1526SOL     OW16213   4.035   4.217   4.897  0.2007  0.5222  0.5472
 1526SOL    HW116214   4.042   4.299   4.947  1.6634  0.2743  0.7569
 1526SOL    HW216215   4.107   4.231   4.834 -1.8107 -0.1570 -1.8870
 1527SOL     OW16216   4.459   2.967   1.432  0.0878  0.2074 -0.4860
 1527SOL    HW116217   4.545   2.925   1.442 -0.8302 -1.0228  2.2037
 1527SOL    HW216218   4.483   3.051   1.393  2.3526 -0.9462 -1.6088
 1528SOL     OW16219   0.478   1.370   4.607 -0.0953 -0.0913  0.8548
 1528SOL    HW116220   0.566   1.408   4.599 -0.3600 -0.0898 -1.9016
 1528SOL    HW216221   0.441   1.398   4.523 -1.2712  2.3088  2.1478
 1529SOL     OW16222   3.597   0.478  14.325  0.4414  0.5542 -0.1273
 1529SOL    HW116223   3.559   0.468  14.238  2.1027 -0.9995 -0.6705
 1529SOL    HW216224   3.565   0.566  14.342  2.6547  1.6963 -1.8544
 1530SOL     OW16225   0.592   0.884   0.342  0.1364 -0.1323  0.4550
 1530SOL    HW116226   0.573   0.864   0.250  1.8452  0.1084  0.0429
 1530SOL    HW216227   0.508   0.917   0.374  0.0125  0.8409 -0.8819
 1531SOL     OW16228   0.582   3.197   2.322  0.0614 -0.0123  0.3410
 1531SOL    HW116229   0.518   3.259   2.356 -0.7560 -0.4321 -0.4603
 1531SOL    HW216230   0.543   3.119   2.363  0.3386 -1.3840 -2.0236
 1532SOL     OW16231   1.258   0.198  12.046  0.0080  0.0488 -0.1659
 1532SOL    HW116232   1.189   0.132  12.037 -0.3774  0.6756 -1.8677
 1532SOL    HW216233   1.228   0.253  12.118 -0.5012 -1.1652  0.5544
 1533SOL     OW16234   1.134   2.133   1.243  0.3029 -0.7821 -0.3199
 1533SOL    HW116235   1.098   2.183   1.169 -0.6078  0.4582  0.9780
 1533SOL    HW216236   1.186   2.197   1.292 -0.8623  0.7581 -1.1020
 1534SOL     OW16237   2.413   2.141   8.286 -0.1633 -0.1479  0.7269
 1534SOL    HW116238   2.329   2.157   8.328 -0.7545  2.0216 -1.2471
 1534SOL    HW216239   2.475   2.176   8.350  0.5646 -1.0155  0.5013
 1535SOL     OW16240   4.431   3.515  10.662 -0.5168  0.0914  0.2574
 1535SOL    HW116241   4.490   3.475  10.598 -0.6921 -1.4215  1.0237
 1535SOL    HW216242   4.352   3.464  10.644 -1.9711  1.5617  2.5891
 1536SOL     OW16243   3.628   2.248  15.234  0.0854 -0.2896  0.2348
 1536SOL    HW116244   3.652   2.173  15.288  0.0051 -1.1064 -0.8618
 1536SOL    HW216245   3.593   2.308  15.300  2.5858  0.9764  0.3941
 1537SOL     OW16246   4.005   4.332   8.090  0.0788  0.4340  0.0040
 1537SOL    HW116247   4.094   4.303   8.110 -0.7556 -1.6795  0.6054
 1537SOL    HW216248   3.967   4.323   8.177  1.0802  0.2606  0.4244
 1538SOL     OW16249   3.703   3.240   1.349 -0.3643 -0.0825  0.3828
 1538SOL    HW116250   3.688   3.161   1.401  2.9231 -1.0822 -0.1798
 1538SOL    HW216251   3.616   3.256   1.313 -0.9532 -0.1628  1.7509
 1539SOL     OW16252   3.272   1.589   3.131 -0.4861  0.0401  0.2694
 1539SOL    HW116253   3.328   1.566   3.057 -2.7973 -1.4584 -1.0104
 1539SOL    HW216254   3.343   1.618   3.188  1.1694 -2.4638 -0.5356
 1540SOL     OW16255   0.031   1.533  16.505  0.5692 -0.0465 -0.4958
 1540SOL    HW116256   0.017   1.563  16.415  1.0888 -1.5505 -1.0857
 1540SOL    HW216257   0.082   1.454  16.485 -1.7447 -1.8263  0.6404
 1541SOL     OW16258   3.524   0.390   3.517 -0.1703  0.0690  0.2590
 1541SOL    HW116259   3.510   0.299   3.546  2.7420 -0.3785  0.3117
 1541SOL    HW216260   3.518   0.380   3.422 -0.9795  0.8226  0.2406
 1542SOL     OW16261   0.595   3.297  12.320 -0.3036 -0.2651 -0.5268
 1542SOL    HW116262   0.607   3.365  12.254 -0.0844  0.3134  0.1060
 1542SOL    HW216263   0.509   3.269  12.290 -1.6715  4.2920 -0.9761
 1543SOL     OW16264   2.908   0.114   5.027  0.6175  0.0976 -0.3554
 1543SOL    HW116265   2.995   0.122   4.989 -0.0923 -2.7791 -2.5984
 1543SOL    HW216266   2.861   0.091   4.947  1.1228 -1.7503 -0.1139
 1544SOL     OW16267   2.073   3.093   5.734 -0.4138 -0.5754 -0.0082
 1544SOL    HW116268   2.103   3.178   5.702 -0.2098 -0.4056  0.6494
 1544SOL    HW216269   2.114   3.039   5.666  1.2411 -0.4494  0.8754
 1545SOL     OW16270   3.574   0.941  16.093 -0.2124  0.0655 -0.6041
 1545SOL    HW116271   3.526   1.024  16.091 -2.1571 -0.9415  2.1902
 1545SOL    HW216272   3.610   0.941  16.005  0.2897 -0.0679 -0.3979
 1546SOL     OW16273   4.563   3.624   2.000  0.2442 -0.0603 -0.3424
 1546SOL    HW116274   4.509   3.674   1.938  0.5577 -0.7596 -1.1786
 1546SOL    HW216275   4.654   3.641   1.974  0.5155  1.0405  1.3243
 1547SOL     OW16276   4.657   1.514   4.154  0.1915  0.1611  0.1694
 1547SOL    HW116277   4.617   1.583   4.102  0.7252 -1.6808 -2.6618
 1547SOL    HW216278   0.006   1.547   4.182  0.2435 -0.7316  1.0744
 1548SOL     OW16279   4.150   2.330  14.384 -0.2585 -0.0445 -0.9864
 1548SOL    HW116280   4.134   2.241  14.351  1.2093 -1.3174  1.7499
 1548SOL    HW216281   4.140   2.311  14.477  0.6404  0.9397 -0.6872
 1549SOL     OW16282   2.516   2.348   3.682  0.9254  0.3344 -0.6055
 1549SOL    HW116283   2.593   2.402   3.698  0.0278  1.6420 -0.6750
 1549SOL    HW216284   2.503   2.358   3.587 -1.5456 -1.3632 -0.4417
 1550SOL     OW16285   2.550   0.654   2.696  0.0255  0.1992 -1.2897
 1550SOL    HW116286   2.456   0.669   2.683  0.0110 -1.4206 -3.1460
 1550SOL    HW216287   2.575   0.566   2.669  0.1772  0.6493 -2.6567
 1551SOL     OW16288   2.319   2.061   5.844 -0.1377 -0.0115 -0.0159
 1551SOL    HW116289   2.287   2.050   5.933 -0.6037  0.0581 -0.1739
 1551SOL    HW216290   2.374   1.983   5.839  0.6751  0.4734  1.5728
 1552SOL     OW16291   0.100   2.460  14.626 -1.0344  0.1479  0.2797
 1552SOL    HW116292   0.109   2.465  14.531  1.3945  1.3233  0.5585
 1552SOL    HW216293   0.055   2.542  14.648 -1.4047 -0.4821  1.8196
 1553SOL     OW16294   3.134   0.149  16.715 -0.0080  0.1232 -0.0019
 1553SOL    HW116295   3.156   0.238  16.689  0.4638 -0.0486 -0.1866
 1553SOL    HW216296   3.151   0.107  16.630  0.1246 -1.0253  0.5892
 1554SOL     OW16297   4.200   3.393   3.856 -0.2916 -0.1996 -0.0978
 1554SOL    HW116298   4.160   3.475   3.884 -0.5290  0.4180 -2.2668
 1554SOL    HW216299   4.141   3.324   3.887  0.6439  0.0577  2.2995
 1555SOL     OW16300   2.558   2.168   0.581  0.0951 -0.2853  0.1041
 1555SOL    HW116301   2.631   2.106   0.575  0.4961  0.0285  1.7025
 1555SOL    HW216302   2.556   2.187   0.487 -1.7918  0.6024  0.3275
 1556SOL     OW16303   2.743   3.419   6.074 -0.3927 -0.1438 -0.3895
 1556SOL    HW116304   2.703   3.504   6.093 -1.3717 -1.0505  1.7008
 1556SOL    HW216305   2.664   3.366   6.081 -0.7990  0.5919  0.6234
 1557SOL     OW16306   3.788   3.686   1.089  1.0957  0.7627  0.3370
 1557SOL    HW116307   3.779   3.748   1.017 -0.3307  0.6521  0.4118
 1557SOL    HW216308   3.752   3.743   1.157  0.3568  1.2492 -0.4568
 1558SOL     OW16309   3.466   1.347  14.068 -0.0913  0.5305 -0.2491
 1558SOL    HW116310   3.526   1.273  14.079 -0.7777  0.7184  4.7728
 1558SOL    HW216311   3.495   1.386  13.986 -1.0883 -0.9745 -1.3106
 1559SOL     OW16312   3.712   0.022   5.986  0.2517  0.0204  0.2412
 1559SOL    HW116313   3.706   4.673   6.031  3.6295 -0.0890  0.4733
 1559SOL    HW216314   3.647   0.011   5.916 -0.6909 -0.1263  1.1456
 1560SOL     OW16315   4.429   2.992   5.665  0.6592 -0.2572  0.1052
 1560SOL    HW116316   4.361   2.964   5.603  0.2857 -1.2873  0.9851
 1560SOL    HW216317   4.447   3.078   5.625 -1.3866  0.1378 -0.0155
 1561SOL     OW16318   2.402   4.024   9.368 -0.0479  0.0044  0.6752
 1561SOL    HW116319   2.361   4.110   9.358 -0.0210  0.1486  1.7944
 1561SOL    HW216320   2.484   4.055   9.330 -0.2612  0.3397  0.4955
 1562SOL     OW16321   0.920   2.469   6.785 -0.8719 -0.6123 -0.0875
 1562SOL    HW116322   0.894   2.424   6.705  0.1139 -1.3442  0.0052
 1562SOL    HW216323   0.942   2.395   6.843 -1.9443 -0.0272  1.0673
 1563SOL     OW16324   0.255   0.578   8.456 -0.4865 -0.0245  0.0857
 1563SOL    HW116325   0.266   0.578   8.551  0.5544  1.2698 -0.0253
 1563SOL    HW216326   0.333   0.524   8.439 -0.8827  0.1210 -2.1510
 1564SOL     OW16327   2.882   0.306   0.498  0.3668  0.3902  0.0810
 1564SOL    HW116328   2.955   0.244   0.502 -0.9152 -1.1399 -0.0146
 1564SOL    HW216329   2.861   0.310   0.405  2.6933 -1.1070 -0.5045
 1565SOL     OW16330   2.089   4.521   7.499 -0.0602 -0.1408  0.4108
 1565SOL    HW116331   2.039   4.485   7.426  1.1230  1.0903 -1.0053
 1565SOL    HW216332   2.143   4.442   7.506  0.9732  0.2537 -3.3325
 1566SOL     OW16333   4.349   1.727   5.948  0.3821 -0.5101  0.0253
 1566SOL    HW116334   4.327   1.713   5.856 -1.7697 -1.1568  0.6349
 1566SOL    HW216335   4.303   1.811   5.957  1.9278  0.2377  0.9601
 1567SOL     OW16336   4.088   2.258   1.557  0.4647  0.7562 -0.1616
 1567SOL    HW116337   4.070   2.164   1.552 -0.7238  0.8289  2.4948
 1567SOL    HW216338   4.142   2.284   1.482  0.4484  0.1171 -0.3892
 1568SOL     OW16339   2.363   3.375   6.734  0.1050  0.3314  0.4228
 1568SOL    HW116340   2.347   3.350   6.643 -0.9549  1.5465  0.2725
 1568SOL    HW216341   2.274   3.410   6.744 -0.2362 -0.8962  1.7924
 1569SOL     OW16342   0.388   0.431   9.743 -0.2768  0.5807 -0.1588
 1569SOL    HW116343   0.381   0.422   9.838  1.6867 -2.0630 -0.2652
 1569SOL    HW216344   0.321   0.366   9.720 -0.1927  0.6461 -0.5935
 1570SOL     OW16345   3.829   1.647   6.480 -0.2685  0.5824 -0.8160
 1570SOL    HW116346   3.782   1.660   6.398 -0.9345 -1.6254 -0.7637
 1570SOL    HW216347   3.764   1.623   6.546  1.3160 -4.4190 -1.0882
 1571SOL     OW16348   1.555   3.556   5.277  0.5365 -0.3864  0.0077
 1571SOL    HW116349   1.511   3.497   5.338  0.5701 -1.8461 -1.4079
 1571SOL    HW216350   1.644   3.549   5.312  0.3843 -1.3748  0.1729
 1572SOL     OW16351   3.425   0.924   4.380  0.1369  0.1360 -0.2586
 1572SOL    HW116352   3.357   0.896   4.319  0.2515 -0.9435  0.1185
 1572SOL    HW216353   3.492   0.860   4.358 -1.0015 -1.5357  1.1096
 1573SOL     OW16354   4.629   2.361   4.158 -0.0914 -0.0675 -0.0506
 1573SOL    HW116355   4.673   2.368   4.243  2.2237  1.2025 -1.3403
 1573SOL    HW216356   4.538   2.348   4.185 -0.2697  0.1043 -0.5562
 1574SOL     OW16357   2.251   0.641   7.555  0.1065 -0.1675  0.2493
 1574SOL    HW116358   2.190   0.575   7.588  0.7759  0.0654  1.9724
 1574SOL    HW216359   2.218   0.717   7.602  0.5576  0.7142 -0.8719
 1575SOL     OW16360   4.278   3.413   8.966  0.2611  0.3739 -0.3000
 1575SOL    HW116361   4.335   3.411   9.043  1.5046 -1.9193 -1.2458
 1575SOL    HW216362   4.307   3.492   8.921 -2.7979  0.7981 -1.5157
 1576SOL     OW16363   4.289   2.210   9.947  0.4342  0.1435  0.7373
 1576SOL    HW116364   4.304   2.245  10.034 -1.1842  0.5754  0.8431
 1576SOL    HW216365   4.369   2.166   9.919 -0.9281 -0.9788 -1.4482
 1577SOL     OW16366   4.728   0.313   1.929  0.1187  0.0087 -0.3183
 1577SOL    HW116367   4.686   0.305   2.014  0.9195  0.6022  0.1273
 1577SOL    HW216368   4.649   0.332   1.879 -0.1774 -0.4073 -0.0084
 1578SOL     OW16369   1.294   2.091   4.522 -0.0696  0.3659  0.1606
 1578SOL    HW116370   1.228   2.075   4.454 -0.5194 -1.4820  1.0112
 1578SOL    HW216371   1.342   2.144   4.459  1.4042 -2.4479 -1.0707
 1579SOL     OW16372   3.492   0.909   1.496 -0.7292 -0.2546  0.5939
 1579SOL    HW116373   3.461   0.973   1.432 -0.6205 -0.0649  0.7324
 1579SOL    HW216374   3.407   0.867   1.510 -1.7207  1.3005 -0.7596
 1580SOL     OW16375   0.847   0.137   7.533 -0.1031  0.2470 -0.5354
 1580SOL    HW116376   0.906   0.122   7.459  0.4472 -1.7024  0.2877
 1580SOL    HW216377   0.887   0.215   7.571 -1.5631 -0.2409  2.0796
 1581SOL     OW16378   1.406   3.098   4.528  0.5485  0.3842  0.4963
 1581SOL    HW116379   1.442   3.116   4.615 -0.3794 -1.4412  1.2540
 1581SOL    HW216380   1.322   3.059   4.552 -0.3036  0.4424 -2.4043
 1582SOL     OW16381   0.663   4.342   8.538 -0.6460  0.3118  0.0492
 1582SOL    HW116382   0.636   4.428   8.506  0.3350  0.9441  0.8950
 1582SOL    HW216383   0.593   4.284   8.510  1.1541 -1.5415 -0.5879
 1583SOL     OW16384   2.048   1.581   6.001  0.1253  0.1585  0.5477
 1583SOL    HW116385   2.112   1.559   5.933  0.9463  0.8375  1.0994
 1583SOL    HW216386   2.026   1.493   6.031 -1.7787 -0.3209 -2.2559
 1584SOL     OW16387   1.829   2.726  12.626 -0.7447 -0.2014 -0.0431
 1584SOL    HW116388   1.828   2.780  12.705 -3.1266 -1.6856  0.9388
 1584SOL    HW216389   1.792   2.798  12.575 -3.8515 -0.3177  2.0702
 1585SOL     OW16390   2.918   3.694   1.810  0.5272  0.0377 -0.7472
 1585SOL    HW116391   2.930   3.697   1.905 -0.3685  0.4573 -0.6410
 1585SOL    HW216392   2.988   3.754   1.785  0.6963  1.4115  2.9712
 1586SOL     OW16393   0.876   1.170   1.841  0.1536  0.0210 -0.2112
 1586SOL    HW116394   0.892   1.112   1.916 -0.5281  0.1792  0.0648
 1586SOL    HW216395   0.940   1.133   1.781 -0.8400  0.3445 -1.4526
 1587SOL     OW16396   0.582   4.601   8.784 -0.3659  0.0872  0.3967
 1587SOL    HW116397   0.513   4.535   8.791 -0.1704 -0.0176  1.3354
 1587SOL    HW216398   0.534   4.669   8.831  1.3819  0.7054  1.3066
 1588SOL     OW16399   3.344   2.219   6.398  0.5714  0.7455 -0.8498
 1588SOL    HW116400   3.347   2.290   6.333  1.8736 -0.7567 -2.4118
 1588SOL    HW216401   3.437   2.218   6.421  0.4518  1.4476 -0.3304
 1589SOL     OW16402   2.162   0.829   7.750 -0.1318  0.1701 -0.2149
 1589SOL    HW116403   2.083   0.826   7.697 -0.8357 -0.0193  0.8545
 1589SOL    HW216404   2.128   0.862   7.833  1.3443  1.1837 -0.0131
 1590SOL     OW16405   2.643   3.910   8.965 -0.0979 -0.3354 -0.0131
 1590SOL    HW116406   2.683   3.985   8.921  0.3722 -1.6304 -1.8111
 1590SOL    HW216407   2.697   3.906   9.044 -1.4036  0.3858  0.9239
 1591SOL     OW16408   3.491   2.988   2.172  0.4181  0.2892  0.0191
 1591SOL    HW116409   3.420   2.928   2.153 -0.1213  0.5416  1.2376
 1591SOL    HW216410   3.562   2.924   2.170  0.2172  0.0923 -0.5937
 1592SOL     OW16411   2.860   4.628   2.939 -0.1629  0.2167 -0.2744
 1592SOL    HW116412   2.779   4.646   2.987 -0.2956 -1.3991  0.1263
 1592SOL    HW216413   2.922   4.687   2.981 -0.6739 -0.0026  0.8017
 1593SOL     OW16414   1.407   3.450   7.599 -0.0217  0.2637 -0.4700
 1593SOL    HW116415   1.460   3.371   7.602 -2.0386 -1.0829 -1.0068
 1593SOL    HW216416   1.410   3.483   7.689 -2.9418 -0.5522 -0.0748
 1594SOL     OW16417   0.603   0.379  16.666 -0.7216 -0.0689 -0.3952
 1594SOL    HW116418   0.590   0.348  16.576 -1.2049 -2.1346  0.3764
 1594SOL    HW216419   0.587   0.299  16.717 -1.2205  0.8557  0.8941
 1595SOL     OW16420   3.267   1.323   4.130  0.1113  0.3947 -0.1278
 1595SOL    HW116421   3.228   1.274   4.202 -0.3378 -0.7189 -1.1234
 1595SOL    HW216422   3.182   1.353   4.098 -0.0062  1.2761  1.0343
 1596SOL     OW16423   0.744   1.526   8.152 -0.6707 -0.5051  0.5160
 1596SOL    HW116424   0.682   1.500   8.220 -1.1229 -0.1181  0.2444
 1596SOL    HW216425   0.810   1.579   8.197 -1.1130  0.3958  0.0974
 1597SOL     OW16426   1.079   0.212  12.279  0.6078  0.4598 -0.5213
 1597SOL    HW116427   1.029   0.185  12.202 -1.5475  1.9266  0.3750
 1597SOL    HW216428   1.017   0.185  12.347  0.9215 -0.2598 -0.5223
 1598SOL     OW16429   0.870   4.477   4.425  0.5519 -0.4160  0.1397
 1598SOL    HW116430   0.805   4.539   4.459  0.6032 -0.3436  0.1061
 1598SOL    HW216431   0.947   4.526   4.396 -1.0025  1.3943 -0.9298
 1599SOL     OW16432   1.030   3.810   7.141 -0.4389 -0.4119 -0.5716
 1599SOL    HW116433   1.056   3.726   7.177  0.3961  0.5304  1.0211
 1599SOL    HW216434   0.934   3.817   7.145 -0.3914 -0.4545  0.6263
 1600SOL     OW16435   4.425   3.914   2.100  0.4153 -0.0817  0.0755
 1600SOL    HW116436   4.433   3.970   2.177 -1.5585  2.3005 -1.4405
 1600SOL    HW216437   4.351   3.858   2.122  0.2733 -0.4577 -1.3442
 1601SOL     OW16438   4.018   0.249  11.303 -0.1111 -0.2989  0.1409
 1601SOL    HW116439   4.035   0.243  11.396 -0.6307 -0.5720  0.2210
 1601SOL    HW216440   4.101   0.241  11.255 -0.7342 -1.0659 -0.8238
 1602SOL     OW16441   3.178   3.852   5.344  0.0341 -0.5816 -0.0358
 1602SOL    HW116442   3.109   3.897   5.392  0.7813 -0.3060  0.7973
 1602SOL    HW216443   3.126   3.779   5.310 -1.0295  0.0266  0.2826
 1603SOL     OW16444   1.353   1.271   9.352 -0.1342  0.5268 -0.4435
 1603SOL    HW116445   1.305   1.326   9.290 -0.7703 -0.9916 -1.3249
 1603SOL    HW216446   1.421   1.222   9.306 -2.6653 -1.4040 -2.2069
 1604SOL     OW16447   0.782   2.089  17.552 -0.3522 -0.2660  0.2783
 1604SOL    HW116448   0.702   2.078  17.604 -0.5281  0.6012  0.1846
 1604SOL    HW216449   0.760   2.173  17.512  0.7420 -1.2805 -2.4629
 1605SOL     OW16450   4.565   3.355  15.919  0.5718  0.4512 -0.1902
 1605SOL    HW116451   4.636   3.356  15.856  0.9113  2.1239  0.2309
 1605SOL    HW216452   4.500   3.319  15.859 -0.7153  0.4970  1.1681
 1606SOL     OW16453   1.307   4.678   9.416 -0.3022  0.1810 -0.6872
 1606SOL    HW116454   1.269   4.601   9.458 -0.1623  0.1072 -0.6938
 1606SOL    HW216455   1.369   4.620   9.371 -0.6177 -1.1809  0.6361
 1607SOL     OW16456   1.194   2.827  17.186 -0.3334 -0.2076  0.4003
 1607SOL    HW116457   1.105   2.795  17.196 -1.5688  2.7141 -1.1294
 1607SOL    HW216458   1.222   2.828  17.278  3.0971  0.9315 -0.6428
 1608SOL     OW16459   3.526   1.838  15.680 -0.2661 -0.1010  0.2914
 1608SOL    HW116460   3.567   1.902  15.738 -1.1588 -0.5297  1.3902
 1608SOL    HW216461   3.453   1.810  15.735  0.3511  0.2181  1.2614
 1609SOL     OW16462   0.614   2.507   5.135 -0.4771  0.7843  0.4450
 1609SOL    HW116463   0.603   2.484   5.043  0.7858  1.5788  0.0924
 1609SOL    HW216464   0.707   2.491   5.146 -0.3308 -0.0813 -2.0905
 1610SOL     OW16465   1.818   1.397  16.233 -0.4043  0.4169  0.0748
 1610SOL    HW116466   1.878   1.456  16.188 -1.9230  0.9786 -1.2217
 1610SOL    HW216467   1.869   1.319  16.211 -0.6185  1.1159 -2.9426
 1611SOL     OW16468   3.709   1.605  10.726  0.9988  0.1954 -0.2014
 1611SOL    HW116469   3.775   1.563  10.671  0.5095 -1.5392  0.5302
 1611SOL    HW216470   3.774   1.612  10.796 -0.0075  0.9939  0.6314
 1612SOL     OW16471   0.549   0.266   4.667 -0.0350 -0.3405 -0.0478
 1612SOL    HW116472   0.467   0.297   4.630 -0.1043  0.7265  1.0167
 1612SOL    HW216473   0.612   0.323   4.623  2.9969 -3.0976  0.7368
 1613SOL     OW16474   1.520   3.811   1.989 -0.1124 -0.5640 -0.3191
 1613SOL    HW116475   1.611   3.802   1.960  0.8299 -1.0185  2.7171
 1613SOL    HW216476   1.486   3.734   1.944 -1.3557 -0.5140  0.5196
 1614SOL     OW16477   2.487   3.314   6.112  0.2619  0.7437 -0.1493
 1614SOL    HW116478   2.398   3.281   6.100  0.1094  1.2105 -0.3014
 1614SOL    HW216479   2.456   3.404   6.106 -2.7050 -0.1636  1.8242
 1615SOL     OW16480   1.702   1.230   4.970 -0.2767 -0.1627  0.2129
 1615SOL    HW116481   1.640   1.208   5.039 -1.0169 -1.2525 -0.8051
 1615SOL    HW216482   1.652   1.282   4.907 -3.6494 -1.9340  1.4513
 1616SOL     OW16483   2.562   2.175   7.204 -0.4740  0.2228 -0.9017
 1616SOL    HW116484   2.568   2.266   7.175  0.4858  1.0759  1.9980
 1616SOL    HW216485   2.650   2.168   7.240 -0.0699  1.6977 -1.5958
 1617SOL     OW16486   1.449   3.009   7.190  0.6449 -0.6074 -0.3476
 1617SOL    HW116487   1.388   3.074   7.154  0.6719  0.0229  0.7640
 1617SOL    HW216488   1.509   3.067   7.236  0.0140 -0.1784 -0.0591
 1618SOL     OW16489   4.667   2.755   6.958  0.1611  0.0375 -0.3383
 1618SOL    HW116490   4.626   2.695   6.896  1.2032  1.0589 -2.0090
 1618SOL    HW216491   4.617   2.727   7.035 -1.9014  1.1154 -1.2617
 1619SOL     OW16492   1.172   0.784   1.434  0.1440 -0.0003 -0.0926
 1619SOL    HW116493   1.240   0.851   1.419 -1.0020  1.1483 -0.1579
 1619SOL    HW216494   1.101   0.831   1.478  1.3331  2.1471 -0.4260
 1620SOL     OW16495   2.828   2.397  12.357 -0.6409  0.3044  0.3483
 1620SOL    HW116496   2.744   2.356  12.375 -0.7751 -0.0821 -1.1294
 1620SOL    HW216497   2.850   2.426  12.445 -2.8483  2.0094  0.3395
 1621SOL     OW16498   0.127   1.224   1.030  0.4266 -0.5378 -0.0936
 1621SOL    HW116499   0.185   1.234   0.954  1.6467 -0.8655  0.7843
 1621SOL    HW216500   0.178   1.191   1.104 -0.9847  1.0476  1.5883
 1622SOL     OW16501   2.108   3.361  13.192  0.2130 -0.3740 -0.0183
 1622SOL    HW116502   2.165   3.294  13.228  1.2092  0.2640 -0.4304
 1622SOL    HW216503   2.040   3.304  13.155  2.5326 -1.5944 -2.3382
 1623SOL     OW16504   0.020   3.314   7.714 -0.5339  0.2573  0.2068
 1623SOL    HW116505   4.681   3.256   7.730  2.1562 -3.6821 -1.3866
 1623SOL    HW216506   4.719   3.384   7.661 -1.2200 -0.2613 -0.0020
 1624SOL     OW16507   0.546   0.736   2.216 -0.1044  0.4506  0.0148
 1624SOL    HW116508   0.546   0.827   2.187 -0.1184  0.3458 -0.3165
 1624SOL    HW216509   0.604   0.696   2.151 -0.9063 -0.6691 -0.0176
 1625SOL     OW16510   2.006   0.155   8.364 -0.1982  0.1201 -0.2350
 1625SOL    HW116511   1.949   0.207   8.307  0.4717  3.0446  1.7256
 1625SOL    HW216512   1.979   0.193   8.448  0.5738  2.5032 -1.0525
 1626SOL     OW16513   1.796   3.134  13.514 -0.0725  0.7489 -0.3618
 1626SOL    HW116514   1.760   3.046  13.502  0.2687  0.7853 -1.6471
 1626SOL    HW216515   1.765   3.165  13.429 -0.0846 -1.0706 -1.0070
 1627SOL     OW16516   1.260   2.123   0.323  0.7345 -0.0620 -0.5645
 1627SOL    HW116517   1.296   2.087   0.242  1.1811 -3.7204  1.2968
 1627SOL    HW216518   1.298   2.065   0.388 -0.2389 -0.3761 -0.2799
 1628SOL     OW16519   3.690   1.457   7.927 -0.1740  0.0133 -0.1118
 1628SOL    HW116520   3.657   1.369   7.943  1.5227 -0.6422 -0.2228
 1628SOL    HW216521   3.744   1.472   8.005  0.2402  2.8967 -0.9596
 1629SOL     OW16522   1.379   3.835  12.288 -0.6478 -0.0008  0.5333
 1629SOL    HW116523   1.370   3.750  12.333 -2.0500  0.9068  2.0050
 1629SOL    HW216524   1.314   3.822  12.219 -0.5418  0.6883  0.3098
 1630SOL     OW16525   1.876   1.859   9.771  0.2634  0.3359  0.1080
 1630SOL    HW116526   1.877   1.809   9.690  1.3269 -1.5297  1.2814
 1630SOL    HW216527   1.897   1.792   9.836  1.1767 -0.4533 -1.0173
 1631SOL     OW16528   1.986   4.689   7.905  0.5400 -0.1065 -0.7167
 1631SOL    HW116529   2.062   4.634   7.925 -0.3425 -0.6275  1.1943
 1631SOL    HW216530   1.913   4.654   7.956  0.6873  0.8694  0.1654
 1632SOL     OW16531   1.207   3.296   0.662 -0.0131 -0.1979  0.8143
 1632SOL    HW116532   1.227   3.270   0.752  1.1398 -1.9985  0.0553
 1632SOL    HW216533   1.241   3.219   0.615 -1.1096  0.8679 -1.7052
 1633SOL     OW16534   0.836   2.860  12.663 -0.6084 -0.6667 -0.1665
 1633SOL    HW116535   0.906   2.867  12.598 -0.2500 -0.1852  0.2717
 1633SOL    HW216536   0.820   2.949  12.692  0.0794 -0.8828  0.8496
 1634SOL     OW16537   0.516   1.456   5.212  0.0800  0.0631 -0.2477
 1634SOL    HW116538   0.596   1.474   5.162  0.7966 -1.1048  0.4715
 1634SOL    HW216539   0.443   1.483   5.156 -0.8394  0.2360  1.0299
 1635SOL     OW16540   2.168   0.529   4.087 -0.4492 -0.1587 -0.3349
 1635SOL    HW116541   2.097   0.490   4.038 -2.5183  0.3558  2.2109
 1635SOL    HW216542   2.117   0.538   4.168 -1.1436  0.4400 -0.8437
 1636SOL     OW16543   2.550   0.301   9.864  0.7530  0.4717 -0.5033
 1636SOL    HW116544   2.640   0.281   9.837  0.6521  1.3006 -1.4648
 1636SOL    HW216545   2.573   0.316   9.955  1.8986 -0.7638 -0.5831
 1637SOL     OW16546   2.104   3.822   4.435 -0.2455  0.1879  0.3465
 1637SOL    HW116547   2.152   3.831   4.517 -0.2715  1.6505  0.2120
 1637SOL    HW216548   2.025   3.778   4.465  0.5714 -0.9030  0.8674
 1638SOL     OW16549   0.320   0.581   1.234 -0.2750  1.1184 -0.0544
 1638SOL    HW116550   0.314   0.514   1.166  2.1886 -1.0298  1.8332
 1638SOL    HW216551   0.376   0.649   1.197  1.0633  0.4270  0.6911
 1639SOL     OW16552   1.758   3.717   8.119 -0.2692  0.5857 -0.6487
 1639SOL    HW116553   1.851   3.726   8.097  0.1432 -2.1624 -0.1064
 1639SOL    HW216554   1.770   3.684   8.209 -2.0874  0.3338 -0.5002
 1640SOL     OW16555   2.852   0.068   3.420 -0.3573 -0.0037  0.2862
 1640SOL    HW116556   2.812   0.004   3.362  0.0516  0.3221 -0.3585
 1640SOL    HW216557   2.786   0.071   3.490  1.8285  0.7571  2.3033
 1641SOL     OW16558   1.284   0.589   7.806 -0.1266  0.3362  0.3342
 1641SOL    HW116559   1.308   0.530   7.735  0.1056  0.5526  0.2324
 1641SOL    HW216560   1.192   0.569   7.826 -0.3000  0.9652  0.1839
 1642SOL     OW16561   3.955   1.909   1.217  0.2215  0.1135 -0.3882
 1642SOL    HW116562   4.043   1.874   1.230 -0.5744 -1.2449  1.3070
 1642SOL    HW216563   3.937   1.953   1.300  2.2335  1.5796 -0.7335
 1643SOL     OW16564   1.231   1.218   5.004  0.0728  0.2513  0.3335
 1643SOL    HW116565   1.202   1.266   5.082 -0.6179  0.6757 -0.1750
 1643SOL    HW216566   1.325   1.226   5.017 -0.0540  1.3105  0.6285
 1644SOL     OW16567   2.897   1.606   2.583  0.0252 -0.3920  0.5259
 1644SOL    HW116568   2.848   1.689   2.582  1.2659  0.3320 -0.8268
 1644SOL    HW216569   2.920   1.597   2.491 -0.2047  0.2379  0.4086
 1645SOL     OW16570   2.300   2.150   5.137  1.0197  0.5773 -0.4855
 1645SOL    HW116571   2.216   2.105   5.147  1.5040 -0.3695 -0.7209
 1645SOL    HW216572   2.309   2.181   5.227 -1.0130 -0.7405  0.1723
 1646SOL     OW16573   3.736   1.022   2.589  1.0037  0.2778 -0.4923
 1646SOL    HW116574   3.763   1.031   2.498  1.2457  0.9293 -0.3561
 1646SOL    HW216575   3.820   1.016   2.634 -0.8026  0.7590  2.9479
 1647SOL     OW16576   1.092   1.484   3.417  0.1201  0.3400  0.1397
 1647SOL    HW116577   1.019   1.426   3.435  0.8943 -1.1441 -1.5811
 1647SOL    HW216578   1.149   1.433   3.360 -0.0772 -0.4059  0.6091
 1648SOL     OW16579   4.386   0.957  10.805  0.6918  0.1409 -0.3625
 1648SOL    HW116580   4.410   1.011  10.880 -1.9780  2.0879 -0.9247
 1648SOL    HW216581   4.334   0.887  10.845  0.7616 -0.1710 -0.8126
 1649SOL     OW16582   3.287   3.794   2.146  0.0742  0.1016  0.2170
 1649SOL    HW116583   3.375   3.813   2.180 -0.3072  0.0329  1.2460
 1649SOL    HW216584   3.310   3.803   2.054 -1.9546  1.9847 -0.1051
 1650SOL     OW16585   0.199   1.827   8.036  0.0362  0.3514 -0.0995
 1650SOL    HW116586   0.248   1.846   7.956 -0.7443  2.2267 -0.1245
 1650SOL    HW216587   0.227   1.900   8.091  0.4316 -0.9257  1.3916
 1651SOL     OW16588   2.620   1.116   1.863  0.3705 -0.5631  0.3978
 1651SOL    HW116589   2.605   1.065   1.783 -1.1658 -2.1616  1.7077
 1651SOL    HW216590   2.678   1.052   1.904  1.6440 -0.9737 -2.0387
 1652SOL     OW16591   1.299   2.310   7.945  0.0058  0.2957  0.2965
 1652SOL    HW116592   1.350   2.259   8.008  0.2225  1.0505  0.7267
 1652SOL    HW216593   1.304   2.264   7.861  0.2220 -0.4363  0.7038
 1653SOL     OW16594   1.728   3.545  12.414  0.8168 -0.1487  0.2826
 1653SOL    HW116595   1.791   3.531  12.486 -1.3024 -1.0936  1.9510
 1653SOL    HW216596   1.772   3.601  12.351 -2.4237 -0.6667 -2.3787
 1654SOL     OW16597   4.721   0.964   0.451 -0.0896  0.2402  0.4380
 1654SOL    HW116598   0.066   0.988   0.406 -0.6954  1.1170 -0.1812
 1654SOL    HW216599   4.662   0.957   0.376  1.0469 -0.6035 -0.3776
 1655SOL     OW16600   0.686   2.877   5.482 -0.7313 -0.2632 -0.2520
 1655SOL    HW116601   0.605   2.828   5.466 -0.1978 -1.5338  0.9241
 1655SOL    HW216602   0.652   2.963   5.508  1.2162  0.0642  1.2555
 1656SOL     OW16603   2.830   0.160   6.896 -0.2666 -0.1018  0.0688
 1656SOL    HW116604   2.837   0.227   6.965 -1.0693 -1.5820  1.5825
 1656SOL    HW216605   2.887   0.090   6.925  0.6477  0.5755 -0.0843
 1657SOL     OW16606   2.395   4.734  14.820  0.5934  0.1699 -0.0598
 1657SOL    HW116607   2.479   0.044  14.822  0.7954 -0.2847  1.9320
 1657SOL    HW216608   2.333   0.071  14.806 -0.2665 -0.6335 -0.4379
 1658SOL     OW16609   3.833   0.552   9.550 -0.2521  0.1963 -0.3658
 1658SOL    HW116610   3.885   0.479   9.585  0.3450  0.1014 -1.4404
 1658SOL    HW216611   3.861   0.621   9.610 -3.0235  2.5851 -1.8176
 1659SOL     OW16612   0.554   3.630   3.218  0.5082  0.0260 -0.0946
 1659SOL    HW116613   0.583   3.720   3.203  1.1517  0.1446  1.8474
 1659SOL    HW216614   0.583   3.608   3.307  0.7826 -1.0622 -0.4544
 1660SOL     OW16615   0.514   3.366   4.220 -0.1028 -0.1392  0.0202
 1660SOL    HW116616   0.479   3.327   4.300  1.0784 -0.3291  0.4506
 1660SOL    HW216617   0.503   3.459   4.239 -1.0083 -0.3666  0.6016
 1661SOL     OW16618   2.973   1.621   5.760  0.1615  0.7259 -0.0818
 1661SOL    HW116619   3.039   1.569   5.807  2.0951  1.3178 -2.1535
 1661SOL    HW216620   3.015   1.706   5.773  0.0778  0.5847  1.1295
 1662SOL     OW16621   1.325   2.250   1.495  0.0620  0.0870 -0.2539
 1662SOL    HW116622   1.403   2.305   1.493  0.4700 -0.4193  2.4594
 1662SOL    HW216623   1.372   2.169   1.474  0.8117  0.2982  0.6342
 1663SOL     OW16624   1.884   2.558   2.629  0.1165  0.5656  0.2161
 1663SOL    HW116625   1.891   2.536   2.722 -1.7627  1.8247  0.6540
 1663SOL    HW216626   1.791   2.577   2.625  0.6054  3.1314  0.6837
 1664SOL     OW16627   1.624   3.877   6.953  0.3219  0.1610  0.3124
 1664SOL    HW116628   1.656   3.967   6.947  0.6319  0.0722  0.6470
 1664SOL    HW216629   1.532   3.887   6.927  0.9005  2.6673 -0.8102
 1665SOL     OW16630   2.876   3.337   5.191  0.8163  0.1063 -0.3086
 1665SOL    HW116631   2.956   3.287   5.206 -1.0480 -3.0225 -0.8712
 1665SOL    HW216632   2.827   3.328   5.272 -0.8853  0.0224 -1.3492
 1666SOL     OW16633   1.069   3.071  10.816  0.1028  0.4872  0.0337
 1666SOL    HW116634   0.987   3.032  10.784  0.4006  1.6691 -2.2093
 1666SOL    HW216635   1.132   3.023  10.763 -0.3398 -0.6364  0.5353
 1667SOL     OW16636   1.759   1.884   2.077 -0.1710 -0.4100 -0.4407
 1667SOL    HW116637   1.757   1.875   1.982  0.8425  1.1152 -0.5971
 1667SOL    HW216638   1.723   1.973   2.074 -1.1755 -0.7216  2.2264
 1668SOL     OW16639   3.458   1.207   6.126  0.4243  0.1339 -0.0189
 1668SOL    HW116640   3.471   1.248   6.211 -0.0757  0.6516 -0.1949
 1668SOL    HW216641   3.546   1.184   6.096  1.8789  1.6567  3.0652
 1669SOL     OW16642   3.195   1.713   2.618  0.0590 -0.2841  0.2504
 1669SOL    HW116643   3.213   1.619   2.615  1.0547 -0.1271  1.3637
 1669SOL    HW216644   3.100   1.726   2.624 -0.0061 -0.8133  0.2922
 1670SOL     OW16645   2.487   2.791   0.183 -0.2526  0.3944 -0.6995
 1670SOL    HW116646   2.511   2.726   0.117 -0.3045  1.1508 -1.4503
 1670SOL    HW216647   2.547   2.862   0.161  1.2415 -0.2208  1.4035
 1671SOL     OW16648   4.706   2.761   8.947 -0.2660  0.0676 -0.3704
 1671SOL    HW116649   4.620   2.803   8.938 -0.6370 -0.5515  0.2915
 1671SOL    HW216650   0.041   2.825   8.933 -1.8369  1.9705  0.3877
 1672SOL     OW16651   4.497   2.902  14.981  0.5115  0.0532 -0.0094
 1672SOL    HW116652   4.499   2.944  15.067 -0.1103  2.6414 -1.2629
 1672SOL    HW216653   4.414   2.852  14.979  0.6230 -0.0428 -2.2561
 1673SOL     OW16654   3.647   4.554   8.429  0.0964  0.8433  0.1359
 1673SOL    HW116655   3.672   4.552   8.337  1.4033 -0.3560  0.5125
 1673SOL    HW216656   3.645   4.650   8.437 -0.4407  0.5924  3.0097
 1674SOL     OW16657   0.084   1.608  15.646 -0.5099  0.1730  0.0433
 1674SOL    HW116658   0.078   1.534  15.585 -1.8593  0.2170  0.1112
 1674SOL    HW216659   0.064   1.683  15.591  0.1604 -1.1940 -2.0562
 1675SOL     OW16660   1.412   1.054   3.920  0.4122  0.0009  0.0355
 1675SOL    HW116661   1.389   1.021   4.006 -0.5907 -1.2549 -0.7146
 1675SOL    HW216662   1.492   1.100   3.946  0.4108 -0.1345  0.2752
 1676SOL     OW16663   2.213   1.743  12.023  0.0449 -0.0051  0.7629
 1676SOL    HW116664   2.300   1.701  12.028 -0.0213 -0.0257  1.7276
 1676SOL    HW216665   2.168   1.660  12.010 -1.3851  0.9419 -0.2513
 1677SOL     OW16666   1.238   4.704   9.052 -0.4866 -0.2202  0.0024
 1677SOL    HW116667   1.248   4.672   8.962  1.3675 -0.3470  0.2490
 1677SOL    HW216668   1.323   4.675   9.086 -1.7562 -1.8094  1.8036
 1678SOL     OW16669   0.979   3.764   0.190 -0.7103 -0.2977 -0.4421
 1678SOL    HW116670   1.040   3.748   0.262 -0.6546  1.5991 -0.0689
 1678SOL    HW216671   0.954   3.853   0.214  2.0663 -0.2458  2.3598
 1679SOL     OW16672   1.307   1.487   5.478 -0.0451  0.2035 -0.6066
 1679SOL    HW116673   1.218   1.488   5.513  0.1942  0.0635 -0.0007
 1679SOL    HW216674   1.351   1.455   5.556 -0.9537  0.2224 -0.0867
 1680SOL     OW16675   3.340   0.199  15.188 -0.6433  0.0670 -0.1736
 1680SOL    HW116676   3.377   0.148  15.116 -1.4757 -1.7591  0.6655
 1680SOL    HW216677   3.333   0.124  15.248 -0.6567  1.1198  1.1426
 1681SOL     OW16678   3.908   1.924   5.600 -0.4307  0.0858 -0.6143
 1681SOL    HW116679   3.828   1.975   5.586 -0.3291  0.0739 -1.2269
 1681SOL    HW216680   3.876   1.834   5.603 -0.6078  0.1393 -0.9592
 1682SOL     OW16681   2.477   0.626   3.749 -0.0316  0.1472 -0.2222
 1682SOL    HW116682   2.513   0.592   3.831  2.2483  2.0101 -0.4642
 1682SOL    HW216683   2.548   0.685   3.724 -0.8665  0.9471 -0.7062
 1683SOL     OW16684   1.287   0.781  13.666 -0.9411  0.2817  0.3166
 1683SOL    HW116685   1.275   0.871  13.697 -0.9744  0.3321  0.1586
 1683SOL    HW216686   1.228   0.736  13.726 -0.4989  1.5414  1.6981
 1684SOL     OW16687   0.422   0.605   4.229  0.0270 -0.0938  0.1525
 1684SOL    HW116688   0.430   0.523   4.278  1.8660 -0.3176 -0.5362
 1684SOL    HW216689   0.512   0.634   4.222 -0.7644  2.7130  1.7287
 1685SOL     OW16690   3.938   0.057  12.089  0.5844 -0.1230 -0.3551
 1685SOL    HW116691   3.920   0.070  12.182  0.5490  0.2441 -0.4118
 1685SOL    HW216692   3.891   0.132  12.053  1.1064  0.4539  0.1612
 1686SOL     OW16693   4.324   4.665   4.445  0.2771  0.1603  0.1307
 1686SOL    HW116694   4.299   4.603   4.377 -0.6193 -1.5333  2.0227
 1686SOL    HW216695   4.351   4.600   4.510 -0.2363 -0.4977 -0.3290
 1687SOL     OW16696   1.191   1.734   0.141  0.0085  0.2030 -0.0621
 1687SOL    HW116697   1.097   1.725   0.128  0.3845 -1.0004 -1.8528
 1687SOL    HW216698   1.221   1.661   0.087 -0.7811  0.0863 -0.3324
 1688SOL     OW16699   3.486   1.969  14.107 -0.5306 -0.0476 -0.1178
 1688SOL    HW116700   3.445   2.006  14.186  1.2148 -1.7179  1.5794
 1688SOL    HW216701   3.577   1.963  14.134  0.1018  1.3969 -1.9465
 1689SOL     OW16702   4.721   1.072   1.678 -0.2866  0.0295  0.1847
 1689SOL    HW116703   4.637   1.112   1.659 -1.8210 -3.4542 -0.4681
 1689SOL    HW216704   0.000   1.022   1.597 -0.0743 -2.3429  1.6876
 1690SOL     OW16705   1.089   0.353  10.266  0.0234  0.2324 -0.1745
 1690SOL    HW116706   1.106   0.316  10.180 -1.6445  1.0438 -0.8425
 1690SOL    HW216707   1.044   0.430  10.232 -0.7252 -0.3833 -0.5865
 1691SOL     OW16708   1.643   2.277   6.821 -0.5896 -0.2526  0.1281
 1691SOL    HW116709   1.676   2.367   6.830 -0.5083 -0.5387  2.9359
 1691SOL    HW216710   1.623   2.262   6.914 -0.5914  1.7499  0.4590
 1692SOL     OW16711   4.011   0.978   6.807  0.1900 -0.3812 -0.1872
 1692SOL    HW116712   4.094   1.021   6.827  0.3986 -0.5467 -0.6741
 1692SOL    HW216713   3.949   1.044   6.837  2.1169  1.8292 -1.0498
 1693SOL     OW16714   2.674   1.576   0.362  0.2930 -0.4656 -0.4138
 1693SOL    HW116715   2.711   1.538   0.442 -0.7698  1.3437  0.9463
 1693SOL    HW216716   2.634   1.503   0.314 -1.2454 -0.2138  0.4804
 1694SOL     OW16717   3.090   0.857   1.739  0.6521  0.1123 -0.5151
 1694SOL    HW116718   3.058   0.821   1.821  1.1096  0.9098  0.0119
 1694SOL    HW216719   3.150   0.789   1.708  0.9200 -1.0685  2.5991
 1695SOL     OW16720   1.863   1.417   3.534 -0.2184  0.3010  0.3419
 1695SOL    HW116721   1.888   1.385   3.447 -2.4913  0.3302 -0.3124
 1695SOL    HW216722   1.768   1.422   3.526 -0.0045  0.6684 -1.9734
 1696SOL     OW16723   3.837   0.943   9.730 -0.1673 -0.3352  0.0841
 1696SOL    HW116724   3.890   0.974   9.804  0.1076 -0.2671 -0.1406
 1696SOL    HW216725   3.748   0.924   9.758 -0.6683  0.7592 -0.7729
 1697SOL     OW16726   0.991   3.469   8.304  0.3950  0.2542  0.1207
 1697SOL    HW116727   0.911   3.451   8.354  0.3354  0.5021  0.1122
 1697SOL    HW216728   0.971   3.413   8.229 -1.3900 -1.0420  1.5546
 1698SOL     OW16729   0.192   1.650   9.967 -0.0267 -0.2206  0.4891
 1698SOL    HW116730   0.224   1.738   9.947 -0.8500 -0.4319 -1.7800
 1698SOL    HW216731   0.141   1.683  10.042 -1.4458 -0.1146 -0.5133
 1699SOL     OW16732   2.471   1.326   7.725  0.2438  0.4893 -0.3458
 1699SOL    HW116733   2.410   1.396   7.750  0.1381 -0.0687  0.9147
 1699SOL    HW216734   2.546   1.336   7.783 -0.1455 -1.5030  0.4750
 1700SOL     OW16735   3.751   0.139  10.361 -0.4624  0.4814 -0.5793
 1700SOL    HW116736   3.765   0.123  10.267  2.2445 -0.8068  0.0343
 1700SOL    HW216737   3.802   0.071  10.404 -2.1113 -0.2128  0.2433
 1701SOL     OW16738   0.693   3.087   3.069  0.2159 -0.2286  0.1031
 1701SOL    HW116739   0.617   3.050   3.025  0.4815 -0.2659 -0.3146
 1701SOL    HW216740   0.748   3.009   3.070  1.0540  0.3740  1.5514
 1702SOL     OW16741   2.210   1.384   8.090  0.4046 -0.3258  0.1972
 1702SOL    HW116742   2.283   1.383   8.152  0.5789  2.0824  0.0421
 1702SOL    HW216743   2.197   1.479   8.084 -0.5295 -0.3937  1.1340
 1703SOL     OW16744   1.233   2.735   4.406  0.4043 -0.5583  0.3222
 1703SOL    HW116745   1.255   2.682   4.330  1.0747  1.2313 -0.7317
 1703SOL    HW216746   1.310   2.790   4.418 -0.7050  0.6895  1.8094
 1704SOL     OW16747   3.826   1.713   7.137 -0.4723  0.0838  0.1989
 1704SOL    HW116748   3.781   1.670   7.064 -0.4091  3.8400 -2.0653
 1704SOL    HW216749   3.823   1.637   7.194  0.6835 -0.6344 -0.6944
 1705SOL     OW16750   2.892   3.687   3.762 -0.2823 -0.2046  0.2203
 1705SOL    HW116751   2.952   3.758   3.739  1.0363  0.1473  4.7856
 1705SOL    HW216752   2.882   3.703   3.856 -0.1052  2.6358 -0.2497
 1706SOL     OW16753   0.716   2.048   6.597 -0.7095  0.1637 -0.1245
 1706SOL    HW116754   0.623   2.051   6.619 -0.4410 -1.6021  1.1905
 1706SOL    HW216755   0.738   2.141   6.608 -0.3427  0.2001 -1.1613
 1707SOL     OW16756   2.944   0.374   4.100  0.2874  0.1131  0.2816
 1707SOL    HW116757   2.943   0.374   4.196 -1.9832  1.5390  0.2599
 1707SOL    HW216758   3.038   0.357   4.098  0.1111 -0.7968 -0.4584
 1708SOL     OW16759   4.229   1.557   9.374  0.5142  0.4136  0.0859
 1708SOL    HW116760   4.300   1.619   9.389  0.0151  0.2524  3.0102
 1708SOL    HW216761   4.181   1.571   9.456  3.7902 -1.2198  2.2656
 1709SOL     OW16762   2.546   4.150   4.520  0.0447  0.3446 -0.7860
 1709SOL    HW116763   2.528   4.074   4.576 -1.1027  0.6015 -0.8128
 1709SOL    HW216764   2.639   4.151   4.498  0.3756  1.0745  0.6068
 1710SOL     OW16765   0.518   0.120   4.434 -0.3351 -0.2202  0.3894
 1710SOL    HW116766   0.611   0.111   4.414 -0.1817  1.4553  0.3113
 1710SOL    HW216767   0.529   0.138   4.527  0.4548  0.2234  0.2112
 1711SOL     OW16768   3.544   2.047   3.175 -0.5146 -0.4883 -0.6385
 1711SOL    HW116769   3.500   1.997   3.106  0.3987 -2.1860  0.0102
 1711SOL    HW216770   3.602   1.983   3.217 -3.8128 -1.3624  2.5866
 1712SOL     OW16771   4.330   2.457  11.389 -0.3087  0.0459  0.1181
 1712SOL    HW116772   4.321   2.370  11.351 -0.7806 -0.4092  1.2733
 1712SOL    HW216773   4.423   2.465  11.365 -0.1034  0.1580  0.9401
 1713SOL     OW16774   2.289   0.179   9.888  0.0659  0.4502  0.2981
 1713SOL    HW116775   2.305   0.118   9.816  0.9148  1.8379 -0.6935
 1713SOL    HW216776   2.377   0.215   9.878 -0.3586  1.0731 -1.1480
 1714SOL     OW16777   1.559   0.729   2.398  0.5297  0.8476 -0.0325
 1714SOL    HW116778   1.598   0.657   2.447 -1.3270 -1.4051 -1.8425
 1714SOL    HW216779   1.479   0.746   2.449 -0.3826 -1.2098 -0.7627
 1715SOL     OW16780   3.012   4.006   1.058 -0.4869 -0.0990 -0.1991
 1715SOL    HW116781   2.956   4.064   1.109 -0.3836 -1.4949  1.5213
 1715SOL    HW216782   3.083   3.980   1.117  0.8662 -1.6758 -2.5058
 1716SOL     OW16783   0.179   1.371  13.018  0.3784 -0.0928 -0.0280
 1716SOL    HW116784   0.265   1.362  13.058  0.2217 -1.0658  0.0931
 1716SOL    HW216785   0.206   1.326  12.937 -1.5865 -2.3436  0.5717
 1717SOL     OW16786   1.312   1.680  12.473 -0.0982 -0.1217  0.6505
 1717SOL    HW116787   1.236   1.714  12.519  0.0631  1.7927 -0.5054
 1717SOL    HW216788   1.278   1.685  12.384  0.4054 -2.3862  0.3135
 1718SOL     OW16789   0.128   3.647  16.272  0.2897  0.0555 -0.0452
 1718SOL    HW116790   0.176   3.700  16.208 -0.7457  0.0719 -0.7957
 1718SOL    HW216791   0.183   3.634  16.349  0.3346  1.0871  0.0877
 1719SOL     OW16792   0.147   0.831  16.994  0.1128 -0.0932 -0.1585
 1719SOL    HW116793   0.061   0.869  17.014 -0.0500 -0.6337  0.1769
 1719SOL    HW216794   0.142   0.793  16.906 -1.2993 -0.2411 -0.0117
 1720SOL     OW16795   3.352   3.808   5.557  0.0271 -0.0087 -0.2489
 1720SOL    HW116796   3.276   3.811   5.500 -0.3448 -2.5336  0.1393
 1720SOL    HW216797   3.403   3.872   5.507 -0.5498  0.6801  0.0362
 1721SOL     OW16798   0.712   2.653   1.696  0.4510  0.7418  0.3114
 1721SOL    HW116799   0.637   2.599   1.719  0.2916  0.3433 -1.1634
 1721SOL    HW216800   0.682   2.743   1.712 -2.2708  0.0194 -0.8775
 1722SOL     OW16801   4.606   0.667   6.847 -0.8352  0.0993 -0.4494
 1722SOL    HW116802   4.619   0.604   6.917 -0.2343 -1.6248 -2.1215
 1722SOL    HW216803   4.664   0.734   6.885  0.6040 -0.5569 -1.4836
 1723SOL     OW16804   1.626   1.420   7.308 -0.3215  0.0341  0.4762
 1723SOL    HW116805   1.686   1.427   7.234  2.0590 -4.0308  2.0324
 1723SOL    HW216806   1.672   1.466   7.378 -0.0089  0.4327  0.0116
 1724SOL     OW16807   0.079   0.662   4.283 -0.0726  0.2076 -0.0387
 1724SOL    HW116808   0.004   0.715   4.256  0.9032  1.0595 -1.0764
 1724SOL    HW216809   0.145   0.720   4.244 -0.2876  0.6767  0.3031
 1725SOL     OW16810   1.654   1.255   7.683  0.0249 -0.3192 -0.3915
 1725SOL    HW116811   1.605   1.255   7.766  2.1553 -0.0973  0.8518
 1725SOL    HW216812   1.596   1.202   7.628 -0.4256 -0.2822  0.0415
 1726SOL     OW16813   2.193   0.958   5.268  0.4540  0.0532 -0.0284
 1726SOL    HW116814   2.228   0.966   5.180  2.0610  1.4444  0.7319
 1726SOL    HW216815   2.154   0.870   5.266  1.3590 -0.3282 -0.8532
 1727SOL     OW16816   1.546   1.211  15.775  0.0798  0.1509  0.2053
 1727SOL    HW116817   1.557   1.292  15.825  0.0124 -1.1912  2.4166
 1727SOL    HW216818   1.597   1.147  15.825 -0.1752 -0.4424 -0.2933
 1728SOL     OW16819   4.540   4.026   8.050 -0.1067  0.9773  0.5411
 1728SOL    HW116820   4.553   4.101   8.109  0.6740  0.9471  0.4118
 1728SOL    HW216821   4.471   3.986   8.102 -0.0697  1.7964  1.2254
 1729SOL     OW16822   1.830   2.743  13.168  0.1870 -0.2813 -0.5658
 1729SOL    HW116823   1.801   2.670  13.114 -0.1750 -1.0601  0.6796
 1729SOL    HW216824   1.879   2.701  13.239  2.7555 -1.0203 -2.8190
 1730SOL     OW16825   4.144   4.397   1.970  0.1454  0.1643 -0.0621
 1730SOL    HW116826   4.126   4.389   1.876 -0.9737  1.5457  0.0314
 1730SOL    HW216827   4.197   4.320   1.989 -0.6219 -0.8589 -2.1264
 1731SOL     OW16828   3.651   3.704  12.057 -0.8751 -0.1344  0.3406
 1731SOL    HW116829   3.604   3.623  12.072 -0.8719 -0.3887 -0.9718
 1731SOL    HW216830   3.695   3.680  11.975  0.0982  1.1472  0.4778
 1732SOL     OW16831   3.973   0.909   3.395 -0.0837  0.5357  0.4804
 1732SOL    HW116832   3.941   0.920   3.485 -0.0440 -2.0567  0.8098
 1732SOL    HW216833   4.063   0.935   3.418 -0.1853  0.9034  0.4556
 1733SOL     OW16834   2.658   0.017   0.387  1.0205 -0.2131  0.4667
 1733SOL    HW116835   2.635   4.711   0.470 -3.0369  0.8330 -0.1693
 1733SOL    HW216836   2.575   4.732   0.343  0.8670  0.7022  0.3260
 1734SOL     OW16837   0.425   2.953   2.233 -0.1365  0.4382  0.2710
 1734SOL    HW116838   0.338   2.991   2.245  0.4080  2.0904 -0.9224
 1734SOL    HW216839   0.404   2.912   2.150  2.5344 -1.8176  0.7121
 1735SOL     OW16840   4.541   1.811   2.021  0.2254 -0.5699  0.1067
 1735SOL    HW116841   4.609   1.846   1.963 -0.3313 -0.7493 -0.6477
 1735SOL    HW216842   4.465   1.826   1.966  0.0099 -0.9251  0.3103
 1736SOL     OW16843   4.665   3.693   5.435 -0.0878 -0.0041  0.4209
 1736SOL    HW116844   4.615   3.773   5.450  1.8215  1.3839 -0.5802
 1736SOL    HW216845   4.687   3.664   5.523  2.5454 -1.2655 -0.6361
 1737SOL     OW16846   1.294   4.720  11.458  0.1067  0.4228 -0.4679
 1737SOL    HW116847   1.308   0.034  11.377  1.1034  0.4163 -0.3066
 1737SOL    HW216848   1.363   4.654  11.453 -0.0812  0.1395  0.6980
 1738SOL     OW16849   4.267   0.874   3.676 -0.2280 -0.4130  0.3101
 1738SOL    HW116850   4.292   0.966   3.671 -1.0160 -0.2687 -0.9452
 1738SOL    HW216851   4.171   0.876   3.672 -0.2641 -2.4079  0.0921
 1739SOL     OW16852   1.184   3.543   7.156  0.3599 -0.3319 -0.1822
 1739SOL    HW116853   1.232   3.590   7.088 -0.1891 -0.3532 -0.5871
 1739SOL    HW216854   1.256   3.532   7.218 -1.1287  1.4355  1.8678
 1740SOL     OW16855   0.981   3.824   6.869 -0.1758  0.1115  0.1015
 1740SOL    HW116856   0.909   3.761   6.873 -0.3652  0.2407 -1.3816
 1740SOL    HW216857   0.999   3.825   6.963  1.8050 -2.5886 -0.2740
 1741SOL     OW16858   2.640   1.225   3.239  0.2265 -0.0421  0.3020
 1741SOL    HW116859   2.692   1.202   3.316  3.9293 -0.4563 -2.3636
 1741SOL    HW216860   2.559   1.263   3.273  0.5306 -0.6059  1.6898
 1742SOL     OW16861   0.478   4.676   9.041 -0.5474  0.1197  0.0839
 1742SOL    HW116862   0.531   0.017   9.021 -1.9807  0.7055 -1.4770
 1742SOL    HW216863   0.472   4.686   9.136 -1.9469  2.1271 -0.2003
 1743SOL     OW16864   4.486   1.282   4.921 -0.2490 -0.4736 -0.5066
 1743SOL    HW116865   4.506   1.189   4.927 -1.8639 -0.8795 -1.4513
 1743SOL    HW216866   4.480   1.309   5.013 -3.4651 -1.8259 -0.3243
 1744SOL     OW16867   0.056   3.833   6.859 -0.0133  0.3276  0.0096
 1744SOL    HW116868   4.709   3.854   6.903  0.0007 -1.9576  1.1548
 1744SOL    HW216869   0.054   3.906   6.797 -0.5583  0.2153 -0.0995
 1745SOL     OW16870   3.657   0.645   6.111  0.4472 -0.2571 -0.5892
 1745SOL    HW116871   3.679   0.690   6.192  1.4263 -0.8812 -0.5075
 1745SOL    HW216872   3.705   0.696   6.046 -0.1709 -1.1457 -1.7497
 1746SOL     OW16873   3.327   3.820   9.575  0.6824 -0.1670 -0.2349
 1746SOL    HW116874   3.240   3.787   9.553  0.2484  1.2618 -0.6683
 1746SOL    HW216875   3.376   3.739   9.589  1.8249  1.0602  3.0248
 1747SOL     OW16876   1.970   2.278   5.300  0.3578  0.0330 -0.5159
 1747SOL    HW116877   2.000   2.200   5.254  1.5411  1.0904 -1.5057
 1747SOL    HW216878   1.971   2.244   5.390 -0.9335 -0.7837 -0.8131
 1748SOL     OW16879   1.743   2.618   6.447 -0.0719 -0.6121 -0.2577
 1748SOL    HW116880   1.657   2.629   6.408  0.0634 -0.1435 -0.4260
 1748SOL    HW216881   1.781   2.705   6.432  0.4903 -0.9335 -0.7142
 1749SOL     OW16882   4.239   0.129   1.163  0.3479  0.5988  0.3531
 1749SOL    HW116883   4.295   0.089   1.096  2.2938  1.1750  1.6324
 1749SOL    HW216884   4.273   0.217   1.177  2.2253  0.6211 -4.4699
 1750SOL     OW16885   3.746   1.959   6.662 -0.5216 -0.0103  0.2810
 1750SOL    HW116886   3.823   1.917   6.701 -1.8294 -0.6491  2.1637
 1750SOL    HW216887   3.682   1.952   6.732 -2.4170  0.1354 -1.4493
 1751SOL     OW16888   3.722   0.653  10.603  0.1479 -0.5267 -0.7888
 1751SOL    HW116889   3.740   0.597  10.528 -2.4188 -1.2119 -0.9037
 1751SOL    HW216890   3.626   0.649  10.604  0.1795 -1.2836 -1.4795
 1752SOL     OW16891   1.448   0.863   3.752  0.4898 -0.1815  0.2201
 1752SOL    HW116892   1.457   0.944   3.802  0.0343  0.8950 -1.4409
 1752SOL    HW216893   1.352   0.856   3.745  0.3482  0.3146  1.6453
 1753SOL     OW16894   3.093   1.377   7.545 -0.2595 -0.3733  0.5215
 1753SOL    HW116895   3.054   1.440   7.606 -0.1264 -0.4277  0.6604
 1753SOL    HW216896   3.058   1.411   7.462  1.7792 -1.0339 -0.6181
 1754SOL     OW16897   0.025   1.847  15.504  0.9565 -0.5816  0.1648
 1754SOL    HW116898   0.049   1.911  15.571  2.1089 -0.9850  0.1442
 1754SOL    HW216899   0.050   1.898  15.427  0.1601 -0.2942  0.1007
 1755SOL     OW16900   3.714   4.469  13.866  0.0415  0.1006 -0.0883
 1755SOL    HW116901   3.693   4.452  13.957  1.4337 -0.7802  0.0744
 1755SOL    HW216902   3.633   4.505  13.829  0.2858  1.0567  0.3164
 1756SOL     OW16903   3.744   0.832   1.836  0.1739 -0.3471  0.1429
 1756SOL    HW116904   3.710   0.773   1.769 -2.8300  1.9213 -0.3018
 1756SOL    HW216905   3.671   0.891   1.854 -1.3211 -1.6479 -1.6829
 1757SOL     OW16906   1.536   0.892  17.005  0.1617  0.5654  0.4591
 1757SOL    HW116907   1.478   0.816  17.001  0.5606  0.3611 -1.5464
 1757SOL    HW216908   1.484   0.961  16.964  1.2224  1.1470  0.0907
 1758SOL     OW16909   0.839   1.595   3.239 -0.2860  0.0150  0.0368
 1758SOL    HW116910   0.869   1.515   3.196  1.2786  0.4618  0.3011
 1758SOL    HW216911   0.788   1.558   3.311  1.4111 -0.2318  1.0910
 1759SOL     OW16912   0.467   0.053   5.214 -0.2845  0.6536 -0.3562
 1759SOL    HW116913   0.502   0.142   5.218 -0.6821  0.7990 -0.1349
 1759SOL    HW216914   0.376   0.081   5.210  0.0970  2.3309  2.5510
 1760SOL     OW16915   2.601   4.099  15.616  0.2532 -0.7226  0.0914
 1760SOL    HW116916   2.538   4.029  15.599 -0.7780  0.5424 -1.2701
 1760SOL    HW216917   2.637   4.082  15.703  1.9049  2.4120  0.0200
 1761SOL     OW16918   1.674   3.214   8.326 -0.6229  0.3451  0.7431
 1761SOL    HW116919   1.687   3.166   8.408 -1.4492  0.1137  0.7330
 1761SOL    HW216920   1.580   3.228   8.336 -1.0273 -0.9055 -1.2958
 1762SOL     OW16921   3.619   1.556   5.392  0.1866  0.0786  0.2639
 1762SOL    HW116922   3.709   1.529   5.375 -0.2334 -0.4665 -1.1266
 1762SOL    HW216923   3.615   1.642   5.351  0.8954 -0.1125 -0.2012
 1763SOL     OW16924   4.319   0.215   4.491  0.2378  0.3724  0.0523
 1763SOL    HW116925   4.338   0.206   4.584  2.0154 -0.6603 -0.4044
 1763SOL    HW216926   4.315   0.120   4.478 -1.4627  0.4291  0.0420
 1764SOL     OW16927   4.533   1.613   3.617  0.2263 -0.6650  0.1420
 1764SOL    HW116928   4.500   1.651   3.698 -0.1297 -0.5784 -0.0458
 1764SOL    HW216929   4.451   1.586   3.575 -0.5632  0.5437  0.9199
 1765SOL     OW16930   1.040   2.394  17.310 -0.0812  0.5269 -0.7354
 1765SOL    HW116931   1.109   2.328  17.322  0.0083  1.3655  3.3442
 1765SOL    HW216932   0.999   2.385  17.396 -1.2936 -1.0504 -1.4607
 1766SOL     OW16933   3.526   3.926   3.567 -0.3228 -0.2572 -0.1921
 1766SOL    HW116934   3.458   3.875   3.611 -0.8493 -0.4811 -1.2585
 1766SOL    HW216935   3.534   3.991   3.637 -0.5427  2.2356 -2.4988
 1767SOL     OW16936   1.826   1.211  16.775  0.4912  0.1212  0.2841
 1767SOL    HW116937   1.730   1.210  16.777  0.5159 -2.2191 -1.1672
 1767SOL    HW216938   1.842   1.250  16.689 -0.9000  0.8079  0.3190
 1768SOL     OW16939   4.610   4.713   2.897 -0.2022 -0.2559  0.5830
 1768SOL    HW116940   4.663   4.683   2.822 -2.7627  0.4032 -1.4954
 1768SOL    HW216941   4.598   0.072   2.889  0.2918 -0.2811 -0.5566
 1769SOL     OW16942   1.070   0.440   4.678 -0.3057 -0.4829  0.0673
 1769SOL    HW116943   1.046   0.527   4.647  0.4387 -1.2312 -2.6292
 1769SOL    HW216944   1.027   0.437   4.764  1.6460  1.4477  1.0899
 1770SOL     OW16945   1.873   4.196   5.882 -0.3417 -0.6942  0.0573
 1770SOL    HW116946   1.891   4.262   5.949  1.7665 -1.5811  0.3800
 1770SOL    HW216947   1.921   4.237   5.810  0.9717 -0.1744  1.2220
 1771SOL     OW16948   4.243   3.747   4.635 -0.1526 -0.3846 -0.1036
 1771SOL    HW116949   4.224   3.654   4.642 -0.3493 -0.4705 -1.9101
 1771SOL    HW216950   4.165   3.777   4.589  0.8827  0.1642 -1.4933
 1772SOL     OW16951   2.007   2.363   6.010 -0.0974 -0.2649  0.1178
 1772SOL    HW116952   2.095   2.337   6.037  0.8373  2.4356 -0.3410
 1772SOL    HW216953   1.964   2.346   6.094 -1.1391 -0.4400 -0.4563
 1773SOL     OW16954   2.819   3.276   9.028 -0.3025 -0.2645 -0.0047
 1773SOL    HW116955   2.825   3.182   9.044 -0.2124 -0.0935  0.9545
 1773SOL    HW216956   2.896   3.318   9.068  0.9751 -1.6463 -1.0056
 1774SOL     OW16957   0.226   3.611  16.562  0.1503 -0.0377  0.2402
 1774SOL    HW116958   0.297   3.586  16.503 -1.2656  0.8988 -1.8639
 1774SOL    HW216959   0.239   3.705  16.574 -2.2533  0.4071 -0.7748
 1775SOL     OW16960   2.937   0.077  12.647 -0.1253  0.1011 -0.0598
 1775SOL    HW116961   2.868   0.136  12.617  0.8123  2.3444  2.1973
 1775SOL    HW216962   2.981   0.131  12.713 -0.5877  0.5364 -0.1079
 1776SOL     OW16963   3.890   4.610   4.121  0.4136 -0.2936 -0.6738
 1776SOL    HW116964   3.870   4.531   4.172  1.1006 -0.4825 -0.6917
 1776SOL    HW216965   3.964   4.582   4.067  0.2531 -2.2797  0.1020
 1777SOL     OW16966   3.480   0.000   7.523  0.3492 -1.0488  0.0756
 1777SOL    HW116967   3.454   0.024   7.612 -0.5794 -2.1621  0.0951
 1777SOL    HW216968   3.421   4.664   7.504  0.2091 -0.8681 -0.1677
 1778SOL     OW16969   4.009   3.573   3.934  0.2524 -0.3718 -0.3211
 1778SOL    HW116970   3.962   3.585   3.851  1.7446  1.4799 -0.9019
 1778SOL    HW216971   3.942   3.602   3.996  0.5402 -2.1645  0.8150
 1779SOL     OW16972   1.151   4.317   4.561  0.4229  0.7224 -0.0362
 1779SOL    HW116973   1.137   4.395   4.508  0.2645 -0.3441 -1.5669
 1779SOL    HW216974   1.171   4.372   4.637 -1.0897 -0.3876  1.1758
 1780SOL     OW16975   2.496   0.269  16.490  0.6015 -0.0622 -0.2507
 1780SOL    HW116976   2.479   0.291  16.399  1.3742 -2.8949 -1.0772
 1780SOL    HW216977   2.431   0.200  16.502 -0.7078  1.0955 -0.7988
 1781SOL     OW16978   3.244   2.098   5.880 -0.2064 -0.3818 -0.3260
 1781SOL    HW116979   3.335   2.067   5.882 -0.5842 -1.5754 -2.3584
 1781SOL    HW216980   3.240   2.175   5.938 -1.9121 -0.7278  0.0074
 1782SOL     OW16981   2.264   4.130   2.778  0.1873 -0.6923  0.0657
 1782SOL    HW116982   2.278   4.036   2.773 -1.1631 -0.8914  0.1456
 1782SOL    HW216983   2.179   4.146   2.820  0.6335  0.8712  0.3884
 1783SOL     OW16984   0.990   2.306   7.128 -0.2377  0.5249  0.4254
 1783SOL    HW116985   1.061   2.284   7.068 -0.1341  1.4146  0.2151
 1783SOL    HW216986   0.992   2.401   7.116 -1.2730  0.1739 -2.3749
 1784SOL     OW16987   1.748   1.720   5.619  0.2478  0.0565 -0.2505
 1784SOL    HW116988   1.764   1.714   5.713 -0.2826  1.7058 -0.0558
 1784SOL    HW216989   1.704   1.803   5.600  0.3160  0.0705 -0.3517
 1785SOL     OW16990   3.602   3.959  12.011 -0.3762 -0.0784 -0.0556
 1785SOL    HW116991   3.666   3.974  11.942  1.2151  3.0554  2.1215
 1785SOL    HW216992   3.632   3.874  12.044  2.3159  0.2730 -1.5847
 1786SOL     OW16993   2.149   0.198   4.201  0.0287 -0.4325  0.1845
 1786SOL    HW116994   2.103   0.230   4.278  1.9829 -2.3521  2.1390
 1786SOL    HW216995   2.100   0.234   4.126  0.8371 -1.3041 -0.7657
 1787SOL     OW16996   2.671   2.318   8.187 -0.0153  0.0398  0.0969
 1787SOL    HW116997   2.749   2.288   8.232 -0.6232 -1.0965  0.3910
 1787SOL    HW216998   2.703   2.295   8.099 -0.7011  0.0381 -0.1555
 1788SOL     OW16999   2.238   3.054   7.379  0.1351 -0.1936 -0.2220
 1788SOL    HW117000   2.264   2.964   7.360  0.8756  0.2236 -1.1418
 1788SOL    HW217001   2.168   3.057   7.314  0.5272 -1.8843 -0.7205
 1789SOL     OW17002   2.164   3.050  14.995 -0.6908 -0.6627 -0.7265
 1789SOL    HW117003   2.136   3.132  15.034  0.0505  0.7976 -3.2603
 1789SOL    HW217004   2.109   3.047  14.917 -0.7508  0.5464 -0.7352
 1790SOL     OW17005   3.886   0.478  12.864  0.3463 -0.1983 -0.3560
 1790SOL    HW117006   3.800   0.439  12.876 -0.9200  2.8157  0.3388
 1790SOL    HW217007   3.890   0.538  12.938 -0.1480 -2.6412  1.6656
 1791SOL     OW17008   1.617   2.236   7.086  0.3465 -0.2277 -0.4066
 1791SOL    HW117009   1.549   2.185   7.131 -1.0331  1.1813 -0.8973
 1791SOL    HW217010   1.692   2.193   7.128 -0.2009 -0.1219  0.6699
 1792SOL     OW17011   0.150   4.713   8.460 -0.3333 -0.3014  0.7369
 1792SOL    HW117012   0.213   4.718   8.387  1.3204 -0.6667  2.1419
 1792SOL    HW217013   0.112   0.065   8.455  0.6749  0.1520  0.9247
 1793SOL     OW17014   1.498   1.426   5.664  0.0684  0.1960  0.5051
 1793SOL    HW117015   1.504   1.334   5.691 -0.2147 -0.1423 -0.5775
 1793SOL    HW217016   1.580   1.435   5.616  0.1193 -0.0426  0.5447
 1794SOL     OW17017   1.046   2.657   1.510  0.0846 -0.1012 -0.1415
 1794SOL    HW117018   1.112   2.727   1.505  3.1996 -2.8070  2.8631
 1794SOL    HW217019   1.075   2.605   1.585  1.8199 -1.1684 -1.5451
 1795SOL     OW17020   0.655   1.226   7.923 -0.2160  0.0472 -0.4683
 1795SOL    HW117021   0.585   1.204   7.862  1.4804  2.2466 -3.1728
 1795SOL    HW217022   0.666   1.319   7.905  0.5026 -0.2845 -1.7139
 1796SOL     OW17023   0.825   0.244  16.966  0.0897  0.0648 -0.0281
 1796SOL    HW117024   0.921   0.244  16.959  0.0949  0.0756  0.0536
 1796SOL    HW217025   0.806   0.263  16.874 -1.5805 -3.0253 -0.3220
 1797SOL     OW17026   1.368   1.671   1.101 -0.3937 -0.6288 -0.1136
 1797SOL    HW117027   1.460   1.692   1.116  0.0081 -1.3652 -1.6003
 1797SOL    HW217028   1.336   1.760   1.086  2.3502  0.1954 -1.0742
 1798SOL     OW17029   1.131   0.578   6.212 -0.6032  0.5750  0.2191
 1798SOL    HW117030   1.199   0.595   6.147 -0.7136  0.9041  0.1860
 1798SOL    HW217031   1.052   0.599   6.163  0.2994  3.1773 -0.1349
 1799SOL     OW17032   2.388   2.371   8.110  0.3840  0.1494 -0.1502
 1799SOL    HW117033   2.414   2.283   8.137  1.9793  1.0814  1.2986
 1799SOL    HW217034   2.436   2.439   8.156  0.3095  0.3116 -0.3106
 1800SOL     OW17035   4.280   1.053  13.314 -0.1506  0.3901  0.3453
 1800SOL    HW117036   4.355   1.000  13.288 -0.1168 -0.2766  1.8424
 1800SOL    HW217037   4.254   1.097  13.233  0.0699  0.3867  0.2727
 1801SOL     OW17038   4.327   0.949   4.009 -0.3190 -0.0416 -0.1682
 1801SOL    HW117039   4.335   0.877   3.946 -0.6098 -1.3489  1.3115
 1801SOL    HW217040   4.325   0.907   4.094  1.3815 -1.4729 -0.8510
 1802SOL     OW17041   2.543   3.827   9.825  0.3509 -0.0334  0.0711
 1802SOL    HW117042   2.575   3.910   9.862  2.0223 -0.6154 -0.0566
 1802SOL    HW217043   2.493   3.782   9.893  0.3538  1.1651  0.8852
 1803SOL     OW17044   1.300   0.842   3.007  1.1216  0.0229 -0.5174
 1803SOL    HW117045   1.205   0.837   3.020  1.1231 -0.3174 -0.6567
 1803SOL    HW217046   1.321   0.752   3.032 -0.7696 -0.3695 -0.3247
 1804SOL     OW17047   4.583   0.053   3.169  0.2707  0.1479  0.2438
 1804SOL    HW117048   4.587   4.730   3.094  4.7740  1.6278 -0.7235
 1804SOL    HW217049   4.678   0.057   3.184  0.2737  2.5649 -0.4042
 1805SOL     OW17050   3.293   1.973   3.278 -0.1965 -0.0721  0.0823
 1805SOL    HW117051   3.386   1.998   3.277  0.2080 -1.4296  2.4272
 1805SOL    HW217052   3.259   2.045   3.331 -0.7613 -0.5850  0.4142
 1806SOL     OW17053   0.862   1.111   8.403 -0.4386 -0.4436 -0.0137
 1806SOL    HW117054   0.851   1.135   8.311  0.7152  2.5951  0.6507
 1806SOL    HW217055   0.830   1.021   8.397  0.0871 -0.5836 -0.7549
 1807SOL     OW17056   0.597   4.130   4.038 -0.2759  0.1535  0.0636
 1807SOL    HW117057   0.550   4.204   4.000 -1.1865  0.4552  1.7696
 1807SOL    HW217058   0.645   4.184   4.101 -0.4267  2.2953 -1.6832
 1808SOL     OW17059   1.822   2.396   6.282  0.1865  0.7653 -0.2845
 1808SOL    HW117060   1.806   2.489   6.268  1.4277  0.9777 -0.3447
 1808SOL    HW217061   1.864   2.406   6.368 -0.8201 -0.0764  0.3030
 1809SOL     OW17062   3.343   4.122   4.771  0.3511 -0.2980  0.6100
 1809SOL    HW117063   3.300   4.194   4.725  0.7602  0.7260  1.8231
 1809SOL    HW217064   3.269   4.101   4.829 -0.5670  2.1985  0.3352
 1810SOL     OW17065   3.140   2.262   4.088 -0.3373 -0.4213 -0.0032
 1810SOL    HW117066   3.131   2.353   4.115 -3.0174 -1.2278  1.8487
 1810SOL    HW217067   3.188   2.264   4.005 -0.6239  0.2845 -0.1513
 1811SOL     OW17068   0.975   3.501   9.235  0.2669 -0.1965  0.0511
 1811SOL    HW117069   1.002   3.589   9.210  0.0651 -0.5868 -1.5291
 1811SOL    HW217070   1.048   3.452   9.196  0.7895 -1.3964  2.5480
 1812SOL     OW17071   2.254   2.407   7.139 -0.3151  0.9389  0.5284
 1812SOL    HW117072   2.266   2.478   7.076 -0.8063  0.7607  0.2330
 1812SOL    HW217073   2.321   2.416   7.207  0.7895  2.3029 -0.7466
 1813SOL     OW17074   4.734   3.031   7.459 -0.5631 -0.0986  0.1517
 1813SOL    HW117075   0.022   3.044   7.550  0.1557 -1.1231  0.1126
 1813SOL    HW217076   4.652   3.080   7.453 -0.0466  0.9141  1.3940
 1814SOL     OW17077   2.027   3.322  13.886  0.3027  0.4342 -0.3532
 1814SOL    HW117078   2.010   3.254  13.820  0.1627  0.2272 -0.1040
 1814SOL    HW217079   2.121   3.310  13.900  0.1819 -1.6432 -1.3475
 1815SOL     OW17080   2.715   2.732  13.919  0.2758 -0.0792 -0.0619
 1815SOL    HW117081   2.654   2.806  13.928  0.6689  0.4515 -1.7962
 1815SOL    HW217082   2.758   2.736  14.004  0.1753 -0.8861  0.0311
 1816SOL     OW17083   3.406   0.416   5.334 -0.3817 -0.1492 -0.0270
 1816SOL    HW117084   3.444   0.341   5.287  3.8868  1.0036  1.6129
 1816SOL    HW217085   3.370   0.373   5.411 -0.0340  1.3105  0.9510
 1817SOL     OW17086   4.011   1.995   7.924 -0.2028 -0.2696 -0.2666
 1817SOL    HW117087   4.022   2.086   7.952 -0.6675 -0.6437  1.1306
 1817SOL    HW217088   4.029   1.962   8.013  1.2321  1.5147  0.1059
 1818SOL     OW17089   3.055   1.576   5.033 -0.1439  0.2763  0.3486
 1818SOL    HW117090   2.962   1.574   5.056 -0.1308 -0.6288  0.3111
 1818SOL    HW217091   3.070   1.487   5.004  0.8305  0.2107  1.0525
 1819SOL     OW17092   3.185   3.326   7.785 -0.0385 -0.2952 -0.2940
 1819SOL    HW117093   3.198   3.373   7.703  0.6552 -1.4526 -0.8431
 1819SOL    HW217094   3.111   3.271   7.757 -0.3355  0.0793 -0.2414
 1820SOL     OW17095   3.120   1.838  16.728  0.2130 -0.1185 -0.3845
 1820SOL    HW117096   3.198   1.870  16.774  0.0059 -0.3463  0.1327
 1820SOL    HW217097   3.053   1.868  16.790 -0.9324 -2.3355 -0.5700
 1821SOL     OW17098   0.392   3.213   4.441 -0.1024  0.2280  0.4429
 1821SOL    HW117099   0.480   3.219   4.479 -0.8550  1.4004  1.9759
 1821SOL    HW217100   0.369   3.120   4.447  1.7203 -0.1555  1.6028
 1822SOL     OW17101   0.972   0.243   7.931  0.4246  0.6163  0.2243
 1822SOL    HW117102   0.915   0.177   7.969  3.5689 -0.3216  3.3567
 1822SOL    HW217103   0.929   0.327   7.945  0.3471  0.3244  1.6811
 1823SOL     OW17104   0.269   1.785   8.599  0.0141  0.4343  0.2587
 1823SOL    HW117105   0.250   1.700   8.557  0.5430  0.1558  0.5883
 1823SOL    HW217106   0.350   1.762   8.644  1.2227 -0.6436 -2.4358
 1824SOL     OW17107   4.046   2.587   3.115  0.4054  0.1460 -0.6697
 1824SOL    HW117108   4.057   2.669   3.068 -2.5397 -0.4502 -2.4345
 1824SOL    HW217109   3.952   2.592   3.132  0.4179 -0.1255 -0.5173
 1825SOL     OW17110   0.533   3.199   2.044  0.0545  0.1309 -0.7889
 1825SOL    HW117111   0.549   3.174   2.136  0.3045 -0.7228 -1.0655
 1825SOL    HW217112   0.617   3.175   2.006 -0.0622 -1.1172 -0.2964
 1826SOL     OW17113   0.880   2.347   6.325  0.0547  0.3064 -0.2885
 1826SOL    HW117114   0.953   2.298   6.286  1.4169  0.4697  2.0008
 1826SOL    HW217115   0.809   2.296   6.286 -1.3309  1.1792  1.1014
 1827SOL     OW17116   1.687   4.556   1.118  0.4484  0.2549 -0.6663
 1827SOL    HW117117   1.664   4.640   1.158  3.1988  1.2567 -1.1800
 1827SOL    HW217118   1.613   4.496   1.132  0.7117 -0.0497 -0.5713
 1828SOL     OW17119   1.883   3.178   7.841 -0.1412  0.0056 -0.1791
 1828SOL    HW117120   1.869   3.133   7.924  2.8722 -0.2535  0.1631
 1828SOL    HW217121   1.864   3.107   7.779  2.1076 -1.2259  0.5750
 1829SOL     OW17122   1.202   0.218   2.265 -0.1005  0.1353  0.1650
 1829SOL    HW117123   1.215   0.310   2.244  1.6928 -0.5151 -1.6837
 1829SOL    HW217124   1.141   0.187   2.198 -1.5894  0.4547  1.3833
 1830SOL     OW17125   3.238   1.900  14.027 -0.2454 -0.1488  0.0027
 1830SOL    HW117126   3.331   1.924  14.029  0.1823 -1.9476  1.1183
 1830SOL    HW217127   3.198   1.977  14.066  0.7149  0.5669 -0.4034
 1831SOL     OW17128   3.317   4.139   8.205 -0.1201  0.2854  0.1707
 1831SOL    HW117129   3.264   4.086   8.145 -0.0968  2.2948 -1.6197
 1831SOL    HW217130   3.264   4.151   8.284  0.4273  0.4133  0.5185
 1832SOL     OW17131   4.089   0.712   4.498  0.4730  0.2436 -0.2712
 1832SOL    HW117132   4.091   0.671   4.585  2.3326  0.6510 -0.1227
 1832SOL    HW217133   4.146   0.654   4.447  2.7122  0.6702  1.7470
 1833SOL     OW17134   3.961   0.168   5.283 -0.4604 -0.6939  0.1187
 1833SOL    HW117135   3.925   0.195   5.199  0.0265  0.7168  0.3650
 1833SOL    HW217136   4.051   0.199   5.270 -1.1077  1.5042  0.8773
 1834SOL     OW17137   4.193   2.755  11.412 -0.2923 -0.2483  0.0680
 1834SOL    HW117138   4.265   2.692  11.406  0.9797  1.2750 -0.5123
 1834SOL    HW217139   4.207   2.790  11.500  0.6841 -0.5398  0.0276
 1835SOL     OW17140   1.211   1.528  13.882  0.4601  0.3603  0.2408
 1835SOL    HW117141   1.280   1.572  13.932 -0.9691  1.8581  0.8913
 1835SOL    HW217142   1.202   1.587  13.808 -1.0978  1.8663  1.6437
 1836SOL     OW17143   2.163   2.167   4.169 -0.3367  0.1759  0.0908
 1836SOL    HW117144   2.146   2.076   4.142 -0.0878 -0.1726  1.1144
 1836SOL    HW217145   2.181   2.210   4.085 -0.8553 -0.7829 -0.5101
 1837SOL     OW17146   1.855   2.265  10.507  0.1133  0.3767  0.0344
 1837SOL    HW117147   1.892   2.177  10.504 -1.1897 -0.2128  1.6818
 1837SOL    HW217148   1.932   2.315  10.476  0.7783 -0.8842 -0.3284
 1838SOL     OW17149   1.465   0.610   8.042 -0.3784 -0.5088 -0.2837
 1838SOL    HW117150   1.400   0.595   7.974 -0.9889 -2.2188  0.6887
 1838SOL    HW217151   1.427   0.565   8.117  0.9909  2.1573  2.0355
 1839SOL     OW17152   3.988   2.339   3.420 -0.2120  0.3273  0.0507
 1839SOL    HW117153   4.029   2.424   3.410  0.6437 -0.1133 -0.2257
 1839SOL    HW217154   3.905   2.360   3.463 -0.5410 -2.7993  0.9536
 1840SOL     OW17155   1.743   4.086   6.399 -0.0700  0.2266  0.2331
 1840SOL    HW117156   1.838   4.070   6.405 -0.7868 -3.9298  0.7036
 1840SOL    HW217157   1.742   4.178   6.426  0.6291 -0.2156  1.8298
 1841SOL     OW17158   2.814   3.729   9.506  0.4673  0.7038 -0.8317
 1841SOL    HW117159   2.745   3.793   9.489  0.7922  1.2603 -0.0536
 1841SOL    HW217160   2.811   3.744   9.600  0.1506 -0.9039 -0.5891
 1842SOL     OW17161   0.684   2.123   0.811 -0.2522 -0.0882  0.4898
 1842SOL    HW117162   0.672   2.151   0.902  2.4420  0.8142  0.5617
 1842SOL    HW217163   0.600   2.078   0.798  1.1369 -2.1903 -0.9659
 1843SOL     OW17164   3.806   2.500   0.894 -0.3155  0.3761 -0.9186
 1843SOL    HW117165   3.844   2.471   0.811  0.3388  0.8166 -0.7686
 1843SOL    HW217166   3.877   2.551   0.933 -2.1458  1.5419  0.8599
 1844SOL     OW17167   0.933   2.726  15.228 -0.0531 -0.7116  0.5332
 1844SOL    HW117168   0.930   2.783  15.151 -1.0992  0.3771  1.3903
 1844SOL    HW217169   0.875   2.763  15.294 -1.9539 -0.5583 -1.2067
 1845SOL     OW17170   2.212   2.449   2.006 -0.2038  0.3537 -0.9703
 1845SOL    HW117171   2.218   2.502   2.086 -2.2260 -1.1952  0.1880
 1845SOL    HW217172   2.177   2.370   2.046  0.1694  0.4894 -0.3818
 1846SOL     OW17173   0.937   1.202   7.725  0.2722  0.1896 -0.3293
 1846SOL    HW117174   1.021   1.171   7.760  2.4229  2.3508 -3.5703
 1846SOL    HW217175   0.880   1.145   7.777 -0.1948  0.5292 -0.4672
 1847SOL     OW17176   3.373   0.794  16.599 -0.0819 -0.2187 -0.1321
 1847SOL    HW117177   3.396   0.761  16.686 -0.7235  1.2351  0.5940
 1847SOL    HW217178   3.282   0.820  16.617 -1.2112 -4.3104  0.0758
 1848SOL     OW17179   0.571   0.285  10.989 -0.3254  0.6562  0.3403
 1848SOL    HW117180   0.489   0.328  11.011 -0.6861 -0.1768  0.6412
 1848SOL    HW217181   0.559   0.276  10.894  2.9608 -0.7075  0.0325
 1849SOL     OW17182   1.431   1.372   3.047 -0.4344 -0.0936  0.7240
 1849SOL    HW117183   1.351   1.399   3.002 -0.2019 -1.9336 -0.7919
 1849SOL    HW217184   1.430   1.279   3.023  0.1594  0.1111 -0.1094
 1850SOL     OW17185   4.479   3.142   6.095 -0.0426 -0.5608 -0.1300
 1850SOL    HW117186   4.541   3.161   6.166 -0.5519 -0.6223  0.3335
 1850SOL    HW217187   4.509   3.212   6.037 -4.8725  1.6224 -0.0255
 1851SOL     OW17188   1.606   2.737  16.785  0.1430  0.1511  0.1502
 1851SOL    HW117189   1.642   2.820  16.753  1.0174  0.2115  1.2852
 1851SOL    HW217190   1.651   2.725  16.869  0.9657  2.2654  0.0013
 1852SOL     OW17191   3.304   3.921   4.283  0.4307  0.1384 -0.4067
 1852SOL    HW117192   3.322   3.953   4.371  0.6913 -1.6628  0.1932
 1852SOL    HW217193   3.280   3.835   4.319 -2.5076  1.7297  1.4910
 1853SOL     OW17194   1.442   3.914   5.831 -0.1575  0.0972 -0.2989
 1853SOL    HW117195   1.406   3.947   5.913 -0.3821  0.9457 -0.7298
 1853SOL    HW217196   1.514   3.974   5.809 -0.3180 -0.0585 -1.2679
 1854SOL     OW17197   0.677   1.271   7.119 -0.3624 -0.4887 -0.6161
 1854SOL    HW117198   0.710   1.351   7.159  0.8484 -0.9929 -0.6265
 1854SOL    HW217199   0.754   1.215   7.110 -1.0126 -1.5115  0.2321
 1855SOL     OW17200   3.572   3.673  11.306 -0.0226 -0.1378 -0.2100
 1855SOL    HW117201   3.577   3.765  11.284 -0.4915  0.2992  1.4747
 1855SOL    HW217202   3.491   3.642  11.266 -0.6764  0.6873  0.4627
 1856SOL     OW17203   1.371   1.094   3.039  0.3307  0.1818  0.1606
 1856SOL    HW117204   1.335   1.006   3.034  0.1864  0.3554 -1.9248
 1856SOL    HW217205   1.464   1.073   3.036  0.4990  0.6619  1.6652
 1857SOL     OW17206   2.038   1.046   2.442 -0.1424 -0.5584 -0.0800
 1857SOL    HW117207   2.097   1.116   2.414 -0.9097  0.3426  0.5482
 1857SOL    HW217208   1.950   1.071   2.413  0.1587  0.6398  0.0683
 1858SOL     OW17209   1.941   2.493   1.217  0.3483  0.4968  0.3193
 1858SOL    HW117210   1.849   2.506   1.241  0.2190 -2.7156  1.4601
 1858SOL    HW217211   1.972   2.534   1.298  0.7632 -2.5483  1.6768
 1859SOL     OW17212   0.869   1.948   5.880 -0.1789 -0.3059  0.2987
 1859SOL    HW117213   0.941   1.886   5.887 -0.4911 -0.5380  1.5358
 1859SOL    HW217214   0.843   1.975   5.969 -3.4806  0.8857 -1.0200
 1860SOL     OW17215   1.747   2.313   8.764 -0.1289 -0.4929 -0.5349
 1860SOL    HW117216   1.757   2.222   8.792  1.0749 -0.3292 -0.4282
 1860SOL    HW217217   1.746   2.358   8.849 -2.7104 -0.3627 -0.6471
 1861SOL     OW17218   3.942   3.809   9.259 -0.0739 -0.0066  0.4712
 1861SOL    HW117219   3.997   3.751   9.313 -0.7959  0.7649  2.0211
 1861SOL    HW217220   3.850   3.787   9.272  0.0051  1.0667  2.7058
 1862SOL     OW17221   1.526   2.063  13.450 -0.6200  0.0885 -0.1183
 1862SOL    HW117222   1.514   2.109  13.367  0.6199  0.5994 -0.0113
 1862SOL    HW217223   1.544   1.972  13.424 -1.0539  0.1088 -0.4905
 1863SOL     OW17224   3.903   2.406   5.433 -0.3359  0.3479 -0.4051
 1863SOL    HW117225   3.827   2.349   5.424  0.3079 -0.3719 -1.3617
 1863SOL    HW217226   3.960   2.335   5.464  1.0966  0.2678 -3.1843
 1864SOL     OW17227   3.432   3.365  15.282 -0.3117 -0.7358  0.1911
 1864SOL    HW117228   3.500   3.366  15.349 -0.8807  0.5034  0.7537
 1864SOL    HW217229   3.427   3.275  15.249 -0.7813 -1.7729  3.0455
 1865SOL     OW17230   1.162   3.163  15.015  0.1476 -0.3313 -0.3787
 1865SOL    HW117231   1.200   3.085  15.056  2.5719  0.2056 -1.6172
 1865SOL    HW217232   1.083   3.158  15.070  0.3653  0.8096  0.0475
 1866SOL     OW17233   3.225   0.814  12.668  0.2180  0.1305 -0.1820
 1866SOL    HW117234   3.224   0.793  12.761  3.2184 -1.5808 -0.5150
 1866SOL    HW217235   3.159   0.762  12.623 -0.3962  0.7024  0.0640
 1867SOL     OW17236   3.826   2.184  10.289  0.2626  0.3830  0.5778
 1867SOL    HW117237   3.897   2.243  10.314 -0.6256  1.3852  0.7530
 1867SOL    HW217238   3.803   2.145  10.374  1.0189 -2.4579 -0.5253
 1868SOL     OW17239   4.055   1.495   6.495 -0.4818  0.2019 -0.3603
 1868SOL    HW117240   3.995   1.435   6.540  0.2415 -0.5391 -0.3884
 1868SOL    HW217241   3.992   1.566   6.483  1.0868  1.6504 -0.0564
 1869SOL     OW17242   1.265   0.711  11.312 -0.6362 -0.2152  0.1116
 1869SOL    HW117243   1.203   0.690  11.242 -1.3651  0.5426  0.5197
 1869SOL    HW217244   1.266   0.625  11.352  2.1601 -1.2929 -2.2729
 1870SOL     OW17245   3.847   3.921   6.657  0.4558 -0.4415  0.3356
 1870SOL    HW117246   3.900   3.864   6.711 -0.7677 -0.1737  1.8358
 1870SOL    HW217247   3.886   4.008   6.648 -0.0845 -0.1530  0.7942
 1871SOL     OW17248   1.876   1.877   8.740  0.0284 -0.3129  0.5747
 1871SOL    HW117249   1.793   1.912   8.772 -1.0021 -1.5624 -0.7333
 1871SOL    HW217250   1.859   1.829   8.660  1.8230 -0.0852  0.0593
 1872SOL     OW17251   3.567   4.256   4.810  0.8119  0.4530  0.0491
 1872SOL    HW117252   3.477   4.228   4.826 -0.1298  2.9150 -0.8981
 1872SOL    HW217253   3.596   4.195   4.742 -0.6253  0.1766 -0.3181
 1873SOL     OW17254   2.926   2.511   7.335  0.0757 -0.5435  0.4476
 1873SOL    HW117255   2.840   2.497   7.296 -0.3678 -0.6100  1.4342
 1873SOL    HW217256   2.936   2.424   7.373  1.2748 -0.8886 -0.6653
 1874SOL     OW17257   0.142   3.907   4.335  0.1015 -0.1771 -0.2498
 1874SOL    HW117258   0.190   3.824   4.334  0.4819 -0.0082  2.1558
 1874SOL    HW217259   0.096   3.915   4.252 -0.3563 -0.3076 -0.0050
 1875SOL     OW17260   0.463   3.112  15.660  0.3423 -0.4103 -0.5412
 1875SOL    HW117261   0.474   3.016  15.657  1.9092 -0.2011 -1.3480
 1875SOL    HW217262   0.375   3.113  15.696  0.7017 -0.4290  0.3236
 1876SOL     OW17263   4.320   1.451   5.358 -0.7035  0.0217 -0.2464
 1876SOL    HW117264   4.347   1.541   5.373 -1.7790  0.4600 -0.9188
 1876SOL    HW217265   4.228   1.463   5.383 -0.6569  2.4368 -1.1866
 1877SOL     OW17266   1.703   1.535  15.362 -0.2636 -0.3586 -0.0355
 1877SOL    HW117267   1.707   1.484  15.443 -0.9692  0.7336  0.6808
 1877SOL    HW217268   1.619   1.576  15.381  0.9859  1.7676  0.9529
 1878SOL     OW17269   3.765   4.136   1.701  0.3889  0.0721 -0.0726
 1878SOL    HW117270   3.815   4.197   1.647 -0.5930 -0.2042 -1.2975
 1878SOL    HW217271   3.710   4.197   1.752  2.7747  2.1613  0.0081
 1879SOL     OW17272   1.906   3.148   5.294 -0.1380 -0.3073 -0.3282
 1879SOL    HW117273   1.889   3.054   5.303 -0.1780 -0.4637 -1.9132
 1879SOL    HW217274   1.954   3.165   5.213  1.1428 -2.4823 -0.0390
 1880SOL     OW17275   4.188   3.222  10.177 -0.3380 -0.5443  0.0149
 1880SOL    HW117276   4.157   3.253  10.092  0.9212  3.0723  0.8856
 1880SOL    HW217277   4.127   3.271  10.231 -1.0425 -0.2671 -1.0457
 1881SOL     OW17278   4.193   0.636   2.894  0.8764 -0.2831  0.0506
 1881SOL    HW117279   4.256   0.708   2.903  1.2186 -0.7478  1.4006
 1881SOL    HW217280   4.112   0.682   2.871  0.1072 -1.8249 -0.2721
 1882SOL     OW17281   4.025   0.457   6.900  0.4614  0.0667 -0.1970
 1882SOL    HW117282   3.962   0.474   6.970  2.7086 -0.3941  1.9438
 1882SOL    HW217283   3.974   0.407   6.837 -0.3567 -0.4015  0.8410
 1883SOL     OW17284   1.327   4.097   8.112  0.4180 -0.3383 -0.9030
 1883SOL    HW117285   1.233   4.106   8.096  0.4493 -2.3564 -2.2500
 1883SOL    HW217286   1.324   4.032   8.182 -0.1437  1.1531  0.4640
 1884SOL     OW17287   0.576   0.046   8.261 -0.1205 -0.2530  0.6954
 1884SOL    HW117288   0.567   0.137   8.230 -1.7743 -0.3671  0.8396
 1884SOL    HW217289   0.572   0.055   8.357 -2.0091  0.7733  0.5201
 1885SOL     OW17290   3.263   1.095   4.518  0.7133  0.1676 -0.3783
 1885SOL    HW117291   3.329   1.107   4.586  0.1521 -0.6009  0.3196
 1885SOL    HW217292   3.321   1.035   4.471  0.0910 -1.7464  1.2873
 1886SOL     OW17293   0.880   2.807   3.364 -0.5337 -0.6633 -0.5221
 1886SOL    HW117294   0.951   2.772   3.418  0.5180  2.0025 -0.1930
 1886SOL    HW217295   0.924   2.887   3.335 -3.3331 -0.0110 -2.8822
 1887SOL     OW17296   2.858   1.154   2.337  0.4536  0.2551 -0.1728
 1887SOL    HW117297   2.858   1.121   2.427  0.3266  0.7845  0.0211
 1887SOL    HW217298   2.773   1.193   2.318  0.6338  1.3735  1.3528
 1888SOL     OW17299   2.801   0.534   3.502 -0.7567  0.7285 -0.6626
 1888SOL    HW117300   2.844   0.619   3.495  0.5009  0.3737  2.6780
 1888SOL    HW217301   2.804   0.500   3.592  0.2209  0.3644 -0.8223
 1889SOL     OW17302   1.783   0.691   9.526  0.7562 -0.3666  0.0251
 1889SOL    HW117303   1.724   0.658   9.594 -0.2617  0.1148 -0.6351
 1889SOL    HW217304   1.749   0.780   9.516  1.4054 -0.0353  0.6669
 1890SOL     OW17305   3.886   2.585  12.138  0.2354  0.2125 -0.3908
 1890SOL    HW117306   3.939   2.506  12.143 -0.2408  0.1053  3.0763
 1890SOL    HW217307   3.963   2.640  12.126  0.2802  0.1174 -0.5372
 1891SOL     OW17308   0.594   4.247   6.441  0.2654  0.2397 -0.1129
 1891SOL    HW117309   0.542   4.168   6.452 -2.9406  2.3471 -0.2342
 1891SOL    HW217310   0.562   4.291   6.520  3.1636 -0.0410  1.2195
 1892SOL     OW17311   1.751   2.478   5.567 -0.5435 -0.2706  0.4646
 1892SOL    HW117312   1.657   2.464   5.556 -0.8339  2.5875 -0.5708
 1892SOL    HW217313   1.757   2.544   5.637 -2.9518  0.7401 -0.2672
 1893SOL     OW17314   3.054   2.675   0.864  0.1227  0.1033  0.1230
 1893SOL    HW117315   3.048   2.727   0.945  0.6176 -2.1197  1.5890
 1893SOL    HW217316   3.147   2.652   0.863 -0.0178 -0.5066  1.2862
 1894SOL     OW17317   3.234   2.076  12.020 -0.0233 -0.1278  0.4957
 1894SOL    HW117318   3.251   2.150  12.078  1.1625 -0.2309  0.2869
 1894SOL    HW217319   3.149   2.093  11.981  0.1582  0.9894  0.5802
 1895SOL     OW17320   4.128   4.244   6.385 -0.1008  0.1197 -0.3756
 1895SOL    HW117321   4.200   4.290   6.341  1.0983  0.6715  2.1701
 1895SOL    HW217322   4.150   4.153   6.365 -0.6796  0.0911 -0.8862
 1896SOL     OW17323   4.108   1.774   3.330  0.4875 -0.9200 -0.0902
 1896SOL    HW117324   4.055   1.725   3.267 -1.4535 -1.1084  1.6793
 1896SOL    HW217325   4.196   1.764   3.294  0.2286 -1.8163 -0.4536
 1897SOL     OW17326   3.273   2.786   7.376 -0.3196 -0.1554  0.2810
 1897SOL    HW117327   3.271   2.702   7.422  1.6969 -0.6417 -0.5121
 1897SOL    HW217328   3.275   2.843   7.452  3.1498 -0.7266  0.6076
 1898SOL     OW17329   4.506   2.908  13.783  0.1741 -0.3833  0.6989
 1898SOL    HW117330   4.465   2.945  13.705  1.7121 -1.2378 -0.5249
 1898SOL    HW217331   4.554   2.834  13.747  2.3113  0.0773  2.6065
 1899SOL     OW17332   2.854   4.313  10.735  0.1847  0.8315  0.0874
 1899SOL    HW117333   2.896   4.258  10.801  1.0327  1.8401  0.3922
 1899SOL    HW217334   2.763   4.316  10.764  0.0057 -0.8476 -0.2806
 1900SOL     OW17335   2.158   1.074   8.609  0.4767  0.1003  0.4352
 1900SOL    HW117336   2.087   1.043   8.552  0.9958  0.2392 -0.2863
 1900SOL    HW217337   2.124   1.062   8.698  0.8300  2.9374  0.9252
 1901SOL     OW17338   4.279   4.556   4.790 -0.0867  0.2148 -0.3561
 1901SOL    HW117339   4.338   4.508   4.849  0.6974 -1.1974 -2.2995
 1901SOL    HW217340   4.312   4.533   4.704 -0.6578 -2.3044  0.1113
 1902SOL     OW17341   2.012   3.933   3.088 -0.1163  0.3039  0.2882
 1902SOL    HW117342   1.926   3.936   3.129 -0.7074  0.0320 -0.9404
 1902SOL    HW217343   2.080   3.961   3.149 -0.2792  4.1784 -1.3144
 1903SOL     OW17344   0.031   0.466   1.029  0.0429  0.1191  0.3428
 1903SOL    HW117345   4.690   0.416   1.058  1.6027 -1.2421  2.1221
 1903SOL    HW217346   4.734   0.556   1.022  2.0758  0.7949 -0.5002
 1904SOL     OW17347   4.383   0.260   3.106 -0.0359  0.3055 -0.9191
 1904SOL    HW117348   4.413   0.349   3.125 -0.5717  0.3937 -0.4796
 1904SOL    HW217349   4.466   0.214   3.091 -0.2108  0.3449 -2.0260
 1905SOL     OW17350   1.007   1.962   2.896 -0.0815 -0.6638 -0.1935
 1905SOL    HW117351   1.032   1.895   2.960  2.7700  0.7372  0.1594
 1905SOL    HW217352   1.052   1.920   2.823  0.6499  0.4341 -0.3775
 1906SOL     OW17353   2.088   3.321   4.826  0.3150  0.2401 -0.0297
 1906SOL    HW117354   1.998   3.345   4.805  0.3937  0.2125 -0.4018
 1906SOL    HW217355   2.094   3.315   4.921 -1.7783  0.3370  0.1159
 1907SOL     OW17356   4.052   3.285   8.396 -0.3771 -0.2325 -0.2344
 1907SOL    HW117357   3.992   3.211   8.394 -0.8326  0.1655 -1.2133
 1907SOL    HW217358   3.996   3.355   8.431  2.0682  1.6391 -0.0176
 1908SOL     OW17359   2.703   0.234   4.078 -0.0667 -0.7862 -0.0468
 1908SOL    HW117360   2.783   0.285   4.080 -0.4398 -0.1936 -0.5718
 1908SOL    HW217361   2.697   0.209   4.171  1.5029  1.7647  0.7393
 1909SOL     OW17362   4.334   2.284   4.597  0.1509 -0.2880  0.2980
 1909SOL    HW117363   4.396   2.277   4.524 -2.1924  2.3579 -1.9562
 1909SOL    HW217364   4.286   2.202   4.597 -1.9368  0.9416  0.4264
 1910SOL     OW17365   0.025   2.711  14.629  0.1538 -0.6216 -0.1400
 1910SOL    HW117366   4.701   2.775  14.668  0.9807 -0.6327  1.1577
 1910SOL    HW217367   4.713   2.690  14.549 -0.5595  1.6363 -0.3111
 1911SOL     OW17368   1.433   1.758   4.055 -0.3228  0.3050  0.0683
 1911SOL    HW117369   1.517   1.796   4.031 -0.4963  0.4009 -0.3881
 1911SOL    HW217370   1.415   1.741   3.963  0.4297 -0.3017  0.0389
 1912SOL     OW17371   1.942   0.578  10.637 -0.8481 -0.0628  0.4827
 1912SOL    HW117372   1.985   0.554  10.719 -1.2175  0.6198  0.8759
 1912SOL    HW217373   1.920   0.494  10.597  1.5246 -1.1998  1.5811
 1913SOL     OW17374   3.564   3.665   0.490 -0.4897  0.1951  0.0255
 1913SOL    HW117375   3.498   3.642   0.424  0.8209  1.4396 -1.7174
 1913SOL    HW217376   3.514   3.675   0.572 -0.3768 -0.8480  0.2155
 1914SOL     OW17377   1.565   0.007  11.831 -0.3024  0.0051 -0.3288
 1914SOL    HW117378   1.626   0.037  11.898 -1.5021 -1.0141  1.2410
 1914SOL    HW217379   1.509   4.692  11.890  0.3433 -0.1011  0.1932
 1915SOL     OW17380   0.388   0.893   7.767 -0.0894 -0.0106 -0.0030
 1915SOL    HW117381   0.401   0.805   7.803 -2.2918  0.0443  0.9083
 1915SOL    HW217382   0.336   0.873   7.689  0.1219 -0.4249 -0.0353
 1916SOL     OW17383   2.024   3.104   3.334  0.3632  0.2647 -0.1122
 1916SOL    HW117384   1.935   3.137   3.344 -0.0778 -1.0071  0.0457
 1916SOL    HW217385   2.048   3.089   3.425  1.2241 -0.7526 -0.5021
 1917SOL     OW17386   0.361   0.986  12.363  0.2459 -0.1687 -0.0966
 1917SOL    HW117387   0.396   0.956  12.447 -1.7162  0.6042  0.9818
 1917SOL    HW217388   0.423   1.057  12.348 -0.2227 -0.3106 -2.7542
 1918SOL     OW17389   0.410   4.727   6.192  0.0730  0.6723  0.4172
 1918SOL    HW117390   0.366   4.713   6.108 -0.2945  0.5181  0.6352
 1918SOL    HW217391   0.460   4.647   6.208 -2.1307 -0.3696  2.0906
 1919SOL     OW17392   2.055   4.511   0.182  0.3986 -0.1985  0.3734
 1919SOL    HW117393   2.020   4.600   0.181  2.4172  0.5909  0.1592
 1919SOL    HW217394   2.031   4.486   0.272 -1.7035  1.7766  0.3610
 1920SOL     OW17395   1.405   2.885   6.109  0.5911 -0.8062 -0.2386
 1920SOL    HW117396   1.494   2.867   6.078  1.6137  1.8781  1.0330
 1920SOL    HW217397   1.396   2.834   6.190  0.9139 -0.9675 -0.3025
 1921SOL     OW17398   3.517   3.484  12.114 -0.1216  0.0006 -0.0653
 1921SOL    HW117399   3.433   3.486  12.068 -0.4573 -1.3472  0.4843
 1921SOL    HW217400   3.503   3.459  12.206  0.1004 -2.3229 -0.6523
 1922SOL     OW17401   3.968   1.978  11.186  0.4574 -0.9965  0.4369
 1922SOL    HW117402   3.873   1.978  11.192  0.3656 -1.0143 -1.1228
 1922SOL    HW217403   3.976   2.065  11.146  0.4846 -1.1125  0.1915
 1923SOL     OW17404   0.706   3.460   9.256  0.4601 -0.5178  1.1563
 1923SOL    HW117405   0.798   3.453   9.281  0.8326 -0.8703 -0.3479
 1923SOL    HW217406   0.668   3.456   9.343 -0.8216 -1.2707  0.5558
 1924SOL     OW17407   3.125   1.736   3.331  0.2344  0.4928  0.0834
 1924SOL    HW117408   3.170   1.819   3.348  0.1856  0.4746  0.2982
 1924SOL    HW217409   3.192   1.697   3.276 -1.7870 -2.3021 -0.4096
 1925SOL     OW17410   0.121   1.109  14.064  0.2244  0.3002  0.6248
 1925SOL    HW117411   0.117   1.019  14.099  4.0190 -0.0695  0.1242
 1925SOL    HW217412   0.212   1.133  14.081  0.4212 -1.2451  1.7745
 1926SOL     OW17413   1.641   0.440   2.527  0.3258 -0.2394  0.1245
 1926SOL    HW117414   1.720   0.437   2.581 -0.7043 -2.3430  1.5192
 1926SOL    HW217415   1.624   0.352   2.492 -0.8263 -0.4034  1.1178
 1927SOL     OW17416   4.334   2.813   4.972  0.3045 -0.4707 -0.1218
 1927SOL    HW117417   4.316   2.722   4.948  1.5240 -0.4074 -1.3405
 1927SOL    HW217418   4.314   2.813   5.065  1.5656 -1.4242  0.1575
 1928SOL     OW17419   2.714   1.716   5.526  0.1696  0.2462 -0.8043
 1928SOL    HW117420   2.796   1.765   5.534  0.2298 -0.0719  0.4062
 1928SOL    HW217421   2.710   1.683   5.615  2.7398 -0.0240 -0.7874
 1929SOL     OW17422   3.359   1.758   9.944  0.1414  0.4161 -0.2458
 1929SOL    HW117423   3.386   1.828  10.004 -0.2140 -1.0640  1.6437
 1929SOL    HW217424   3.281   1.728   9.991  0.9943  0.0146  0.9232
 1930SOL     OW17425   3.520   4.005   5.461 -0.1484  0.2004 -0.0614
 1930SOL    HW117426   3.493   4.090   5.425 -0.1596  0.7888  1.3269
 1930SOL    HW217427   3.609   4.027   5.488 -0.3320 -2.3739  2.6524
 1931SOL     OW17428   2.976   2.755   7.622  0.2480  0.4261  0.7012
 1931SOL    HW117429   3.013   2.834   7.582  0.4015  1.6789  3.2680
 1931SOL    HW217430   2.889   2.787   7.649  0.1831  2.1543 -1.5377
 1932SOL     OW17431   1.165   1.975   3.555 -0.0071  0.1327  0.6070
 1932SOL    HW117432   1.209   1.989   3.638  3.0346 -1.9237 -0.6513
 1932SOL    HW217433   1.075   1.954   3.580  0.3356 -2.2776 -0.1638
 1933SOL     OW17434   4.673   3.195  11.967  0.1712 -0.5720 -0.3166
 1933SOL    HW117435   4.640   3.241  11.890  1.2760  1.9006  0.6559
 1933SOL    HW217436   4.670   3.264  12.034 -0.0431  0.8630 -1.8180
 1934SOL     OW17437   1.870   3.624   6.643 -0.4472 -0.3042 -0.1576
 1934SOL    HW117438   1.897   3.716   6.641  0.5036 -0.6164 -1.6332
 1934SOL    HW217439   1.874   3.602   6.736 -0.3128  2.4597  0.4951
 1935SOL     OW17440   4.161   4.270   3.108 -0.2262 -0.7160  0.1791
 1935SOL    HW117441   4.112   4.195   3.142 -0.1860 -0.3839  0.9858
 1935SOL    HW217442   4.245   4.229   3.131 -0.3709  0.7341  3.3125
 1936SOL     OW17443   0.478   3.803   6.819 -0.2245  0.1081 -0.1442
 1936SOL    HW117444   0.435   3.805   6.905  0.5638  1.0081  0.2411
 1936SOL    HW217445   0.459   3.892   6.790 -2.6012 -0.4933 -0.3538
 1937SOL     OW17446   0.289   2.188  15.360 -0.5002 -0.5301 -0.0511
 1937SOL    HW117447   0.346   2.158  15.431  2.1815 -2.3747 -3.0240
 1937SOL    HW217448   0.311   2.132  15.286 -1.8471 -1.3273  0.1651
 1938SOL     OW17449   1.608   2.375  11.189  0.8520  0.1660 -0.1722
 1938SOL    HW117450   1.547   2.391  11.261 -0.1581  0.1283 -1.0164
 1938SOL    HW217451   1.679   2.334  11.237 -1.4420  0.2338  3.2999
 1939SOL     OW17452   3.300   1.131   2.724 -0.7137  0.2807 -0.7426
 1939SOL    HW117453   3.392   1.156   2.734 -0.7554 -0.2563  1.0825
 1939SOL    HW217454   3.284   1.059   2.786 -0.2475  0.1233 -0.8063
 1940SOL     OW17455   4.298   3.585   8.218 -0.2681  0.3649 -1.2668
 1940SOL    HW117456   4.341   3.529   8.153  1.3076  1.6104 -1.3135
 1940SOL    HW217457   4.209   3.568   8.187 -0.0212 -1.4579 -0.9743
 1941SOL     OW17458   0.167   3.333  13.734 -0.5671 -0.4148  0.1986
 1941SOL    HW117459   0.114   3.298  13.806 -1.9271 -1.7619 -1.4363
 1941SOL    HW217460   0.094   3.362  13.678 -0.7476  0.9047  1.1329
 1942SOL     OW17461   4.600   1.827  14.159 -0.1473 -0.0285 -0.5056
 1942SOL    HW117462   4.532   1.865  14.215 -0.4199 -3.5027  1.5250
 1942SOL    HW217463   4.673   1.828  14.221 -1.2213 -2.4403  0.8270
 1943SOL     OW17464   3.526   2.674  11.147  0.0968  0.0754 -0.0873
 1943SOL    HW117465   3.567   2.596  11.183 -0.8131  0.6766  2.2295
 1943SOL    HW217466   3.605   2.723  11.127  1.4230 -1.8503  0.4261
 1944SOL     OW17467   3.177   4.493   4.024 -0.3614 -0.7453  0.4261
 1944SOL    HW117468   3.228   4.448   3.958  0.5524 -0.8246  1.1895
 1944SOL    HW217469   3.220   4.579   4.021  2.9181 -2.4215  0.4030
 1945SOL     OW17470   1.470   1.377   6.808  0.2919  0.0031 -0.0230
 1945SOL    HW117471   1.376   1.364   6.824  0.1036  2.9943  1.3319
 1945SOL    HW217472   1.504   1.301   6.854 -1.0250 -1.0207 -0.7470
 1946SOL     OW17473   4.214   1.899  17.723  0.1484 -0.1252  0.5829
 1946SOL    HW117474   4.203   1.925   0.073  2.6695  1.0043  0.5659
 1946SOL    HW217475   4.217   1.804  17.715  0.8718 -0.0138 -0.4922
 1947SOL     OW17476   4.236   2.155  11.279  0.5556  0.5098 -0.3555
 1947SOL    HW117477   4.260   2.070  11.244  3.0137  0.8718  0.4859
 1947SOL    HW217478   4.215   2.201  11.198 -1.4376  0.9994  0.4274
 1948SOL     OW17479   2.619   1.622  13.303 -0.3566 -0.1182 -0.1342
 1948SOL    HW117480   2.617   1.701  13.249  1.6344 -1.0529 -1.5611
 1948SOL    HW217481   2.625   1.551  13.240 -0.0626 -0.0153 -0.2237
 1949SOL     OW17482   1.557   2.826  13.188  0.1167  0.2520  0.3049
 1949SOL    HW117483   1.624   2.762  13.165  0.1389  1.3715 -2.7605
 1949SOL    HW217484   1.618   2.881  13.236  1.6725 -1.0410 -0.2010
 1950SOL     OW17485   3.729   3.928   2.827 -0.0097  0.2786  0.6384
 1950SOL    HW117486   3.704   4.016   2.856 -2.2484 -1.1349  2.9316
 1950SOL    HW217487   3.642   3.893   2.811 -0.3073  1.0470  0.5411
 1951SOL     OW17488   1.137   2.613   6.341 -0.1127  0.0734 -0.6782
 1951SOL    HW117489   1.131   2.701   6.304 -1.8640  0.7100  1.1105
 1951SOL    HW217490   1.042   2.600   6.338  0.0690 -1.5809  1.0783
 1952SOL     OW17491   2.267   1.456   6.771 -0.2657  0.2052  0.4079
 1952SOL    HW117492   2.321   1.418   6.702 -0.2843  0.0122  0.5005
 1952SOL    HW217493   2.243   1.542   6.735 -2.0817 -1.5965 -2.7435
 1953SOL     OW17494   3.547   3.507   9.301 -0.1871  0.2265  0.3558
 1953SOL    HW117495   3.642   3.505   9.308 -0.1066 -0.5190 -0.9830
 1953SOL    HW217496   3.541   3.461   9.217  0.4786  1.6442 -0.4581
 1954SOL     OW17497   3.456   2.247   2.155 -0.4654 -0.0404  0.2607
 1954SOL    HW117498   3.449   2.330   2.109 -1.8075 -0.1130  0.3357
 1954SOL    HW217499   3.410   2.187   2.096  2.6655  1.3764 -3.6155
 1955SOL     OW17500   4.573   4.589   1.123 -0.4668  0.1181  0.1192
 1955SOL    HW117501   4.544   4.653   1.187  0.3231  0.4652  0.1370
 1955SOL    HW217502   4.667   4.602   1.137 -0.2706 -0.7153 -0.3780
 1956SOL     OW17503   4.712   1.982  14.472  0.4285  0.3253  0.1762
 1956SOL    HW117504   0.056   1.990  14.420 -1.1833 -0.3301 -2.4200
 1956SOL    HW217505   0.005   2.017  14.556  0.2809 -1.8010  1.1037
 1957SOL     OW17506   4.624   1.089   6.023 -0.2753 -0.5378 -0.1970
 1957SOL    HW117507   4.542   1.120   5.983  0.0865 -1.1223 -1.3855
 1957SOL    HW217508   4.595   1.017   6.078  1.6114 -1.7471 -0.8069
 1958SOL     OW17509   0.742   0.046   1.528 -0.0911  0.4260  0.0130
 1958SOL    HW117510   0.670   4.735   1.487 -0.6565  0.4101  1.0173
 1958SOL    HW217511   0.708   0.083   1.610 -2.6044 -0.8573 -0.4480
 1959SOL     OW17512   2.594   2.606   9.407 -0.1811  0.0044 -0.1907
 1959SOL    HW117513   2.557   2.683   9.364 -1.8777 -0.1829  0.9642
 1959SOL    HW217514   2.587   2.530   9.350 -1.1058  2.1829 -2.9816
 1960SOL     OW17515   0.369   1.559  14.661  0.1891  0.0594  0.1215
 1960SOL    HW117516   0.381   1.617  14.586  0.5043  0.0223  0.1435
 1960SOL    HW217517   0.306   1.608  14.714  1.1821  1.7005 -0.2154
 1961SOL     OW17518   3.770   1.867  15.124 -0.3541 -0.3998  0.0544
 1961SOL    HW117519   3.769   1.936  15.190 -0.0250  0.0774 -0.4491
 1961SOL    HW217520   3.862   1.843  15.126 -0.2139  0.5072  3.7438
 1962SOL     OW17521   3.142   2.759   2.637 -0.1496 -0.0290  0.3491
 1962SOL    HW117522   3.231   2.760   2.673 -0.2675  0.1260  0.6397
 1962SOL    HW217523   3.113   2.850   2.644 -0.0635 -0.0590  1.1663
 1963SOL     OW17524   4.257   0.985   3.412 -0.2675  0.0189 -0.6621
 1963SOL    HW117525   4.294   1.007   3.498 -1.7318  1.1567 -0.3210
 1963SOL    HW217526   4.285   0.895   3.395  0.9406  0.5186 -1.2870
 1964SOL     OW17527   1.149   3.470  11.122  0.0010 -0.0026 -0.0681
 1964SOL    HW117528   1.082   3.417  11.165  1.8575 -1.2855  1.2367
 1964SOL    HW217529   1.115   3.558  11.135 -0.2773 -0.9652  5.6919
 1965SOL     OW17530   3.441   1.697  10.842  0.1824  0.2285  0.0249
 1965SOL    HW117531   3.536   1.685  10.847  0.0177 -1.5159 -1.0461
 1965SOL    HW217532   3.427   1.754  10.917  1.1969 -0.8321  1.0328
 1966SOL     OW17533   3.169   0.821   7.505 -0.3198  0.2470 -0.3138
 1966SOL    HW117534   3.111   0.839   7.431 -1.5630  0.7598  0.7860
 1966SOL    HW217535   3.137   0.881   7.572 -3.0401  1.1484 -2.4118
 1967SOL     OW17536   4.156   1.714   1.685  0.1481 -0.1926  0.2677
 1967SOL    HW117537   4.074   1.740   1.642 -0.1241 -1.5703 -0.0365
 1967SOL    HW217538   4.167   1.625   1.653 -1.5807 -0.2825 -0.1176
 1968SOL     OW17539   3.595   3.806   1.260 -0.4456  0.2317 -0.7523
 1968SOL    HW117540   3.512   3.785   1.302 -0.4500  1.6994 -0.0481
 1968SOL    HW217541   3.613   3.897   1.284  1.4802  0.1386 -1.7752
 1969SOL     OW17542   1.998   4.678   3.311  0.2557 -0.1764 -0.3806
 1969SOL    HW117543   1.997   4.722   3.226 -2.9502  1.4009  0.4467
 1969SOL    HW217544   2.065   4.729   3.356 -1.4708  2.5951 -0.9257
 1970SOL     OW17545   3.885   0.223   7.858 -0.1274  0.1797 -0.0848
 1970SOL    HW117546   3.943   0.242   7.932 -0.1565  0.3785 -0.1131
 1970SOL    HW217547   3.879   0.128   7.869 -1.0635  0.2136 -0.3325
 1971SOL     OW17548   3.563   2.161   1.767 -0.3588  0.1661  0.0046
 1971SOL    HW117549   3.587   2.179   1.677  1.9999  0.1197  0.6163
 1971SOL    HW217550   3.506   2.236   1.785  0.0579  1.2713 -3.3367
 1972SOL     OW17551   3.834   3.316   5.482  0.3781 -0.1195 -0.5932
 1972SOL    HW117552   3.912   3.371   5.487 -0.9042  1.6930 -0.6597
 1972SOL    HW217553   3.826   3.310   5.577  0.5029 -0.0285 -0.5768
 1973SOL     OW17554   0.042   3.436  16.959 -0.2432 -0.0169  0.3708
 1973SOL    HW117555   0.063   3.442  16.865 -2.4260  2.2433  0.0345
 1973SOL    HW217556   4.717   3.506  16.983 -0.7293  0.2381 -1.5689
 1974SOL     OW17557   4.640   1.082   2.334  0.7211 -0.2016  0.1256
 1974SOL    HW117558   4.690   1.117   2.260  0.2189  1.1101  0.4123
 1974SOL    HW217559   4.619   1.162   2.383  1.8606  1.2255 -1.7019
 1975SOL     OW17560   2.238   2.148   4.853 -0.1410  0.2804 -0.6890
 1975SOL    HW117561   2.222   2.242   4.852  2.7521  0.7501 -2.9619
 1975SOL    HW217562   2.269   2.132   4.941  0.8982 -0.8266 -1.2556
 1976SOL     OW17563   4.641   4.194   2.663 -0.5579 -0.3073 -0.7246
 1976SOL    HW117564   4.731   4.201   2.630 -0.9843  0.9862 -1.5941
 1976SOL    HW217565   4.596   4.265   2.618  0.0427  0.4885 -0.0593
 1977SOL     OW17566   1.255   2.209  14.000 -0.0226  0.1784 -0.3353
 1977SOL    HW117567   1.322   2.149  14.033 -3.9817 -4.0777 -0.1006
 1977SOL    HW217568   1.215   2.223  14.086  0.5492  0.7996 -0.1704
 1978SOL     OW17569   1.052   0.144   8.938 -0.5107 -0.4247 -0.2028
 1978SOL    HW117570   1.017   0.189   9.015 -0.8357 -1.1588  0.0692
 1978SOL    HW217571   1.110   0.080   8.979 -0.8485 -0.9242 -0.5184
 1979SOL     OW17572   0.946   0.588   4.024 -0.4380  0.6644 -0.0404
 1979SOL    HW117573   0.891   0.593   3.945 -0.1460 -1.4662 -0.3648
 1979SOL    HW217574   1.016   0.541   3.979 -0.9759  1.9661 -2.2547
 1980SOL     OW17575   0.520   3.949   7.248  0.2096  0.0151  0.3478
 1980SOL    HW117576   0.501   4.025   7.193 -0.3383 -0.1606  0.2989
 1980SOL    HW217577   0.498   3.875   7.192  0.5653 -1.4106  2.1044
 1981SOL     OW17578   1.744   3.064   6.677  0.0282 -0.3150  0.4587
 1981SOL    HW117579   1.674   3.120   6.711  0.7548  0.3587  0.8510
 1981SOL    HW217580   1.730   3.065   6.582  1.8269 -0.3956  0.1958
 1982SOL     OW17581   2.210   3.415   8.735 -0.2769 -0.2472  0.0423
 1982SOL    HW117582   2.118   3.395   8.717 -0.2528 -0.7963  0.5597
 1982SOL    HW217583   2.246   3.329   8.717 -2.0665 -0.9887 -0.0058
 1983SOL     OW17584   0.362   1.740  13.280 -0.3163  0.3544 -0.4151
 1983SOL    HW117585   0.312   1.662  13.305 -0.7439  1.1348  1.1541
 1983SOL    HW217586   0.416   1.700  13.211  1.0543  2.0050 -0.3085
 1984SOL     OW17587   3.552   0.899   2.976 -0.3008  0.2674 -0.4055
 1984SOL    HW117588   3.543   0.851   3.059  1.3684  0.3425 -0.1856
 1984SOL    HW217589   3.593   0.832   2.922 -1.3764 -1.1070  0.4569
 1985SOL     OW17590   4.626   0.858   2.771 -0.2260 -0.2115 -0.3903
 1985SOL    HW117591   4.621   0.771   2.732 -1.7802 -0.0713 -0.4947
 1985SOL    HW217592   4.645   0.918   2.699  0.5959 -0.5180 -0.4357
 1986SOL     OW17593   3.487   2.813   3.580  0.2529 -0.1913 -0.5465
 1986SOL    HW117594   3.452   2.867   3.651 -2.1888  2.5116 -3.8208
 1986SOL    HW217595   3.505   2.736   3.633 -2.8953 -0.0149  0.7872
 1987SOL     OW17596   0.489   2.769   6.642 -0.1250  0.8371  0.1942
 1987SOL    HW117597   0.437   2.700   6.682 -0.8540  0.6117 -1.1332
 1987SOL    HW217598   0.502   2.831   6.714  0.2103  1.2304 -0.2046
 1988SOL     OW17599   2.431   1.498   5.484  0.1122 -0.3089 -0.0660
 1988SOL    HW117600   2.462   1.427   5.541 -0.6533 -0.3177  0.3418
 1988SOL    HW217601   2.341   1.468   5.466  1.1655 -2.5459 -1.6190
 1989SOL     OW17602   1.039   4.066   1.657  0.1174  0.6822  0.4960
 1989SOL    HW117603   0.957   4.110   1.679 -0.1619  0.9737 -1.1076
 1989SOL    HW217604   1.099   4.139   1.673  0.7517 -0.2049  2.0941
 1990SOL     OW17605   0.977   0.121  12.036  0.8081  0.7870 -0.0117
 1990SOL    HW117606   0.934   0.180  11.974  1.4624  0.5416 -0.6982
 1990SOL    HW217607   0.940   0.035  12.017  1.7576  0.7871 -1.9547
 1991SOL     OW17608   0.509   4.116  11.999 -0.1735 -0.3591  0.3889
 1991SOL    HW117609   0.543   4.029  11.979 -0.8399 -0.7818  1.0875
 1991SOL    HW217610   0.465   4.142  11.918  1.6120 -1.3338 -0.8927
 1992SOL     OW17611   1.902   0.268   6.094  0.6915  0.1535 -0.3289
 1992SOL    HW117612   1.898   0.188   6.147  2.9448 -0.5701 -1.2381
 1992SOL    HW217613   1.811   0.263   6.065  1.2153  0.2599 -1.9496
 1993SOL     OW17614   1.167   0.838   3.736  0.6179 -0.2198 -0.4511
 1993SOL    HW117615   1.156   0.862   3.828  0.0956  2.6704 -1.2802
 1993SOL    HW217616   1.076   0.850   3.708  0.1599  2.4418  2.2260
 1994SOL     OW17617   3.938   4.640   2.683  0.0138 -0.5207 -0.1270
 1994SOL    HW117618   3.863   4.599   2.640 -0.2128  1.4271 -1.5924
 1994SOL    HW217619   3.900   4.656   2.770  0.1990 -5.5330  0.8660
 1995SOL     OW17620   3.850   4.254   3.872 -0.6831 -0.4409  0.2555
 1995SOL    HW117621   3.911   4.328   3.879 -0.0912 -0.8425 -0.6524
 1995SOL    HW217622   3.913   4.186   3.848  0.3728  1.2367 -1.8539
 1996SOL     OW17623   3.486   3.224   8.511 -0.4799  0.1059 -0.3566
 1996SOL    HW117624   3.534   3.195   8.433  1.6852 -0.0099  1.0079
 1996SOL    HW217625   3.414   3.162   8.521 -0.3784  0.0038 -0.2584
 1997SOL     OW17626   0.886   0.733   3.196 -0.1362  0.4411  0.1136
 1997SOL    HW117627   0.836   0.654   3.218  0.1390 -0.3643 -2.1441
 1997SOL    HW217628   0.810   0.791   3.191 -1.1982 -1.0103 -0.6745
 1998SOL     OW17629   4.686   0.610   9.798 -0.0102 -0.2185 -0.3668
 1998SOL    HW117630   4.725   0.552   9.732 -1.4845  1.3817 -2.6170
 1998SOL    HW217631   0.031   0.647   9.834 -0.4461 -0.4881  0.8974
 1999SOL     OW17632   0.809   0.772   5.844  0.3815  0.1071  0.1903
 1999SOL    HW117633   0.727   0.818   5.858  2.4205  3.6920  0.2907
 1999SOL    HW217634   0.831   0.815   5.762  1.0144  1.2688  0.9619
 2000SOL     OW17635   2.605   4.202   7.971 -0.4991 -0.1811  0.1058
 2000SOL    HW117636   2.691   4.169   7.947  0.0412  0.5192  1.1052
 2000SOL    HW217637   2.617   4.297   7.963  3.5227 -0.6373  0.6189
 2001SOL     OW17638   0.643   4.217   7.783  0.4282 -0.2690  0.2787
 2001SOL    HW117639   0.580   4.233   7.713  0.2998  3.6392  1.2995
 2001SOL    HW217640   0.728   4.245   7.747 -0.0685 -0.9093 -1.3620
 2002SOL     OW17641   3.225   0.145   3.464  0.3604 -0.1899  0.3995
 2002SOL    HW117642   3.272   0.137   3.547  1.1439  2.9256  0.2592
 2002SOL    HW217643   3.144   0.183   3.500  0.6320  0.4524  0.3293
 2003SOL     OW17644   2.158   0.770  11.979 -0.7702  0.0762 -0.1355
 2003SOL    HW117645   2.188   0.705  11.916  0.2922  0.8358 -0.4062
 2003SOL    HW217646   2.179   0.733  12.065  2.3297 -1.0187 -1.3558
 2004SOL     OW17647   2.541   0.849  11.987 -0.7571  0.0505  0.3429
 2004SOL    HW117648   2.463   0.898  12.012  1.2770  4.2821 -1.4980
 2004SOL    HW217649   2.535   0.844  11.892  0.0126  0.5402  0.2654
 2005SOL     OW17650   2.513   3.040   9.144  0.2972  0.4027  0.5219
 2005SOL    HW117651   2.482   3.125   9.174 -1.1076  1.0231 -2.6185
 2005SOL    HW217652   2.490   2.988   9.221 -0.0952  0.2760  0.3230
 2006SOL     OW17653   2.167   1.150   9.033 -0.3030  0.1317 -0.4265
 2006SOL    HW117654   2.230   1.084   9.005 -0.6104 -0.5958  0.6096
 2006SOL    HW217655   2.228   1.222   9.048 -1.7662  0.9796  1.3756
 2007SOL     OW17656   3.234   0.294   3.038 -0.4222  0.0479  0.0763
 2007SOL    HW117657   3.219   0.338   3.122 -4.8956  0.8976 -1.2072
 2007SOL    HW217658   3.177   0.347   2.983  0.0947 -0.1429 -0.6565
 2008SOL     OW17659   2.570   1.733  13.584  0.2370  0.1149 -0.3033
 2008SOL    HW117660   2.603   1.663  13.527  2.3204 -0.0476  1.1287
 2008SOL    HW217661   2.642   1.740  13.646 -1.6413  0.6536  1.8235
 2009SOL     OW17662   0.313   1.103   4.398  0.1879  0.4858  0.0359
 2009SOL    HW117663   0.278   1.071   4.315 -1.7571  0.2666  0.9350
 2009SOL    HW217664   0.332   1.195   4.381 -1.0150  0.8207  0.5395
 2010SOL     OW17665   1.588   4.034   0.434  0.6809 -0.1038 -0.6424
 2010SOL    HW117666   1.674   4.062   0.464  0.1480  2.0976 -1.2371
 2010SOL    HW217667   1.614   3.982   0.358 -1.0728 -0.6947 -0.8543
 2011SOL     OW17668   0.573   4.250  17.583  0.8907  0.0064 -0.2707
 2011SOL    HW117669   0.493   4.208  17.550  0.5763  2.6031 -2.8912
 2011SOL    HW217670   0.642   4.227  17.521  2.0006 -1.5645  1.5709
 2012SOL     OW17671   2.919   3.921   6.995 -0.5366 -0.0062 -0.0778
 2012SOL    HW117672   2.840   3.878   7.026 -0.0657 -0.4613  0.5085
 2012SOL    HW217673   2.895   3.983   6.927 -0.8459 -0.5983 -0.4977
 2013SOL     OW17674   1.146   2.529   2.016 -0.1928 -0.4766  0.2446
 2013SOL    HW117675   1.087   2.571   1.954  0.7083 -1.7952 -1.5134
 2013SOL    HW217676   1.218   2.530   1.952 -1.4987 -2.5321 -1.2591
 2014SOL     OW17677   4.042   0.694  16.360 -1.1630 -0.1284  0.4400
 2014SOL    HW117678   3.950   0.670  16.374 -0.9731 -0.7602  0.6344
 2014SOL    HW217679   4.049   0.772  16.415  3.5693  0.2552 -0.6924
 2015SOL     OW17680   0.701   0.076   2.098  0.1839 -0.0711  0.1728
 2015SOL    HW117681   0.629   0.042   2.044 -0.4266  3.6653 -1.3254
 2015SOL    HW217682   0.650   0.143   2.143  2.4100  2.7370 -1.5563
 2016SOL     OW17683   3.249   2.392   8.083 -0.0673 -0.2508  0.0054
 2016SOL    HW117684   3.325   2.389   8.025 -0.9450  2.6310 -1.3075
 2016SOL    HW217685   3.179   2.370   8.021 -0.1814  0.5851 -0.1644
 2017SOL     OW17686   0.028   4.521  10.518  0.4352 -0.1619 -0.0629
 2017SOL    HW117687   0.054   4.537  10.428  0.9488 -1.3464 -0.1283
 2017SOL    HW217688   0.099   4.469  10.556 -1.0295 -1.0175  1.5152
 2018SOL     OW17689   3.963   4.602   5.354  0.2022  0.0347 -0.1565
 2018SOL    HW117690   3.912   4.665   5.304 -3.4014 -2.7523  0.0247
 2018SOL    HW217691   4.039   4.595   5.297  0.3840  1.8623 -0.1419
 2019SOL     OW17692   3.568   3.233  12.713  0.3223  0.2489  0.0767
 2019SOL    HW117693   3.528   3.320  12.703 -0.8471 -0.4740 -1.7159
 2019SOL    HW217694   3.657   3.253  12.683  0.8902  1.2182  2.4600
 2020SOL     OW17695   1.953   0.193   2.752  0.3413 -0.1505 -0.0059
 2020SOL    HW117696   2.039   0.229   2.774 -0.1198  1.4640 -0.8714
 2020SOL    HW217697   1.911   0.276   2.729  1.3077  0.4733  0.4768
 2021SOL     OW17698   4.303   0.519   6.876  0.7635 -0.0430 -0.1164
 2021SOL    HW117699   4.307   0.615   6.886  0.9715 -0.0672  0.0373
 2021SOL    HW217700   4.208   0.511   6.866  0.7012 -0.3684  0.7214
 2022SOL     OW17701   2.536   3.643   9.010  0.0457  0.0801  0.1850
 2022SOL    HW117702   2.547   3.657   9.104 -3.6325 -0.2516  0.6611
 2022SOL    HW217703   2.556   3.730   8.974  1.6883 -0.0410  0.8169
 2023SOL     OW17704   0.157   2.851  15.473  0.6554  0.1097  0.0394
 2023SOL    HW117705   0.169   2.834  15.566  2.9048  2.1133  0.1267
 2023SOL    HW217706   0.118   2.938  15.478 -2.0272 -1.1272  0.2273
 2024SOL     OW17707   2.683   1.207   4.720  0.2472 -0.0148  0.3809
 2024SOL    HW117708   2.672   1.291   4.675  1.3073 -0.8297 -1.3690
 2024SOL    HW217709   2.594   1.190   4.749  0.3813  2.4958  2.2622
 2025SOL     OW17710   2.148   3.140   2.746  0.4733 -0.5444 -0.1034
 2025SOL    HW117711   2.058   3.110   2.732  0.5555 -0.5303 -0.6605
 2025SOL    HW217712   2.138   3.186   2.830  2.6416 -0.4916  0.1290
 2026SOL     OW17713   2.972   2.086  16.884  0.0449  0.4133 -0.1939
 2026SOL    HW117714   2.922   2.070  16.803  0.0255  1.2794 -0.3543
 2026SOL    HW217715   2.918   2.151  16.929  1.7098  1.2117  0.6253
 2027SOL     OW17716   4.651   3.469  11.020 -0.6533 -0.1374  0.4257
 2027SOL    HW117717   4.573   3.419  10.998  1.4587 -2.6126 -1.5474
 2027SOL    HW217718   4.680   3.428  11.101  1.4760  2.6508  1.0844
 2028SOL     OW17719   3.412   1.122   4.759 -0.2643 -0.1642  0.2913
 2028SOL    HW117720   3.494   1.073   4.749  0.5761  1.1313  0.8705
 2028SOL    HW217721   3.445   1.210   4.742  2.6457 -1.0432  1.2827
 2029SOL     OW17722   0.671   1.906   3.715  0.5002 -0.3368  0.0118
 2029SOL    HW117723   0.620   1.921   3.795 -0.5646 -1.3795 -0.4921
 2029SOL    HW217724   0.726   1.984   3.703 -0.6933  0.0031 -3.2470
 2030SOL     OW17725   0.669   0.240   4.927  0.4910 -0.0411 -0.7333
 2030SOL    HW117726   0.628   0.205   4.848 -1.2756 -0.1511  0.2359
 2030SOL    HW217727   0.658   0.335   4.922  1.5026  0.0300 -1.6987
 2031SOL     OW17728   0.419   2.847  15.679  0.2320  0.4417  0.3015
 2031SOL    HW117729   0.348   2.831  15.741  0.4152 -1.7231 -0.0445
 2031SOL    HW217730   0.451   2.758  15.660  0.8888  1.0320 -1.3826
 2032SOL     OW17731   1.102   3.928   8.663  0.1762  0.1432  0.1339
 2032SOL    HW117732   1.071   3.971   8.583  1.0072  0.0297 -0.2385
 2032SOL    HW217733   1.171   3.878   8.620  0.3051  3.0118 -3.0952
 2033SOL     OW17734   4.084   0.570   2.157  0.1300  0.3837 -0.6313
 2033SOL    HW117735   4.080   0.658   2.119  1.4645  1.0683  0.8140
 2033SOL    HW217736   4.027   0.515   2.103  0.0069 -0.8794  0.8079
 2034SOL     OW17737   2.908   0.868  12.849 -0.2175  0.2745 -0.2713
 2034SOL    HW117738   2.818   0.883  12.876  0.4643  0.5532  1.9103
 2034SOL    HW217739   2.949   0.953  12.831  2.4624 -1.1303 -0.8838
 2035SOL     OW17740   0.169   0.266   9.947 -0.4402  0.1724  0.5020
 2035SOL    HW117741   0.174   0.352   9.987  0.3276 -0.8752  2.6638
 2035SOL    HW217742   0.259   0.242   9.969 -0.6118  1.4738  2.6016
 2036SOL     OW17743   2.631   4.418   6.427  0.1558  0.6179 -0.2039
 2036SOL    HW117744   2.699   4.382   6.370  0.5633 -0.2472  0.8398
 2036SOL    HW217745   2.588   4.469   6.358  0.7349  0.4219 -0.7140
 2037SOL     OW17746   2.789   2.453   5.935  0.1215 -0.5810 -0.4705
 2037SOL    HW117747   2.737   2.533   5.943 -0.8008 -1.3333  0.9693
 2037SOL    HW217748   2.823   2.456   5.845  1.7425 -2.2946  0.0863
 2038SOL     OW17749   3.814   0.520   2.515 -0.1909  0.1849  0.3010
 2038SOL    HW117750   3.799   0.615   2.513 -1.8300 -0.0771  0.3944
 2038SOL    HW217751   3.723   0.494   2.498 -0.3898  0.5538  0.7782
 2039SOL     OW17752   3.518   2.949   8.760 -0.5542 -0.3861  0.0126
 2039SOL    HW117753   3.429   2.916   8.751 -1.1326  1.2737 -0.2308
 2039SOL    HW217754   3.528   2.998   8.679  1.4370 -1.8751 -0.6560
 2040SOL     OW17755   1.249   1.319   8.483  0.2531  0.3059 -0.1562
 2040SOL    HW117756   1.236   1.357   8.396 -0.2057  0.0993 -0.1803
 2040SOL    HW217757   1.269   1.397   8.536 -1.7259  1.3473 -0.9104
 2041SOL     OW17758   2.815   4.121  12.415  0.7134 -0.0703  0.2983
 2041SOL    HW117759   2.786   4.202  12.458  1.3659 -0.7563  2.0529
 2041SOL    HW217760   2.908   4.111  12.438  0.0768 -2.2005  1.9791
 2042SOL     OW17761   2.662   3.629   4.881 -0.2546  0.3104 -0.3009
 2042SOL    HW117762   2.621   3.609   4.797  0.1999 -0.4886 -0.3253
 2042SOL    HW217763   2.719   3.556   4.901 -1.4070 -0.6432 -0.4775
 2043SOL     OW17764   2.459   4.266  13.179  0.4445 -0.0234 -0.2967
 2043SOL    HW117765   2.507   4.263  13.096 -0.1778  1.2181 -0.6884
 2043SOL    HW217766   2.415   4.350  13.168  2.5483  1.4222  2.5083
 2044SOL     OW17767   3.127   4.717   4.292  0.0261 -0.2332  0.4091
 2044SOL    HW117768   3.042   4.672   4.295 -0.1589  0.0703 -0.3124
 2044SOL    HW217769   3.195   4.652   4.308 -0.8370 -0.7689  1.9744
 2045SOL     OW17770   3.351   2.762  14.065 -0.0472  0.0496  0.0683
 2045SOL    HW117771   3.413   2.792  13.998 -0.0066 -2.0303 -0.8198
 2045SOL    HW217772   3.416   2.744  14.132  1.6214  0.8122 -1.3473
 2046SOL     OW17773   4.115   1.471   6.231  0.6540 -0.3531 -0.1604
 2046SOL    HW117774   4.115   1.447   6.324  2.5940  1.8554  0.4108
 2046SOL    HW217775   4.069   1.396   6.192  1.5008 -0.3525 -1.1603
 2047SOL     OW17776   1.081   0.197   6.828 -0.3155 -0.1768 -0.2010
 2047SOL    HW117777   1.151   0.247   6.786 -0.9944  2.9754  2.4006
 2047SOL    HW217778   1.041   0.278   6.861 -0.9336 -0.3647 -0.4923
 2048SOL     OW17779   3.608   0.696  11.753 -0.6716 -0.0483 -0.0862
 2048SOL    HW117780   3.513   0.685  11.752 -0.6061 -0.7011  1.2637
 2048SOL    HW217781   3.623   0.726  11.663 -0.9169  0.7901  0.1598
 2049SOL     OW17782   0.726   3.008   3.604  0.1736 -0.0833  0.0123
 2049SOL    HW117783   0.820   3.025   3.610  0.0004  0.6533  0.6032
 2049SOL    HW217784   0.735   2.915   3.625  1.9888  0.2541  0.7261
 2050SOL     OW17785   0.306   4.528  15.986 -0.1100 -0.5918 -0.3274
 2050SOL    HW117786   0.293   4.458  15.922  1.9685 -1.8451  0.6252
 2050SOL    HW217787   0.225   4.574  15.963  1.0159  1.1149 -0.8605
 2051SOL     OW17788   3.777   2.197   4.439 -0.2972  0.2958 -0.0291
 2051SOL    HW117789   3.689   2.207   4.475 -1.4974  1.4499 -3.3637
 2051SOL    HW217790   3.774   2.115   4.390  0.7548  0.5771 -0.5578
 2052SOL     OW17791   3.965   2.867  13.864  0.0921 -0.6150  0.2498
 2052SOL    HW117792   3.975   2.787  13.812 -0.3895 -2.3063  2.7712
 2052SOL    HW217793   4.015   2.839  13.940 -0.5091 -1.4085  0.3533
 2053SOL     OW17794   2.075   3.866   2.850  0.2293 -0.3512  0.0825
 2053SOL    HW117795   2.150   3.806   2.848  0.3731 -0.2711  2.7707
 2053SOL    HW217796   2.062   3.878   2.944 -2.9403  2.2610 -0.6989
 2054SOL     OW17797   0.841   1.780  17.012 -0.2522 -0.1867 -0.0855
 2054SOL    HW117798   0.891   1.861  17.008  0.3721 -0.6156 -0.8955
 2054SOL    HW217799   0.753   1.817  17.000 -0.1333  0.1696  0.1351
 2055SOL     OW17800   0.626   4.169   5.625  0.7451 -1.0932 -0.1360
 2055SOL    HW117801   0.663   4.210   5.703 -0.4653  1.0320 -0.6776
 2055SOL    HW217802   0.612   4.246   5.570  1.2732 -0.1073  1.1159
 2056SOL     OW17803   3.787   4.550   1.756 -0.0364 -0.3261 -0.4966
 2056SOL    HW117804   3.845   4.577   1.827  0.0859  1.3003 -1.2219
 2056SOL    HW217805   3.728   4.625   1.762 -1.9020 -1.7022 -1.7367
 2057SOL     OW17806   4.063   4.279   0.427 -0.3142  0.2360 -0.3596
 2057SOL    HW117807   4.035   4.222   0.355 -0.6872  0.3635 -0.3173
 2057SOL    HW217808   3.981   4.321   0.455 -0.4729  0.5161 -1.2443
 2058SOL     OW17809   3.455   3.595  12.412  0.0708 -0.2696 -0.1936
 2058SOL    HW117810   3.483   3.660  12.477  1.8434 -0.1570 -1.0783
 2058SOL    HW217811   3.480   3.513  12.454  3.1495 -0.6836 -2.8629
 2059SOL     OW17812   0.962   1.060  11.777 -0.5006  0.5370 -0.1953
 2059SOL    HW117813   0.989   1.012  11.854  0.5755  1.3723 -0.0555
 2059SOL    HW217814   0.939   1.140  11.824 -1.5285  0.4683 -0.5823
 2060SOL     OW17815   4.687   1.761   6.701 -0.1319 -0.4927 -0.4423
 2060SOL    HW117816   4.618   1.824   6.724  0.0051  0.0179 -1.4519
 2060SOL    HW217817   4.656   1.737   6.614  0.5660  0.6358 -0.9943
 2061SOL     OW17818   0.202   3.208   3.310  0.2833 -0.0951  0.6832
 2061SOL    HW117819   0.123   3.252   3.279 -1.6766 -2.3893  2.5227
 2061SOL    HW217820   0.261   3.236   3.239 -0.4747  0.4506  0.2679
 2062SOL     OW17821   1.436   1.085  12.506  0.1828  0.1627 -0.4882
 2062SOL    HW117822   1.367   1.152  12.499  0.1140 -0.0167 -1.4665
 2062SOL    HW217823   1.472   1.098  12.418 -0.5788  0.2235 -0.7944
 2063SOL     OW17824   1.308   4.607   3.483  0.0978 -0.1448 -1.1556
 2063SOL    HW117825   1.220   4.572   3.493 -1.0758  3.1207 -0.0121
 2063SOL    HW217826   1.303   4.641   3.393  2.0342  0.7256 -0.9480
 2064SOL     OW17827   1.001   0.912   5.173  0.0474 -0.1296 -0.7439
 2064SOL    HW117828   1.082   0.861   5.178  0.1867  0.3092  1.5621
 2064SOL    HW217829   0.982   0.904   5.080 -0.1834  1.8173 -0.8707
 2065SOL     OW17830   1.964   4.203   0.945 -0.4079  0.2478  0.1384
 2065SOL    HW117831   1.963   4.298   0.953  2.0096  0.2596  0.2368
 2065SOL    HW217832   1.955   4.173   1.035 -1.2276 -0.5702 -0.2120
 2066SOL     OW17833   2.199   2.423   7.946  0.7842  0.1863  0.2957
 2066SOL    HW117834   2.166   2.501   7.990  1.9786  0.9030 -0.0581
 2066SOL    HW217835   2.258   2.389   8.013  1.6404  0.0397 -0.5307
 2067SOL     OW17836   3.629   0.648   8.858 -0.0481 -0.0559  0.4794
 2067SOL    HW117837   3.699   0.714   8.860 -1.4746  1.4235  2.7864
 2067SOL    HW217838   3.639   0.607   8.944 -2.3379 -0.6564  0.4420
 2068SOL     OW17839   2.378   3.014   7.059  0.1464 -0.3574  0.1935
 2068SOL    HW117840   2.391   2.949   7.127 -1.5067 -0.3701  0.5058
 2068SOL    HW217841   2.317   2.970   6.999  0.1402  0.1811 -0.2029
 2069SOL     OW17842   4.602   4.276   2.951  0.3425 -0.5416 -0.1683
 2069SOL    HW117843   4.619   4.225   2.872 -0.0241  0.1045 -0.6731
 2069SOL    HW217844   4.526   4.324   2.918  1.5524  0.9203 -0.8853
 2070SOL     OW17845   2.235   2.895  12.453 -0.3656 -0.2273 -0.1948
 2070SOL    HW117846   2.234   2.862  12.542  1.3790  0.4472  0.0815
 2070SOL    HW217847   2.299   2.832  12.421 -0.5874 -0.1458 -0.8070
 2071SOL     OW17848   0.519   0.246   2.484 -0.3223 -0.4867 -0.3313
 2071SOL    HW117849   0.497   0.178   2.420 -0.4645  0.0055 -0.8052
 2071SOL    HW217850   0.612   0.254   2.462  0.1944 -1.6310  1.3859
 2072SOL     OW17851   4.385   3.302  15.313  0.5623 -0.5509 -0.2372
 2072SOL    HW117852   4.412   3.369  15.251 -3.3888 -0.0133 -1.3787
 2072SOL    HW217853   4.404   3.342  15.398 -1.4213  2.1343 -1.0637
 2073SOL     OW17854   2.978   0.803   4.940  0.4049  0.2604 -0.1572
 2073SOL    HW117855   3.031   0.877   4.911 -0.9896  1.8487  1.4365
 2073SOL    HW217856   3.034   0.728   4.918  0.4282  0.1794  0.1789
 2074SOL     OW17857   4.047   1.830   4.618 -0.4580  0.0800  0.3038
 2074SOL    HW117858   4.054   1.893   4.546  0.3842  1.3405  1.4803
 2074SOL    HW217859   4.115   1.767   4.594 -1.2470 -0.4334 -0.5868
 2075SOL     OW17860   3.779   1.050   9.020 -0.1441 -0.4081 -0.1218
 2075SOL    HW117861   3.739   1.134   9.042  0.3665  0.1058 -1.1071
 2075SOL    HW217862   3.734   0.993   9.081 -0.6112 -0.8609 -0.8836
 2076SOL     OW17863   3.369   0.719   6.936  0.3169 -0.2929  0.1377
 2076SOL    HW117864   3.283   0.679   6.942  1.3697 -2.6702 -0.3509
 2076SOL    HW217865   3.379   0.754   7.024  1.2348 -0.2066  0.0004
 2077SOL     OW17866   0.831   3.942   6.634  0.0769  0.4341  0.0602
 2077SOL    HW117867   0.875   4.026   6.624 -0.2423  0.6703  0.6221
 2077SOL    HW217868   0.819   3.938   6.729 -0.4961  1.8301  0.0560
 2078SOL     OW17869   2.103   3.820  15.755  0.3759  0.2441  0.4009
 2078SOL    HW117870   2.134   3.819  15.664  1.2794 -1.4132  0.7127
 2078SOL    HW217871   2.079   3.912  15.762 -1.4930 -0.1419 -1.0702
 2079SOL     OW17872   1.334   1.036  16.135  0.0841  0.3042 -0.1793
 2079SOL    HW117873   1.361   0.948  16.161 -1.6302 -0.4843 -1.1129
 2079SOL    HW217874   1.271   1.017  16.066 -0.0673  3.4215 -0.9278
 2080SOL     OW17875   2.309   1.160   4.546  0.4221  1.3221 -0.1813
 2080SOL    HW117876   2.352   1.244   4.564  1.6213  0.2632  1.8752
 2080SOL    HW217877   2.308   1.119   4.633 -0.3767  0.4085 -0.6190
 2081SOL     OW17878   2.474   3.584   7.721 -0.1872  0.2885 -0.4387
 2081SOL    HW117879   2.516   3.501   7.698  0.4437 -0.0251  1.8608
 2081SOL    HW217880   2.503   3.598   7.811 -0.5464  0.1325 -0.3022
 2082SOL     OW17881   2.160   3.318   6.991 -0.1074  0.0542 -0.0221
 2082SOL    HW117882   2.232   3.291   6.935 -3.6469 -5.7901 -1.7432
 2082SOL    HW217883   2.143   3.406   6.957  2.5492  0.3153 -0.6300
 2083SOL     OW17884   1.923   1.790   7.242 -0.3040 -0.4106  0.3771
 2083SOL    HW117885   2.018   1.779   7.248 -0.1733  2.3696  3.1200
 2083SOL    HW217886   1.908   1.762   7.152  4.2600 -2.7201  0.3399
 2084SOL     OW17887   1.638   4.202   4.645  0.3108  0.1315 -0.1745
 2084SOL    HW117888   1.557   4.205   4.696 -0.2437  3.2132 -1.2122
 2084SOL    HW217889   1.692   4.276   4.671  1.9721 -1.1792  0.0845
 2085SOL     OW17890   0.330   4.679   2.771 -0.1271 -0.4360 -0.3839
 2085SOL    HW117891   0.345   4.587   2.793  0.8528 -0.0507  0.5315
 2085SOL    HW217892   0.236   4.684   2.750 -0.5497 -2.1548  1.1123
 2086SOL     OW17893   4.595   2.795   4.512 -0.0539 -0.2048 -0.7030
 2086SOL    HW117894   4.564   2.755   4.593 -1.3889 -1.3039 -1.7519
 2086SOL    HW217895   4.599   2.708   4.472 -1.1149 -0.3923 -0.3849
 2087SOL     OW17896   2.989   0.527   2.546 -0.4545  0.0686  0.5192
 2087SOL    HW117897   2.956   0.560   2.629  0.7930  0.2354  0.9324
 2087SOL    HW217898   3.025   0.610   2.517 -0.9534  0.6900  1.6936
 2088SOL     OW17899   1.815   3.262  14.063  0.0447 -0.1167  0.3349
 2088SOL    HW117900   1.901   3.273  14.022 -0.0286 -3.2039 -0.6056
 2088SOL    HW217901   1.764   3.233  13.987 -0.2418  0.0482  0.4632
 2089SOL     OW17902   3.578   3.616   2.977 -0.0638  0.5075  0.5578
 2089SOL    HW117903   3.524   3.654   2.907  0.0138  0.3962  0.4362
 2089SOL    HW217904   3.524   3.622   3.055 -2.1876 -1.1600 -0.7942
 2090SOL     OW17905   2.515   2.298   8.490  0.2079 -0.0463  0.3498
 2090SOL    HW117906   2.522   2.363   8.421  2.5528 -1.0825 -0.3642
 2090SOL    HW217907   2.438   2.332   8.537  0.3257  1.0142 -0.2386
 2091SOL     OW17908   0.586   4.253   7.501  0.0164 -0.0252 -0.8974
 2091SOL    HW117909   0.578   4.160   7.484 -2.7302 -0.0368  0.3296
 2091SOL    HW217910   0.519   4.301   7.452 -1.3833  0.7970  1.7680
 2092SOL     OW17911   0.183   1.017   3.326  0.1513 -0.4052 -0.3479
 2092SOL    HW117912   0.133   1.025   3.407  0.7273  0.1993 -0.0410
 2092SOL    HW217913   0.138   1.075   3.264 -0.8231  0.3876  1.0902
 2093SOL     OW17914   1.801   2.877   4.926  0.2296  0.1174 -0.2167
 2093SOL    HW117915   1.764   2.888   4.839 -2.2446  0.7013  0.9239
 2093SOL    HW217916   1.813   2.970   4.945 -1.0984  0.3718 -0.6690
 2094SOL     OW17917   1.616   0.688   5.969 -0.2009 -0.0726 -0.0051
 2094SOL    HW117918   1.584   0.607   6.009 -0.5880  0.6801  1.2171
 2094SOL    HW217919   1.709   0.668   5.959 -0.6555 -2.4142  0.4356
 2095SOL     OW17920   1.523   3.104   8.832 -0.5229 -0.6052 -0.5092
 2095SOL    HW117921   1.567   3.043   8.892 -0.4720 -0.7940 -0.7398
 2095SOL    HW217922   1.478   3.166   8.890 -2.8524  0.0116 -2.9994
 2096SOL     OW17923   0.601   3.982   7.525 -0.3296 -0.1530 -0.5129
 2096SOL    HW117924   0.599   3.941   7.439 -1.3797  0.0163 -0.5700
 2096SOL    HW217925   0.535   3.928   7.568 -1.4908 -0.4925 -2.7184
 2097SOL     OW17926   2.400   2.497   9.677  0.2028  0.6794 -0.7833
 2097SOL    HW117927   2.377   2.535   9.593 -0.4144 -2.1909 -1.9131
 2097SOL    HW217928   2.396   2.575   9.732 -0.0390 -0.5072  0.9047
 2098SOL     OW17929   1.466   2.452   2.448  0.1137  0.0623 -0.0018
 2098SOL    HW117930   1.376   2.420   2.446  0.4448 -0.8368 -0.9171
 2098SOL    HW217931   1.455   2.535   2.402  1.1493 -0.8210 -1.8276
 2099SOL     OW17932   3.823   3.857   1.998 -0.0917 -0.4135  0.2166
 2099SOL    HW117933   3.766   3.861   1.921  0.8887  2.4050 -0.3624
 2099SOL    HW217934   3.808   3.943   2.037  2.3062  1.1325 -2.3167
 2100SOL     OW17935   0.118   1.791  14.290 -0.7578  0.8569 -0.0103
 2100SOL    HW117936   0.118   1.711  14.238 -1.8493 -0.0306  1.3740
 2100SOL    HW217937   0.126   1.754  14.377 -0.3705  2.3402  0.5909
 2101SOL     OW17938   1.064   2.454  12.574 -0.5465 -0.3903  0.1753
 2101SOL    HW117939   1.148   2.496  12.592 -0.6363  0.5376 -1.5711
 2101SOL    HW217940   1.027   2.516  12.511  0.9783 -0.6672 -0.9898
 2102SOL     OW17941   3.301   1.202   8.119 -0.0083  0.1169  0.0865
 2102SOL    HW117942   3.274   1.258   8.191  0.0769  1.3015 -0.8131
 2102SOL    HW217943   3.223   1.147   8.116  0.0041  0.1284 -0.6341
 2103SOL     OW17944   1.767   3.969   3.352  0.2599 -0.4052  0.2928
 2103SOL    HW117945   1.771   4.064   3.362 -0.8112 -0.5172  1.8262
 2103SOL    HW217946   1.685   3.958   3.401  1.3929  0.8313  2.4676
 2104SOL     OW17947   1.314   3.368   2.958  0.4751  0.5039  0.2960
 2104SOL    HW117948   1.324   3.274   2.973  1.8893  0.3630 -1.4706
 2104SOL    HW217949   1.234   3.376   2.906 -0.5737 -2.9499  1.3859
 2105SOL     OW17950   0.333   0.803  14.580 -0.2453 -0.3262 -0.1599
 2105SOL    HW117951   0.424   0.784  14.601  0.4405  0.9067 -1.9843
 2105SOL    HW217952   0.325   0.749  14.501  0.7218 -2.8584  1.4674
 2106SOL     OW17953   4.172   3.098   4.281  0.6144 -0.0262  0.2273
 2106SOL    HW117954   4.137   3.061   4.362 -1.8393 -0.5201 -1.0755
 2106SOL    HW217955   4.095   3.142   4.245  1.8995 -0.4295 -2.9269
 2107SOL     OW17956   3.592   2.105  17.188 -0.1446  0.7343  0.4160
 2107SOL    HW117957   3.641   2.180  17.222  1.3971  0.0200 -0.1963
 2107SOL    HW217958   3.502   2.135  17.202 -0.1222  2.7795 -3.9599
 2108SOL     OW17959   4.313   3.850  16.700 -0.0846  0.3075  0.6411
 2108SOL    HW117960   4.228   3.809  16.685 -0.9290  2.1534  0.4248
 2108SOL    HW217961   4.362   3.782  16.653 -3.0834 -3.1967  2.5372
 2109SOL     OW17962   1.274   1.235   0.210  0.0313 -0.0083  0.2161
 2109SOL    HW117963   1.280   1.252   0.304 -1.4650  0.4210  0.2279
 2109SOL    HW217964   1.186   1.269   0.192 -0.4609 -2.5240 -2.2204
 2110SOL     OW17965   2.821   1.967   8.733  0.4166 -0.1096  0.3517
 2110SOL    HW117966   2.912   1.991   8.749  1.1956 -3.8045  1.3738
 2110SOL    HW217967   2.781   2.033   8.790  1.0431 -0.6793  1.4445
 2111SOL     OW17968   4.023   0.655   5.994 -0.0911  0.4073 -0.3655
 2111SOL    HW117969   4.016   0.650   6.089  0.2810  0.0927 -0.3535
 2111SOL    HW217970   3.961   0.590   5.963  0.7324 -0.6900  0.3047
 2112SOL     OW17971   0.527   4.265   3.592  0.0729 -0.4243  0.0084
 2112SOL    HW117972   0.480   4.183   3.602  0.6531 -0.7332  0.2117
 2112SOL    HW217973   0.597   4.258   3.658  0.4124  0.4922 -0.2457
 2113SOL     OW17974   3.195   2.104   3.505  0.0151 -0.1821  0.3344
 2113SOL    HW117975   3.100   2.105   3.511 -0.1517 -0.8211 -2.4238
 2113SOL    HW217976   3.221   2.109   3.597  1.4605 -1.3517 -0.0002
 2114SOL     OW17977   2.462   2.506  13.235 -0.1344  0.1604 -0.4484
 2114SOL    HW117978   2.534   2.447  13.211  0.7774  1.9902 -2.2158
 2114SOL    HW217979   2.509   2.587  13.216  1.0132 -0.2120  0.8140
 2115SOL     OW17980   2.923   4.542  13.070  0.7735  0.1044  0.1405
 2115SOL    HW117981   3.018   4.546  13.062  0.6086  1.0364 -1.3154
 2115SOL    HW217982   2.905   4.622  13.022  0.1480  0.1016  0.3694
 2116SOL     OW17983   2.784   4.483   2.442 -0.3658 -1.0476  0.4945
 2116SOL    HW117984   2.714   4.501   2.380  0.0682 -0.7810  0.0838
 2116SOL    HW217985   2.751   4.410   2.496  2.1428 -2.5459  0.0216
 2117SOL     OW17986   4.212   2.687   9.632 -0.0496 -0.0293  0.0385
 2117SOL    HW117987   4.232   2.779   9.616  0.4128 -0.4518 -1.7574
 2117SOL    HW217988   4.256   2.646   9.558 -0.6855  0.6759 -0.7345
 2118SOL     OW17989   2.812   1.010   5.983  0.0199 -0.3318  0.2327
 2118SOL    HW117990   2.773   1.045   6.063 -1.0204 -1.0669  0.0381
 2118SOL    HW217991   2.877   0.948   6.015 -0.5592 -0.5789  0.9379
 2119SOL     OW17992   3.482   2.369   5.986 -0.1753  0.0172 -0.2183
 2119SOL    HW117993   3.564   2.417   5.995 -0.4639  0.6605 -0.9641
 2119SOL    HW217994   3.458   2.403   5.899  1.8318 -0.6290 -1.0203
 2120SOL     OW17995   1.656   0.587   7.152  0.0158  0.5188 -0.3727
 2120SOL    HW117996   1.705   0.510   7.126  1.6636  1.1064  0.9682
 2120SOL    HW217997   1.607   0.561   7.230  1.8874 -1.3271  0.1782
 2121SOL     OW17998   1.632   4.456   5.181  0.1793 -0.6369 -0.2351
 2121SOL    HW117999   1.698   4.389   5.200  1.2240  0.5488  0.3264
 2121SOL    HW218000   1.552   4.403   5.183 -0.0105 -0.3653 -0.6082
 2122SOL     OW18001   2.915   4.463   3.364  0.2485 -0.0743  0.0313
 2122SOL    HW118002   2.873   4.388   3.321  2.1530 -1.5689  0.7690
 2122SOL    HW218003   2.846   4.476   3.429  0.9629 -2.9831  1.3953
 2123SOL     OW18004   1.598   0.018   9.260  0.1368 -0.0852  0.0082
 2123SOL    HW118005   1.535   0.077   9.301  0.2318  1.0768 -1.5242
 2123SOL    HW218006   1.545   4.674   9.264  1.5117 -0.9183  1.1773
 2124SOL     OW18007   1.236   1.552   6.487  0.4283 -0.8819 -0.2464
 2124SOL    HW118008   1.237   1.648   6.495  0.3342 -0.9750  0.9177
 2124SOL    HW218009   1.146   1.540   6.457  0.1773  1.2965 -0.3535
 2125SOL     OW18010   1.756   2.757   7.888 -0.2257  0.1535  0.2018
 2125SOL    HW118011   1.834   2.812   7.880  0.2546 -0.4246  0.9642
 2125SOL    HW218012   1.758   2.722   7.977 -1.1758 -0.7640 -0.1452
 2126SOL     OW18013   2.853   1.554   3.742 -0.0520 -0.7105  0.0556
 2126SOL    HW118014   2.940   1.585   3.717 -0.1861  0.2994  0.8439
 2126SOL    HW218015   2.816   1.532   3.656  1.0773 -2.6351  0.0652
 2127SOL     OW18016   4.554   3.466   2.211 -0.1312  0.1080 -0.0801
 2127SOL    HW118017   4.536   3.527   2.139 -1.9316 -0.0971  0.1976
 2127SOL    HW218018   4.579   3.519   2.287 -0.6788  1.6155 -0.9460
 2128SOL     OW18019   4.225   1.914   5.494  0.1385  0.2296  0.4896
 2128SOL    HW118020   4.246   1.996   5.538  1.8194 -0.2091  0.5144
 2128SOL    HW218021   4.239   1.935   5.401 -0.9338  2.1468  0.7827
 2129SOL     OW18022   2.388   4.441  13.506  0.1813 -0.3585 -0.5947
 2129SOL    HW118023   2.353   4.529  13.500  1.4785  0.1800 -0.3668
 2129SOL    HW218024   2.468   4.458  13.456 -0.2030  1.8400 -0.4404
 2130SOL     OW18025   1.356   0.157   8.219  0.5077 -0.1109  0.0545
 2130SOL    HW118026   1.303   0.078   8.227 -1.0070  0.7235 -1.7790
 2130SOL    HW218027   1.438   0.132   8.175  0.3091 -2.9273  1.2651
 2131SOL     OW18028   0.495   2.159   1.720 -0.8072 -0.2560 -0.2161
 2131SOL    HW118029   0.590   2.168   1.716 -0.4498 -3.3382  0.9405
 2131SOL    HW218030   0.493   2.082   1.778  1.7688  0.2463  0.5397
 2132SOL     OW18031   3.188   1.123   1.066 -0.1344 -0.4663  0.8575
 2132SOL    HW118032   3.172   1.032   1.038 -2.1338  0.2133 -0.2078
 2132SOL    HW218033   3.131   1.175   1.009 -0.5297  0.3790  2.0370
 2133SOL     OW18034   0.595   2.256   4.966 -0.4378  0.0852 -0.4150
 2133SOL    HW118035   0.685   2.239   4.937 -0.3582  2.8778 -1.8086
 2133SOL    HW218036   0.588   2.198   5.042 -1.3609 -0.0044 -0.5719
 2134SOL     OW18037   1.520   0.728   4.911  0.3747 -0.1451  0.1990
 2134SOL    HW118038   1.430   0.742   4.882  0.7976 -0.5048 -1.2575
 2134SOL    HW218039   1.566   0.723   4.828 -0.0959 -3.8131  0.1763
 2135SOL     OW18040   1.934   3.348   4.127 -0.0219  0.2277 -0.3380
 2135SOL    HW118041   1.872   3.303   4.070 -2.2575  0.5171  1.8624
 2135SOL    HW218042   1.880   3.421   4.159  0.0361 -0.9689  2.4799
 2136SOL     OW18043   2.406   0.443   9.255 -0.3285  0.4909  0.3266
 2136SOL    HW118044   2.328   0.390   9.238  0.0332 -0.2377  0.9360
 2136SOL    HW218045   2.380   0.516   9.311 -1.4482  0.7016 -0.4694
 2137SOL     OW18046   3.391   3.728   8.212 -0.2311  0.0733  0.0072
 2137SOL    HW118047   3.462   3.683   8.256  1.2754  1.4582 -0.9783
 2137SOL    HW218048   3.334   3.764   8.280 -3.1813 -1.7411 -1.5270
 2138SOL     OW18049   1.367   1.101  17.733  0.1963 -0.7925 -0.0613
 2138SOL    HW118050   1.456   1.132   0.006 -0.7975  2.3708 -0.7588
 2138SOL    HW218051   1.329   1.115   0.078  2.1385  1.8241  0.3430
 2139SOL     OW18052   1.986   2.205   1.430 -0.1987  0.3334 -0.5196
 2139SOL    HW118053   1.890   2.202   1.429 -0.2614  1.8859 -0.0891
 2139SOL    HW218054   1.998   2.289   1.476 -0.3312 -0.4164  0.8805
 2140SOL     OW18055   3.032   3.514  16.274 -0.4029 -0.6938 -0.2883
 2140SOL    HW118056   3.086   3.574  16.223 -0.8128  1.1602  1.4280
 2140SOL    HW218057   2.962   3.570  16.308 -0.8322 -1.3109 -0.1638
 2141SOL     OW18058   1.067   2.221   1.579  0.3418  0.1443 -0.4730
 2141SOL    HW118059   1.064   2.141   1.630 -0.4700  0.4729 -0.0038
 2141SOL    HW218060   1.153   2.217   1.536  1.2790 -2.6248  1.7021
 2142SOL     OW18061   2.310   0.920   5.514  0.0655 -0.0546 -0.6213
 2142SOL    HW118062   2.289   0.926   5.421  1.1746 -0.8137 -0.9063
 2142SOL    HW218063   2.301   1.015   5.528 -3.5581 -0.0456 -2.9911
 2143SOL     OW18064   4.221   0.160   2.336  0.0211  0.3723 -0.0118
 2143SOL    HW118065   4.184   0.147   2.423  0.9903  2.1170  0.6445
 2143SOL    HW218066   4.277   0.236   2.352 -2.4333  2.4465 -1.2884
 2144SOL     OW18067   0.327   0.908   2.314 -0.2866  0.3840  0.0630
 2144SOL    HW118068   0.249   0.900   2.370  0.0934 -0.9974  0.4134
 2144SOL    HW218069   0.351   0.815   2.309 -1.6674 -0.0689  1.7164
 2145SOL     OW18070   1.041   4.494  10.416 -0.2017  0.0267  0.6125
 2145SOL    HW118071   0.962   4.443  10.434  1.1207 -1.6195  1.7013
 2145SOL    HW218072   1.022   4.565  10.477  0.0928  1.7621 -1.3258
 2146SOL     OW18073   4.327   2.178   5.619 -0.0002 -0.2132 -0.7113
 2146SOL    HW118074   4.358   2.241   5.554  1.7543  0.1188  0.4354
 2146SOL    HW218075   4.234   2.199   5.625  0.4489  1.9399 -1.2444
 2147SOL     OW18076   3.616   4.341   1.844 -0.1139 -0.2686 -0.5100
 2147SOL    HW118077   3.679   4.401   1.803  0.3889 -1.1639 -1.0506
 2147SOL    HW218078   3.574   4.390   1.914 -1.3430 -0.5450 -1.0569
 2148SOL     OW18079   1.120   3.722   8.870 -0.5529  0.0280 -0.3632
 2148SOL    HW118080   1.203   3.753   8.906  0.7390 -1.8534 -1.6785
 2148SOL    HW218081   1.128   3.758   8.782  0.7188 -0.4877 -0.4639
 2149SOL     OW18082   2.068   1.811   7.791 -0.6591 -0.2158  0.8063
 2149SOL    HW118083   2.107   1.882   7.843  0.3541 -0.0340 -0.1901
 2149SOL    HW218084   2.064   1.858   7.707  0.5084 -0.4614  0.6168
 2150SOL     OW18085   2.767   2.349   4.851 -0.7309 -0.1348  0.2103
 2150SOL    HW118086   2.743   2.435   4.815  0.0568 -0.1756 -0.4138
 2150SOL    HW218087   2.730   2.294   4.782 -0.9559  5.0221 -3.8778
 2151SOL     OW18088   0.951   1.147   0.364 -0.5266  0.4065  0.3361
 2151SOL    HW118089   1.044   1.128   0.373 -0.4053  1.6554  1.7012
 2151SOL    HW218090   0.924   1.114   0.279  2.9114 -2.3191  0.3205
 2152SOL     OW18091   1.368   0.110   1.107 -0.1919 -0.5379  0.0498
 2152SOL    HW118092   1.364   0.098   1.012  0.8749 -2.6140  0.2388
 2152SOL    HW218093   1.278   0.134   1.128  0.8601  1.2345  2.5226
 2153SOL     OW18094   2.572   4.116  11.546 -0.1150  0.2344 -0.8454
 2153SOL    HW118095   2.597   4.028  11.575  1.2535  1.4484  1.6843
 2153SOL    HW218096   2.576   4.113  11.451  0.1952  0.8855 -0.8538
 2154SOL     OW18097   3.294   4.309   2.061  0.2486 -0.4805 -0.2571
 2154SOL    HW118098   3.259   4.396   2.042 -3.2403 -1.9790 -0.7317
 2154SOL    HW218099   3.232   4.268   2.122  0.9082 -1.3113 -0.1514
 2155SOL     OW18100   3.311   0.137   3.715 -0.7492 -0.9490 -0.0827
 2155SOL    HW118101   3.263   0.217   3.739  0.4701 -0.3165  0.2469
 2155SOL    HW218102   3.399   0.158   3.746 -1.3665  0.0618  0.9950
 2156SOL     OW18103   0.274   4.541   5.482  0.1193  0.3808  0.2891
 2156SOL    HW118104   0.213   4.580   5.419  0.1088  1.4604  0.9735
 2156SOL    HW218105   0.259   4.447   5.467 -0.7474  0.9947 -2.8045
 2157SOL     OW18106   2.442   1.750   0.068  0.4193 -0.1727 -0.3518
 2157SOL    HW118107   2.522   1.802   0.074 -0.1551  0.2925  3.1109
 2157SOL    HW218108   2.457   1.688  17.738  0.9186  1.2718 -1.5030
 2158SOL     OW18109   3.279   2.537   4.887  0.0626 -0.2468  0.1625
 2158SOL    HW118110   3.260   2.447   4.915  3.1489 -1.0877 -0.5418
 2158SOL    HW218111   3.329   2.534   4.806 -2.2409 -1.3788 -1.2356
 2159SOL     OW18112   2.645   3.254   4.033 -0.1636  0.1109 -0.0706
 2159SOL    HW118113   2.650   3.205   4.115 -1.8633  1.4371  0.8337
 2159SOL    HW218114   2.736   3.253   4.006 -0.3623 -0.9945 -0.6557
 2160SOL     OW18115   2.405   3.901   3.370 -0.2114  0.3296 -0.7461
 2160SOL    HW118116   2.403   3.805   3.381 -1.7325  0.2035 -2.1194
 2160SOL    HW218117   2.475   3.917   3.307  1.6867 -0.0112  1.2881
 2161SOL     OW18118   3.858   2.143   3.287 -0.2925  0.0435  0.3063
 2161SOL    HW118119   3.811   2.197   3.223 -0.1299  1.5100  1.4084
 2161SOL    HW218120   3.926   2.206   3.309  0.8013 -1.7447  2.0091
 2162SOL     OW18121   3.001   0.823   9.522 -0.3153 -0.8205 -0.5062
 2162SOL    HW118122   2.940   0.894   9.504  0.0036 -0.0858  1.3201
 2162SOL    HW218123   3.019   0.798   9.431  0.7403  1.5641 -0.9454
 2163SOL     OW18124   1.549   0.031  11.244  0.0654 -0.1995 -0.3895
 2163SOL    HW118125   1.605   0.053  11.318 -1.0466  1.2785  0.0085
 2163SOL    HW218126   1.591   0.082  11.175 -0.2138  0.0028 -0.4074
 2164SOL     OW18127   4.060   0.952   8.368  0.5843  0.3127 -0.0099
 2164SOL    HW118128   4.138   0.920   8.325 -0.5532 -1.1311 -0.9879
 2164SOL    HW218129   4.034   0.894   8.439 -0.8910 -0.4333 -1.1447
 2165SOL     OW18130   4.038   1.083  11.154 -0.2615 -0.6561 -0.7422
 2165SOL    HW118131   4.077   1.002  11.120 -2.7652 -1.2372 -2.2212
 2165SOL    HW218132   4.070   1.093  11.244 -0.9665 -2.3672 -0.2857
 2166SOL     OW18133   0.745   1.142   2.571 -0.1683  0.4987 -0.8422
 2166SOL    HW118134   0.682   1.098   2.514  0.0947 -0.5066 -0.3564
 2166SOL    HW218135   0.700   1.146   2.655 -0.2882 -2.1552 -0.7581
 2167SOL     OW18136   3.009   4.578   4.845 -0.7687 -0.0031  0.5469
 2167SOL    HW118137   2.913   4.581   4.841 -0.7400  2.3172  1.6077
 2167SOL    HW218138   3.025   4.600   4.937 -2.0180  2.5794  0.1287
 2168SOL     OW18139   2.238   3.529   8.151 -0.0029  0.3911 -0.4497
 2168SOL    HW118140   2.302   3.486   8.208 -0.4503  0.4036  0.0580
 2168SOL    HW218141   2.296   3.533   8.075  0.9471 -3.5942  0.0807
 2169SOL     OW18142   0.115   1.617   3.254 -0.2022  0.3921 -0.0421
 2169SOL    HW118143   0.140   1.674   3.326  0.5019 -0.8532  0.7122
 2169SOL    HW218144   0.052   1.671   3.207 -0.8243  0.1938  0.5556
 2170SOL     OW18145   4.322   0.187  12.478 -0.3677  0.4119 -0.1190
 2170SOL    HW118146   4.238   0.198  12.434 -0.5072  1.0266  0.3062
 2170SOL    HW218147   4.314   0.241  12.556  0.6658  0.1953  0.1318
 2171SOL     OW18148   0.207   0.756  16.712  0.0482 -0.0079 -0.0123
 2171SOL    HW118149   0.236   0.670  16.680 -1.1812  0.9879 -3.8481
 2171SOL    HW218150   0.272   0.805  16.662 -1.2369  3.3324  1.6306
 2172SOL     OW18151   1.492   4.153   3.954 -0.4399  0.5768  0.3892
 2172SOL    HW118152   1.401   4.135   3.978 -0.7060  1.2202 -0.1647
 2172SOL    HW218153   1.522   4.219   4.016 -1.6751 -0.0946  1.7051
 2173SOL     OW18154   2.427   2.503   3.096  0.1076 -0.0364 -0.2642
 2173SOL    HW118155   2.431   2.408   3.085  1.7437 -0.1002  0.7539
 2173SOL    HW218156   2.335   2.519   3.116  0.2423  0.5416 -0.0863
 2174SOL     OW18157   0.137   1.025  10.629 -0.5875  0.3137 -0.4909
 2174SOL    HW118158   0.232   1.016  10.639 -0.5723  1.6456  0.5316
 2174SOL    HW218159   0.115   1.058  10.716  0.0752 -0.8914  0.1259
 2175SOL     OW18160   1.278   0.895  11.522  0.0058 -0.3161  0.1376
 2175SOL    HW118161   1.185   0.871  11.523 -0.3613  1.0675 -0.4214
 2175SOL    HW218162   1.293   0.853  11.437 -2.5728 -1.0398  0.0145
 2176SOL     OW18163   3.009   0.798   2.025 -0.0057  0.3980  0.1419
 2176SOL    HW118164   3.071   0.728   2.003  0.1509  0.5685  0.0502
 2176SOL    HW218165   2.953   0.749   2.085 -0.5955 -0.3598 -1.0279
 2177SOL     OW18166   4.477   4.118  14.184  0.2921  0.1710  0.3758
 2177SOL    HW118167   4.442   4.047  14.130  0.7187  0.9014 -0.8789
 2177SOL    HW218168   4.545   4.070  14.230  1.1831  0.6948 -0.3900
 2178SOL     OW18169   3.124   1.019   2.333 -0.4114  0.2910  0.4156
 2178SOL    HW118170   3.098   1.098   2.380 -0.6878  0.9924 -0.9014
 2178SOL    HW218171   3.140   1.063   2.249 -1.3354  1.0754  0.6560
 2179SOL     OW18172   1.544   2.306   1.277  0.0912 -0.0690 -0.5452
 2179SOL    HW118173   1.458   2.301   1.235  0.0591  0.6336 -0.5659
 2179SOL    HW218174   1.572   2.392   1.245  0.8873 -0.0811  0.1259
 2180SOL     OW18175   4.226   1.163  15.921 -0.0116  0.7412  0.2595
 2180SOL    HW118176   4.241   1.240  15.976 -0.8425  0.8967  0.2621
 2180SOL    HW218177   4.266   1.179  15.835 -0.0302  1.1542  0.3298
 2181SOL     OW18178   0.820   2.559   2.506 -0.2258 -0.1922  0.0720
 2181SOL    HW118179   0.888   2.527   2.447 -1.8801 -2.9190 -0.3610
 2181SOL    HW218180   0.738   2.542   2.460 -0.7840  0.9073  0.6610
 2182SOL     OW18181   1.537   3.378  17.643  0.7527  0.0142  0.4932
 2182SOL    HW118182   1.471   3.411  17.583  1.7523  0.2435 -0.4674
 2182SOL    HW218183   1.497   3.296  17.673  0.4734  0.3274  0.9760
 2183SOL     OW18184   3.026   0.965   2.696  0.1456  0.1178 -0.3608
 2183SOL    HW118185   3.098   1.029   2.698  2.7473 -2.8154 -0.0511
 2183SOL    HW218186   2.965   1.031   2.664 -0.3338  0.2722  0.8735
 2184SOL     OW18187   1.888   0.608   5.927 -0.1834  0.2507 -0.5822
 2184SOL    HW118188   1.848   0.567   5.850  1.9484 -0.8252 -1.0921
 2184SOL    HW218189   1.976   0.628   5.896 -0.6991  1.3106 -1.3578
 2185SOL     OW18190   1.527   2.882  13.901 -0.1237 -0.4094 -0.3787
 2185SOL    HW118191   1.465   2.915  13.835  0.7036 -0.7312 -1.3251
 2185SOL    HW218192   1.552   2.802  13.854 -1.3751 -2.6717  2.8787
 2186SOL     OW18193   3.612   4.026   1.420 -0.3356 -0.1009 -0.0493
 2186SOL    HW118194   3.574   4.112   1.403 -0.3835 -0.5277 -2.0790
 2186SOL    HW218195   3.701   4.043   1.453 -1.4834  1.5527  2.2026
 2187SOL     OW18196   0.094   3.204   6.778 -0.6164  0.2280  0.2211
 2187SOL    HW118197   0.098   3.145   6.853 -0.9251  0.9017  0.7726
 2187SOL    HW218198   0.124   3.149   6.706 -1.0257  0.4319 -0.1052
 2188SOL     OW18199   2.358   0.025  16.129  0.2693 -0.2942 -0.1975
 2188SOL    HW118200   2.440   0.074  16.127  1.6696 -2.5995  0.6425
 2188SOL    HW218201   2.366   4.695  16.198 -0.9841 -0.1207  0.1140
 2189SOL     OW18202   4.460   0.109  11.577 -0.2163  0.7328  0.0779
 2189SOL    HW118203   4.526   0.177  11.592  0.3278 -0.3100  2.5025
 2189SOL    HW218204   4.414   0.142  11.501  0.0378  0.5480 -0.1565
 2190SOL     OW18205   0.854   2.510  10.523 -0.5770 -0.0932 -0.6945
 2190SOL    HW118206   0.868   2.585  10.465  2.8614  1.3760  2.0053
 2190SOL    HW218207   0.791   2.458  10.473 -0.4006  1.3498 -2.4401
 2191SOL     OW18208   0.888   0.889   8.098  0.4868 -0.2070  0.3562
 2191SOL    HW118209   0.933   0.920   8.019 -0.8430 -0.2315 -0.3998
 2191SOL    HW218210   0.966   0.886   8.155  0.5572 -0.9071  0.2139
 2192SOL     OW18211   2.142   0.197   7.045  0.2724  0.1258 -0.8129
 2192SOL    HW118212   2.129   0.290   7.028 -0.8734  0.4001  1.5310
 2192SOL    HW218213   2.195   0.174   6.969  0.9054  0.5133 -0.4959
 2193SOL     OW18214   2.716   0.150   6.524 -0.4001 -0.0676  0.1021
 2193SOL    HW118215   2.712   0.138   6.429 -0.1841 -0.6431  0.1598
 2193SOL    HW218216   2.759   0.235   6.530  0.2168 -0.2581 -1.7446
 2194SOL     OW18217   3.958   1.159   7.615  0.0566 -0.4086 -0.4209
 2194SOL    HW118218   3.929   1.246   7.642 -0.9567 -0.3092 -1.8070
 2194SOL    HW218219   3.959   1.106   7.695 -1.5888 -0.1993 -0.2769
 2195SOL     OW18220   4.405   1.553   6.576 -0.4511 -0.1919 -0.5302
 2195SOL    HW118221   4.381   1.571   6.667 -1.8592  0.3980 -1.0269
 2195SOL    HW218222   4.373   1.638   6.545  1.4066 -0.0545 -2.1062
 2196SOL     OW18223   3.112   2.487   3.231 -0.0777 -0.7306  0.5863
 2196SOL    HW118224   3.067   2.416   3.187  0.0373 -1.2879  1.3699
 2196SOL    HW218225   3.083   2.473   3.321 -1.9887  0.9026  0.2404
 2197SOL     OW18226   2.129   3.165   4.069  0.1299 -0.1640 -0.1241
 2197SOL    HW118227   2.205   3.193   4.019  1.2437 -0.0852  1.6349
 2197SOL    HW218228   2.091   3.251   4.087 -0.2283 -0.9676  2.9599
 2198SOL     OW18229   2.173   3.082  14.417 -0.3648 -0.2503 -0.0168
 2198SOL    HW118230   2.156   3.174  14.401  1.4603  0.0987 -0.0278
 2198SOL    HW218231   2.240   3.066  14.351 -0.3185  0.1019 -0.0561
 2199SOL     OW18232   3.003   3.430   7.279  0.0053 -0.0660  0.5742
 2199SOL    HW118233   2.964   3.516   7.296 -1.8279 -0.4569 -1.6109
 2199SOL    HW218234   2.936   3.389   7.223  0.1560 -0.6179  0.7958
 2200SOL     OW18235   2.936   1.535   7.800 -0.1080 -0.4196  0.2779
 2200SOL    HW118236   2.995   1.504   7.869  0.5828  0.7880  0.2339
 2200SOL    HW218237   2.859   1.569   7.846 -0.8215  1.2670 -2.1442
 2201SOL     OW18238   4.325   1.777   6.438 -0.7809  0.1028 -0.3735
 2201SOL    HW118239   4.286   1.860   6.466  0.4708  0.9258 -1.0932
 2201SOL    HW218240   4.270   1.770   6.360  1.8699 -0.6477 -2.1767
 2202SOL     OW18241   2.204   4.278   2.120 -0.3128 -0.3124  0.2570
 2202SOL    HW118242   2.189   4.348   2.056 -1.5174  0.8875  1.8379
 2202SOL    HW218243   2.235   4.329   2.195 -0.6303  0.6608 -0.2660
 2203SOL     OW18244   3.109   1.101   6.972  0.0127  0.1355  0.5316
 2203SOL    HW118245   3.024   1.101   7.016  0.6310 -1.6794  1.7580
 2203SOL    HW218246   3.126   1.195   6.963  1.2731  0.0315  1.6997
 2204SOL     OW18247   1.637   3.617   6.523 -0.2573 -0.2696 -0.5415
 2204SOL    HW118248   1.727   3.625   6.556  0.0842 -0.2507 -1.4761
 2204SOL    HW218249   1.629   3.711   6.506  1.0165  0.0484  0.6159
 2205SOL     OW18250   0.494   4.058  15.469  0.2390  0.5446 -0.2061
 2205SOL    HW118251   0.464   3.986  15.413  0.8372  1.0097 -1.1189
 2205SOL    HW218252   0.461   4.130  15.415  0.3315  0.9300  0.2555
 2206SOL     OW18253   0.787   1.508   5.151 -0.7590 -0.0070 -0.0399
 2206SOL    HW118254   0.812   1.445   5.084 -0.7573 -1.5738  1.4319
 2206SOL    HW218255   0.842   1.490   5.227 -0.6671 -0.0846 -0.1261
 2207SOL     OW18256   3.217   2.191  16.295 -0.7995  0.1096  0.1381
 2207SOL    HW118257   3.298   2.208  16.342 -0.6497  1.8355 -0.7464
 2207SOL    HW218258   3.193   2.101  16.317 -0.0448 -0.3438 -0.8767
 2208SOL     OW18259   0.968   4.201  17.189 -0.6947 -0.4044  0.4549
 2208SOL    HW118260   0.888   4.212  17.239 -1.0860  0.0830 -0.2773
 2208SOL    HW218261   1.024   4.261  17.238 -0.8598 -0.7829  1.0955
 2209SOL     OW18262   2.672   3.147   8.791 -0.2872  0.2959 -0.4092
 2209SOL    HW118263   2.687   3.206   8.865 -1.1310 -0.2303  0.1880
 2209SOL    HW218264   2.751   3.153   8.738 -0.6590  3.0534 -0.6050
 2210SOL     OW18265   2.967   2.216  14.660 -0.1187 -0.0266  0.2198
 2210SOL    HW118266   3.029   2.288  14.647  0.1686 -0.2164  0.5289
 2210SOL    HW218267   3.009   2.151  14.716  0.2008  0.8181  0.9454
 2211SOL     OW18268   1.933   1.062   6.585 -0.2700  0.1290  0.3447
 2211SOL    HW118269   1.955   1.028   6.672  0.1672 -2.3216 -0.6994
 2211SOL    HW218270   1.897   0.986   6.539  1.4648 -0.0765 -0.6903
 2212SOL     OW18271   1.178   0.150   7.126 -0.1300  0.5808  0.6807
 2212SOL    HW118272   1.231   0.123   7.051 -2.9137  0.7910 -1.3276
 2212SOL    HW218273   1.141   0.230   7.088 -2.5940 -1.1266 -0.4899
 2213SOL     OW18274   4.563   1.411   8.766 -0.1101 -0.1080  0.0841
 2213SOL    HW118275   4.656   1.434   8.771 -0.5082  1.4586  0.2474
 2213SOL    HW218276   4.540   1.410   8.673 -1.5789 -2.4871  0.4829
 2214SOL     OW18277   3.004   2.339   1.613 -0.4541  0.5444  0.3227
 2214SOL    HW118278   2.921   2.304   1.646 -2.0032  1.1736 -2.8774
 2214SOL    HW218279   3.073   2.291   1.660 -1.7939  0.1394  1.8791
 2215SOL     OW18280   3.602   2.670   6.301  0.0200  0.0640  0.1324
 2215SOL    HW118281   3.645   2.741   6.349 -0.5613  1.9505 -2.1164
 2215SOL    HW218282   3.627   2.663   6.209  1.3114 -0.8153  0.5646
 2216SOL     OW18283   1.663   4.195  14.389  0.1536  0.1979  0.4160
 2216SOL    HW118284   1.650   4.262  14.456 -0.7345 -0.9701  1.3947
 2216SOL    HW218285   1.666   4.255  14.314  0.2482  1.5191  1.4711
 2217SOL     OW18286   0.229   1.004   3.817 -0.5740  0.0461 -0.1717
 2217SOL    HW118287   0.211   0.961   3.900  1.5577  0.0006  0.2597
 2217SOL    HW218288   0.283   1.077   3.849  0.0254  0.1296 -1.3762
 2218SOL     OW18289   0.802   2.195   1.228  0.6913  0.0311  0.0559
 2218SOL    HW118290   0.870   2.244   1.181  1.1387 -0.8513 -0.2103
 2218SOL    HW218291   0.727   2.230   1.181  1.7185  1.3812 -0.5684
 2219SOL     OW18292   1.262   4.368   9.043 -0.0434 -0.1926  0.1072
 2219SOL    HW118293   1.176   4.407   9.059  1.4999  2.0992  2.7830
 2219SOL    HW218294   1.276   4.403   8.956 -0.4295  0.3856  0.2764
 2220SOL     OW18295   4.537   1.836  11.096 -0.3708  0.4123 -0.2233
 2220SOL    HW118296   4.616   1.785  11.084 -0.7589 -0.2210 -0.0999
 2220SOL    HW218297   4.547   1.904  11.029  0.5536 -0.0396 -0.5370
 2221SOL     OW18298   0.991   1.692   8.777 -0.5553  0.5458  0.2350
 2221SOL    HW118299   1.025   1.777   8.750 -2.0756  0.5048 -1.8286
 2221SOL    HW218300   0.914   1.723   8.826 -1.9722  1.3876 -2.4892
 2222SOL     OW18301   0.187   1.315   5.938  0.2216 -0.0958  0.6574
 2222SOL    HW118302   0.126   1.381   5.971 -0.4631  0.9145 -2.5716
 2222SOL    HW218303   0.265   1.340   5.987 -0.0953  0.0092  1.1029
 2223SOL     OW18304   0.427   3.487   8.640 -0.0418  0.4438 -0.1955
 2223SOL    HW118305   0.511   3.452   8.667 -0.2937 -0.1570 -0.1906
 2223SOL    HW218306   0.362   3.446   8.697  1.4899  0.7265  1.7474
 2224SOL     OW18307   1.450   0.557  15.069  0.4005 -0.0080  0.5276
 2224SOL    HW118308   1.410   0.478  15.105  0.0396 -0.1412 -0.1719
 2224SOL    HW218309   1.451   0.536  14.976 -0.2535  0.2133  0.4677
 2225SOL     OW18310   4.512   4.022   6.201  0.1345  0.3011  0.2106
 2225SOL    HW118311   4.540   4.013   6.110  1.4616 -0.1650  0.6721
 2225SOL    HW218312   4.542   4.112   6.215 -0.1591  0.1399  1.8752
 2226SOL     OW18313   0.542   1.741   8.674  0.2445  0.1207 -0.3039
 2226SOL    HW118314   0.569   1.655   8.705  2.4653  0.4723 -1.2729
 2226SOL    HW218315   0.613   1.769   8.616  0.3221 -0.1831 -0.3521
 2227SOL     OW18316   0.205   0.574   5.827 -0.4377 -0.0126 -0.3180
 2227SOL    HW118317   0.238   0.486   5.846  2.4186  0.3610 -3.5755
 2227SOL    HW218318   0.131   0.577   5.888 -0.3252  3.0425 -0.3269
 2228SOL     OW18319   3.734   0.027   9.057 -0.1206  0.1212  0.0651
 2228SOL    HW118320   3.758   4.691   9.116  0.3660  2.4916  2.7374
 2228SOL    HW218321   3.642   0.032   9.082  0.0906  3.5531  0.1010
 2229SOL     OW18322   1.989   0.412  12.784 -0.7258 -0.5087  0.4517
 2229SOL    HW118323   1.935   0.393  12.860 -1.1946 -0.6162  0.0887
 2229SOL    HW218324   1.935   0.472  12.732 -1.4814 -2.4695 -1.0194
 2230SOL     OW18325   2.370   1.392   2.474 -0.6258 -0.1694  0.3486
 2230SOL    HW118326   2.408   1.438   2.549 -0.5219  0.0385  0.1687
 2230SOL    HW218327   2.416   1.439   2.405 -1.3389 -0.0804 -0.0679
 2231SOL     OW18328   2.123   1.258   7.778  0.0400 -0.0827  0.1915
 2231SOL    HW118329   2.132   1.180   7.723  0.8942  0.9765 -1.1501
 2231SOL    HW218330   2.029   1.240   7.790  0.0013  0.1057  0.1669
 2232SOL     OW18331   0.149   2.484  15.634  0.2348 -0.5980  0.2795
 2232SOL    HW118332   0.240   2.457  15.625  0.3130 -0.8995  2.0080
 2232SOL    HW218333   0.135   2.488  15.539 -0.8017  2.5775  0.5713
 2233SOL     OW18334   4.257   2.718   0.205  0.0456  0.5969  0.2754
 2233SOL    HW118335   4.281   2.626   0.196  3.4801  1.4521  0.6620
 2233SOL    HW218336   4.165   2.726   0.230 -0.0306  0.2233  0.1005
 2234SOL     OW18337   2.705   3.919   7.468  0.4487 -0.0447  0.2708
 2234SOL    HW118338   2.651   3.945   7.543 -1.0753 -1.1406 -0.4503
 2234SOL    HW218339   2.636   3.901   7.404  0.6784 -0.6570  0.2031
 2235SOL     OW18340   4.446   3.644  17.293  0.0096  0.3358  0.3164
 2235SOL    HW118341   4.453   3.721  17.236  2.1214 -1.9816 -2.5731
 2235SOL    HW218342   4.351   3.638  17.292  0.0723 -0.7122  0.4224
 2236SOL     OW18343   2.651   3.926  17.164  0.6581  0.2416 -0.0382
 2236SOL    HW118344   2.650   3.925  17.260 -0.1934  1.4621 -0.0309
 2236SOL    HW218345   2.717   3.862  17.139  1.0597  0.3993  0.6275
 2237SOL     OW18346   4.335   2.366  10.167  0.1157  0.0711 -0.2878
 2237SOL    HW118347   4.289   2.449  10.174 -0.2124 -0.1191 -0.1941
 2237SOL    HW218348   4.418   2.378  10.213 -0.1605 -1.7998  0.7107
 2238SOL     OW18349   1.497   1.289   0.776  0.2413  0.2374  0.6240
 2238SOL    HW118350   1.440   1.217   0.750  0.6827  1.1025 -2.7281
 2238SOL    HW218351   1.431   1.354   0.799  1.2097  1.3538  0.2670
 2239SOL     OW18352   3.242   0.855   8.036 -0.3156 -0.3335  0.6572
 2239SOL    HW118353   3.150   0.878   8.023  0.5455  1.7025 -1.8903
 2239SOL    HW218354   3.244   0.771   7.992  2.3602  0.4795 -0.7978
 2240SOL     OW18355   1.400   0.258   6.924 -0.1496 -0.2244 -0.2469
 2240SOL    HW118356   1.353   0.325   6.974 -0.1046  0.3957 -1.0254
 2240SOL    HW218357   1.461   0.222   6.988  0.0061 -0.7624 -0.7086
 2241SOL     OW18358   2.699   3.331  13.871 -0.2917  0.9320 -0.3123
 2241SOL    HW118359   2.676   3.303  13.782  1.1256  3.0694 -1.3484
 2241SOL    HW218360   2.635   3.294  13.932 -0.7947  1.6655 -0.4019
 2242SOL     OW18361   1.898   2.104   2.251  0.3206 -0.6362 -0.2314
 2242SOL    HW118362   1.969   2.066   2.303  2.3966  1.5357 -1.5124
 2242SOL    HW218363   1.823   2.058   2.289 -0.6859  0.1884 -1.2225
 2243SOL     OW18364   2.772   1.683   2.954 -0.0092 -0.2074 -0.1972
 2243SOL    HW118365   2.783   1.766   2.906 -0.7292  1.1583  2.0215
 2243SOL    HW218366   2.862   1.651   2.942 -0.2019 -0.3577 -1.2838
 2244SOL     OW18367   1.728   0.328   7.686 -0.2621 -0.1836  0.0761
 2244SOL    HW118368   1.744   0.393   7.618 -1.8503  1.0306  0.8640
 2244SOL    HW218369   1.704   0.382   7.761  0.3349 -1.1439  0.9702
 2245SOL     OW18370   2.599   3.861   2.195 -0.0855  0.3870 -0.2596
 2245SOL    HW118371   2.622   3.768   2.199  1.1347  0.6213 -1.5375
 2245SOL    HW218372   2.580   3.883   2.104  0.7667 -0.9412 -0.7593
 2246SOL     OW18373   0.788   3.146  13.950 -0.0658 -0.3034  0.3165
 2246SOL    HW118374   0.812   3.157  13.858 -0.3081  1.5133  0.4713
 2246SOL    HW218375   0.842   3.075  13.984  1.2673 -0.2989 -1.7744
 2247SOL     OW18376   2.585   2.159   9.846  0.3536  1.1328 -0.4767
 2247SOL    HW118377   2.599   2.188   9.936 -1.3707  2.6289 -0.6811
 2247SOL    HW218378   2.491   2.176   9.837  0.7706  3.2692 -0.7852
 2248SOL     OW18379   1.684   2.118   1.131  0.0262 -0.3958 -0.0819
 2248SOL    HW118380   1.741   2.193   1.120 -1.8415  1.0898  0.3439
 2248SOL    HW218381   1.635   2.145   1.209 -3.2410  1.6214 -2.8374
 2249SOL     OW18382   2.957   3.668   0.696  0.1672 -0.1695  0.2712
 2249SOL    HW118383   3.016   3.593   0.702  0.3636  0.3160  4.0151
 2249SOL    HW218384   3.012   3.737   0.735  0.7745 -0.5032  0.0126
 2250SOL     OW18385   3.645   2.007   7.579 -0.4245  0.2934 -1.0380
 2250SOL    HW118386   3.660   1.934   7.519  0.2761 -0.6811  0.3131
 2250SOL    HW218387   3.570   1.972   7.626  0.2548 -0.5360 -0.5541
 2251SOL     OW18388   1.206   1.500   6.763  0.1124 -0.1377  0.1890
 2251SOL    HW118389   1.259   1.530   6.689  0.9425 -1.7365  0.1405
 2251SOL    HW218390   1.124   1.474   6.721 -0.1771 -0.1925  0.7923
 2252SOL     OW18391   1.725   4.151  11.545  0.3838  0.0739  0.8559
 2252SOL    HW118392   1.699   4.068  11.586 -0.2335  0.6830  1.6978
 2252SOL    HW218393   1.733   4.217  11.614 -1.1294  0.3248  0.7978
 2253SOL     OW18394   2.306   1.672   3.666 -0.0239 -0.7605 -0.0459
 2253SOL    HW118395   2.220   1.631   3.656  0.2538 -0.9882 -1.3771
 2253SOL    HW218396   2.303   1.690   3.760 -1.1924 -0.0210 -0.2262
 2254SOL     OW18397   3.665   3.878   8.570  0.3851  0.0938  0.1574
 2254SOL    HW118398   3.571   3.896   8.568  0.4352  0.5538  1.8509
 2254SOL    HW218399   3.694   3.947   8.510 -0.7791  1.1952  0.8522
 2255SOL     OW18400   0.202   2.928  14.908  0.0863  0.1068  0.2980
 2255SOL    HW118401   0.135   2.985  14.945 -0.4767  0.2204 -0.9033
 2255SOL    HW218402   0.255   2.915  14.987 -0.5737  1.4879  0.9674
 2256SOL     OW18403   0.795   4.183  11.653  0.1547  0.2190  0.2723
 2256SOL    HW118404   0.751   4.098  11.659 -1.4826  1.0023 -0.5220
 2256SOL    HW218405   0.838   4.185  11.739  2.7923 -2.8612 -1.0026
 2257SOL     OW18406   3.958   0.553  11.845 -0.5045  0.7135 -0.4529
 2257SOL    HW118407   3.972   0.506  11.927 -1.5173  0.2181 -0.5647
 2257SOL    HW218408   4.039   0.605  11.850  1.1991 -1.7229 -2.9811
 2258SOL     OW18409   1.085   1.429   9.015  0.0151  0.2753 -0.3132
 2258SOL    HW118410   1.059   1.422   9.106  2.0653 -2.8899  0.0204
 2258SOL    HW218411   1.177   1.410   9.037 -0.2168  1.7202  1.8847
 2259SOL     OW18412   3.732   4.667   4.491  0.1261  0.6457 -0.0187
 2259SOL    HW118413   3.703   4.635   4.576  0.8995  3.0337  1.1507
 2259SOL    HW218414   3.798   4.600   4.474  0.0257  0.6308 -0.3494
 2260SOL     OW18415   1.689   1.495  14.388 -0.2115 -0.7215  0.8807
 2260SOL    HW118416   1.594   1.485  14.383 -0.2486  0.2464 -0.3240
 2260SOL    HW218417   1.701   1.557  14.317 -1.6794 -0.0524  1.2043
 2261SOL     OW18418   1.367   1.370   7.380  0.6569  0.2442  0.3172
 2261SOL    HW118419   1.459   1.390   7.363  0.3404 -0.0608 -1.7559
 2261SOL    HW218420   1.331   1.334   7.299  0.2512  2.3325 -0.4245
 2262SOL     OW18421   4.078   4.588  10.787 -0.5718  0.0810 -0.1857
 2262SOL    HW118422   4.076   4.541  10.870  1.5733  1.9759  0.9218
 2262SOL    HW218423   4.137   4.661  10.804 -0.7902 -0.3754  2.4801
 2263SOL     OW18424   0.432   0.221   5.852  0.3054  0.0329  0.1295
 2263SOL    HW118425   0.387   0.143   5.818  2.5257 -0.4463 -1.6386
 2263SOL    HW218426   0.368   0.249   5.918 -0.6769 -0.4717 -0.5899
 2264SOL     OW18427   1.751   2.898   0.020  0.3880 -0.8010 -0.5176
 2264SOL    HW118428   1.836   2.862  17.737 -0.1591 -2.2301 -0.3245
 2264SOL    HW218429   1.728   2.834   0.087  1.1733 -0.6749 -0.1239
 2265SOL     OW18430   0.375   0.868   8.386  0.1368  0.1881  0.0436
 2265SOL    HW118431   0.419   0.889   8.468 -2.4578  0.0453  1.4712
 2265SOL    HW218432   0.285   0.894   8.408 -0.4320 -0.5697 -1.4153
 2266SOL     OW18433   2.705   1.184  15.902  0.1542  0.3814  0.3700
 2266SOL    HW118434   2.741   1.192  15.814  0.7915  0.1444  0.6107
 2266SOL    HW218435   2.740   1.263  15.943 -0.7286  2.1417 -2.2581
 2267SOL     OW18436   2.113   3.629  13.267  0.3255 -0.7184  0.6267
 2267SOL    HW118437   2.023   3.652  13.291  0.2221  0.4202 -0.8626
 2267SOL    HW218438   2.089   3.541  13.238 -1.8816 -0.1335  0.6425
 2268SOL     OW18439   2.929   1.834  15.943 -0.3689  0.3672  0.6185
 2268SOL    HW118440   3.022   1.827  15.964 -0.2173 -2.0537 -0.9937
 2268SOL    HW218441   2.930   1.917  15.896 -1.3754 -1.4650 -2.5850
 2269SOL     OW18442   1.632   3.771  12.995  0.3729  0.1681 -0.0904
 2269SOL    HW118443   1.639   3.864  13.014  2.4177 -0.0617  0.3356
 2269SOL    HW218444   1.540   3.759  12.972  0.2886  0.8176 -0.0758
 2270SOL     OW18445   1.643   4.634   1.969 -1.0888  0.0574 -0.2434
 2270SOL    HW118446   1.665   4.561   2.028 -2.7093 -0.2805 -0.0677
 2270SOL    HW218447   1.628   4.591   1.884  0.4771 -0.6677 -0.1611
 2271SOL     OW18448   0.452   3.020   2.973  0.0529 -0.1956 -0.6163
 2271SOL    HW118449   0.421   2.931   2.956  0.2313 -0.7533  2.0138
 2271SOL    HW218450   0.442   3.053   2.884 -0.8762 -2.5996 -1.4161
 2272SOL     OW18451   0.080   4.443   1.819 -0.1608 -0.6822 -0.3084
 2272SOL    HW118452   0.161   4.413   1.778 -0.1376 -1.7137  0.4965
 2272SOL    HW218453   0.096   4.417   1.910  2.2541 -0.2763 -0.5975
 2273SOL     OW18454   1.058   3.339   4.485 -1.1100 -0.0939  0.1729
 2273SOL    HW118455   1.084   3.256   4.446  2.3892  1.3800 -0.7158
 2273SOL    HW218456   1.078   3.396   4.411 -1.3413  2.5569  2.1168
 2274SOL     OW18457   3.623   4.478   3.387  0.0892 -0.2356  0.3755
 2274SOL    HW118458   3.564   4.470   3.311 -0.8925  1.3198  0.9683
 2274SOL    HW218459   3.706   4.458   3.344 -0.2656  1.4587 -1.0998
 2275SOL     OW18460   0.198   2.289   6.778 -0.1473 -0.5564  0.4988
 2275SOL    HW118461   0.202   2.294   6.683  0.0673  1.7302  0.6144
 2275SOL    HW218462   0.133   2.219   6.781  0.4865 -1.2475 -2.1451
 2276SOL     OW18463   1.147   4.225   8.745  0.1612  0.2189 -0.2768
 2276SOL    HW118464   1.067   4.251   8.698  0.6454 -0.1217 -1.2846
 2276SOL    HW218465   1.122   4.194   8.832  0.0888 -0.1061 -0.4137
 2277SOL     OW18466   2.126   4.178   8.342  0.0350  0.6173 -0.2910
 2277SOL    HW118467   2.216   4.154   8.364  0.0031  2.0659  1.4005
 2277SOL    HW218468   2.150   4.232   8.267  0.9845  0.7920  0.1312
 2278SOL     OW18469   1.630   3.051   3.258  0.1935  0.9234  0.6161
 2278SOL    HW118470   1.665   3.137   3.283  2.6899  0.6707 -1.9893
 2278SOL    HW218471   1.535   3.065   3.263 -0.2653 -2.3267  0.9015
 2279SOL     OW18472   0.038   4.440   3.396 -0.2590  0.1935  0.1085
 2279SOL    HW118473   0.023   4.422   3.489  0.5690  1.8932  0.5835
 2279SOL    HW218474   4.684   4.459   3.369  0.2829  0.8572 -1.2265
 2280SOL     OW18475   4.236   3.112   1.743  0.4675  0.0038 -0.3872
 2280SOL    HW118476   4.283   3.192   1.765  0.2171  0.0626 -0.0634
 2280SOL    HW218477   4.254   3.048   1.812 -0.9997  0.5630  0.5079
 2281SOL     OW18478   0.373   1.188  14.118 -0.3008 -0.0106  0.2935
 2281SOL    HW118479   0.425   1.118  14.080 -2.9745 -2.8996  1.9990
 2281SOL    HW218480   0.416   1.204  14.202 -1.0233 -2.5762  1.1465
 2282SOL     OW18481   2.201   0.760   7.014 -0.5181 -0.4191 -0.5268
 2282SOL    HW118482   2.195   0.854   7.031  0.2613 -0.2860 -0.9684
 2282SOL    HW218483   2.232   0.728   7.099 -0.5661 -0.1929 -0.4219
 2283SOL     OW18484   1.283   1.885  14.200 -0.0669  0.7139  0.7742
 2283SOL    HW118485   1.328   1.836  14.269 -0.4121  1.1245  1.2928
 2283SOL    HW218486   1.196   1.895  14.239 -0.2829 -1.7412  0.9332
 2284SOL     OW18487   1.130   4.424  14.597  0.2914 -0.2723 -0.4531
 2284SOL    HW118488   1.159   4.435  14.506  3.1707 -1.4355  0.3522
 2284SOL    HW218489   1.138   4.332  14.620  1.1624 -0.0994 -0.0776
 2285SOL     OW18490   0.111   0.514  11.890  0.4470 -0.1567 -0.3601
 2285SOL    HW118491   0.043   0.474  11.945  1.5472  0.1472  1.2200
 2285SOL    HW218492   0.189   0.460  11.897  0.7167  0.2489 -0.2639
 2286SOL     OW18493   0.681   0.596   8.367 -0.1239 -0.9067 -0.5730
 2286SOL    HW118494   0.607   0.539   8.387 -0.6661 -0.0578 -0.1549
 2286SOL    HW218495   0.740   0.564   8.435 -0.6374  0.4621  0.5050
 2287SOL     OW18496   1.039   3.518   3.342 -0.1933  0.4117  0.5026
 2287SOL    HW118497   0.971   3.545   3.281 -1.6267  0.3549  2.0562
 2287SOL    HW218498   1.075   3.605   3.359 -1.7647  1.3135 -0.8502
 2288SOL     OW18499   3.558   4.167   4.468  0.4699  0.0303  0.0472
 2288SOL    HW118500   3.480   4.200   4.424  0.5154  0.1442  0.0518
 2288SOL    HW218501   3.548   4.072   4.468  2.0066 -0.1246  0.7911
 2289SOL     OW18502   1.704   4.591   0.413  0.3306 -0.4566  0.1242
 2289SOL    HW118503   1.681   4.600   0.320  0.3323 -2.3048 -0.0701
 2289SOL    HW218504   1.614   4.603   0.441 -0.1909 -1.4165 -1.1307
 2290SOL     OW18505   3.232   1.619  16.596 -0.0128  0.0132  0.1361
 2290SOL    HW118506   3.305   1.582  16.647  1.0490  0.1148 -1.3246
 2290SOL    HW218507   3.203   1.693  16.650  0.0070  0.2352 -0.1569
 2291SOL     OW18508   2.786   2.504   3.964  0.3682  0.6466 -0.0285
 2291SOL    HW118509   2.743   2.429   4.006 -0.1126  0.2268 -1.2819
 2291SOL    HW218510   2.778   2.576   4.026  0.1505  0.7199 -0.1425
 2292SOL     OW18511   3.334   1.778  15.885 -0.2039 -0.2530  0.2019
 2292SOL    HW118512   3.407   1.787  15.946  0.3533  0.6338 -0.6108
 2292SOL    HW218513   3.259   1.778  15.945 -1.4482  0.0091 -1.3483
 2293SOL     OW18514   0.194   4.287   3.201 -1.0870 -0.7565 -0.3568
 2293SOL    HW118515   0.156   4.202   3.179 -1.4768 -0.7145  0.1454
 2293SOL    HW218516   0.124   4.332   3.248  0.7810  1.8892 -0.1422
 2294SOL     OW18517   4.506   0.302   3.557  0.1262 -0.0915  0.2657
 2294SOL    HW118518   4.597   0.274   3.546 -0.1914 -2.5299  3.6896
 2294SOL    HW218519   4.472   0.295   3.468  0.1858  1.8604  0.1001
 2295SOL     OW18520   0.522   1.200   8.154 -0.3565 -0.6887  0.0287
 2295SOL    HW118521   0.579   1.215   8.078 -1.8134  0.2960 -0.8790
 2295SOL    HW218522   0.543   1.275   8.209  0.9828  0.8228 -2.5200
 2296SOL     OW18523   4.195   0.217   5.145 -0.2405  0.5845  0.2829
 2296SOL    HW118524   4.148   0.247   5.067 -0.7234  2.0511  1.1315
 2296SOL    HW218525   4.282   0.248   5.122 -0.3309  0.3588 -0.3829
 2297SOL     OW18526   2.891   1.689   1.642  0.2630 -1.0208  0.2806
 2297SOL    HW118527   2.847   1.714   1.722  0.0709  0.8908 -0.4325
 2297SOL    HW218528   2.818   1.655   1.591  0.1371  0.0188 -0.2292
 2298SOL     OW18529   4.100   3.882   7.610  0.0184 -0.3928  0.0936
 2298SOL    HW118530   4.134   3.793   7.601 -0.0180 -0.5960  2.0237
 2298SOL    HW218531   4.005   3.879   7.622  0.1957 -0.2124  1.5046
 2299SOL     OW18532   1.956   2.163  12.954 -0.3232  0.5598 -0.3767
 2299SOL    HW118533   1.921   2.095  13.010 -0.9928  0.8944 -0.3835
 2299SOL    HW218534   2.048   2.142  12.965 -0.1751  0.6019 -1.5470
 2300SOL     OW18535   3.280   1.967  11.535  0.0513 -0.4635  0.4174
 2300SOL    HW118536   3.291   1.881  11.495  1.9365 -0.8307  1.7290
 2300SOL    HW218537   3.364   1.973  11.580  0.1134  1.4003  0.0553
 2301SOL     OW18538   1.702   1.569   8.879 -0.0864 -0.0555 -0.0132
 2301SOL    HW118539   1.669   1.507   8.814 -1.8557 -1.0153  1.7767
 2301SOL    HW218540   1.677   1.654   8.844 -0.6778 -0.8711 -1.5833
 2302SOL     OW18541   3.741   2.852   4.293  0.6042  0.2449 -0.0548
 2302SOL    HW118542   3.725   2.809   4.209 -1.2747  1.5374 -0.3575
 2302SOL    HW218543   3.836   2.868   4.290  0.2984  2.0422 -0.4393
 2303SOL     OW18544   0.189   0.852  16.316 -0.3701  0.0890  0.0274
 2303SOL    HW118545   0.236   0.863  16.233  0.6612 -3.1017  0.1789
 2303SOL    HW218546   0.166   0.759  16.312  0.2081 -0.0884  0.8883
 2304SOL     OW18547   2.748   0.826   8.605 -0.4167  0.5224  0.2292
 2304SOL    HW118548   2.692   0.765   8.556  2.4086  0.6772 -3.2216
 2304SOL    HW218549   2.701   0.907   8.622 -0.6513  0.9570 -2.5782
 2305SOL     OW18550   4.347   1.836   8.025 -0.4008  0.0906  0.3718
 2305SOL    HW118551   4.293   1.847   7.947  1.3288  2.1140 -0.5223
 2305SOL    HW218552   4.383   1.751   8.001 -0.9602 -0.3112  0.9278
 2306SOL     OW18553   3.394   3.963   6.082  0.1755  0.1733 -0.3417
 2306SOL    HW118554   3.434   4.032   6.029  2.1930  0.8131  1.9861
 2306SOL    HW218555   3.397   3.901   6.009 -1.3491  0.2396 -0.4623
 2307SOL     OW18556   1.034   1.535   6.325 -0.1329  0.6943  0.2561
 2307SOL    HW118557   0.984   1.468   6.279  0.0442 -1.0664  2.6560
 2307SOL    HW218558   0.960   1.585   6.360 -0.8376 -0.2496  0.1314
 2308SOL     OW18559   2.563   3.677   5.678 -0.1784 -0.1076  0.8455
 2308SOL    HW118560   2.535   3.638   5.595 -1.1286 -0.8644  1.5270
 2308SOL    HW218561   2.638   3.730   5.650 -0.4279 -0.8622 -1.2226
 2309SOL     OW18562   0.768   3.282  15.068 -0.0428 -0.1407  0.2958
 2309SOL    HW118563   0.814   3.212  15.114  1.3064  1.0903  0.8298
 2309SOL    HW218564   0.818   3.360  15.095 -0.3375  0.4001 -0.7083
 2310SOL     OW18565   3.605   1.087  16.469  0.1991 -0.2761  0.0026
 2310SOL    HW118566   3.563   1.156  16.418 -1.1358 -0.0573  1.3999
 2310SOL    HW218567   3.685   1.068  16.420 -0.8146  1.4018 -2.3315
 2311SOL     OW18568   1.335   3.849   8.303 -0.6303  0.1993  0.0287
 2311SOL    HW118569   1.264   3.808   8.252  0.2440 -2.2001  0.7345
 2311SOL    HW218570   1.397   3.776   8.311 -0.4207  0.1796 -1.6354
 2312SOL     OW18571   4.621   3.162   2.456  0.0483 -0.2297 -0.1216
 2312SOL    HW118572   4.650   3.077   2.487  0.8600 -0.6196 -1.9908
 2312SOL    HW218573   4.530   3.135   2.441 -0.0254  0.5606 -1.1273
 2313SOL     OW18574   2.460   4.051   4.846  0.2025  0.1759  0.4804
 2313SOL    HW118575   2.371   4.050   4.813  0.9289  1.2475 -1.4851
 2313SOL    HW218576   2.475   4.144   4.830 -0.9021  0.1679 -0.5596
 2314SOL     OW18577   0.686   3.324  11.554  0.2388 -0.4926  0.4350
 2314SOL    HW118578   0.593   3.304  11.562  0.6382 -3.2107 -1.6345
 2314SOL    HW218579   0.722   3.318  11.643  0.4746 -0.4920  0.3384
 2315SOL     OW18580   1.380   0.278   9.958  0.4310  0.2456 -0.4420
 2315SOL    HW118581   1.295   0.240   9.981  1.0499 -2.7073 -2.9711
 2315SOL    HW218582   1.430   0.244  10.032  0.1085 -0.3901 -0.5095
 2316SOL     OW18583   0.633   1.716  14.540 -0.1714 -0.7081 -0.2004
 2316SOL    HW118584   0.615   1.793  14.593  0.4090  0.7827 -2.1812
 2316SOL    HW218585   0.729   1.710  14.535 -0.3160 -2.0995 -1.2756
 2317SOL     OW18586   0.815   3.987   3.959  0.6419 -0.3093 -0.0657
 2317SOL    HW118587   0.873   4.022   4.028  1.3276  1.1270 -1.3643
 2317SOL    HW218588   0.729   4.017   3.987  1.5010  0.7525  1.4966
 2318SOL     OW18589   4.393   0.813   0.618 -0.3911  0.2900  0.4570
 2318SOL    HW118590   4.397   0.908   0.628 -0.5434  0.2166  1.2689
 2318SOL    HW218591   4.459   0.781   0.679 -2.1637 -0.7122  1.8838
 2319SOL     OW18592   0.297   0.767   2.745 -0.5213  0.1659 -0.7228
 2319SOL    HW118593   0.336   0.817   2.673  1.0757  0.9549  0.6864
 2319SOL    HW218594   0.334   0.816   2.819 -3.8708 -0.1947  1.1883
 2320SOL     OW18595   1.116   2.615   6.683  0.0624 -0.2188 -0.1043
 2320SOL    HW118596   1.052   2.559   6.726  4.3067 -2.6257  3.0794
 2320SOL    HW218597   1.071   2.635   6.601  1.0534  2.0971 -0.0778
 2321SOL     OW18598   3.102   3.120   2.097 -0.1066 -0.8319 -0.2199
 2321SOL    HW118599   3.021   3.075   2.072  0.1416 -1.9415  0.9780
 2321SOL    HW218600   3.171   3.063   2.062 -0.6070 -0.3808 -1.9236
 2322SOL     OW18601   0.793   2.024  12.667  0.0345 -0.7846 -0.6607
 2322SOL    HW118602   0.740   2.071  12.731  0.8554 -1.8146  0.7603
 2322SOL    HW218603   0.874   2.074  12.669  0.2650 -1.2314  1.2517
 2323SOL     OW18604   0.869   3.857   5.232  0.1854 -1.0810  0.4019
 2323SOL    HW118605   0.842   3.932   5.285  2.3248  0.6050 -0.9440
 2323SOL    HW218606   0.909   3.796   5.294  2.3950  1.1438  1.1457
 2324SOL     OW18607   2.111   3.449   6.701 -0.4792  0.5546 -0.3151
 2324SOL    HW118608   2.043   3.382   6.693  0.9741 -0.8559 -0.9069
 2324SOL    HW218609   2.068   3.513   6.645  0.2735 -0.7458 -2.3776
 2325SOL     OW18610   1.955   3.586  12.870 -0.0554 -0.2026 -0.3313
 2325SOL    HW118611   1.908   3.592  12.953  0.3480 -0.9585 -0.0451
 2325SOL    HW218612   1.941   3.493  12.852 -1.8516  0.1719 -0.8023
 2326SOL     OW18613   2.842   3.573  10.175 -0.0541  0.6681  0.3547
 2326SOL    HW118614   2.827   3.663  10.206  1.1142  0.4214  1.7017
 2326SOL    HW218615   2.867   3.539  10.262 -2.0735 -0.2318  0.5746
 2327SOL     OW18616   2.507   3.010   9.495  0.1071  0.8574  0.0492
 2327SOL    HW118617   2.449   3.085   9.503  1.8320  2.0958  1.0703
 2327SOL    HW218618   2.583   3.054   9.456 -0.1778  2.3295  1.1802
 2328SOL     OW18619   4.224   4.413   6.788 -0.2359 -0.2053 -0.0185
 2328SOL    HW118620   4.196   4.321   6.790  1.2026 -0.6301  0.1653
 2328SOL    HW218621   4.151   4.464   6.822  1.3524  2.1491 -0.2062
 2329SOL     OW18622   1.254   2.917   3.749 -0.1161 -0.0471  0.4228
 2329SOL    HW118623   1.341   2.914   3.789 -0.7820 -0.4754  1.8546
 2329SOL    HW218624   1.228   2.826   3.764 -0.5477  0.0887  0.4943
 2330SOL     OW18625   4.400   2.614  15.348 -0.0199 -0.0262 -0.8383
 2330SOL    HW118626   4.334   2.676  15.316 -0.2073 -0.3153 -1.0175
 2330SOL    HW218627   4.399   2.644  15.439 -0.5756 -1.3909 -0.3870
 2331SOL     OW18628   0.350   2.603  10.326  0.0249 -0.0983 -0.2261
 2331SOL    HW118629   0.445   2.592  10.327 -0.1353 -1.3410  1.4424
 2331SOL    HW218630   0.339   2.665  10.398  1.4824 -1.5214  1.2329
 2332SOL     OW18631   1.005   0.097   7.323 -0.1712  0.0079 -0.0671
 2332SOL    HW118632   1.066   0.110   7.251 -2.2882 -1.7632 -2.1600
 2332SOL    HW218633   0.985   0.004   7.310  0.7304 -0.3464  1.0512
 2333SOL     OW18634   1.317   3.219   7.062  0.0313  0.9302 -0.1709
 2333SOL    HW118635   1.262   3.241   6.987  0.6364  0.8521 -0.6333
 2333SOL    HW218636   1.381   3.290   7.063 -0.6011  1.4893  0.8764
 2334SOL     OW18637   0.354   3.164   1.156  0.8829  0.3823 -0.6587
 2334SOL    HW118638   0.415   3.147   1.228  0.1261  0.9356  0.1093
 2334SOL    HW218639   0.295   3.221   1.205 -0.9882 -2.3105  0.1922
 2335SOL     OW18640   1.766   2.146  12.465  0.1174 -0.4245 -0.0987
 2335SOL    HW118641   1.695   2.169  12.406  0.0121  0.6910  0.4581
 2335SOL    HW218642   1.774   2.053  12.443 -2.4593  0.0610 -3.0530
 2336SOL     OW18643   1.766   1.479   7.096  0.3203 -0.4524  0.1723
 2336SOL    HW118644   1.700   1.524   7.044  2.0301 -0.5887 -2.1571
 2336SOL    HW218645   1.845   1.515   7.056  0.5588 -1.1405  0.0076
 2337SOL     OW18646   3.674   3.490   2.731 -0.3223 -0.3713  0.1448
 2337SOL    HW118647   3.770   3.484   2.734 -0.2251  0.6820 -0.6207
 2337SOL    HW218648   3.653   3.525   2.817  0.3153 -0.4538  0.3325
 2338SOL     OW18649   3.873   3.791   7.390 -0.4883 -0.0472  0.0537
 2338SOL    HW118650   3.802   3.777   7.328  0.3687 -1.1388 -0.6857
 2338SOL    HW218651   3.838   3.740   7.463  1.8146 -0.0947  1.1222
 2339SOL     OW18652   1.464   1.611  11.946 -0.6981  0.2532 -0.6658
 2339SOL    HW118653   1.486   1.587  12.036 -1.6090  0.5600 -0.3631
 2339SOL    HW218654   1.494   1.536  11.896  0.7692  0.0646  0.5159
 2340SOL     OW18655   1.844   3.518  13.854  0.5935 -0.1221 -0.2714
 2340SOL    HW118656   1.894   3.581  13.804 -2.0708  1.4536 -0.9559
 2340SOL    HW218657   1.900   3.440  13.845  0.8102  0.1563 -1.3856
 2341SOL     OW18658   4.290   3.820   5.812 -0.4943 -0.0068 -0.4947
 2341SOL    HW118659   4.346   3.759   5.860 -0.4602  1.9007  1.8771
 2341SOL    HW218660   4.274   3.897   5.866  2.9341 -0.4695  1.1780
 2342SOL     OW18661   4.021   1.381   3.111 -0.4751  0.9353 -0.4530
 2342SOL    HW118662   4.082   1.310   3.129 -0.0244  0.7437 -2.6619
 2342SOL    HW218663   3.952   1.369   3.176  0.2824  0.4757  0.2613
 2343SOL     OW18664   2.811   0.869   5.642  0.4865  0.3871  0.5852
 2343SOL    HW118665   2.904   0.889   5.656  0.6926 -0.2736  0.1693
 2343SOL    HW218666   2.816   0.843   5.550 -3.5230 -0.6390  0.6277
 2344SOL     OW18667   1.656   1.270  17.653 -0.1377  0.2177  0.0560
 2344SOL    HW118668   1.670   1.182  17.617 -3.3741  0.0556 -0.7537
 2344SOL    HW218669   1.731   1.278  17.712  0.1237  1.1935 -0.4129
 2345SOL     OW18670   2.245   0.024   3.936  0.5955  0.2360  0.6157
 2345SOL    HW118671   2.253   0.070   3.852  0.2351 -0.0440  0.4266
 2345SOL    HW218672   2.307   0.069   3.993 -0.2274  1.1536  0.7801
 2346SOL     OW18673   1.349   0.928   7.925 -0.1926 -0.8428 -0.1304
 2346SOL    HW118674   1.337   0.839   7.890  0.5414 -2.1475  2.8810
 2346SOL    HW218675   1.395   0.893   8.001 -0.9053 -4.2744 -1.2260
 2347SOL     OW18676   0.830   2.322   6.588  0.0176  0.2119 -0.0533
 2347SOL    HW118677   0.752   2.375   6.570 -0.3597 -0.0193  0.8917
 2347SOL    HW218678   0.867   2.309   6.501  1.7101 -0.6666  0.8053
 2348SOL     OW18679   1.785   2.531  11.778 -0.2734  0.1254  0.1596
 2348SOL    HW118680   1.846   2.467  11.742  0.0111 -0.2846  1.3766
 2348SOL    HW218681   1.709   2.475  11.791  0.9288 -1.8637 -1.2827
 2349SOL     OW18682   4.504   3.419   1.049  0.3566 -0.2875  0.2337
 2349SOL    HW118683   4.461   3.373   1.121  1.8591 -2.0969 -0.0381
 2349SOL    HW218684   4.440   3.454   0.987  1.3794 -1.8218 -1.6920
 2350SOL     OW18685   1.777   3.356   2.370 -0.2120  0.5418 -0.3308
 2350SOL    HW118686   1.736   3.283   2.323 -1.1706  0.8282  0.0841
 2350SOL    HW218687   1.706   3.402   2.413  0.6562 -0.1440  1.8039
 2351SOL     OW18688   1.384   4.637   7.531  0.0010 -1.0244  0.0290
 2351SOL    HW118689   1.335   4.613   7.610 -1.1140 -1.9619 -0.9439
 2351SOL    HW218690   1.475   4.655   7.554  0.5968 -1.8145 -1.7200
 2352SOL     OW18691   0.983   3.729  17.507  0.0734 -0.0615  0.2878
 2352SOL    HW118692   0.936   3.800  17.463 -0.2290  0.0031  0.7160
 2352SOL    HW218693   1.072   3.763  17.496  0.7372 -1.8580  0.1004
 2353SOL     OW18694   2.127   2.490   7.419  0.5109  0.1021 -0.1067
 2353SOL    HW118695   2.135   2.487   7.515  1.2083  1.4561 -0.1221
 2353SOL    HW218696   2.222   2.489   7.406  0.2128 -0.0008 -2.2381
 2354SOL     OW18697   1.818   0.684   8.401 -0.0061 -0.2684  0.8178
 2354SOL    HW118698   1.911   0.706   8.393  0.2118 -1.4965 -0.0078
 2354SOL    HW218699   1.816   0.589   8.414  1.1426 -0.3444  0.4157
 2355SOL     OW18700   1.288   0.330   3.326 -0.4493  0.2732  0.0378
 2355SOL    HW118701   1.351   0.258   3.328 -1.2923 -0.4524  0.6020
 2355SOL    HW218702   1.350   0.400   3.304 -1.0789  0.7631 -0.1623
 2356SOL     OW18703   1.930   1.446   4.190  0.3397 -0.1077 -0.0240
 2356SOL    HW118704   1.893   1.534   4.181  1.9161  0.5576  0.0856
 2356SOL    HW218705   2.018   1.465   4.223  0.3880  0.0501 -0.2405
 2357SOL     OW18706   2.442   0.130   9.584  0.3543  0.0102  0.2107
 2357SOL    HW118707   2.395   0.121   9.501 -0.4255 -2.4568  0.9245
 2357SOL    HW218708   2.474   0.220   9.579  0.2857 -0.1747 -3.6214
 2358SOL     OW18709   1.375   0.528   1.832  0.2104  0.0333  0.0615
 2358SOL    HW118710   1.336   0.532   1.745 -1.4396  1.2193  0.8472
 2358SOL    HW218711   1.361   0.438   1.862  0.2817  0.4169  1.2677
 2359SOL     OW18712   2.030   1.294  15.435  0.6247 -0.2766  0.0249
 2359SOL    HW118713   2.001   1.224  15.494  2.8522  1.8549  3.6075
 2359SOL    HW218714   1.992   1.269  15.350  0.1514  1.4385 -0.2579
 2360SOL     OW18715   1.755   0.351   0.098  0.6510  0.0974  0.5483
 2360SOL    HW118716   1.818   0.374   0.029  0.8415  0.2479  0.7712
 2360SOL    HW218717   1.677   0.348   0.044  1.3173 -1.4255 -0.3152
 2361SOL     OW18718   4.415   0.438   0.809 -0.0316 -0.1751  0.6670
 2361SOL    HW118719   4.329   0.464   0.841  0.4788  1.2388  0.9262
 2361SOL    HW218720   4.453   0.525   0.795 -0.1872 -0.1005  0.7192
 2362SOL     OW18721   0.549   4.694   9.308  0.1014 -0.1507  0.1442
 2362SOL    HW118722   0.634   4.668   9.345 -0.5929  0.5049  2.2174
 2362SOL    HW218723   0.492   4.623   9.339 -3.7412  2.9978  0.2305
 2363SOL     OW18724   2.946   0.900   3.761  0.0312 -0.7784 -0.5400
 2363SOL    HW118725   2.888   0.969   3.795 -1.6727 -2.0831 -0.7739
 2363SOL    HW218726   3.031   0.914   3.802  0.6072  1.1795 -2.3984
 2364SOL     OW18727   3.105   3.394  10.377  0.2568 -0.1713 -0.0746
 2364SOL    HW118728   3.011   3.403  10.393  0.4646 -1.6802  1.8685
 2364SOL    HW218729   3.128   3.487  10.365  0.7358 -0.4524 -1.3612
 2365SOL     OW18730   3.070   1.634   6.918  0.0805 -0.4121 -0.2434
 2365SOL    HW118731   3.079   1.691   6.994  1.4078 -2.3170  1.0121
 2365SOL    HW218732   3.105   1.695   6.853 -0.2453  3.8206  3.5876
 2366SOL     OW18733   4.503   3.239   8.249  0.4400 -0.3820 -0.2490
 2366SOL    HW118734   4.441   3.240   8.322 -1.1797 -0.3468 -1.6240
 2366SOL    HW218735   4.587   3.266   8.288 -0.1546 -1.6436  1.9233
 2367SOL     OW18736   3.553   1.386   4.493 -0.6445 -0.0365  0.0133
 2367SOL    HW118737   3.499   1.440   4.436 -0.8685  1.4662  1.6675
 2367SOL    HW218738   3.508   1.403   4.576 -2.8242  0.8010 -1.3324
 2368SOL     OW18739   3.988   1.361  17.153 -0.2720  0.5168 -0.3456
 2368SOL    HW118740   3.929   1.286  17.160 -1.2187  1.1976 -0.9884
 2368SOL    HW218741   4.023   1.390  17.237  0.0383  0.1590 -0.3505
 2369SOL     OW18742   2.785   0.116   5.267  1.3450 -0.4862 -0.2802
 2369SOL    HW118743   2.761   0.205   5.292 -1.0842 -0.9930 -0.8209
 2369SOL    HW218744   2.835   0.121   5.186 -0.1373 -1.0062 -1.2139
 2370SOL     OW18745   4.133   1.145   5.819 -0.5142  0.3682 -0.5593
 2370SOL    HW118746   4.109   1.058   5.852 -0.3514  1.1621  1.6544
 2370SOL    HW218747   4.104   1.133   5.728  0.1902 -2.5055 -0.4109
 2371SOL     OW18748   0.837   2.397   7.445 -0.1097  0.7130  0.1487
 2371SOL    HW118749   0.889   2.351   7.379 -1.0680 -0.7126  0.3821
 2371SOL    HW218750   0.801   2.469   7.393 -1.3312  0.2166  0.3055
 2372SOL     OW18751   2.963   2.405  14.878  0.2082 -1.3435  0.1305
 2372SOL    HW118752   2.946   2.336  14.814 -3.2151 -0.2564 -0.1573
 2372SOL    HW218753   3.054   2.384  14.899  0.4012 -2.6244 -2.0185
 2373SOL     OW18754   2.793   2.958   7.495 -0.1629  0.4428 -0.2724
 2373SOL    HW118755   2.721   2.934   7.554  0.8479 -0.5654  0.5412
 2373SOL    HW218756   2.792   2.899   7.420 -0.2649 -0.0720  0.1308
 2374SOL     OW18757   2.990   2.621  12.330 -0.2582  0.0915 -0.0441
 2374SOL    HW118758   2.940   2.698  12.357 -0.0709 -0.1314  0.9157
 2374SOL    HW218759   2.921   2.560  12.355  2.2458 -2.4469  0.7403
 2375SOL     OW18760   3.871   2.627   7.140  0.9867 -0.1527 -0.1173
 2375SOL    HW118761   3.865   2.667   7.053  2.8151 -0.6468 -0.4578
 2375SOL    HW218762   3.808   2.556   7.128 -0.6534  1.5675 -1.7196
 2376SOL     OW18763   4.727   0.635   8.474 -0.4438 -0.2210 -0.0834
 2376SOL    HW118764   0.010   0.713   8.527  0.5310 -0.0259 -0.7105
 2376SOL    HW218765   0.077   0.593   8.477 -0.7120 -0.7043  0.7538
 2377SOL     OW18766   3.425   3.447   8.200  0.2836 -0.3740  0.7927
 2377SOL    HW118767   3.363   3.484   8.138 -0.9030 -2.4026  0.7660
 2377SOL    HW218768   3.508   3.490   8.178 -0.4763  0.6325 -0.0539
 2378SOL     OW18769   1.328   1.987   7.907 -0.0689  0.4038  0.2199
 2378SOL    HW118770   1.256   1.948   7.856  0.3291  1.9646 -1.5492
 2378SOL    HW218771   1.314   1.961   7.998 -1.1517  1.4283  0.3540
 2379SOL     OW18772   4.638   4.280   2.385  0.3414 -0.6571  0.5005
 2379SOL    HW118773   4.556   4.230   2.395 -0.3382  0.4834  0.5671
 2379SOL    HW218774   4.708   4.218   2.404  1.2935  0.3002  0.0812
 2380SOL     OW18775   3.281   4.283   5.087  1.0864 -0.1711 -0.2961
 2380SOL    HW118776   3.314   4.197   5.112 -2.0986 -1.0552  0.8889
 2380SOL    HW218777   3.200   4.259   5.042  0.7327 -2.0870  1.3429
 2381SOL     OW18778   1.544   3.890   3.501  0.2085  0.4623 -0.4402
 2381SOL    HW118779   1.519   3.828   3.570 -0.0126 -0.9625 -1.7845
 2381SOL    HW218780   1.481   3.961   3.507 -0.9127 -0.4679 -1.2834
 2382SOL     OW18781   1.976   0.275   6.701 -0.7137  0.4124  0.0304
 2382SOL    HW118782   2.000   0.310   6.787 -1.2853  1.4687 -0.2342
 2382SOL    HW218783   2.064   0.284   6.664 -1.2280  0.8645 -1.0840
 2383SOL     OW18784   0.368   2.644   4.861  0.2487 -0.1574 -0.1441
 2383SOL    HW118785   0.314   2.657   4.939  2.1523  1.2303  0.9626
 2383SOL    HW218786   0.364   2.549   4.851 -1.9853 -0.3411  2.5694
 2384SOL     OW18787   3.270   1.490  10.803  0.1588  0.6393 -0.2977
 2384SOL    HW118788   3.329   1.563  10.825 -0.4169  0.6609  1.1572
 2384SOL    HW218789   3.324   1.445  10.738  0.6934  3.2972 -1.6973
 2385SOL     OW18790   4.194   2.589   6.821 -0.2194  0.0084  0.2338
 2385SOL    HW118791   4.242   2.514   6.857 -0.7750 -1.2873 -1.7262
 2385SOL    HW218792   4.116   2.550   6.782  0.3978 -0.3355 -0.6783
 2386SOL     OW18793   1.936   0.300  10.751  0.2512  0.0111 -0.5510
 2386SOL    HW118794   1.970   0.377  10.797  0.8042 -0.0826 -0.8031
 2386SOL    HW218795   1.848   0.333  10.735  0.1680  1.4428  2.7800
 2387SOL     OW18796   0.399   3.315  14.441  0.0718 -0.0470 -0.0317
 2387SOL    HW118797   0.428   3.405  14.459 -4.3962  1.0461  1.7108
 2387SOL    HW218798   0.403   3.301  14.346  0.9398 -2.4137  0.3468
 2388SOL     OW18799   3.851   3.230   5.221 -0.1897  0.3065 -0.6880
 2388SOL    HW118800   3.763   3.250   5.251 -0.1312 -2.0539  1.1432
 2388SOL    HW218801   3.895   3.231   5.307  1.8043  1.6308 -1.7270
 2389SOL     OW18802   3.194   3.721   8.863  0.5440 -0.0040 -0.3818
 2389SOL    HW118803   3.128   3.673   8.813 -0.7499  2.0881 -0.6539
 2389SOL    HW218804   3.139   3.771   8.924  2.5916  1.3462  0.3585
 2390SOL     OW18805   2.647   3.973  15.862 -0.1507 -0.0016 -0.3033
 2390SOL    HW118806   2.594   4.017  15.928  0.1844 -0.2469  0.1246
 2390SOL    HW218807   2.735   3.989  15.896 -0.1389 -1.1819  0.2185
 2391SOL     OW18808   3.901   0.076   1.272 -0.3567  0.3872 -0.1633
 2391SOL    HW118809   3.974   0.089   1.211 -2.5835  0.5828 -2.7870
 2391SOL    HW218810   3.854   0.160   1.272 -0.1291  0.5160  0.8547
 2392SOL     OW18811   3.024   1.372  12.216  0.6211  0.3394  0.1399
 2392SOL    HW118812   2.992   1.307  12.154 -0.8474  0.9848  0.2256
 2392SOL    HW218813   3.059   1.320  12.288  2.6361  0.6833 -0.5644
 2393SOL     OW18814   2.671   0.557  12.828  0.0842  0.1637 -0.0815
 2393SOL    HW118815   2.764   0.571  12.846 -0.1025  2.1908 -0.6530
 2393SOL    HW218816   2.669   0.604  12.745  1.7388  0.9445  0.3157
 2394SOL     OW18817   4.572   4.336   2.009 -0.3952  0.0645  0.1265
 2394SOL    HW118818   4.576   4.349   1.914  1.4554  0.4834  0.2691
 2394SOL    HW218819   4.588   4.425   2.039 -3.3640 -0.2518  2.6045
 2395SOL     OW18820   0.321   4.733   4.713 -0.0369  0.0809 -0.3809
 2395SOL    HW118821   0.317   0.087   4.745 -0.8144 -0.7754  1.8708
 2395SOL    HW218822   0.403   4.693   4.739  0.0904  1.0605  0.7201
 2396SOL     OW18823   3.891   3.422  13.724 -0.0152 -0.1717  0.2149
 2396SOL    HW118824   3.901   3.382  13.638  1.4322 -2.6856  1.5609
 2396SOL    HW218825   3.982   3.449  13.731  0.5683 -1.8186 -0.9169
 2397SOL     OW18826   1.995   1.602   5.448 -0.6588  0.1551  0.4832
 2397SOL    HW118827   2.036   1.662   5.510 -0.9373 -1.5236  2.2641
 2397SOL    HW218828   1.978   1.652   5.368  3.7529  1.6728  0.5222
 2398SOL     OW18829   0.712   4.547   8.202  0.1088  0.1032  0.1703
 2398SOL    HW118830   0.678   4.634   8.226  0.0968  0.2544 -0.3923
 2398SOL    HW218831   0.725   4.558   8.108 -1.7139  0.0012 -0.1037
 2399SOL     OW18832   3.435   0.099  17.518 -0.1213 -0.1845 -0.3879
 2399SOL    HW118833   3.390   0.182  17.532 -0.6571 -0.9187  2.1238
 2399SOL    HW218834   3.518   0.113  17.562 -1.0747  1.8731  0.7284
 2400SOL     OW18835   0.715   1.094   5.053  0.9782 -0.3138 -0.3231
 2400SOL    HW118836   0.745   1.015   5.008 -1.5620 -0.4743 -1.7238
 2400SOL    HW218837   0.656   1.057   5.119  1.0753  2.6882  1.4319
 2401SOL     OW18838   0.154   3.848   6.120 -0.9038  0.2126  0.0474
 2401SOL    HW118839   0.173   3.786   6.050 -0.7578  0.0243  0.2525
 2401SOL    HW218840   0.222   3.817   6.180  0.6587 -0.3304 -1.9684
 2402SOL     OW18841   4.500   3.743   6.293 -0.0559  0.2056  0.1616
 2402SOL    HW118842   4.476   3.836   6.293  2.6759  0.9106 -1.6791
 2402SOL    HW218843   4.467   3.706   6.375 -2.0318 -0.9187 -1.1295
 2403SOL     OW18844   1.604   4.419  13.554 -0.1018 -0.6365  0.0710
 2403SOL    HW118845   1.534   4.381  13.607  0.2698 -2.6741 -0.8977
 2403SOL    HW218846   1.677   4.412  13.616  0.7037 -0.8678 -0.9064
 2404SOL     OW18847   4.052   2.993   5.173  0.1871  0.0871  0.3143
 2404SOL    HW118848   4.121   3.036   5.123  0.9763 -0.3175  1.0374
 2404SOL    HW218849   3.992   3.066   5.185 -1.1046 -0.8535 -0.4592
 2405SOL     OW18850   2.099   4.437   9.376  0.2380 -0.1960 -0.1459
 2405SOL    HW118851   2.127   4.520   9.338 -0.1980 -0.5811 -1.3041
 2405SOL    HW218852   2.051   4.473   9.450  0.9331 -0.9417  0.6719
 2406SOL     OW18853   0.156   3.571   2.424  0.2033  0.7835  0.1594
 2406SOL    HW118854   0.177   3.480   2.443  2.0391  1.1115 -0.3209
 2406SOL    HW218855   0.064   3.564   2.449  0.7727 -2.6010  1.2355
 2407SOL     OW18856   3.614   3.791   6.976  0.0334 -0.7100 -0.6065
 2407SOL    HW118857   3.653   3.762   6.894  2.1114 -1.2182  0.5592
 2407SOL    HW218858   3.531   3.828   6.944  0.8614  2.2393  0.6087
 2408SOL     OW18859   3.702   1.271   5.875  0.3182 -0.3630 -0.0173
 2408SOL    HW118860   3.756   1.289   5.798 -1.1197  1.4981 -0.6020
 2408SOL    HW218861   3.618   1.279   5.831  1.0679 -0.8298 -1.5297
 2409SOL     OW18862   3.214   3.504  11.310  0.5712 -0.7732  0.2567
 2409SOL    HW118863   3.286   3.447  11.337 -0.4151 -1.2031  1.9520
 2409SOL    HW218864   3.269   3.571  11.268 -0.6164 -2.0592 -3.3257
 2410SOL     OW18865   0.980   0.597   7.786 -0.1898  0.1530  0.3997
 2410SOL    HW118866   0.888   0.623   7.793 -0.6150 -1.8438  2.2703
 2410SOL    HW218867   1.014   0.682   7.757 -0.1975 -0.6934 -2.1323
 2411SOL     OW18868   2.916   0.656  11.370 -0.1071 -0.3643 -0.1905
 2411SOL    HW118869   2.930   0.643  11.276  0.7455  1.5106 -0.3119
 2411SOL    HW218870   2.881   0.745  11.365 -2.6926 -1.3129  1.0590
 2412SOL     OW18871   2.985   2.807   4.901 -0.0777 -0.3167  0.0087
 2412SOL    HW118872   2.928   2.746   4.947 -0.8876  1.2823  1.1147
 2412SOL    HW218873   2.938   2.890   4.910 -1.2169 -0.6044 -3.1814
 2413SOL     OW18874   3.158   0.424  12.954 -0.7619 -0.0701  0.2306
 2413SOL    HW118875   3.120   0.511  12.954  2.4019  1.3061  0.4230
 2413SOL    HW218876   3.244   0.448  12.989 -1.0880  1.2431  0.1218
 2414SOL     OW18877   3.804   1.983  11.542  0.0245 -0.3986 -0.0815
 2414SOL    HW118878   3.803   2.077  11.559  0.6766 -0.7737  2.0428
 2414SOL    HW218879   3.712   1.971  11.567 -0.1384 -1.4350 -1.1818
 2415SOL     OW18880   3.956   3.292   4.964  0.4283  0.1028  0.1737
 2415SOL    HW118881   3.920   3.298   5.053  2.6468 -0.9771  1.1216
 2415SOL    HW218882   3.885   3.319   4.906  0.1966  0.3876  0.5829
 2416SOL     OW18883   0.720   3.590   7.663 -0.2816 -0.1423 -0.4817
 2416SOL    HW118884   0.795   3.597   7.604 -0.3969 -0.4840 -0.6673
 2416SOL    HW218885   0.732   3.514   7.721 -0.6981 -1.0915 -1.6419
 2417SOL     OW18886   1.641   2.212   4.569  0.4656  0.5013  0.0996
 2417SOL    HW118887   1.677   2.193   4.656 -1.6998 -0.1173  0.8638
 2417SOL    HW218888   1.623   2.122   4.544  1.6595 -0.0315  1.1861
 2418SOL     OW18889   2.794   4.039   8.632 -0.2983 -0.4267  0.2270
 2418SOL    HW118890   2.816   4.101   8.563 -0.2187  1.2134  1.7308
 2418SOL    HW218891   2.819   4.091   8.708 -0.7365  1.0533 -0.6448
 2419SOL     OW18892   4.554   1.276   4.208 -0.4606  0.0325  0.4439
 2419SOL    HW118893   4.587   1.365   4.198  1.1644 -0.7030 -0.6748
 2419SOL    HW218894   4.502   1.270   4.127  1.9365  1.9139 -1.2097
 2420SOL     OW18895   1.288   3.755  15.309 -0.7070 -0.4835  0.6573
 2420SOL    HW118896   1.196   3.775  15.290 -0.3024 -0.4881 -1.3570
 2420SOL    HW218897   1.311   3.696  15.237 -2.0645 -1.0514  0.6993
 2421SOL     OW18898   2.478   0.837   4.132  0.4917 -0.3882  0.1933
 2421SOL    HW118899   2.507   0.778   4.201 -0.5990 -0.1329  0.8745
 2421SOL    HW218900   2.493   0.921   4.175  1.3369 -1.2616  1.5819
 2422SOL     OW18901   1.190   2.111   5.245  0.0334  0.2368  0.0964
 2422SOL    HW118902   1.136   2.034   5.263  2.3929 -0.8429  2.5127
 2422SOL    HW218903   1.177   2.164   5.323  0.8054 -0.1821  0.5084
 2423SOL     OW18904   3.842   2.963   8.034 -0.2652  0.2784  0.0615
 2423SOL    HW118905   3.804   2.951   7.947  0.1953 -0.1858 -0.0780
 2423SOL    HW218906   3.936   2.956   8.017 -0.6361 -2.5917 -0.8912
 2424SOL     OW18907   0.385   0.543  16.679 -0.0019 -0.0986  0.0761
 2424SOL    HW118908   0.473   0.514  16.657  0.1715  1.1407 -0.8536
 2424SOL    HW218909   0.337   0.462  16.697 -1.2311  0.3846 -0.9645
 2425SOL     OW18910   0.404   1.616   8.343 -0.6861  0.3119 -0.0661
 2425SOL    HW118911   0.458   1.694   8.357 -0.6276  0.1379  0.6558
 2425SOL    HW218912   0.473   1.551   8.347  1.7190  2.9759  1.7881
 2426SOL     OW18913   1.466   1.766   3.256  0.0966 -0.0440  0.0130
 2426SOL    HW118914   1.379   1.750   3.219 -0.0542  0.0309  0.3317
 2426SOL    HW218915   1.490   1.851   3.219 -0.5482 -1.1815 -3.0029
 2427SOL     OW18916   1.382   2.794   3.366  0.3222 -0.3632 -0.4351
 2427SOL    HW118917   1.408   2.835   3.284 -2.5168  1.1089 -0.5683
 2427SOL    HW218918   1.339   2.714   3.335  0.2412  0.2652 -1.9534
 2428SOL     OW18919   0.860   0.034  10.508  0.1838  0.2990  0.2599
 2428SOL    HW118920   0.927   0.054  10.572 -0.4942 -1.5446  1.5727
 2428SOL    HW218921   0.812   0.116  10.499  1.5561  1.0991  0.2435
 2429SOL     OW18922   4.586   2.506  12.046 -0.2117  0.2916  0.2800
 2429SOL    HW118923   4.602   2.563  11.971  3.9682 -0.2143  0.7496
 2429SOL    HW218924   4.639   2.431  12.017  0.8974  1.1579  0.0663
 2430SOL     OW18925   2.914   1.875  16.245  0.3628  0.2414  0.1735
 2430SOL    HW118926   2.918   1.784  16.274 -1.0260 -0.5663 -2.1217
 2430SOL    HW218927   2.891   1.862  16.152 -0.9096  0.3124  0.4788
 2431SOL     OW18928   4.426   2.809   1.093  0.1675 -0.5952 -0.5568
 2431SOL    HW118929   4.376   2.756   1.155 -1.5570  2.4708  0.6687
 2431SOL    HW218930   4.377   2.891   1.083  1.2964 -0.0983 -2.0935
 2432SOL     OW18931   2.301   3.758  15.946 -0.0960 -0.3524 -0.1295
 2432SOL    HW118932   2.376   3.765  15.887  0.0499 -1.4196 -0.0589
 2432SOL    HW218933   2.225   3.771  15.889  0.5045 -0.0481 -0.8721
 2433SOL     OW18934   2.526   1.165   2.854 -0.0168  0.1095 -0.0787
 2433SOL    HW118935   2.487   1.110   2.922  1.0458 -1.0867 -0.4295
 2433SOL    HW218936   2.500   1.117   2.775  3.2242 -1.6003 -0.1077
 2434SOL     OW18937   0.555   4.308   4.380  0.3493 -0.7726 -0.3586
 2434SOL    HW118938   0.634   4.317   4.327  0.8739 -0.1700  0.5191
 2434SOL    HW218939   0.521   4.220   4.362  0.5772 -0.6464 -1.4116
 2435SOL     OW18940   2.984   2.614  17.661 -0.3980  0.4151 -0.6991
 2435SOL    HW118941   2.913   2.674  17.685 -0.6330 -0.7381  1.5006
 2435SOL    HW218942   2.934   2.533  17.651 -1.0913  0.8502 -0.7941
 2436SOL     OW18943   0.670   2.289  15.660  0.7754 -0.2268  0.5268
 2436SOL    HW118944   0.717   2.247  15.732  1.9067  0.2945  0.0940
 2436SOL    HW218945   0.599   2.228  15.642  1.0645 -0.0599 -1.1750
 2437SOL     OW18946   3.165   2.106   1.734  0.3703 -0.2163  0.1771
 2437SOL    HW118947   3.140   2.027   1.781  3.3985  0.7268  3.4118
 2437SOL    HW218948   3.175   2.168   1.807  0.6561  0.8353 -0.7490
 2438SOL     OW18949   2.765   1.576   0.997  0.4354  0.2660 -0.2689
 2438SOL    HW118950   2.809   1.593   1.080  0.6637  0.4628 -0.4325
 2438SOL    HW218951   2.676   1.593   1.028  0.5500  1.4897 -0.6189
 2439SOL     OW18952   2.169   3.650   2.126  0.1982 -0.0897 -0.1858
 2439SOL    HW118953   2.124   3.669   2.208  1.9062  1.4326  0.3998
 2439SOL    HW218954   2.171   3.555   2.125  0.4743 -0.0753 -0.6976
 2440SOL     OW18955   2.803   0.012   3.958  0.1552  0.2425 -0.4706
 2440SOL    HW118956   2.867   0.077   3.928  1.3120 -0.7016 -0.0694
 2440SOL    HW218957   2.743   0.073   4.000  1.2681  1.7103 -0.9873
 2441SOL     OW18958   0.821   1.279   5.503 -0.2692 -0.1485  0.2088
 2441SOL    HW118959   0.838   1.237   5.588 -0.4088  2.2161  1.3945
 2441SOL    HW218960   0.848   1.222   5.431 -2.4498  0.7772 -1.3285
 2442SOL     OW18961   0.533   1.721   9.293  0.0960 -0.1858  0.4330
 2442SOL    HW118962   0.529   1.652   9.359  0.6591  0.3804  1.0528
 2442SOL    HW218963   0.467   1.781   9.327 -2.7654 -0.7991 -3.9694
 2443SOL     OW18964   2.864   1.824   8.491 -0.3926 -0.0767  0.1111
 2443SOL    HW118965   2.846   1.862   8.577 -0.9958  0.3135 -0.1842
 2443SOL    HW218966   2.776   1.797   8.466 -0.1594 -0.1727 -0.6120
 2444SOL     OW18967   2.764   1.160   6.956 -0.0604 -0.1236  0.5214
 2444SOL    HW118968   2.788   1.201   6.873  0.2135  0.0755  0.6973
 2444SOL    HW218969   2.682   1.117   6.934  1.2520 -1.7573 -1.1381
 2445SOL     OW18970   4.543   0.531   3.721  0.0462  0.3948  0.1202
 2445SOL    HW118971   4.571   0.440   3.711 -0.9432  0.0509  0.5604
 2445SOL    HW218972   4.619   0.578   3.686 -0.4047  1.7793  0.9917
 2446SOL     OW18973   3.616   0.740   4.603  0.6576  0.3703  1.0489
 2446SOL    HW118974   3.552   0.691   4.655  0.7009 -1.8208 -0.9327
 2446SOL    HW218975   3.687   0.676   4.611 -0.1338 -0.7581 -0.8117
 2447SOL     OW18976   3.955   2.118   7.360 -0.7748  0.2346  0.1098
 2447SOL    HW118977   4.026   2.066   7.397 -0.4731 -0.5031 -1.5176
 2447SOL    HW218978   3.888   2.055   7.332  0.4336 -0.9280 -0.1874
 2448SOL     OW18979   4.394   4.436   5.573 -0.6929  0.0741 -0.0806
 2448SOL    HW118980   4.480   4.394   5.582 -0.1177  1.3846  0.4818
 2448SOL    HW218981   4.343   4.358   5.595  0.1549 -0.4895 -0.1194
 2449SOL     OW18982   0.721   0.234   4.287  0.3379 -0.2131 -0.2655
 2449SOL    HW118983   0.730   0.286   4.368 -2.1029 -1.4531  0.7935
 2449SOL    HW218984   0.672   0.290   4.227  3.2802  0.8292 -1.6929
 2450SOL     OW18985   1.036   2.781   9.290  0.1889 -0.3631  0.5692
 2450SOL    HW118986   1.075   2.817   9.211 -2.5156 -0.4274 -0.7941
 2450SOL    HW218987   1.084   2.824   9.362 -0.0134  1.8366 -0.6044
 2451SOL     OW18988   3.328   3.410   4.515  0.0533  0.5586 -0.0075
 2451SOL    HW118989   3.305   3.419   4.608  0.0015  2.1243 -0.1683
 2451SOL    HW218990   3.247   3.364   4.495  1.2603 -0.6850 -2.0952
 2452SOL     OW18991   3.290   2.085   5.377  0.0475  0.1381 -0.5834
 2452SOL    HW118992   3.318   1.995   5.365  2.0159  0.4270  1.8311
 2452SOL    HW218993   3.196   2.072   5.368 -0.0690  0.7093 -0.1921
 2453SOL     OW18994   4.386   0.829  14.445  0.4520 -0.3488 -0.0097
 2453SOL    HW118995   4.479   0.840  14.463  0.9811 -0.6103 -2.5226
 2453SOL    HW218996   4.356   0.909  14.401 -2.0814 -1.0654  0.3708
 2454SOL     OW18997   2.846   2.913   2.378 -0.5545 -0.0013 -0.4213
 2454SOL    HW118998   2.781   2.843   2.377 -1.3477  0.7403 -1.0835
 2454SOL    HW218999   2.853   2.928   2.472  0.1276  1.2475 -0.6668
 2455SOL     OW19000   4.363   0.630   4.447  0.2765 -0.1544 -0.0694
 2455SOL    HW119001   4.352   0.613   4.540  0.6287 -2.5456 -0.4590
 2455SOL    HW219002   4.392   0.543   4.419 -1.5438 -0.4420 -1.1184
 2456SOL     OW19003   0.854   4.513  12.804 -0.0791 -0.0494 -0.1751
 2456SOL    HW119004   0.876   4.547  12.891 -0.3289 -1.0043  0.2628
 2456SOL    HW219005   0.771   4.465  12.811 -0.4242  0.7752  1.3517
 2457SOL     OW19006   3.583   3.004  11.865  0.5182 -0.2161 -0.2881
 2457SOL    HW119007   3.499   3.048  11.853  1.1481  0.8569 -0.8509
 2457SOL    HW219008   3.623   3.028  11.781  1.0822  0.5703  0.2050
 2458SOL     OW19009   4.265   3.376   2.961 -0.1697 -0.4104  0.0641
 2458SOL    HW119010   4.283   3.376   2.867 -1.4080  0.5831 -0.1736
 2458SOL    HW219011   4.173   3.352   2.970 -0.3014 -0.3285 -1.0878
 2459SOL     OW19012   1.716   4.348   8.170  0.3328 -0.0696 -0.6653
 2459SOL    HW119013   1.777   4.304   8.228 -0.5827  0.1852  0.4860
 2459SOL    HW219014   1.646   4.355   8.235  0.7085  2.0679 -0.4895
 2460SOL     OW19015   4.175   3.395   1.614  0.3314 -0.0854  0.3994
 2460SOL    HW119016   4.151   3.426   1.702  2.7582  0.9420  0.6903
 2460SOL    HW219017   4.130   3.311   1.605 -0.0992  0.1179  0.6441
 2461SOL     OW19018   3.962   0.700   9.738 -0.0385 -0.2989  0.2514
 2461SOL    HW119019   3.935   0.789   9.719 -0.4130 -0.4265  0.1929
 2461SOL    HW219020   3.964   0.710   9.834 -0.3567  0.6696  0.1547
 2462SOL     OW19021   3.817   3.100   6.305  0.4600 -0.3689  0.4123
 2462SOL    HW119022   3.821   3.165   6.375 -0.1300  1.1708 -0.9907
 2462SOL    HW219023   3.912   3.104   6.296  0.2921  0.5095 -0.9636
 2463SOL     OW19024   3.329   2.304   3.886  0.2020 -0.5023 -0.1193
 2463SOL    HW119025   3.401   2.361   3.911 -0.6711  1.1666 -1.4167
 2463SOL    HW219026   3.283   2.363   3.825  0.4210  0.4137  0.6044
 2464SOL     OW19027   2.993   2.699   5.256  0.2253 -0.5689  0.4595
 2464SOL    HW119028   3.024   2.654   5.177 -0.7857 -2.5133  1.1566
 2464SOL    HW219029   2.912   2.651   5.274  0.1262 -0.5112  0.1564
 2465SOL     OW19030   1.508   4.606   8.576 -0.2288 -0.0408  0.3029
 2465SOL    HW119031   1.457   4.537   8.533 -0.0969  0.2804 -0.3625
 2465SOL    HW219032   1.553   4.652   8.505  0.6266 -0.4521  0.5718
 2466SOL     OW19033   4.292   1.066  14.377 -0.0806  0.2325  0.0041
 2466SOL    HW119034   4.286   1.157  14.404  1.2889  0.3654 -0.1557
 2466SOL    HW219035   4.243   1.061  14.294 -0.5428 -2.0947  0.4256
 2467SOL     OW19036   2.176   1.908   0.419  0.3339  0.4020  0.0991
 2467SOL    HW119037   2.190   1.925   0.512 -0.9851 -3.3635  0.9813
 2467SOL    HW219038   2.096   1.961   0.418 -0.6699 -1.1043  0.3659
 2468SOL     OW19039   1.174   1.757   3.340 -0.6785  0.0030 -0.5445
 2468SOL    HW119040   1.157   1.816   3.414  0.9312 -0.4563  0.1943
 2468SOL    HW219041   1.121   1.683   3.368 -0.1378 -0.7850 -1.5880
 2469SOL     OW19042   1.251   2.107   9.710 -0.8670  0.6279  0.4449
 2469SOL    HW119043   1.174   2.163   9.706 -2.2669 -1.2666  0.5654
 2469SOL    HW219044   1.321   2.168   9.731  1.5208 -1.8090 -0.4815
 2470SOL     OW19045   2.637   2.537   3.498 -1.1435  0.0308  0.3278
 2470SOL    HW119046   2.548   2.539   3.464 -0.7116 -1.3710 -0.8613
 2470SOL    HW219047   2.679   2.597   3.436  1.5769 -0.7922  1.3647
 2471SOL     OW19048   3.516   3.376   9.080  0.0092  0.5474  0.1991
 2471SOL    HW119049   3.442   3.411   9.030 -0.1293 -1.1233 -0.7707
 2471SOL    HW219050   3.513   3.286   9.048  1.0160  0.9240 -0.9295
 2472SOL     OW19051   2.611   3.105  17.006 -0.1464  0.2640  0.9624
 2472SOL    HW119052   2.678   3.049  16.965  1.4137  2.0639  1.0652
 2472SOL    HW219053   2.617   3.186  16.957 -1.5274 -2.0916 -3.1165
 2473SOL     OW19054   0.432   0.350   4.324 -0.6070  0.1699 -0.0671
 2473SOL    HW119055   0.453   0.278   4.383 -1.4109  0.4390  0.5455
 2473SOL    HW219056   0.372   0.299   4.270  1.2135 -1.1277 -0.8280
 2474SOL     OW19057   3.164   1.675  17.397 -0.2017 -0.0648  0.1683
 2474SOL    HW119058   3.193   1.638  17.480  2.0196 -0.0572 -0.6124
 2474SOL    HW219059   3.207   1.621  17.330  0.3692  0.8801 -0.2332
 2475SOL     OW19060   1.374   1.387   3.840  0.2213  0.0952 -0.0071
 2475SOL    HW119061   1.317   1.339   3.780 -0.1627 -0.7373  1.0438
 2475SOL    HW219062   1.318   1.393   3.917  2.1683  0.5833  1.3692
 2476SOL     OW19063   4.129   0.633  13.393 -0.0009 -0.7360  0.1259
 2476SOL    HW119064   4.221   0.653  13.375 -0.1093  0.0040  0.4156
 2476SOL    HW219065   4.134   0.544  13.429  0.2670 -0.3543  1.0377
 2477SOL     OW19066   1.411   4.628   2.790  0.5517 -0.2036 -0.0025
 2477SOL    HW119067   1.415   4.546   2.742 -0.4234  0.2617 -0.8953
 2477SOL    HW219068   1.466   4.592   2.859  0.3077  1.3801  1.0213
 2478SOL     OW19069   3.649   2.188   5.861  0.2722  0.4048 -0.1330
 2478SOL    HW119070   3.622   2.267   5.907 -2.0306 -0.9653  0.8679
 2478SOL    HW219071   3.745   2.189   5.866  0.4268  1.9757 -3.0584
 2479SOL     OW19072   1.583   4.600  17.356 -1.0298 -0.1262  0.4371
 2479SOL    HW119073   1.623   4.565  17.276 -2.5814  2.2335 -1.3718
 2479SOL    HW219074   1.656   4.598  17.419 -2.1686  0.3664  1.7638
 2480SOL     OW19075   2.825   3.450   9.430 -0.0125 -0.1185  0.1897
 2480SOL    HW119076   2.774   3.406   9.498 -0.5908 -0.2088 -0.3038
 2480SOL    HW219077   2.817   3.540   9.463  0.9768  0.2692 -0.6564
 2481SOL     OW19078   3.163   4.731   2.263  0.4308  0.5327  0.1649
 2481SOL    HW119079   3.175   4.730   2.358 -2.9587 -0.6598  0.5687
 2481SOL    HW219080   3.073   0.028   2.258  0.6894  1.7233  2.9377
 2482SOL     OW19081   0.968   3.394  13.373 -0.2721 -0.6692  0.7351
 2482SOL    HW119082   0.955   3.303  13.400  0.1382 -1.0334 -0.3357
 2482SOL    HW219083   0.995   3.437  13.454  1.4406  0.7783 -0.6188
 2483SOL     OW19084   3.768   2.617   8.201 -0.1611 -0.3414  0.2480
 2483SOL    HW119085   3.706   2.676   8.243 -0.3950 -0.9895  0.8121
 2483SOL    HW219086   3.841   2.677   8.214 -1.4979  1.3985 -0.3125
 2484SOL     OW19087   3.594   1.744  16.473  0.1245  0.5284 -0.1922
 2484SOL    HW119088   3.614   1.770  16.563 -1.4503 -1.2756  0.7008
 2484SOL    HW219089   3.562   1.823  16.430 -1.7149 -0.6309 -0.9290
 2485SOL     OW19090   2.541   0.260   7.059  0.2490  0.0606  0.5837
 2485SOL    HW119091   2.626   0.246   7.099  0.6130 -2.2315 -0.9793
 2485SOL    HW219092   2.492   0.185   7.094 -1.4838  0.7642 -0.2837
 2486SOL     OW19093   2.184   1.411   5.446  0.2752 -0.5327 -0.7488
 2486SOL    HW119094   2.116   1.478   5.432 -0.2332 -1.2294 -1.6658
 2486SOL    HW219095   2.161   1.347   5.379 -1.2324 -1.2400  0.4463
 2487SOL     OW19096   0.628   3.609  11.670 -0.8814  0.1088  0.6606
 2487SOL    HW119097   0.660   3.584  11.584 -0.3282  1.4683  0.4673
 2487SOL    HW219098   0.548   3.559  11.678  0.4527 -1.9637  0.9222
 2488SOL     OW19099   4.153   4.237   9.441 -0.1467 -0.4352  0.1542
 2488SOL    HW119100   4.091   4.165   9.433 -1.2563  0.7048 -1.3739
 2488SOL    HW219101   4.235   4.187   9.434 -0.1335 -0.5958  1.5419
 2489SOL     OW19102   0.843   2.361   5.205 -0.0268  0.0970  0.4824
 2489SOL    HW119103   0.877   2.355   5.116 -0.8398 -2.6333  0.3527
 2489SOL    HW219104   0.921   2.369   5.260 -0.8412 -1.4007  1.8596
 2490SOL     OW19105   1.520   0.176   7.381 -0.6744  0.4961  0.1672
 2490SOL    HW119106   1.574   0.103   7.413 -0.8587  0.9952  1.6275
 2490SOL    HW219107   1.442   0.155   7.431 -1.3799  2.3131 -0.1616
 2491SOL     OW19108   0.201   3.696   5.873  0.1011  0.4441  0.7432
 2491SOL    HW119109   0.254   3.651   5.806 -1.3311  1.3927 -1.0467
 2491SOL    HW219110   0.204   3.785   5.837  1.6222 -0.7920 -2.2437
 2492SOL     OW19111   2.438   1.334   1.095 -0.1024 -0.2389  0.1743
 2492SOL    HW119112   2.469   1.397   1.160  1.2745 -2.1256  1.3648
 2492SOL    HW219113   2.401   1.269   1.155 -0.1776 -0.8186 -0.5023
 2493SOL     OW19114   1.946   2.883   5.838  0.1134 -0.6682 -0.4451
 2493SOL    HW119115   2.020   2.835   5.875 -0.4900 -3.6525 -3.1537
 2493SOL    HW219116   1.991   2.962   5.807 -1.1275  0.9074  1.7001
 2494SOL     OW19117   3.563   4.460   2.080 -0.1200  0.1503 -0.1034
 2494SOL    HW119118   3.624   4.453   2.153  0.0308 -0.3084 -0.2772
 2494SOL    HW219119   3.490   4.407   2.113 -0.4867 -0.3142 -1.6514
 2495SOL     OW19120   1.446   0.046   4.973  0.3193  0.0137  0.0149
 2495SOL    HW119121   1.490   0.129   4.954  0.6382  0.1442  1.3725
 2495SOL    HW219122   1.412   0.027   4.885  0.6601 -1.8580  0.2772
 2496SOL     OW19123   1.259   3.440   8.406  0.0419  0.3196 -0.4377
 2496SOL    HW119124   1.204   3.393   8.468 -0.5362  0.2567 -0.9963
 2496SOL    HW219125   1.199   3.474   8.339  0.1049  0.0163 -0.6456
 2497SOL     OW19126   2.431   2.278   5.969 -0.3030  0.2317 -0.1902
 2497SOL    HW119127   2.387   2.219   5.909  0.2336  0.9033 -1.2363
 2497SOL    HW219128   2.507   2.234   6.008  0.1887 -0.3165 -1.7918
 2498SOL     OW19129   0.905   2.568   8.004  1.0550 -0.0211  0.2740
 2498SOL    HW119130   0.870   2.494   8.054 -0.5849 -0.3499 -1.3400
 2498SOL    HW219131   0.956   2.524   7.936  0.7648 -1.2370  0.8492
 2499SOL     OW19132   4.351   3.684   6.855 -0.0563 -0.1310  0.2862
 2499SOL    HW119133   4.274   3.684   6.798  0.3823 -4.8458 -0.3573
 2499SOL    HW219134   4.350   3.591   6.879  2.7222  0.4272  2.5095
 2500SOL     OW19135   1.997   0.264  15.542  0.9121 -0.2841 -0.0181
 2500SOL    HW119136   2.008   0.229  15.453 -0.2103 -2.2472  0.6313
 2500SOL    HW219137   2.043   0.203  15.599 -0.3319 -0.4439  0.7960
 2501SOL     OW19138   3.239   4.443   5.487  0.3577  0.7867  0.0659
 2501SOL    HW119139   3.282   4.480   5.410  3.3621 -1.0489  0.8882
 2501SOL    HW219140   3.208   4.358   5.455 -1.2141  0.9278  1.2031
 2502SOL     OW19141   2.569   2.545   7.943  0.3416  0.0213  0.2219
 2502SOL    HW119142   2.645   2.489   7.961  0.8318  0.2639 -1.0970
 2502SOL    HW219143   2.500   2.480   7.957  1.1471 -0.5095  1.7457
 2503SOL     OW19144   1.471   2.935   3.903 -0.0724 -0.3588  0.0928
 2503SOL    HW119145   1.496   2.850   3.941  0.0166 -0.2229  0.3367
 2503SOL    HW219146   1.557   2.974   3.912 -0.0715  0.0987 -2.0645
 2504SOL     OW19147   4.704   3.224  13.421  0.0948 -0.3596  0.9953
 2504SOL    HW119148   0.001   3.142  13.459  1.3880 -0.1984  0.2380
 2504SOL    HW219149   4.623   3.233  13.471  1.5772  1.9492  3.0344
 2505SOL     OW19150   3.089   0.254   2.032  0.0683  0.2084 -0.4986
 2505SOL    HW119151   3.151   0.298   2.090  0.7452  0.2684 -1.2599
 2505SOL    HW219152   3.138   0.175   2.008 -1.6477 -1.2108  0.6805
 2506SOL     OW19153   2.679   2.226   2.823  0.0577  0.1260 -0.8138
 2506SOL    HW119154   2.654   2.249   2.733 -0.0847 -0.7124 -0.9872
 2506SOL    HW219155   2.699   2.305   2.874 -2.3964  0.6859 -0.7501
 2507SOL     OW19156   4.011   4.523   2.195  0.6070  0.0129 -0.2384
 2507SOL    HW119157   4.004   4.484   2.282 -0.6392 -0.9435 -0.7651
 2507SOL    HW219158   4.051   4.460   2.136  1.0897  0.2570 -0.1729
 2508SOL     OW19159   2.681   3.387   8.134  0.2791  0.8102 -0.3778
 2508SOL    HW119160   2.743   3.360   8.066 -0.0262 -1.1616  0.1181
 2508SOL    HW219161   2.690   3.482   8.137 -1.2371  0.9607 -0.2664
 2509SOL     OW19162   2.871   2.548  13.297 -0.1389 -1.1367 -0.0597
 2509SOL    HW119163   2.879   2.585  13.385  0.5045  1.4757 -1.2093
 2509SOL    HW219164   2.960   2.512  13.291  0.5635  0.6162 -0.1150
 2510SOL     OW19165   0.610   1.916   2.922 -0.3844 -0.0195 -0.4288
 2510SOL    HW119166   0.583   1.897   2.832  2.3513  0.9746 -1.4360
 2510SOL    HW219167   0.639   1.825   2.928 -1.5258 -0.5502 -2.7945
 2511SOL     OW19168   0.418   2.912   3.644  0.0760 -0.2660 -0.0179
 2511SOL    HW119169   0.401   2.951   3.558  0.9981  0.3971  0.1133
 2511SOL    HW219170   0.489   2.966   3.678  0.9900 -1.0969 -0.5865
 2512SOL     OW19171   3.549   3.453   7.634 -0.0152 -0.0521  0.4560
 2512SOL    HW119172   3.602   3.528   7.608 -0.6218  0.7923  1.6757
 2512SOL    HW219173   3.609   3.389   7.597  1.7304  2.1434 -0.4482
 2513SOL     OW19174   1.104   1.896   6.091  0.0520  0.0194  0.6034
 2513SOL    HW119175   1.189   1.853   6.104  0.0860  0.7927  2.9983
 2513SOL    HW219176   1.124   1.990   6.086 -1.1924  0.3449  1.6451
 2514SOL     OW19177   3.879   2.801   6.255 -0.0007 -0.1237 -0.8174
 2514SOL    HW119178   3.845   2.882   6.293 -0.0419 -1.0137  1.0244
 2514SOL    HW219179   3.961   2.840   6.222  0.4772 -1.6242 -1.3999
 2515SOL     OW19180   4.336   0.457  16.843  0.4049  0.1362 -0.7025
 2515SOL    HW119181   4.349   0.551  16.832 -1.5654  0.5155  0.2712
 2515SOL    HW219182   4.244   0.441  16.863  0.8601  0.8518  1.9878
 2516SOL     OW19183   4.325   3.328   7.819  0.1148  0.8672 -0.1046
 2516SOL    HW119184   4.240   3.316   7.777 -0.5407  1.1444  1.1191
 2516SOL    HW219185   4.340   3.234   7.828  1.2286  1.0661  0.1861
 2517SOL     OW19186   0.810   4.633   6.653  0.0640  0.9978 -0.1545
 2517SOL    HW119187   0.811   4.644   6.748 -1.3905 -0.1772 -0.0137
 2517SOL    HW219188   0.869   4.698   6.614  2.5180 -0.0824  1.7328
 2518SOL     OW19189   1.040   1.680   1.424 -0.0833  0.2983  0.5192
 2518SOL    HW119190   1.103   1.747   1.399 -1.8717  0.6357 -3.0866
 2518SOL    HW219191   1.104   1.609   1.429  0.6391  0.9424  0.4097
 2519SOL     OW19192   1.915   1.185  17.378  0.4388  0.2912 -0.5214
 2519SOL    HW119193   1.887   1.168  17.288  1.0486 -0.3294 -0.5996
 2519SOL    HW219194   1.980   1.117  17.395 -0.9819 -1.0166 -0.3288
 2520SOL     OW19195   1.209   2.790  10.005 -0.5032  0.3062  0.2149
 2520SOL    HW119196   1.144   2.741   9.954 -0.9799 -0.7797  1.8455
 2520SOL    HW219197   1.217   2.873   9.958 -0.0446 -1.6943 -3.2309
 2521SOL     OW19198   1.217   4.244   9.308  0.0041 -0.6419  0.4865
 2521SOL    HW119199   1.168   4.173   9.265 -1.6252  0.0071  1.2826
 2521SOL    HW219200   1.243   4.291   9.229  0.0592  1.8243  1.9917
 2522SOL     OW19201   3.030   2.653   6.032 -0.0662  0.8588 -0.3266
 2522SOL    HW119202   3.109   2.685   6.076  2.4768 -2.2248 -2.6279
 2522SOL    HW219203   3.041   2.558   6.040 -0.3295  0.9447  0.9966
 2523SOL     OW19204   1.700   0.008  13.567 -0.2986 -0.2734  0.0775
 2523SOL    HW119205   1.684   0.006  13.661  2.9586 -1.7259  0.6128
 2523SOL    HW219206   1.750   4.662  13.553 -0.3161 -0.4738  1.2255
 2524SOL     OW19207   0.379   0.793   1.939 -0.1834 -0.0542 -0.6270
 2524SOL    HW119208   0.462   0.762   1.904 -0.6567 -0.7149 -1.1710
 2524SOL    HW219209   0.356   0.715   1.990 -1.0190 -0.0558 -0.9976
 2525SOL     OW19210   0.341   3.826   0.913 -0.3647 -0.1828  0.1514
 2525SOL    HW119211   0.261   3.775   0.901  0.6010 -2.4846  3.4160
 2525SOL    HW219212   0.311   3.916   0.919  0.1112 -0.0643  0.7627
 2526SOL     OW19213   3.145   3.270  16.199 -0.4809  0.3892  0.1164
 2526SOL    HW119214   3.125   3.358  16.232 -2.1405  0.6803 -1.6824
 2526SOL    HW219215   3.232   3.288  16.166 -0.4869 -0.3558 -0.2875
 2527SOL     OW19216   2.438   1.449   5.922  0.3384  0.6336 -0.2197
 2527SOL    HW119217   2.382   1.405   5.986  0.6046  1.1262  0.3469
 2527SOL    HW219218   2.380   1.515   5.886 -0.2830 -0.4452 -1.2052
 2528SOL     OW19219   2.739   1.666  15.792 -0.0050 -0.2735  0.3931
 2528SOL    HW119220   2.821   1.711  15.810  1.4874 -2.6163 -0.5393
 2528SOL    HW219221   2.707   1.709  15.712 -0.8555 -0.8552  0.4097
 2529SOL     OW19222   2.791   0.698   7.903  0.3719  0.1346  0.1530
 2529SOL    HW119223   2.804   0.670   7.812 -1.3794 -0.2422  0.0045
 2529SOL    HW219224   2.712   0.646   7.920  1.3582 -1.7432 -1.0060
 2530SOL     OW19225   4.597   2.315   5.240 -0.0382  0.5361  0.4353
 2530SOL    HW119226   4.520   2.371   5.252 -1.6075 -1.7185  0.8297
 2530SOL    HW219227   4.566   2.242   5.293 -0.2211 -1.7135 -2.7834
 2531SOL     OW19228   3.493   3.859  16.695 -0.1109 -0.4155 -0.2372
 2531SOL    HW119229   3.571   3.894  16.737 -0.1063 -1.2525  0.4649
 2531SOL    HW219230   3.443   3.830  16.772  2.3644 -0.9630  1.1696
 2532SOL     OW19231   0.613   0.456   3.646  0.3883  0.1310  0.4755
 2532SOL    HW119232   0.567   0.528   3.602  1.2560  0.9685  0.9319
 2532SOL    HW219233   0.585   0.387   3.587 -1.4213  1.1910  0.0835
 2533SOL     OW19234   3.094   2.361   6.007 -0.0975  0.7876 -0.6646
 2533SOL    HW119235   3.125   2.370   5.916 -0.7440 -0.1468 -0.9813
 2533SOL    HW219236   2.999   2.351   5.994 -0.3117  0.5517  1.1694
 2534SOL     OW19237   0.845   1.163  12.560 -0.5056 -0.0467 -0.0541
 2534SOL    HW119238   0.831   1.074  12.529  0.1095 -0.0181 -0.4096
 2534SOL    HW219239   0.781   1.173  12.631  1.0681  0.6377  1.2630
 2535SOL     OW19240   1.301   2.444   5.959 -0.4671 -0.7364 -0.2583
 2535SOL    HW119241   1.380   2.486   5.926 -1.3778  0.0710 -1.4012
 2535SOL    HW219242   1.313   2.447   6.054 -2.7102  0.1149  0.0079
 2536SOL     OW19243   1.779   4.532   6.853 -0.2782  0.4456  0.4027
 2536SOL    HW119244   1.713   4.520   6.785  1.4916 -2.2931 -0.8366
 2536SOL    HW219245   1.730   4.565   6.928 -0.3495  1.7146 -0.1973
 2537SOL     OW19246   4.395   3.929   9.502  0.3740  0.3881 -0.4730
 2537SOL    HW119247   4.409   3.834   9.502  0.6893  0.4346  0.0218
 2537SOL    HW219248   4.335   3.955   9.572  0.3581 -0.2477 -0.2517
 2538SOL     OW19249   3.489   4.365   4.109  0.1976 -0.1485  0.0698
 2538SOL    HW119250   3.499   4.445   4.056 -0.4479  1.2735  2.1061
 2538SOL    HW219251   3.516   4.398   4.195 -1.1431 -0.6019  0.6646
 2539SOL     OW19252   3.784   2.015   3.701  0.2155  0.1850  0.0148
 2539SOL    HW119253   3.850   1.985   3.639 -0.0572  0.2163 -0.2870
 2539SOL    HW219254   3.791   1.947   3.768  2.1889  1.0667  0.7080
 2540SOL     OW19255   3.910   4.512  12.076  0.2334 -0.0323 -0.4727
 2540SOL    HW119256   3.945   4.601  12.069 -2.5328  1.0895  0.1755
 2540SOL    HW219257   3.938   4.487  12.165 -0.8287  1.2750  0.2191
 2541SOL     OW19258   2.176   3.709   9.180  0.2635 -0.3806  0.0734
 2541SOL    HW119259   2.172   3.678   9.090  1.0406  2.3789 -0.9083
 2541SOL    HW219260   2.183   3.803   9.164 -0.1585 -1.0506 -3.9482
 2542SOL     OW19261   2.981   0.868   6.123  0.1067 -0.4912  0.1977
 2542SOL    HW119262   3.076   0.854   6.115 -0.3156 -1.7724 -2.6218
 2542SOL    HW219263   2.967   0.841   6.214 -0.1370  1.8664  0.8646
 2543SOL     OW19264   1.731   4.497   7.794  0.1911 -0.1692 -0.3645
 2543SOL    HW119265   1.764   4.423   7.743 -0.6013 -1.4810  1.0261
 2543SOL    HW219266   1.778   4.556   7.735 -3.7930 -0.8011 -4.1912
 2544SOL     OW19267   0.702   0.011   7.245 -0.6354  0.3894 -0.3365
 2544SOL    HW119268   0.636   4.697   7.197 -0.6824  2.3926 -2.3744
 2544SOL    HW219269   0.753   4.674   7.280  1.2633  0.8161 -2.2577
 2545SOL     OW19270   2.475   3.243   3.663 -0.2188  0.0340 -0.3321
 2545SOL    HW119271   2.535   3.171   3.682 -1.1749 -0.5537  0.4721
 2545SOL    HW219272   2.528   3.320   3.683  0.2991 -0.0545 -1.3500
 2546SOL     OW19273   2.106   3.259  12.854  0.1285 -0.0870  0.1243
 2546SOL    HW119274   2.166   3.235  12.925 -0.5335  2.6890  1.6462
 2546SOL    HW219275   2.048   3.313  12.907 -0.7622 -0.2216 -0.7231
 2547SOL     OW19276   1.670   2.890  13.471  0.2048 -0.7422 -0.2545
 2547SOL    HW119277   1.599   2.836  13.504 -0.2562 -0.9699 -1.6199
 2547SOL    HW219278   1.747   2.835  13.486 -0.3703 -1.7585 -1.0445
 2548SOL     OW19279   1.968   0.668   7.308 -0.5183 -0.4474  0.5810
 2548SOL    HW119280   2.063   0.674   7.299 -0.5947 -0.2450 -0.0660
 2548SOL    HW219281   1.947   0.723   7.233 -2.7285 -0.4514  1.1985
 2549SOL     OW19282   3.521   3.885  12.821 -0.5843 -0.3464 -0.6677
 2549SOL    HW119283   3.513   3.872  12.727 -2.0619 -0.4037 -0.5473
 2549SOL    HW219284   3.607   3.847  12.834 -0.7389 -0.2456  0.6623
 2550SOL     OW19285   3.259   0.706   1.564  0.2778 -0.1265 -0.5077
 2550SOL    HW119286   3.242   0.657   1.483  1.6098 -1.1505 -0.1712
 2550SOL    HW219287   3.316   0.642   1.607 -0.7506 -1.9084 -1.7598
 2551SOL     OW19288   2.992   2.545   8.233  0.0443 -0.1387 -0.7221
 2551SOL    HW119289   3.024   2.636   8.235  0.9426 -0.4303 -2.1848
 2551SOL    HW219290   3.006   2.526   8.326 -1.5707 -0.6811 -0.5816
 2552SOL     OW19291   3.466   0.909  12.524 -0.1116  0.3356 -0.1647
 2552SOL    HW119292   3.387   0.888  12.574 -0.9598  3.1915 -0.2803
 2552SOL    HW219293   3.493   0.817  12.524 -3.4321 -0.6399 -1.3422
 2553SOL     OW19294   3.512   3.628   9.543 -0.6064 -0.1232  0.0041
 2553SOL    HW119295   3.516   3.542   9.585 -1.6321  1.2931  3.0266
 2553SOL    HW219296   3.495   3.599   9.454 -2.0095  0.1999  0.1699
 2554SOL     OW19297   4.414   3.427   6.199 -0.5228 -0.3357 -0.5939
 2554SOL    HW119298   4.410   3.400   6.290  1.4204 -1.1877 -0.7773
 2554SOL    HW219299   4.509   3.434   6.192 -0.4195 -0.6009  0.6686
 2555SOL     OW19300   3.710   2.026   9.745  0.2014  0.1941 -0.0253
 2555SOL    HW119301   3.738   2.117   9.759  0.7661  0.0589 -0.2694
 2555SOL    HW219302   3.647   2.017   9.816 -0.1249  0.6507 -0.2518
 2556SOL     OW19303   4.523   2.651   6.757 -0.1359 -0.3442  0.2831
 2556SOL    HW119304   4.589   2.608   6.703 -1.4799 -2.3655  0.2180
 2556SOL    HW219305   4.469   2.576   6.785 -0.6384 -0.1461 -0.1541
 2557SOL     OW19306   1.801   2.895   5.279 -0.0180 -0.0083 -0.4306
 2557SOL    HW119307   1.857   2.826   5.244  0.7578 -0.4059  1.5953
 2557SOL    HW219308   1.722   2.887   5.225 -1.7894  0.2164  2.0949
 2558SOL     OW19309   2.226   2.277   9.600  0.1046 -0.3988 -0.2991
 2558SOL    HW119310   2.315   2.304   9.625  0.0654 -0.8022  0.2727
 2558SOL    HW219311   2.241   2.261   9.507 -0.2641 -0.0428 -0.4144
 2559SOL     OW19312   0.762   1.325   6.778 -0.0851 -0.1855 -0.4030
 2559SOL    HW119313   0.766   1.420   6.766 -0.5684 -0.4997 -2.9857
 2559SOL    HW219314   0.671   1.317   6.807  0.0968 -0.4171  0.1150
 2560SOL     OW19315   3.089   4.344   7.366 -0.1490  0.2720  0.1996
 2560SOL    HW119316   3.007   4.326   7.414 -1.0661  0.7895 -1.2033
 2560SOL    HW219317   3.075   4.436   7.346 -2.5648 -0.0483  0.3415
 2561SOL     OW19318   4.616   1.151   2.679 -0.4957 -0.0198  0.0788
 2561SOL    HW119319   4.619   1.242   2.710 -0.3455  0.7947 -2.3395
 2561SOL    HW219320   4.525   1.121   2.684 -1.0543  1.5601 -0.8200
 2562SOL     OW19321   3.259   2.335   8.591  0.3764 -0.0052 -0.1131
 2562SOL    HW119322   3.260   2.293   8.677 -0.2960 -1.1511 -0.6614
 2562SOL    HW219323   3.349   2.320   8.563  0.3225  2.0510 -1.3901
 2563SOL     OW19324   4.047   2.161  11.780 -0.4020  0.1316  0.2965
 2563SOL    HW119325   3.953   2.153  11.762 -0.4630  2.1122 -0.2252
 2563SOL    HW219326   4.071   2.130  11.693  0.2170 -0.8156  0.8020
 2564SOL     OW19327   1.622   0.080   1.222  0.1121 -0.1793 -0.5924
 2564SOL    HW119328   1.659   0.169   1.225  0.6685 -0.4150 -0.4587
 2564SOL    HW219329   1.534   0.093   1.187  0.1643  0.5473 -0.4619
 2565SOL     OW19330   3.042   3.790   8.624  0.9237  0.6732 -1.0697
 2565SOL    HW119331   2.946   3.785   8.626  0.9062  1.5286 -0.0670
 2565SOL    HW219332   3.063   3.826   8.710 -0.6756 -1.2808  0.1512
 2566SOL     OW19333   0.720   1.945   0.221  0.2057 -0.5538 -0.5324
 2566SOL    HW119334   0.672   2.000   0.159  0.8818 -0.6329 -1.1216
 2566SOL    HW219335   0.698   1.993   0.300  0.8452 -1.0632 -0.0475
 2567SOL     OW19336   3.286   1.783   8.245 -0.2431 -0.1912  0.4964
 2567SOL    HW119337   3.378   1.763   8.259 -0.0459 -0.2277 -0.8374
 2567SOL    HW219338   3.273   1.762   8.153  1.1228  0.0190  0.2615
 2568SOL     OW19339   1.834   0.262   5.473  0.1077  0.5098 -0.1610
 2568SOL    HW119340   1.754   0.209   5.476  0.2783  0.1576 -1.7861
 2568SOL    HW219341   1.895   0.208   5.424  0.6620 -0.5439  1.7206
 2569SOL     OW19342   3.155   3.988   6.283 -0.4531 -0.2754  0.6827
 2569SOL    HW119343   3.218   4.017   6.349 -1.1330  2.5183  0.0832
 2569SOL    HW219344   3.209   3.955   6.211  0.3611  2.0617  0.2455
 2570SOL     OW19345   3.934   1.797   7.593 -0.5403  0.3667  0.0747
 2570SOL    HW119346   3.854   1.767   7.551  0.5882  0.2857 -2.0193
 2570SOL    HW219347   3.971   1.711   7.612  0.0111  0.9204  1.5165
 2571SOL     OW19348   2.523   1.348   6.375  0.0622  0.5135  0.2512
 2571SOL    HW119349   2.588   1.388   6.432  0.0395  1.0911 -0.1315
 2571SOL    HW219350   2.449   1.340   6.435 -0.6571 -1.2822 -0.8627
 2572SOL     OW19351   0.002   1.686   5.304  0.3898  0.7398 -0.0965
 2572SOL    HW119352   0.031   1.595   5.313 -1.0007  0.4004  0.8699
 2572SOL    HW219353   0.081   1.735   5.327  2.5280 -2.7527 -0.0528
 2573SOL     OW19354   3.025   1.035   3.393  0.3054 -0.5792 -0.0171
 2573SOL    HW119355   2.947   1.091   3.395  0.7887  0.1402 -1.0746
 2573SOL    HW219356   3.067   1.054   3.476  2.2477 -0.0820 -1.1178
 2574SOL     OW19357   2.745   3.150   7.726  0.0978  0.4043 -0.9346
 2574SOL    HW119358   2.833   3.124   7.701  0.7916  0.1135  1.8333
 2574SOL    HW219359   2.687   3.077   7.707  0.6823 -1.0047  2.6327
 2575SOL     OW19360   0.526   3.570   1.360  0.5667 -0.0621  0.0182
 2575SOL    HW119361   0.610   3.550   1.320 -1.0063  0.3878 -3.5857
 2575SOL    HW219362   0.478   3.488   1.346 -1.0860  1.1565 -1.5015
 2576SOL     OW19363   1.734   3.814   9.093 -0.2775 -0.3252  0.1882
 2576SOL    HW119364   1.753   3.856   9.176 -3.2964 -0.5452  1.0074
 2576SOL    HW219365   1.679   3.876   9.045 -0.8624  0.0339  1.3210
 2577SOL     OW19366   1.828   2.097   7.189  0.0755  0.1081  0.1295
 2577SOL    HW119367   1.863   2.009   7.176  1.1137  0.3393  1.2691
 2577SOL    HW219368   1.908   2.145   7.211  0.6257 -0.6963 -0.1103
 2578SOL     OW19369   2.452   2.827   4.685  0.1596  0.3798 -0.2580
 2578SOL    HW119370   2.420   2.863   4.768  0.9717  0.1489  0.1599
 2578SOL    HW219371   2.387   2.843   4.616 -0.9550 -1.8181  0.2951
 2579SOL     OW19372   4.328   3.590   0.875  0.1459 -0.0114  0.0486
 2579SOL    HW119373   4.360   3.645   0.804  0.3626  1.9317  1.6659
 2579SOL    HW219374   4.239   3.563   0.851  0.1268  0.3849 -0.3300
 2580SOL     OW19375   4.411   2.437   6.894 -0.0826 -0.2299  0.3064
 2580SOL    HW119376   4.476   2.461   6.959  0.4459 -2.1721  0.4794
 2580SOL    HW219377   4.404   2.343   6.908  0.5053 -0.4233 -0.6548
 2581SOL     OW19378   2.825   2.550   3.708  0.3039 -0.0612  0.0990
 2581SOL    HW119379   2.807   2.520   3.797  2.1260 -1.6366 -0.0849
 2581SOL    HW219380   2.739   2.534   3.667  0.2563 -0.5172  0.3781
 2582SOL     OW19381   0.619   4.495  12.584  0.2286  0.4732  0.1441
 2582SOL    HW119382   0.706   4.478  12.620 -0.0800 -1.9090 -0.2553
 2582SOL    HW219383   0.603   4.409  12.545 -2.4617  0.4650  1.2879
 2583SOL     OW19384   3.586   2.874  14.217 -1.0128 -0.8286 -0.2330
 2583SOL    HW119385   3.625   2.805  14.271  0.6645  0.5030  0.2832
 2583SOL    HW219386   3.641   2.889  14.140 -0.9150 -2.0071 -0.3944
 2584SOL     OW19387   0.777   3.371   5.978 -0.2004 -0.2490  0.8001
 2584SOL    HW119388   0.834   3.423   5.922  0.7495 -2.0888  0.0705
 2584SOL    HW219389   0.841   3.301   5.991  0.3343  0.0332 -0.3230
 2585SOL     OW19390   2.550   0.683   5.416  0.0158 -0.5616 -0.4754
 2585SOL    HW119391   2.585   0.631   5.488 -0.3281 -1.4687 -0.9730
 2585SOL    HW219392   2.513   0.756   5.466  0.0620  0.8104 -2.4176
 2586SOL     OW19393   1.231   4.166   3.353  0.4215 -0.8704 -0.3946
 2586SOL    HW119394   1.262   4.254   3.333  0.8177 -0.6801  1.0233
 2586SOL    HW219395   1.261   4.117   3.277  0.8887 -1.2349  0.0208
 2587SOL     OW19396   4.416   2.520   7.444  0.1059 -0.1808  0.3892
 2587SOL    HW119397   4.370   2.593   7.486 -0.7132  1.1183 -2.6989
 2587SOL    HW219398   4.496   2.504   7.494  1.3791  1.6767 -1.0350
 2588SOL     OW19399   0.947   0.387   6.953 -0.0589 -0.2855 -0.1740
 2588SOL    HW119400   0.900   0.378   7.036  0.1043  3.2879  0.3292
 2588SOL    HW219401   0.930   0.478   6.926 -1.7484 -0.1146  1.4980
 2589SOL     OW19402   1.897   1.387   2.364  0.1298  0.0556  0.3697
 2589SOL    HW119403   1.867   1.312   2.313  1.2000  2.5193 -3.8520
 2589SOL    HW219404   1.989   1.358   2.366  0.2897  0.5235 -0.3130
 2590SOL     OW19405   4.327   2.713   6.424  0.1709  0.0279  0.0590
 2590SOL    HW119406   4.366   2.781   6.369 -0.0457  1.4425  1.6625
 2590SOL    HW219407   4.311   2.762   6.505  0.9791  1.0870 -0.4197
 2591SOL     OW19408   1.707   3.966   5.436  0.3933 -0.2616 -0.0834
 2591SOL    HW119409   1.630   3.911   5.423  0.0295  0.9273 -2.8629
 2591SOL    HW219410   1.691   3.988   5.528  1.9160 -2.5188  0.7453
 2592SOL     OW19411   2.158   2.528   9.014  0.5305 -0.0114 -0.2154
 2592SOL    HW119412   2.117   2.593   8.957 -3.0919 -0.3290  2.0401
 2592SOL    HW219413   2.107   2.450   8.991 -0.3078  0.4998 -0.0945
 2593SOL     OW19414   1.233   2.453   1.708  0.3072  0.1483 -0.1136
 2593SOL    HW119415   1.146   2.413   1.720  0.6382 -0.4792  0.1905
 2593SOL    HW219416   1.266   2.405   1.632 -3.5565 -0.0128 -1.6869
 2594SOL     OW19417   2.783   2.811   3.670  0.0956  0.6142  0.3871
 2594SOL    HW119418   2.836   2.731   3.669  0.6905  1.0101  0.2004
 2594SOL    HW219419   2.697   2.778   3.696  0.3112 -0.0857  0.2144
 2595SOL     OW19420   2.933   0.464   9.674 -0.0755  0.3702  0.1000
 2595SOL    HW119421   2.959   0.469   9.582 -1.0040  2.4826 -0.0542
 2595SOL    HW219422   2.965   0.548   9.707  0.6191 -0.1235  0.6933
 2596SOL     OW19423   2.508   0.029   5.654  0.4806  0.0575  0.1105
 2596SOL    HW119424   2.545   0.103   5.606 -2.3563  0.8791 -0.7626
 2596SOL    HW219425   2.455   0.080   5.715 -0.2107 -2.4362  1.6076
 2597SOL     OW19426   3.960   2.426   4.215  0.0441  0.0173  0.2570
 2597SOL    HW119427   3.923   2.461   4.297 -1.0792 -0.3907 -0.0748
 2597SOL    HW219428   3.951   2.509   4.168  0.1985 -0.6897 -1.0063
 2598SOL     OW19429   1.225   3.206   4.184  0.0549 -0.2887  0.0030
 2598SOL    HW119430   1.170   3.163   4.250 -0.2447 -0.4564 -0.3511
 2598SOL    HW219431   1.149   3.232   4.132 -1.0266 -1.4262  0.9927
 2599SOL     OW19432   2.311   3.022   7.655 -0.2475 -0.1282 -0.5068
 2599SOL    HW119433   2.262   3.100   7.681 -0.5968 -0.2093 -0.9280
 2599SOL    HW219434   2.240   2.985   7.603 -1.8388 -1.6233  2.7441
 2600SOL     OW19435   2.517   3.149   6.863  0.2052 -0.4406  0.3093
 2600SOL    HW119436   2.456   3.102   6.920 -3.0864 -0.2074 -3.0017
 2600SOL    HW219437   2.466   3.207   6.806  0.7604 -1.0096 -0.7558
 2601SOL     OW19438   1.863   3.191   4.408  0.0379 -0.3082  1.0436
 2601SOL    HW119439   1.940   3.248   4.418  0.6449 -0.9835  0.1435
 2601SOL    HW219440   1.794   3.239   4.454 -0.7328 -1.3602  0.9563
 2602SOL     OW19441   3.555   0.301   3.117  0.1193 -0.0369  0.2138
 2602SOL    HW119442   3.522   0.213   3.136  1.6064 -0.5832  0.2501
 2602SOL    HW219443   3.521   0.347   3.193  0.1163  2.0783 -1.0815
 2603SOL     OW19444   3.830   1.530   8.143 -0.1697  0.3215 -0.2642
 2603SOL    HW119445   3.844   1.470   8.216 -1.6704 -0.7460 -0.8490
 2603SOL    HW219446   3.869   1.605   8.187  2.0844 -1.3366  0.5531
 2604SOL     OW19447   4.240   0.094  10.822  0.2676  0.2260 -0.0854
 2604SOL    HW119448   4.238   0.151  10.745 -2.0631 -1.5834 -1.3784
 2604SOL    HW219449   4.332   0.099  10.846 -0.0293  1.8373  0.7398
 2605SOL     OW19450   3.840   2.033   1.487 -0.1595 -0.1537 -0.2555
 2605SOL    HW119451   3.775   1.976   1.445 -2.2745  1.3320  0.9798
 2605SOL    HW219452   3.792   2.115   1.499 -1.9914 -1.4878  1.5090
 2606SOL     OW19453   1.903   0.706  11.870 -0.2788  0.1705 -0.0492
 2606SOL    HW119454   1.981   0.735  11.919 -0.4702 -0.7145  0.7895
 2606SOL    HW219455   1.828   0.735  11.922  0.2580  1.2193  0.1545
 2607SOL     OW19456   0.350   1.744   3.568 -0.1414  0.5009 -0.3549
 2607SOL    HW119457   0.270   1.749   3.516 -0.2716 -0.2279 -0.2236
 2607SOL    HW219458   0.393   1.826   3.545 -1.2220  0.8080 -1.3079
 2608SOL     OW19459   3.057   2.769   1.769  0.0608  0.2850 -0.1813
 2608SOL    HW119460   3.110   2.824   1.711  2.2185 -2.8503 -1.1905
 2608SOL    HW219461   3.003   2.827   1.823 -0.6981 -2.7254  2.3132
 2609SOL     OW19462   1.474   0.100  12.203 -0.5292  0.3111 -0.2856
 2609SOL    HW119463   1.461   0.187  12.239 -0.8110  0.0812  0.1599
 2609SOL    HW219464   1.395   0.086  12.151 -0.3285  0.2089 -0.5639
 2610SOL     OW19465   0.278   2.569   7.192 -0.4086  0.4361 -0.1940
 2610SOL    HW119466   0.252   2.598   7.280  2.5715 -2.3081  1.5675
 2610SOL    HW219467   0.278   2.476   7.213 -2.3715  0.5536  0.4083
 2611SOL     OW19468   3.194   3.083   6.515  0.3978 -0.6335  0.2588
 2611SOL    HW119469   3.177   3.004   6.567  0.2757 -0.2445  0.8051
 2611SOL    HW219470   3.110   3.110   6.480 -0.0481  0.8007  2.4667
 2612SOL     OW19471   2.158   3.675   3.246 -0.4608 -0.1023  0.1591
 2612SOL    HW119472   2.138   3.665   3.339 -0.1371  0.3700  0.2776
 2612SOL    HW219473   2.073   3.671   3.203 -0.7295 -1.8922  0.8731
 2613SOL     OW19474   3.521   4.049  13.897  0.1525  0.0666 -0.1242
 2613SOL    HW119475   3.450   3.986  13.905 -0.1163  0.1843 -1.5552
 2613SOL    HW219476   3.549   4.056  13.988 -0.7145 -2.2046  0.2889
 2614SOL     OW19477   3.554   0.195   3.825  0.2981  0.1003 -0.0154
 2614SOL    HW119478   3.572   0.220   3.915  1.0945  2.7128 -0.9020
 2614SOL    HW219479   3.634   0.151   3.797  0.1235 -1.1663  1.4534
 2615SOL     OW19480   4.419   1.877   3.734 -0.1790 -0.1081  0.0297
 2615SOL    HW119481   4.334   1.836   3.720  0.3522 -0.9836 -0.5963
 2615SOL    HW219482   4.442   1.897   3.644  2.9702 -0.1647  0.8293
 2616SOL     OW19483   3.993   2.703  10.413 -0.1152 -0.3918 -0.5399
 2616SOL    HW119484   3.979   2.741  10.325 -0.9841  2.1910  0.7070
 2616SOL    HW219485   3.902   2.698  10.441  0.2654 -1.7384  0.4058
 2617SOL     OW19486   0.031   3.607   1.734  0.1408  0.2733 -0.2231
 2617SOL    HW119487   0.063   3.695   1.753 -3.9448  1.2724  2.0542
 2617SOL    HW219488   0.059   3.549   1.805  0.1471 -0.1534 -0.5764
 2618SOL     OW19489   2.021   2.596   2.400  0.3597 -0.0044  0.0047
 2618SOL    HW119490   1.977   2.566   2.479  0.4804 -0.6950 -0.1906
 2618SOL    HW219491   1.957   2.660   2.368 -0.5274 -0.0592  1.6677
 2619SOL     OW19492   3.364   0.157   7.280  0.5335  0.3613 -0.3086
 2619SOL    HW119493   3.368   0.227   7.345 -1.5112 -1.9698  2.3509
 2619SOL    HW219494   3.379   0.082   7.338  1.2550  2.3608  2.0957
 2620SOL     OW19495   1.243   2.332   3.477 -0.1891 -0.6132 -1.0163
 2620SOL    HW119496   1.234   2.256   3.419 -1.7283  0.0434 -1.6155
 2620SOL    HW219497   1.308   2.301   3.541 -0.7174  1.5026  0.5285
 2621SOL     OW19498   3.541   4.560  17.369 -0.3212  0.0767 -0.4419
 2621SOL    HW119499   3.600   4.633  17.384 -2.5356  2.4211 -2.9890
 2621SOL    HW219500   3.457   4.598  17.395  2.0013  1.9567  4.2627
 2622SOL     OW19501   0.819   0.186   9.445 -0.0452  0.7992  0.3994
 2622SOL    HW119502   0.894   0.161   9.393 -1.3409 -3.3558  0.5747
 2622SOL    HW219503   0.784   0.267   9.406 -0.8883  0.0591 -0.3936
 2623SOL     OW19504   3.821   2.908   7.534  0.2343  0.4529  0.7701
 2623SOL    HW119505   3.834   2.822   7.575 -0.8414 -0.6860 -1.2680
 2623SOL    HW219506   3.743   2.892   7.481  0.3698 -2.1281  1.3466
 2624SOL     OW19507   0.367   0.557   3.961  0.1390 -0.3145 -1.1552
 2624SOL    HW119508   0.376   0.563   4.056  2.5337 -1.5538 -1.3138
 2624SOL    HW219509   0.403   0.642   3.937  1.2512 -0.9413 -1.6852
 2625SOL     OW19510   3.736   1.775   8.442 -0.3751  0.1664 -0.4208
 2625SOL    HW119511   3.809   1.759   8.383 -2.2587 -1.6902 -2.2315
 2625SOL    HW219512   3.765   1.865   8.456 -0.0895  0.0057  0.0390
 2626SOL     OW19513   3.612   1.179   3.405 -0.6634 -0.5535  0.1709
 2626SOL    HW119514   3.691   1.148   3.361 -1.4548  2.4819 -3.3857
 2626SOL    HW219515   3.625   1.273   3.398 -0.4570 -0.5245  0.9193
 2627SOL     OW19516   2.690   4.662   7.203 -0.6116  0.2249 -0.2141
 2627SOL    HW119517   2.681   4.568   7.188  0.3578 -0.2242  1.9151
 2627SOL    HW219518   2.639   4.677   7.283 -2.5874 -0.5890 -1.3353
 2628SOL     OW19519   2.504   1.039  11.750  0.2450  0.2760  0.4510
 2628SOL    HW119520   2.595   1.028  11.777  0.3000 -1.1607 -0.3468
 2628SOL    HW219521   2.505   1.028  11.654  0.5419  0.0925  0.4748
 2629SOL     OW19522   1.544   3.696   3.116 -0.5764 -0.3352  0.0596
 2629SOL    HW119523   1.610   3.656   3.059 -1.4218  3.4690 -3.5539
 2629SOL    HW219524   1.532   3.629   3.183  0.7735  0.4452  1.0863
 2630SOL     OW19525   4.207   4.460   7.821  0.2768  0.1590 -0.4315
 2630SOL    HW119526   4.126   4.501   7.790 -1.6600 -1.1311  2.8992
 2630SOL    HW219527   4.248   4.528   7.875  0.1575 -1.6140  1.8741
 2631SOL     OW19528   4.115   4.688   3.599  0.1093 -0.5106  0.0690
 2631SOL    HW119529   4.154   0.039   3.608 -1.0338  0.0779 -0.7686
 2631SOL    HW219530   4.026   4.718   3.610 -0.3153 -1.4404 -0.7794
 2632SOL     OW19531   3.355   2.532   4.626  0.1849  0.5277 -0.2054
 2632SOL    HW119532   3.269   2.549   4.588  0.3259 -0.5829 -1.0242
 2632SOL    HW219533   3.414   2.504   4.556  1.1323  0.0060  0.7918
 2633SOL     OW19534   1.050   4.495   9.378 -0.4715 -0.2630  0.4717
 2633SOL    HW119535   1.036   4.518   9.286 -3.5200 -1.0172  0.7314
 2633SOL    HW219536   1.123   4.435   9.391  0.6781  0.8919 -0.6479
 2634SOL     OW19537   3.655   1.547   6.648  0.3267  0.0458 -0.2116
 2634SOL    HW119538   3.657   1.452   6.640  2.5675 -0.0616  1.4401
 2634SOL    HW219539   3.568   1.558   6.609  0.1620 -1.2502 -0.2138
 2635SOL     OW19540   3.298   1.830  11.132  0.5242 -0.2172 -0.3996
 2635SOL    HW119541   3.290   1.747  11.179 -2.3051  0.7915  0.9081
 2635SOL    HW219542   3.382   1.861  11.166  1.0081 -1.6201 -0.3161
 2636SOL     OW19543   0.502   2.011   1.210  0.2382 -0.5470 -0.2405
 2636SOL    HW119544   0.526   1.919   1.221 -0.1985 -0.4960  1.0853
 2636SOL    HW219545   0.518   2.047   1.297 -1.1828  0.8995 -0.5724
 2637SOL     OW19546   3.426   2.214  15.849 -0.0813  0.2286  0.1652
 2637SOL    HW119547   3.424   2.287  15.787 -0.9917 -0.0238 -0.1019
 2637SOL    HW219548   3.337   2.180  15.845 -0.0783  0.3147 -0.5920
 2638SOL     OW19549   4.726   0.558   6.012  0.4798 -0.3565 -0.0034
 2638SOL    HW119550   4.714   0.522   6.100  0.6771  4.1305  1.8451
 2638SOL    HW219551   4.634   0.578   5.996  0.2889 -1.5299 -0.3749
 2639SOL     OW19552   0.056   2.088   6.497  0.3742 -0.1062 -0.6895
 2639SOL    HW119553   0.147   2.106   6.470  0.1769  0.9947 -0.6360
 2639SOL    HW219554   0.010   2.079   6.413 -2.6431 -0.3683  1.0067
 2640SOL     OW19555   1.264   2.346   4.069  0.0582 -0.0513 -0.3496
 2640SOL    HW119556   1.291   2.370   3.980 -1.3108  0.6630 -0.5710
 2640SOL    HW219557   1.171   2.327   4.057  0.1000  1.2327 -2.7265
 2641SOL     OW19558   3.475   1.779   8.512 -0.5707  0.3094 -0.5914
 2641SOL    HW119559   3.440   1.702   8.467  0.2844 -1.2672  1.4476
 2641SOL    HW219560   3.567   1.768   8.486 -0.5923 -2.0757  0.3173
 2642SOL     OW19561   3.168   0.821   8.795 -0.3527 -0.6442  0.6031
 2642SOL    HW119562   3.260   0.847   8.793  0.0756 -2.3159 -1.5205
 2642SOL    HW219563   3.157   0.783   8.882  1.8895 -0.0032  1.1816
 2643SOL     OW19564   3.428   4.465  13.779  0.2312 -0.0274 -0.3109
 2643SOL    HW119565   3.391   4.445  13.865 -2.6004 -1.9942 -1.9439
 2643SOL    HW219566   3.442   4.375  13.749 -1.5203  0.1649 -1.6940
 2644SOL     OW19567   0.993   2.995   3.848  0.0140  0.7582  0.8332
 2644SOL    HW119568   1.083   2.973   3.826  0.0550  1.0069  0.7522
 2644SOL    HW219569   0.956   2.922   3.898  1.6708 -0.2434  0.5811
 2645SOL     OW19570   1.752   1.768   2.600  0.2061  0.5683 -0.4005
 2645SOL    HW119571   1.817   1.732   2.539 -0.4722 -0.7314 -0.3666
 2645SOL    HW219572   1.775   1.726   2.683  0.3136  1.9225  0.2617
 2646SOL     OW19573   0.536   1.564   2.254  0.4453 -0.3741  0.0705
 2646SOL    HW119574   0.572   1.483   2.289  0.5292 -0.2573  0.2532
 2646SOL    HW219575   0.443   1.558   2.276  0.6259  0.3793  1.0092
 2647SOL     OW19576   3.260   4.592   7.442 -0.0948  0.1894  0.0002
 2647SOL    HW119577   3.278   4.570   7.350 -0.1517  4.5766 -1.0701
 2647SOL    HW219578   3.165   4.606   7.442 -0.1805 -0.4752  2.0365
 2648SOL     OW19579   1.641   0.901   7.236 -0.3922 -0.2665  0.0075
 2648SOL    HW119580   1.597   0.880   7.154  1.6967 -1.7299 -0.7624
 2648SOL    HW219581   1.570   0.889   7.299 -1.4920  4.5321 -0.3341
 2649SOL     OW19582   0.933   4.222  14.391  0.3738  0.1737 -0.1257
 2649SOL    HW119583   0.950   4.165  14.316  1.2456 -0.1516  0.3210
 2649SOL    HW219584   0.944   4.308  14.351 -0.2303  0.6074  0.6249
 2650SOL     OW19585   1.762   2.459  12.174  0.1474  0.7654 -0.3511
 2650SOL    HW119586   1.825   2.405  12.222  2.6436  4.0979  0.1188
 2650SOL    HW219587   1.752   2.413  12.091  4.2440 -2.7729  1.1668
 2651SOL     OW19588   3.812   3.939   8.140 -0.0161  0.6098 -0.2580
 2651SOL    HW119589   3.811   4.017   8.084  1.5501  0.5427 -0.3579
 2651SOL    HW219590   3.717   3.927   8.151 -0.1043  2.4677  1.1525
 2652SOL     OW19591   2.758   0.767   2.960 -0.3822 -0.4114  0.2638
 2652SOL    HW119592   2.805   0.850   2.968  0.8417 -1.0513 -0.3434
 2652SOL    HW219593   2.670   0.800   2.981  0.8878  3.2864 -0.2363
 2653SOL     OW19594   0.085   3.547   8.208 -0.8687 -0.1147  0.0906
 2653SOL    HW119595   0.093   3.555   8.113  2.4535  0.5889  0.4342
 2653SOL    HW219596   0.173   3.564   8.242 -0.8754 -0.9913  0.5202
 2654SOL     OW19597   1.725   4.734  10.099 -0.0922  0.0677 -0.5121
 2654SOL    HW119598   1.702   4.672  10.029 -3.8266  1.6057 -0.6108
 2654SOL    HW219599   1.778   4.675  10.152 -0.5500  0.0981 -0.0207
 2655SOL     OW19600   1.825   4.083  11.866  0.3141 -0.1418 -0.2724
 2655SOL    HW119601   1.819   4.173  11.898  0.4672 -0.1377 -0.2563
 2655SOL    HW219602   1.864   4.084  11.779 -2.0230 -0.3466 -1.3196
 2656SOL     OW19603   1.089   3.107  17.210 -0.4074 -0.3024  0.3265
 2656SOL    HW119604   1.075   3.107  17.115  1.8233 -0.0442  0.0016
 2656SOL    HW219605   1.138   3.025  17.221  0.6527  0.4823  1.4215
 2657SOL     OW19606   3.828   2.188   7.720  0.2455 -0.0345 -0.0067
 2657SOL    HW119607   3.914   2.173   7.680  0.0413  3.0832 -1.5806
 2657SOL    HW219608   3.772   2.120   7.681  2.3240 -1.0645 -1.2128
 2658SOL     OW19609   0.342   0.436   5.287  0.6117  0.2228 -0.0800
 2658SOL    HW119610   0.358   0.358   5.234  1.5661  1.6465 -1.8797
 2658SOL    HW219611   0.339   0.393   5.372  1.6367 -2.4401 -1.3878
 2659SOL     OW19612   3.584   1.717   5.884  0.2327  0.0424 -0.2867
 2659SOL    HW119613   3.554   1.681   5.800  1.2563  0.7468 -0.9501
 2659SOL    HW219614   3.551   1.652   5.946  5.2960 -1.4683  0.8264
 2660SOL     OW19615   3.853   3.318   5.784  0.6057 -0.5664  0.1649
 2660SOL    HW119616   3.827   3.406   5.808  1.0195 -0.6548  0.9425
 2660SOL    HW219617   3.862   3.279   5.871  1.6968 -1.8399 -0.5146
 2661SOL     OW19618   0.551   3.423   7.330  0.1608  0.3772 -0.3130
 2661SOL    HW119619   0.604   3.500   7.347  2.0265 -0.7489 -1.0901
 2661SOL    HW219620   0.463   3.462   7.326  0.6947  1.7321  1.3272
 2662SOL     OW19621   2.823   2.986   6.044  0.5670  0.3036 -0.0753
 2662SOL    HW119622   2.734   2.996   6.078 -0.0937 -1.4157 -1.2540
 2662SOL    HW219623   2.837   2.892   6.060  1.3241  0.7274  1.7504
 2663SOL     OW19624   2.062   2.796   3.128 -0.9459 -0.0244  0.6238
 2663SOL    HW119625   2.072   2.890   3.117  1.4335 -0.4138 -0.5394
 2663SOL    HW219626   1.970   2.781   3.149 -0.6131 -1.6098  1.0089
 2664SOL     OW19627   4.216   0.330  11.097 -0.0700 -0.2408 -0.0911
 2664SOL    HW119628   4.256   0.417  11.095  0.3289 -0.3979  0.9026
 2664SOL    HW219629   4.160   0.341  11.020 -0.7032 -1.2428  0.2144
 2665SOL     OW19630   1.608   1.115  12.775 -0.5340 -0.3524 -0.1194
 2665SOL    HW119631   1.515   1.124  12.793 -0.6629  0.8368 -1.4294
 2665SOL    HW219632   1.593   1.119  12.681 -0.8833  2.6345  0.0512
 2666SOL     OW19633   0.035   3.433  16.692  0.1461  0.2987 -0.2855
 2666SOL    HW119634   0.104   3.479  16.643 -0.1515 -0.0217 -0.9991
 2666SOL    HW219635   0.019   3.357  16.636 -0.1167 -0.1865  0.4460
 2667SOL     OW19636   1.009   0.580   5.537  0.5417  0.1129 -0.1425
 2667SOL    HW119637   1.003   0.518   5.464 -0.5806 -0.3949  0.3842
 2667SOL    HW219638   1.030   0.523   5.610  2.3605 -1.5246 -1.9281
 2668SOL     OW19639   3.843   3.624   6.222 -0.0984 -0.1547 -0.1962
 2668SOL    HW119640   3.867   3.617   6.314 -0.0028 -0.8860 -0.2793
 2668SOL    HW219641   3.782   3.697   6.226  0.0480 -0.0517  0.1490
 2669SOL     OW19642   3.517   1.584   1.613  0.2439 -0.5220 -0.2228
 2669SOL    HW119643   3.440   1.640   1.617  0.5506 -0.1416  0.4650
 2669SOL    HW219644   3.577   1.635   1.560 -0.4183 -2.1086 -2.4884
 2670SOL     OW19645   2.811   2.250   1.798  0.1238  0.5869 -0.0392
 2670SOL    HW119646   2.791   2.265   1.891  2.6182  3.7266 -0.0342
 2670SOL    HW219647   2.820   2.156   1.814 -1.1428  0.2305 -1.5008
 2671SOL     OW19648   3.715   4.655   6.704 -0.5080  0.1864  0.2232
 2671SOL    HW119649   3.717   0.012   6.681 -0.9324  0.5196  1.5673
 2671SOL    HW219650   3.808   4.630   6.703 -1.0812 -1.9242 -0.0972
 2672SOL     OW19651   2.729   1.942   6.992  0.1005 -0.1196 -0.0910
 2672SOL    HW119652   2.636   1.924   6.977 -0.4699  3.2101 -0.5934
 2672SOL    HW219653   2.765   1.949   6.904  0.7345 -1.1883  0.0928
 2673SOL     OW19654   1.693   1.581  12.470 -0.3403 -0.1817 -0.1824
 2673SOL    HW119655   1.677   1.508  12.530  0.5038  1.0161  1.5219
 2673SOL    HW219656   1.763   1.542  12.417 -1.8511  1.3314 -3.2841
 2674SOL     OW19657   0.528   0.827   8.957 -0.0166  0.4711  0.3169
 2674SOL    HW119658   0.463   0.820   8.887  0.9019 -1.1045 -0.4002
 2674SOL    HW219659   0.473   0.778   9.018 -1.6836  1.4746 -0.3768
 2675SOL     OW19660   3.192   3.645  16.060  0.2220  0.3459  0.2142
 2675SOL    HW119661   3.249   3.615  16.130 -2.5409 -3.0135  1.0441
 2675SOL    HW219662   3.205   3.572  16.000  0.5305  0.3408  0.2914
 2676SOL     OW19663   3.082   2.840   2.253  0.3154 -0.1177 -0.6192
 2676SOL    HW119664   3.044   2.805   2.172  0.3769  1.2255 -1.2301
 2676SOL    HW219665   3.000   2.876   2.286 -0.7179 -0.3264 -2.9018
 2677SOL     OW19666   2.244   0.788   2.830  0.4990 -0.1037  0.5975
 2677SOL    HW119667   2.153   0.780   2.860  0.1934 -1.1755 -0.6349
 2677SOL    HW219668   2.237   0.879   2.800  3.7872 -0.3955 -1.0243
 2678SOL     OW19669   0.180   0.564  16.302  0.4271 -0.0602  0.0960
 2678SOL    HW119670   0.116   0.551  16.232 -0.2919 -1.1634  0.9767
 2678SOL    HW219671   0.130   0.519  16.370 -3.6418 -0.7064 -3.3258
 2679SOL     OW19672   4.415   3.675   3.006  0.5422 -0.0593  0.3611
 2679SOL    HW119673   4.408   3.626   3.088 -0.5140  1.1208  0.9749
 2679SOL    HW219674   4.453   3.608   2.949  2.2080 -0.7906  2.3374
 2680SOL     OW19675   0.726   1.708   8.476 -0.1748 -0.0468 -0.5888
 2680SOL    HW119676   0.747   1.794   8.439  1.2324 -0.3046 -0.3737
 2680SOL    HW219677   0.800   1.690   8.534  0.8608  2.0054 -1.2569
 2681SOL     OW19678   4.018   3.992   0.713 -0.1676 -0.1363  0.2862
 2681SOL    HW119679   4.019   4.086   0.731  0.4689 -0.3399  1.3302
 2681SOL    HW219680   3.981   3.990   0.625 -0.2024 -0.8529  0.3172
 2682SOL     OW19681   0.239   2.841  14.647 -0.7770 -0.8004 -0.3001
 2682SOL    HW119682   0.167   2.778  14.641 -1.4924  0.1618 -1.6777
 2682SOL    HW219683   0.208   2.885  14.726  0.1022  2.5721 -1.8523
 2683SOL     OW19684   3.712   0.126  12.660  0.1152 -0.1497 -0.5705
 2683SOL    HW119685   3.625   0.148  12.626 -0.7101 -0.3148  1.4152
 2683SOL    HW219686   3.765   0.204  12.647 -2.4239  1.6005 -0.4431
 2684SOL     OW19687   4.148   4.028   9.741  0.3076 -1.1805 -0.2522
 2684SOL    HW119688   4.081   4.067   9.798 -0.3351 -1.0724 -1.0820
 2684SOL    HW219689   4.103   3.953   9.704 -1.2566  0.7631 -2.2623
 2685SOL     OW19690   1.557   3.174   4.730 -0.0752  0.3817  0.1092
 2685SOL    HW119691   1.652   3.166   4.737  0.0793  1.4747 -0.7080
 2685SOL    HW219692   1.531   3.101   4.786  0.0411  0.7086  0.5834
 2686SOL     OW19693   1.987   2.481   1.513 -0.4440  0.1038 -0.1050
 2686SOL    HW119694   2.061   2.537   1.537 -0.5735 -1.0722  3.0289
 2686SOL    HW219695   1.970   2.442   1.599  0.9262  1.0605  0.6146
 2687SOL     OW19696   3.659   3.924   0.449 -0.4493 -0.3360 -0.1880
 2687SOL    HW119697   3.602   3.849   0.434 -2.5466  0.8509  1.9619
 2687SOL    HW219698   3.621   3.944   0.534 -0.5285 -2.8137  0.3568
 2688SOL     OW19699   3.984   2.697   0.975 -0.1465  0.5244  0.3903
 2688SOL    HW119700   4.018   2.713   1.063 -0.7909 -0.5807  0.8482
 2688SOL    HW219701   4.018   2.772   0.926 -1.7399  1.5971  0.9082
 2689SOL     OW19702   3.490   1.874   1.754  0.6157 -0.2984  0.1989
 2689SOL    HW119703   3.514   1.967   1.756  0.2139 -0.1065 -3.0948
 2689SOL    HW219704   3.566   1.841   1.801  1.5529 -0.2496 -1.2694
 2690SOL     OW19705   3.741   4.734   8.768  0.0879 -0.3093 -0.1672
 2690SOL    HW119706   3.729   4.640   8.756 -1.9983 -0.1887  0.8673
 2690SOL    HW219707   3.725   4.724   8.862  0.8255 -0.1983 -0.0317
 2691SOL     OW19708   1.747   4.105  15.755  0.1127 -0.5080 -0.3490
 2691SOL    HW119709   1.839   4.088  15.738  0.2238 -0.2061 -0.0529
 2691SOL    HW219710   1.751   4.162  15.831 -2.0886 -1.4040  0.4399
 2692SOL     OW19711   0.895   1.840  14.725 -0.5173  0.2473  0.0950
 2692SOL    HW119712   0.894   1.808  14.816 -1.5171  2.0978  0.7241
 2692SOL    HW219713   0.805   1.870  14.714 -0.0365  2.4241  2.0938
 2693SOL     OW19714   0.088   0.905   8.482 -0.7070  0.1504  0.2604
 2693SOL    HW119715   0.139   0.985   8.494 -1.6270  0.4977  1.7932
 2693SOL    HW219716   0.005   0.937   8.449  0.5753 -0.3802 -3.4647
 2694SOL     OW19717   3.455   1.286   5.730  0.4218 -0.4902  0.1153
 2694SOL    HW119718   3.401   1.244   5.797 -0.3328 -1.6744 -1.2330
 2694SOL    HW219719   3.429   1.236   5.653  2.5637 -0.3846 -0.6612
 2695SOL     OW19720   0.988   1.397   8.325 -0.1943 -0.1000 -0.1120
 2695SOL    HW119721   0.946   1.324   8.280  0.4255 -0.2049 -0.5241
 2695SOL    HW219722   0.939   1.408   8.406  0.6613  0.4888  0.3209
 2696SOL     OW19723   2.796   0.062   7.597  0.1613 -0.2016  0.2314
 2696SOL    HW119724   2.769   0.146   7.635 -1.7746 -0.9804  0.5963
 2696SOL    HW219725   2.867   0.028   7.651 -0.2942  1.2660  1.7273
 2697SOL     OW19726   1.503   0.063   8.981  0.4035  0.1805 -0.1413
 2697SOL    HW119727   1.587   0.018   8.990  0.1661 -0.1462  0.4595
 2697SOL    HW219728   1.510   0.143   9.033  1.1516 -1.7371  2.6974
 2698SOL     OW19729   2.782   3.400   7.072  0.1260  0.1289  0.2690
 2698SOL    HW119730   2.701   3.367   7.034 -2.4485  3.6349  2.7353
 2698SOL    HW219731   2.760   3.490   7.095  0.2031  0.1819  0.1350
 2699SOL     OW19732   0.624   0.515   7.061 -0.4192 -0.6022  0.6601
 2699SOL    HW119733   0.634   0.419   7.060  1.2171 -0.3858 -2.6018
 2699SOL    HW219734   0.613   0.516   7.156  1.4415 -2.4612  0.9044
 2700SOL     OW19735   1.573   1.426   3.551  0.0468  0.3920 -0.1625
 2700SOL    HW119736   1.529   1.464   3.476 -1.3301  0.2876  0.5956
 2700SOL    HW219737   1.596   1.344   3.507 -1.9054 -0.0403 -0.3515
 2701SOL     OW19738   1.520   0.596   3.774  0.0698  0.7272  0.3202
 2701SOL    HW119739   1.509   0.690   3.761 -1.4864  0.9157  3.0428
 2701SOL    HW219740   1.454   0.575   3.840 -0.1317  0.2351 -0.0369
 2702SOL     OW19741   2.555   2.775  13.355 -0.8605 -0.3643 -0.9511
 2702SOL    HW119742   2.508   2.853  13.326  1.4352  0.8018 -1.5006
 2702SOL    HW219743   2.501   2.731  13.420  2.1654  0.9619  2.4224
 2703SOL     OW19744   4.307   4.327   0.862  0.6842 -0.1123 -0.7476
 2703SOL    HW119745   4.304   4.269   0.786 -0.8933 -1.6830  0.5285
 2703SOL    HW219746   4.374   4.285   0.916 -1.0995  0.5658  1.9356
 2704SOL     OW19747   3.806   1.107   2.300 -0.7049 -0.2053 -0.0671
 2704SOL    HW119748   3.855   1.083   2.221  1.3415  0.6231  0.9299
 2704SOL    HW219749   3.733   1.148   2.253 -1.1236 -0.8526  0.0226
 2705SOL     OW19750   0.498   1.083   4.620  0.2599  0.2040  0.0035
 2705SOL    HW119751   0.430   1.100   4.555  2.1229 -1.9085 -2.4703
 2705SOL    HW219752   0.433   1.035   4.671 -0.1848 -0.1413 -0.8866
 2706SOL     OW19753   3.681   3.732   8.927 -0.5839 -0.0017 -0.3177
 2706SOL    HW119754   3.680   3.725   9.023 -0.1063 -3.0642 -0.5398
 2706SOL    HW219755   3.593   3.761   8.903 -1.1112 -1.6290 -0.3433
 2707SOL     OW19756   2.949   3.201   6.777  0.5856  0.3112  0.1424
 2707SOL    HW119757   2.973   3.116   6.741 -0.6336 -0.2927  0.7517
 2707SOL    HW219758   2.874   3.224   6.722 -0.0174 -2.0477  0.0072
 2708SOL     OW19759   4.113   0.401   1.524  0.0281  0.2239 -0.6051
 2708SOL    HW119760   4.066   0.318   1.527 -0.8416  0.7495  0.3406
 2708SOL    HW219761   4.200   0.371   1.498 -0.3771  0.4790 -2.2613
 2709SOL     OW19762   3.695   3.345  15.813  0.2315 -0.3030  0.3330
 2709SOL    HW119763   3.766   3.401  15.781 -0.1351 -1.2823 -2.1707
 2709SOL    HW219764   3.625   3.367  15.750  0.6216 -1.9665 -0.6707
 2710SOL     OW19765   0.003   0.580  16.096  0.0211 -0.4465  0.1598
 2710SOL    HW119766   0.013   0.664  16.050 -0.0192 -0.9398 -0.7592
 2710SOL    HW219767   4.663   0.545  16.048 -1.3670  1.6580  0.8312
 2711SOL     OW19768   1.741   3.824   2.876 -0.0324 -0.0981  0.7223
 2711SOL    HW119769   1.769   3.744   2.921  1.1849  0.3181  0.7223
 2711SOL    HW219770   1.796   3.830   2.798  0.9347 -1.8339  1.2752
 2712SOL     OW19771   1.172   2.626   1.231 -0.1956 -0.0374  0.0253
 2712SOL    HW119772   1.129   2.582   1.305  0.5675  0.2688  0.6587
 2712SOL    HW219773   1.114   2.701   1.229 -1.7143 -1.2266 -0.3415
 2713SOL     OW19774   4.611   4.272   8.165  0.0035  0.4389 -0.5405
 2713SOL    HW119775   4.677   4.341   8.160 -0.3962  0.7775 -1.2154
 2713SOL    HW219776   4.525   4.314   8.156 -0.8252 -1.4180 -1.2579
 2714SOL     OW19777   0.866   1.158   1.248  0.2833 -0.0714 -0.7149
 2714SOL    HW119778   0.829   1.091   1.190  0.6672  0.2608 -1.3439
 2714SOL    HW219779   0.943   1.178   1.194  0.1952 -0.6515 -1.0618
 2715SOL     OW19780   1.929   1.548   8.449 -0.5698  0.6484  0.4295
 2715SOL    HW119781   2.003   1.609   8.447 -0.6092  0.5923 -2.2845
 2715SOL    HW219782   1.881   1.562   8.367  1.9166  1.4960 -0.8779
 2716SOL     OW19783   4.311   2.318   2.168 -0.0394 -0.4320  0.2214
 2716SOL    HW119784   4.354   2.237   2.193  0.6371  0.2333  1.2546
 2716SOL    HW219785   4.394   2.365   2.160 -0.4405  0.3674  0.6784
 2717SOL     OW19786   0.988   1.922  14.341  0.0412 -0.5177  0.2544
 2717SOL    HW119787   1.025   2.001  14.382 -0.1562  0.0513 -0.6528
 2717SOL    HW219788   0.894   1.942  14.346  0.6671  2.2805  0.8740
 2718SOL     OW19789   1.342   0.357   4.813 -0.1117 -0.0206 -0.1157
 2718SOL    HW119790   1.375   0.413   4.884  3.2517 -1.1376 -0.7733
 2718SOL    HW219791   1.250   0.351   4.836 -0.2431  1.2770 -0.2695
 2719SOL     OW19792   1.958   4.647  15.413 -0.7394 -0.4553 -0.2009
 2719SOL    HW119793   1.976   4.590  15.339 -0.1764 -0.2182 -0.2466
 2719SOL    HW219794   2.013   4.724  15.396 -1.4693 -0.2042 -1.4315
 2720SOL     OW19795   2.399   3.368   2.899  0.7234 -0.4564 -0.1718
 2720SOL    HW119796   2.344   3.289   2.902  0.0174 -0.0043 -1.3526
 2720SOL    HW219797   2.372   3.409   2.981  1.1804  0.2456 -0.3790
 2721SOL     OW19798   3.455   2.397  11.871 -0.3004 -0.0596  0.3297
 2721SOL    HW119799   3.390   2.433  11.810  0.0557  1.1011  0.6385
 2721SOL    HW219800   3.437   2.434  11.957 -0.2536 -2.5882  1.4270
 2722SOL     OW19801   1.936   3.640   7.231 -0.1554  0.3636 -0.2406
 2722SOL    HW119802   1.942   3.555   7.188  2.1567  1.3017 -1.8168
 2722SOL    HW219803   1.989   3.614   7.306  0.6627  0.8847 -0.6384
 2723SOL     OW19804   2.766   0.888   5.080  0.2888 -0.7180  0.4635
 2723SOL    HW119805   2.798   0.892   5.170 -1.9261  1.6076  1.1498
 2723SOL    HW219806   2.833   0.844   5.028  1.4182 -0.3419  1.6101
 2724SOL     OW19807   4.298   3.654   2.446 -0.5920  0.0198  0.5842
 2724SOL    HW119808   4.228   3.590   2.453  0.0755 -0.9499 -1.3465
 2724SOL    HW219809   4.307   3.662   2.541  1.6538  0.2874  0.3625
 2725SOL     OW19810   1.658   0.758  11.983 -0.3888  0.2797  0.6637
 2725SOL    HW119811   1.641   0.741  12.076  0.5119 -2.0055  0.3952
 2725SOL    HW219812   1.577   0.791  11.944 -0.2291 -0.3853 -0.2264
 2726SOL     OW19813   2.604   0.425   5.279  0.5133 -0.4966 -0.4448
 2726SOL    HW119814   2.659   0.448   5.204 -0.1001 -0.2686 -0.8285
 2726SOL    HW219815   2.582   0.508   5.319  1.7802  0.7863 -2.4253
 2727SOL     OW19816   0.974   2.356   5.583  0.0329  0.2343  1.0724
 2727SOL    HW119817   0.896   2.404   5.553  1.1243  1.8464  0.7716
 2727SOL    HW219818   0.977   2.385   5.674 -0.4531 -3.0982  2.1529
 2728SOL     OW19819   0.840   1.598   9.412 -0.3399 -0.4745  0.0540
 2728SOL    HW119820   0.762   1.545   9.428 -0.3208 -0.0206  1.6976
 2728SOL    HW219821   0.823   1.651   9.334  2.0602  0.6299  0.2786
 2729SOL     OW19822   2.383   0.259   2.560 -0.1420 -0.2907  0.5786
 2729SOL    HW119823   2.348   0.252   2.471  0.0878  1.0675  0.3815
 2729SOL    HW219824   2.311   0.231   2.617 -2.2275 -1.9706 -2.8785
 2730SOL     OW19825   1.695   2.040   8.862  0.2755  0.3878 -0.2733
 2730SOL    HW119826   1.679   2.037   8.956  0.1294  1.6671 -0.2512
 2730SOL    HW219827   1.607   2.025   8.827  0.0453 -0.5403  0.7112
 2731SOL     OW19828   0.471   2.468   7.993 -0.7574  0.7971  0.5674
 2731SOL    HW119829   0.404   2.411   7.954 -0.7378  0.5099  0.9543
 2731SOL    HW219830   0.542   2.410   7.965 -0.1166  1.8664 -0.0266
 2732SOL     OW19831   3.004   3.846   5.763  0.3732  0.2120  0.2702
 2732SOL    HW119832   3.043   3.866   5.677 -1.1770  0.1612 -0.4514
 2732SOL    HW219833   3.020   3.924   5.816 -0.5627  1.3307 -1.0894
 2733SOL     OW19834   3.196   0.997  12.902 -0.0588 -0.1140 -0.6853
 2733SOL    HW119835   3.171   0.907  12.924 -2.4456  0.1142 -2.4579
 2733SOL    HW219836   3.274   1.004  12.957  0.1224  0.5698 -1.0253
 2734SOL     OW19837   1.317   2.269  16.797  0.1842  0.1372 -0.1581
 2734SOL    HW119838   1.379   2.282  16.725 -1.3412  2.5555 -1.0441
 2734SOL    HW219839   1.350   2.187  16.832 -0.1495 -0.2530 -0.7689
 2735SOL     OW19840   2.848   4.050   7.894  0.5571  0.3633  0.3657
 2735SOL    HW119841   2.823   3.962   7.865  1.3798  0.3026 -0.1460
 2735SOL    HW219842   2.930   4.060   7.846  0.1573 -1.7108 -0.7340
 2736SOL     OW19843   1.758   4.578   2.474  0.2364 -0.1645 -0.4664
 2736SOL    HW119844   1.848   4.609   2.463 -0.0694  0.3493 -1.4566
 2736SOL    HW219845   1.764   4.499   2.528 -0.6788  0.3925  0.4429
 2737SOL     OW19846   2.862   4.653   2.665  0.1907 -0.1798 -0.8475
 2737SOL    HW119847   2.902   4.643   2.752 -2.3196 -2.3740  0.0594
 2737SOL    HW219848   2.783   4.599   2.671 -0.6757  1.1939 -0.1386
 2738SOL     OW19849   2.204   4.286   7.489  0.5647 -0.0629 -0.3797
 2738SOL    HW119850   2.254   4.220   7.537 -0.4711 -0.5169  0.0708
 2738SOL    HW219851   2.121   4.238   7.487  0.6583 -0.2510  0.7570
 2739SOL     OW19852   1.291   2.534   6.952 -0.5920 -0.0499  0.1539
 2739SOL    HW119853   1.269   2.589   7.027  2.6568 -1.1072  1.8940
 2739SOL    HW219854   1.359   2.591   6.917 -1.0652  0.8539  0.7191
 2740SOL     OW19855   0.621   1.201   6.077  0.1890 -0.0280 -0.4561
 2740SOL    HW119856   0.626   1.139   6.151 -0.9648  1.5805  0.9769
 2740SOL    HW219857   0.699   1.181   6.026  2.0513 -0.7322  2.6436
 2741SOL     OW19858   0.156   2.252   4.964 -0.0713  0.3509  0.3283
 2741SOL    HW119859   0.194   2.255   5.052 -1.1187 -0.7176  0.8179
 2741SOL    HW219860   0.220   2.302   4.914  0.4639 -1.2723 -0.5851
 2742SOL     OW19861   2.391   0.550   3.459 -0.3491 -0.3532  0.1811
 2742SOL    HW119862   2.382   0.507   3.544  0.1466 -1.2020 -0.1982
 2742SOL    HW219863   2.400   0.640   3.490  1.3653  0.1102 -1.6233
 2743SOL     OW19864   0.333   4.122   6.498 -0.0144  0.2337 -0.4534
 2743SOL    HW119865   0.279   4.145   6.573 -1.4357  0.4676 -1.5453
 2743SOL    HW219866   0.371   4.037   6.521 -1.0201 -0.3811 -1.0594
 2744SOL     OW19867   3.676   2.506   1.788 -0.0439 -0.5475  0.3590
 2744SOL    HW119868   3.745   2.442   1.773  2.4185  1.9614  0.8520
 2744SOL    HW219869   3.729   2.583   1.764 -0.9515 -0.1162 -0.2900
 2745SOL     OW19870   1.591   2.280   1.718 -0.4959  0.0056  0.4509
 2745SOL    HW119871   1.642   2.322   1.787 -0.4741 -0.2570  0.5972
 2745SOL    HW219872   1.552   2.356   1.675 -0.3558  0.2099  0.6871
 2746SOL     OW19873   0.919   2.636   5.349 -0.7399 -0.0515 -0.6929
 2746SOL    HW119874   0.980   2.568   5.321 -0.9639 -0.0941 -1.0855
 2746SOL    HW219875   0.900   2.614   5.440  1.7970 -1.2561 -0.4597
 2747SOL     OW19876   4.305   3.655   8.484 -0.3412 -0.0055 -0.5912
 2747SOL    HW119877   4.343   3.583   8.534  0.7064  1.4300  0.6700
 2747SOL    HW219878   4.316   3.630   8.392 -1.1017  0.4801 -0.8179
 2748SOL     OW19879   3.628   2.230  11.330  0.2972 -0.4405 -0.8494
 2748SOL    HW119880   3.539   2.203  11.305  0.1112  1.5861 -2.3767
 2748SOL    HW219881   3.607   2.271  11.414 -0.6125  0.3194 -1.4446
 2749SOL     OW19882   3.510   0.190   5.205  0.3474  0.5525 -0.1343
 2749SOL    HW119883   3.516   0.209   5.111 -1.2175 -1.7709 -0.7114
 2749SOL    HW219884   3.532   0.097   5.211 -1.0304  0.1662 -1.0046
 2750SOL     OW19885   0.050   1.098   2.082 -0.1037  0.2727 -0.0338
 2750SOL    HW119886   0.035   1.096   1.988  2.0443  0.5587 -0.3839
 2750SOL    HW219887   0.141   1.070   2.092 -1.0480 -1.9451  2.4313
 2751SOL     OW19888   0.819   3.451   8.998 -0.3564  0.3954 -0.2709
 2751SOL    HW119889   0.821   3.546   9.009 -1.0540  0.4802 -0.8343
 2751SOL    HW219890   0.765   3.424   9.073 -2.0298  1.5439 -1.0364
 2752SOL     OW19891   3.023   2.111   5.701  0.3826 -0.1233  0.2879
 2752SOL    HW119892   2.971   2.106   5.781  0.8495  2.4966  0.7496
 2752SOL    HW219893   3.109   2.132   5.737  0.5714 -0.4250  0.0061
 2753SOL     OW19894   0.180   4.271   6.823  0.0796  0.6947 -0.0380
 2753SOL    HW119895   0.154   4.181   6.802 -0.8792  0.4611  2.1965
 2753SOL    HW219896   0.125   4.327   6.767  0.7692 -2.4651 -3.9165
 2754SOL     OW19897   0.987   2.659   4.528  0.6145  0.8369  0.1969
 2754SOL    HW119898   0.998   2.693   4.617 -3.6248 -1.7858  1.7490
 2754SOL    HW219899   1.076   2.682   4.502 -0.5058  1.2799 -3.2007
 2755SOL     OW19900   3.066   0.781   2.483  0.0433  0.3062 -1.5452
 2755SOL    HW119901   3.067   0.855   2.422 -0.0851  0.5548 -1.2465
 2755SOL    HW219902   3.041   0.831   2.561  0.1945 -1.3899 -0.4164
 2756SOL     OW19903   3.167   4.190   2.675  0.0665  0.1648  0.0132
 2756SOL    HW119904   3.200   4.214   2.588 -2.1530 -0.9853 -1.1346
 2756SOL    HW219905   3.146   4.097   2.672  1.5735 -0.1440 -1.2440
 2757SOL     OW19906   0.308   4.442   4.150 -0.0718 -0.3780  0.4500
 2757SOL    HW119907   0.396   4.405   4.146 -1.1053 -2.8558  0.4531
 2757SOL    HW219908   0.327   4.536   4.154  0.0137 -0.3639 -0.4859
 2758SOL     OW19909   3.851   4.156  10.727  0.2754 -0.2759  0.3175
 2758SOL    HW119910   3.866   4.228  10.789 -1.3163  0.5269 -0.2362
 2758SOL    HW219911   3.763   4.182  10.698  0.7662 -1.9860 -2.6333
 2759SOL     OW19912   1.602   3.346  13.065  0.2318  0.1454 -0.4247
 2759SOL    HW119913   1.561   3.360  12.980  1.2260  1.0125 -0.7678
 2759SOL    HW219914   1.594   3.435  13.098  0.7270  0.0681 -0.0846
 2760SOL     OW19915   2.744   1.425   9.665 -0.2158  0.6110 -0.2161
 2760SOL    HW119916   2.816   1.386   9.715 -1.1092  0.3878  0.9129
 2760SOL    HW219917   2.725   1.504   9.716  1.7648  1.4991 -0.8423
 2761SOL     OW19918   4.131   1.771   6.221  0.1539  0.4532 -0.2167
 2761SOL    HW119919   4.120   1.799   6.130  1.7263  0.1954 -0.4950
 2761SOL    HW219920   4.126   1.676   6.214  1.5069  0.4083 -0.7446
 2762SOL     OW19921   3.139   4.514   1.968  0.2422  0.3187 -0.0352
 2762SOL    HW119922   3.146   4.609   1.978  2.4667  0.1761 -0.2072
 2762SOL    HW219923   3.052   4.504   2.006  0.5502 -1.3355  0.2317
 2763SOL     OW19924   4.338   3.148   2.399  0.4559 -0.3512 -0.1248
 2763SOL    HW119925   4.299   3.088   2.463 -1.1391 -1.0350 -1.7223
 2763SOL    HW219926   4.344   3.093   2.321  0.4383 -0.6167  0.0588
 2764SOL     OW19927   2.794   4.279   6.639  0.2225  0.3280 -0.5563
 2764SOL    HW119928   2.712   4.321   6.613 -2.0919 -3.7892 -0.0354
 2764SOL    HW219929   2.853   4.348   6.611 -0.6195  1.5003  0.5126
 2765SOL     OW19930   2.771   3.498   8.612 -0.1878  0.0154 -0.4298
 2765SOL    HW119931   2.762   3.467   8.702  1.0246  0.7520 -0.0647
 2765SOL    HW219932   2.820   3.578   8.630  0.6198 -0.8211  1.0825
 2766SOL     OW19933   3.657   2.291   2.582 -0.4709 -0.1728 -0.1152
 2766SOL    HW119934   3.569   2.305   2.548  0.0280  0.7299 -1.0264
 2766SOL    HW219935   3.716   2.299   2.506 -0.6723 -0.7266 -0.3302
 2767SOL     OW19936   2.923   3.536  11.320  0.2655  0.2574  0.4815
 2767SOL    HW119937   2.895   3.563  11.232 -1.0072  2.1856  1.4563
 2767SOL    HW219938   3.003   3.485  11.310  0.6492  0.6753  1.4294
 2768SOL     OW19939   0.783   0.290   2.463 -0.4827 -0.2667  0.0437
 2768SOL    HW119940   0.780   0.378   2.499  5.2060  0.4562 -1.1450
 2768SOL    HW219941   0.864   0.248   2.493 -2.0248 -0.2823  4.0913
 2769SOL     OW19942   4.540   1.707   7.006  0.0944  0.6812 -0.0541
 2769SOL    HW119943   4.530   1.612   7.006 -0.6397  0.7556  0.7003
 2769SOL    HW219944   4.450   1.729   6.982 -0.2178 -0.4875  0.0420
 2770SOL     OW19945   2.091   2.794   6.550  0.0507 -0.5578 -0.6720
 2770SOL    HW119946   2.180   2.828   6.563  0.3554 -1.9614  0.8588
 2770SOL    HW219947   2.098   2.705   6.585 -2.0754 -1.3854 -2.3160
 2771SOL     OW19948   0.761   1.658  17.580  0.3826 -0.0490 -0.5668
 2771SOL    HW119949   0.814   1.721  17.531  0.6655 -1.0727 -1.5757
 2771SOL    HW219950   0.695   1.625  17.519  0.4289  1.6879 -1.5671
 2772SOL     OW19951   0.560   0.955   8.560 -0.4643 -0.1763  0.1340
 2772SOL    HW119952   0.621   0.931   8.490  0.0282  1.1123  0.1078
 2772SOL    HW219953   0.593   1.044   8.575  0.4485 -0.5246  0.2211
 2773SOL     OW19954   4.463   3.146   5.149  0.3607 -0.1281 -0.4243
 2773SOL    HW119955   4.484   3.203   5.075  0.2397 -0.1063 -0.4423
 2773SOL    HW219956   4.395   3.087   5.115 -0.7978  1.9508 -1.6540
 2774SOL     OW19957   1.891   0.183  13.485 -0.6885 -0.1932 -0.4462
 2774SOL    HW119958   1.837   0.120  13.533 -1.9852  1.0763 -0.2053
 2774SOL    HW219959   1.821   0.238  13.449 -0.7962  0.1629  0.3012
 2775SOL     OW19960   3.562   3.991   4.979  0.4229 -0.3321  0.1748
 2775SOL    HW119961   3.646   4.032   4.957 -0.2303  0.3132 -1.0958
 2775SOL    HW219962   3.499   4.058   4.951 -0.4496 -0.6748  1.2998
 2776SOL     OW19963   3.327   0.099  14.401  0.5528 -0.0230  0.1192
 2776SOL    HW119964   3.245   0.142  14.424  0.0446 -0.8969 -0.0339
 2776SOL    HW219965   3.313   0.019  14.452  1.3484 -0.2013  0.0598
 2777SOL     OW19966   3.133   1.720  10.433 -0.1439 -0.0328  0.4409
 2777SOL    HW119967   3.149   1.699  10.341  0.7374 -1.8652  1.0079
 2777SOL    HW219968   3.109   1.812  10.428  1.4743  0.3816  0.6312
 2778SOL     OW19969   1.618   2.017   9.717 -0.6487 -0.0013 -0.0292
 2778SOL    HW119970   1.611   2.025   9.812  3.0183  1.7918  0.0993
 2778SOL    HW219971   1.689   1.954   9.701  0.3689  1.2081 -0.2804
 2779SOL     OW19972   4.247   2.058   6.171  0.4784  0.7138  0.4896
 2779SOL    HW119973   4.269   2.142   6.130  0.6997 -0.2797 -1.4455
 2779SOL    HW219974   4.266   2.080   6.261 -0.7523  0.5913  0.7844
 2780SOL     OW19975   2.130   3.670   8.879 -0.8122  0.3364 -0.5456
 2780SOL    HW119976   2.038   3.641   8.885 -0.6632 -0.2789 -1.1924
 2780SOL    HW219977   2.165   3.592   8.834 -1.0620  0.6884 -1.3589
 2781SOL     OW19978   0.277   3.352   4.056  0.0528  0.2753 -0.5289
 2781SOL    HW119979   0.276   3.440   4.017  1.5209  0.4281 -0.1987
 2781SOL    HW219980   0.367   3.351   4.090  0.1653  0.6933 -0.8211
 2782SOL     OW19981   1.049   2.692   3.523  0.5696 -0.1316  0.1828
 2782SOL    HW119982   1.076   2.676   3.614  0.3050  1.5917  0.5646
 2782SOL    HW219983   1.066   2.607   3.482 -0.7742  0.0642 -0.7640
 2783SOL     OW19984   3.210   3.041   2.635 -0.1548  0.5599 -0.3708
 2783SOL    HW119985   3.232   3.130   2.662 -1.8111  1.0481 -0.6592
 2783SOL    HW219986   3.238   3.047   2.544  1.1765 -1.2464 -0.0761
 2784SOL     OW19987   1.660   2.532   7.658  0.5179  0.1543  0.2012
 2784SOL    HW119988   1.602   2.465   7.621 -0.4020  0.4915  1.0520
 2784SOL    HW219989   1.672   2.482   7.738 -1.0923  2.0773  1.6470
 2785SOL     OW19990   1.031   3.347   4.039  0.0218  0.3976  0.0601
 2785SOL    HW119991   0.940   3.365   4.063 -0.4198 -2.6866  0.7144
 2785SOL    HW219992   1.017   3.327   3.947  0.9479 -0.3895  0.0819
 2786SOL     OW19993   2.197   1.184   1.962 -0.8212 -0.0814  0.4663
 2786SOL    HW119994   2.200   1.173   1.867 -1.6529 -0.7566  0.5145
 2786SOL    HW219995   2.287   1.172   1.993 -1.1233 -1.7304  0.6938
 2787SOL     OW19996   0.765   3.693   5.987 -0.1077 -0.2619  0.2260
 2787SOL    HW119997   0.775   3.671   6.080  3.2177 -1.0693 -0.3193
 2787SOL    HW219998   0.697   3.758   5.973 -0.1863 -0.4693 -0.3619
 2788SOL     OW19999   2.440   2.657   9.105  0.0035 -0.3296  0.2627
 2788SOL    HW120000   2.352   2.623   9.091 -0.7082  1.9398 -0.8679
 2788SOL    HW220001   2.418   2.735   9.156  0.9852 -0.3830  0.7783
 2789SOL     OW20002   0.901   1.801   0.515 -0.2576 -0.0753 -0.3706
 2789SOL    HW120003   0.932   1.888   0.491 -0.1946 -0.2080 -0.7639
 2789SOL    HW220004   0.811   1.807   0.483 -0.0206  1.5879 -0.7161
 2790SOL     OW20005   3.441   2.171  15.037  0.4017 -0.0224  1.0952
 2790SOL    HW120006   3.489   2.098  14.998 -1.0267  0.5032 -1.6879
 2790SOL    HW220007   3.501   2.200  15.105 -1.3132 -0.8290  2.9546
 2791SOL     OW20008   3.143   1.023   2.035  0.3647 -0.0122  0.8321
 2791SOL    HW120009   3.093   0.942   2.043  0.4181 -0.1153  0.1261
 2791SOL    HW220010   3.097   1.060   1.959 -0.3568 -0.9438  0.8237
 2792SOL     OW20011   2.229   0.761   3.151 -0.3349 -0.0187  0.2706
 2792SOL    HW120012   2.248   0.672   3.182 -0.4058  0.1176  0.7093
 2792SOL    HW220013   2.143   0.777   3.189  1.0669  1.1876  2.9203
 2793SOL     OW20014   1.212   1.350   0.513 -0.3440 -0.4472 -0.1747
 2793SOL    HW120015   1.174   1.327   0.597 -0.4327  0.8685  0.1568
 2793SOL    HW220016   1.178   1.439   0.498  3.1710  1.1201  1.0020
 2794SOL     OW20017   2.135   3.480   6.405 -0.5601  0.3367  0.0060
 2794SOL    HW120018   2.199   3.519   6.465  0.7605  0.1781 -1.3008
 2794SOL    HW220019   2.092   3.562   6.383  2.7407  1.4563 -2.2973
 2795SOL     OW20020   1.557   0.808   7.023  0.2507  0.1815  0.5354
 2795SOL    HW120021   1.601   0.738   7.070 -0.4755  0.9048  2.3177
 2795SOL    HW220022   1.576   0.792   6.930 -0.3766  0.1256  0.4151
 2796SOL     OW20023   2.122   3.231   7.701  0.6770 -0.2044 -0.2289
 2796SOL    HW120024   2.147   3.322   7.721  0.4800 -0.0423 -0.7392
 2796SOL    HW220025   2.042   3.228   7.754 -0.5323  0.4421 -2.0126
 2797SOL     OW20026   2.136   4.017  17.391 -0.2999 -0.2520  0.3373
 2797SOL    HW120027   2.204   4.080  17.365  1.5597 -1.7563  1.6230
 2797SOL    HW220028   2.089   4.077  17.450 -1.1574  0.2712 -0.8699
 2798SOL     OW20029   3.866   2.976   7.223 -0.1773  0.4978 -0.2315
 2798SOL    HW120030   3.857   2.888   7.259 -0.2236  1.1306  1.2891
 2798SOL    HW220031   3.852   2.947   7.132  0.3403  0.6688 -0.3654
 2799SOL     OW20032   1.543   3.664   8.396 -0.1924 -0.1771 -0.4962
 2799SOL    HW120033   1.531   3.610   8.318  0.2087 -2.2536  0.8815
 2799SOL    HW220034   1.579   3.608   8.465  1.0941  0.4582 -0.6475
 2800SOL     OW20035   4.298   3.029  10.843 -0.1983  0.8027  0.0649
 2800SOL    HW120036   4.291   3.057  10.752  1.3557  1.4948  0.1546
 2800SOL    HW220037   4.275   2.936  10.842  0.7214  0.5635  1.5729
 2801SOL     OW20038   1.547   1.429   7.859 -0.0235  0.3518 -0.5546
 2801SOL    HW120039   1.536   1.480   7.939 -0.5058 -1.2805  0.4185
 2801SOL    HW220040   1.630   1.466   7.829 -0.3008  1.3024 -0.1538
 2802SOL     OW20041   0.554   1.289  11.063 -0.1088 -0.1075 -0.4332
 2802SOL    HW120042   0.505   1.285  11.145  1.1959 -0.1974  0.3446
 2802SOL    HW220043   0.551   1.197  11.039  1.6164 -0.5401  1.0148
 2803SOL     OW20044   4.667   4.461   6.605 -0.5859  0.2410 -0.3791
 2803SOL    HW120045   4.619   4.533   6.563 -0.3348  0.8432  0.3541
 2803SOL    HW220046   4.600   4.393   6.601  1.0374 -1.4443  1.0911
 2804SOL     OW20047   0.041   1.802   6.947 -0.3312  0.5795  0.6118
 2804SOL    HW120048   4.692   1.768   6.978  0.4332  0.9594  3.1096
 2804SOL    HW220049   0.025   1.800   6.853 -0.1515  0.2207  0.5878
 2805SOL     OW20050   3.502   0.788   7.738 -0.6685 -0.3686  0.0790
 2805SOL    HW120051   3.496   0.721   7.806 -2.2082 -2.7665 -2.4206
 2805SOL    HW220052   3.548   0.738   7.671 -0.8011 -0.4752  0.0681
 2806SOL     OW20053   1.794   3.021  10.464 -0.2355 -0.0667  0.1724
 2806SOL    HW120054   1.752   2.961  10.526  1.9593 -0.4131  1.3550
 2806SOL    HW220055   1.735   3.094  10.446 -1.5078 -0.7332  1.6657
 2807SOL     OW20056   0.540   4.335   5.412 -0.2177  0.1093  0.2715
 2807SOL    HW120057   0.521   4.368   5.324  0.3476 -2.4317 -0.7906
 2807SOL    HW220058   0.457   4.293   5.436 -0.2112 -0.3211 -0.4698
 2808SOL     OW20059   3.894   3.203   1.133 -0.3105  0.6551  0.0791
 2808SOL    HW120060   3.934   3.137   1.188 -2.4060  0.2189  1.1035
 2808SOL    HW220061   3.822   3.231   1.190 -0.2348  1.2128 -0.0931
 2809SOL     OW20062   4.346   0.301   8.465 -0.4119  0.7090  0.0695
 2809SOL    HW120063   4.429   0.345   8.486 -0.0575  0.2528 -0.3927
 2809SOL    HW220064   4.279   0.369   8.475 -0.8033  0.1902  0.9909
 2810SOL     OW20065   1.575   4.672  12.389  0.2774 -0.0073  0.0163
 2810SOL    HW120066   1.554   0.003  12.324  0.9795  0.7497  0.5647
 2810SOL    HW220067   1.542   4.597  12.339 -1.0343  0.6972 -0.1641
 2811SOL     OW20068   0.083   3.776   1.971  0.1125  0.1091  0.1842
 2811SOL    HW120069   0.069   3.867   1.945 -0.5977 -0.7892 -2.6231
 2811SOL    HW220070   0.080   3.793   2.065  3.5479  1.0185  0.1400
 2812SOL     OW20071   0.291   0.862   6.644 -0.1145  0.4021 -0.0867
 2812SOL    HW120072   0.365   0.875   6.586 -0.1605  2.5178  0.3432
 2812SOL    HW220073   0.305   0.930   6.710  0.7156  0.0402  0.1062
 2813SOL     OW20074   2.664   4.248   5.010  0.7459 -0.0130 -0.4821
 2813SOL    HW120075   2.656   4.303   4.932 -0.1360  0.4609 -0.0525
 2813SOL    HW220076   2.584   4.272   5.057  1.0894 -1.4631  0.8441
 2814SOL     OW20077   4.684   3.843   8.850 -0.6704 -1.2028  0.2985
 2814SOL    HW120078   4.680   3.839   8.754 -1.0455  1.1138  0.2136
 2814SOL    HW220079   0.038   3.819   8.871  0.5245  2.0454 -1.0359
 2815SOL     OW20080   1.997   2.120   9.882  0.1377  0.0906 -0.0129
 2815SOL    HW120081   1.935   2.047   9.889 -0.6884  0.7615 -0.4340
 2815SOL    HW220082   1.984   2.153   9.971 -1.1121 -0.0212 -0.1541
 2816SOL     OW20083   4.059   2.497  11.348  0.2619  0.2946  0.4268
 2816SOL    HW120084   3.998   2.466  11.415  0.4063 -2.0048 -0.4886
 2816SOL    HW220085   4.144   2.494  11.392  1.2199  0.6273 -1.3967
 2817SOL     OW20086   0.282   0.836   4.213 -0.2038  0.1113  0.5676
 2817SOL    HW120087   0.346   0.899   4.179 -1.7327 -0.1026 -2.7243
 2817SOL    HW220088   0.326   0.751   4.209 -0.7338 -0.0674 -1.3882
 2818SOL     OW20089   0.404   3.327   6.158 -0.0579 -0.5609 -0.0634
 2818SOL    HW120090   0.429   3.321   6.250 -0.1429  1.6947  0.1009
 2818SOL    HW220091   0.398   3.422   6.153 -3.0858 -0.6379  2.5077
 2819SOL     OW20092   3.346   2.624   3.257 -0.4517 -0.0572 -0.1489
 2819SOL    HW120093   3.371   2.593   3.344 -0.4446 -1.8036 -0.7688
 2819SOL    HW220094   3.260   2.584   3.241 -0.6223  0.1691  0.2006
 2820SOL     OW20095   4.324   3.002   1.987 -0.0317  0.1582 -0.8048
 2820SOL    HW120096   4.416   3.024   2.000 -0.4202  2.1614 -1.6295
 2820SOL    HW220097   4.336   2.909   2.009 -0.1222  0.1824 -0.6531
 2821SOL     OW20098   1.623   3.154  15.526 -0.3021 -0.1385 -0.2012
 2821SOL    HW120099   1.558   3.136  15.593  0.8736 -2.5335  0.3336
 2821SOL    HW220100   1.656   3.239  15.553  0.4551  0.5405 -3.2548
 2822SOL     OW20101   3.175   2.081   3.801 -0.2444 -0.0771 -0.1133
 2822SOL    HW120102   3.235   2.149   3.831 -1.3423  1.4223 -1.3764
 2822SOL    HW220103   3.096   2.127   3.827 -1.2118 -1.2212 -1.0535
 2823SOL     OW20104   2.127   0.200  13.128  0.4914  0.2593  0.0111
 2823SOL    HW120105   2.182   0.169  13.055  1.9210  3.7600 -0.3895
 2823SOL    HW220106   2.169   0.284  13.142 -0.3033  0.3512  1.7841
 2824SOL     OW20107   0.774   0.485  12.060  0.1894 -0.0143 -0.4593
 2824SOL    HW120108   0.789   0.470  12.153 -2.3557  2.8678  0.4116
 2824SOL    HW220109   0.799   0.404  12.015  1.4665 -0.4170  0.9558
 2825SOL     OW20110   2.379   0.872   2.447  0.5738 -0.2890 -0.0027
 2825SOL    HW120111   2.372   0.869   2.351  0.1476  0.8777 -0.0167
 2825SOL    HW220112   2.302   0.824   2.477 -0.0376  0.7044  0.0122
 2826SOL     OW20113   1.955   4.157   4.909 -0.4186 -0.4455 -0.4468
 2826SOL    HW120114   1.987   4.154   4.999  1.9715  0.5430 -1.2670
 2826SOL    HW220115   1.862   4.142   4.921 -0.4668  0.4499  0.3539
 2827SOL     OW20116   0.958   0.814   0.561  0.2758  0.0044  0.7737
 2827SOL    HW120117   1.038   0.818   0.614  1.6442  0.5695 -1.3557
 2827SOL    HW220118   0.991   0.837   0.474 -0.6499  2.7856  1.1756
 2828SOL     OW20119   0.467   1.906   2.258  0.3413 -0.2988 -0.3550
 2828SOL    HW120120   0.521   1.829   2.240  1.3718  0.3734 -0.1451
 2828SOL    HW220121   0.377   1.873   2.259  0.5492 -0.9284 -1.3848
 2829SOL     OW20122   2.034   3.007  12.291 -0.3626  0.1891  0.6094
 2829SOL    HW120123   2.069   2.975  12.208  0.7366  1.0925  0.7189
 2829SOL    HW220124   2.105   2.977  12.348  0.0337 -0.3444 -0.1661
 2830SOL     OW20125   2.004   3.051   7.130 -0.4081  0.2146  0.0556
 2830SOL    HW120126   1.958   2.977   7.090 -2.0928  1.2640  0.0271
 2830SOL    HW220127   2.047   3.091   7.054 -2.3199  2.3257  0.0717
 2831SOL     OW20128   1.470   4.519   9.302 -0.5918 -0.4593  0.2659
 2831SOL    HW120129   1.465   4.454   9.232 -0.4390 -2.6229  2.2515
 2831SOL    HW220130   1.516   4.482   9.378  1.6386  1.8621  0.0436
 2832SOL     OW20131   3.922   0.691  13.047 -0.2727 -0.0639  0.0648
 2832SOL    HW120132   3.916   0.635  13.124 -1.2174 -2.2374 -1.5775
 2832SOL    HW220133   3.940   0.779  13.080  0.7642 -0.3888  0.3511
 2833SOL     OW20134   1.869   3.417   8.010  0.5307 -0.2837  0.5781
 2833SOL    HW120135   1.857   3.348   7.945 -2.5457  0.2112  0.6523
 2833SOL    HW220136   1.849   3.498   7.964  0.5669  0.3869  1.7529
 2834SOL     OW20137   1.830   2.463   5.168 -0.1950 -0.4100  0.3734
 2834SOL    HW120138   1.796   2.396   5.108  3.8926 -2.2554  0.1571
 2834SOL    HW220139   1.870   2.402   5.230 -1.1510  0.6497  2.0123
 2835SOL     OW20140   0.983   3.655   3.843 -0.4490 -0.1753 -0.7905
 2835SOL    HW120141   0.939   3.679   3.925  0.7495  0.5836 -0.3675
 2835SOL    HW220142   1.006   3.736   3.797 -0.2307 -0.1784 -0.6906
 2836SOL     OW20143   3.638   2.588  11.836 -0.4867  0.1343 -0.7339
 2836SOL    HW120144   3.582   2.511  11.840  1.1654 -1.1889 -2.9019
 2836SOL    HW220145   3.722   2.546  11.855 -1.1124  0.7530  3.3678
 2837SOL     OW20146   0.507   1.138   7.330  0.1632  0.0478 -0.1473
 2837SOL    HW120147   0.562   1.093   7.394 -1.6364 -3.1978 -0.8980
 2837SOL    HW220148   0.569   1.151   7.258  0.5612 -1.9782 -0.1666
 2838SOL     OW20149   4.099   0.847   9.037 -0.0980  0.5878 -0.2872
 2838SOL    HW120150   4.165   0.781   9.014 -1.7239 -0.2250 -2.5923
 2838SOL    HW220151   4.146   0.926   9.009 -0.3943 -0.1223 -2.8057
 2839SOL     OW20152   0.450   0.615   4.592 -0.3067 -0.4620  0.2104
 2839SOL    HW120153   0.427   0.527   4.563  0.4208 -0.5190 -0.1843
 2839SOL    HW220154   0.389   0.655   4.529  0.4649 -0.0403 -0.2663
 2840SOL     OW20155   0.036   4.301   4.205  0.0706 -0.3358 -0.3635
 2840SOL    HW120156   4.734   4.321   4.291  0.5560 -1.7761  0.1847
 2840SOL    HW220157   0.112   4.358   4.195  0.5639 -0.9165  0.0965
 2841SOL     OW20158   1.116   0.610   1.211  0.1938 -0.1656  0.7718
 2841SOL    HW120159   1.171   0.656   1.275 -0.0953  1.2775 -0.0057
 2841SOL    HW220160   1.045   0.674   1.203 -0.5416 -1.3344 -2.2178
 2842SOL     OW20161   0.366   0.487   1.706 -0.4457 -0.1066  0.5494
 2842SOL    HW120162   0.337   0.573   1.676 -1.4908 -0.2853  1.0767
 2842SOL    HW220163   0.421   0.472   1.628  1.4194 -2.7765  2.3689
 2843SOL     OW20164   1.357   1.917  17.461  0.1854  0.1453  0.2908
 2843SOL    HW120165   1.396   1.832  17.482 -1.4286 -0.7801 -0.4807
 2843SOL    HW220166   1.287   1.888  17.403  1.1043  1.0315 -1.2688
 2844SOL     OW20167   3.572   3.918   7.493 -0.6564 -0.6481 -0.1777
 2844SOL    HW120168   3.502   3.967   7.450 -0.3745 -0.4652 -0.4235
 2844SOL    HW220169   3.628   3.891   7.421 -2.0942 -0.8154 -1.2304
 2845SOL     OW20170   1.474   3.121  15.760 -0.1041  0.2210 -0.0929
 2845SOL    HW120171   1.442   3.042  15.804  0.4172  0.1895  0.2320
 2845SOL    HW220172   1.401   3.181  15.769  0.5900  1.5278 -3.0560
 2846SOL     OW20173   3.146   4.167   2.216  0.3576 -0.6335 -0.0560
 2846SOL    HW120174   3.099   4.087   2.192 -1.0379  0.4632 -0.9534
 2846SOL    HW220175   3.088   4.214   2.275 -3.1582 -1.6555 -2.6788
 2847SOL     OW20176   2.013   1.547  13.613  0.0246 -0.3006  0.0732
 2847SOL    HW120177   1.927   1.581  13.639 -0.5121  0.7167 -3.0046
 2847SOL    HW220178   2.072   1.607  13.660 -1.8867  1.0486  0.7553
 2848SOL     OW20179   3.701   3.823   9.579 -0.0777  0.3559  0.5302
 2848SOL    HW120180   3.627   3.762   9.578  0.9634 -0.9054 -0.2130
 2848SOL    HW220181   3.694   3.866   9.494  0.8557 -1.3322 -0.4095
 2849SOL     OW20182   2.398   4.648  10.250 -0.1945 -0.0329 -0.3639
 2849SOL    HW120183   2.327   4.637  10.313 -0.0470  0.4053 -0.1209
 2849SOL    HW220184   2.464   4.694  10.301  0.3338  0.5790 -1.5945
 2850SOL     OW20185   1.420   1.768   5.599  0.4107  0.4822 -0.1237
 2850SOL    HW120186   1.421   1.713   5.678  0.9405  0.7563  0.0589
 2850SOL    HW220187   1.373   1.845   5.631  0.2795 -0.3006  1.6042
 2851SOL     OW20188   1.011   0.810   9.014 -0.0541 -0.1902 -0.1967
 2851SOL    HW120189   1.009   0.898   9.052  0.2068 -0.3659  0.2188
 2851SOL    HW220190   1.097   0.815   8.972  0.8039  2.1508  1.8570
 2852SOL     OW20191   2.621   4.142   9.217 -0.6702  0.4178  0.2952
 2852SOL    HW120192   2.686   4.195   9.263 -0.3925  0.3506 -0.0181
 2852SOL    HW220193   2.577   4.214   9.173  0.9443  1.1762 -0.0786
 2853SOL     OW20194   0.649   1.474   1.551  0.4872 -0.0292 -0.3445
 2853SOL    HW120195   0.694   1.467   1.634  2.3739 -0.0172 -1.3661
 2853SOL    HW220196   0.636   1.569   1.542 -1.3944 -0.0966  1.6647
 2854SOL     OW20197   2.346   0.178  10.153  0.0895  0.0362 -0.1962
 2854SOL    HW120198   2.344   0.090  10.191 -1.0732  0.4255  0.6638
 2854SOL    HW220199   2.319   0.156  10.064  0.3711  0.3941 -0.3694
 2855SOL     OW20200   2.494   2.949   5.161 -0.4704 -0.5327 -0.2082
 2855SOL    HW120201   2.588   2.969   5.156 -0.3150 -1.1893  0.1024
 2855SOL    HW220202   2.493   2.905   5.246  0.8947 -1.5805 -0.7311
 2856SOL     OW20203   1.290   1.012   9.012  0.0751  0.2511 -0.1580
 2856SOL    HW120204   1.382   0.986   9.003 -0.2378 -0.6072 -0.8550
 2856SOL    HW220205   1.255   0.991   8.925 -2.0439 -2.5582  1.3572
 2857SOL     OW20206   3.521   3.561   3.784 -0.0181 -0.4679 -0.6315
 2857SOL    HW120207   3.425   3.561   3.789  0.0045  0.2026 -0.2538
 2857SOL    HW220208   3.546   3.631   3.844  1.5846 -1.1707 -0.4902
 2858SOL     OW20209   1.402   4.325   4.381  0.0886 -0.0261  0.1202
 2858SOL    HW120210   1.415   4.230   4.389 -0.4843 -0.0647  0.6195
 2858SOL    HW220211   1.342   4.324   4.456 -0.7351 -0.3514 -0.5500
 2859SOL     OW20212   3.540   3.412   5.164 -0.3649  0.2330 -0.3978
 2859SOL    HW120213   3.608   3.478   5.154  0.3575 -0.4642 -0.1134
 2859SOL    HW220214   3.527   3.420   5.259 -2.3553 -0.2420 -0.6279
 2860SOL     OW20215   2.110   1.219   5.251 -0.4696 -1.3197  0.2374
 2860SOL    HW120216   2.034   1.171   5.218 -0.7944 -0.9412  0.4293
 2860SOL    HW220217   2.162   1.143   5.276 -1.7710 -2.1337  0.4644
 2861SOL     OW20218   4.338   1.904   2.572 -0.2513  0.4747 -0.8435
 2861SOL    HW120219   4.254   1.915   2.617  1.3870 -1.1048  2.6299
 2861SOL    HW220220   4.356   1.998   2.567  0.4706  0.4262  0.6398
 2862SOL     OW20221   2.546   1.244   7.468 -0.2253 -0.3240 -0.6369
 2862SOL    HW120222   2.582   1.156   7.480  0.6391  0.1563  0.2490
 2862SOL    HW220223   2.527   1.262   7.560  2.3038 -0.0683 -0.1727
 2863SOL     OW20224   0.429   2.281   2.124 -0.1061 -0.8104  0.3761
 2863SOL    HW120225   0.483   2.203   2.116  0.0117 -0.7559  0.6225
 2863SOL    HW220226   0.409   2.273   2.218 -0.0903 -0.5342  0.4034
 2864SOL     OW20227   1.555   1.888  13.840  0.4627 -0.4354 -0.2569
 2864SOL    HW120228   1.564   1.848  13.753  2.1591  0.1970 -0.3793
 2864SOL    HW220229   1.480   1.845  13.881  0.8001 -1.7720 -1.0486
 2865SOL     OW20230   0.596   1.498   9.431 -0.4993  0.6410  0.2937
 2865SOL    HW120231   0.551   1.429   9.383  0.5106 -1.3856  2.2708
 2865SOL    HW220232   0.564   1.483   9.520  0.9813  0.5515  0.8163
 2866SOL     OW20233   0.317   0.383   7.582  0.2586  0.6079  0.1173
 2866SOL    HW120234   0.307   0.425   7.497 -0.0883  0.2514 -0.0174
 2866SOL    HW220235   0.402   0.407   7.618  0.8771 -0.3335 -0.7043
 2867SOL     OW20236   1.124   2.834   6.046 -0.6034  0.4671 -0.3111
 2867SOL    HW120237   1.184   2.868   5.979 -1.1482  1.5413 -0.2548
 2867SOL    HW220238   1.159   2.866   6.130  3.1714  0.1581 -1.7460
 2868SOL     OW20239   1.696   2.168   3.780  0.1375 -0.4514 -0.1222
 2868SOL    HW120240   1.764   2.234   3.793  2.4625 -2.3638 -2.5779
 2868SOL    HW220241   1.655   2.168   3.867 -1.6118 -0.1030 -0.9585
 2869SOL     OW20242   4.293   0.514   3.539  0.1282  0.0655  0.2018
 2869SOL    HW120243   4.358   0.487   3.474 -0.1272  1.0147 -0.4487
 2869SOL    HW220244   4.348   0.513   3.618  0.7521 -1.6096 -0.2583
 2870SOL     OW20245   0.887   3.421   9.485  0.3970  0.1175 -0.4060
 2870SOL    HW120246   0.827   3.487   9.520  0.0756 -1.4525  2.0635
 2870SOL    HW220247   0.944   3.463   9.421 -0.2705 -0.5367 -1.4295
 2871SOL     OW20248   2.690   2.658  12.156  0.0209 -0.5619  0.2155
 2871SOL    HW120249   2.603   2.656  12.117 -1.1487  1.9591  2.7579
 2871SOL    HW220250   2.688   2.575  12.204 -0.2056  0.6241  2.2628
 2872SOL     OW20251   3.753   3.085  15.367 -0.3399 -0.6681  0.4758
 2872SOL    HW120252   3.722   3.011  15.314  0.8607  0.4043 -1.7482
 2872SOL    HW220253   3.770   3.041  15.450 -2.5138 -0.8373  0.8396
 2873SOL     OW20254   1.672   2.719  17.038  0.0796 -0.1847  0.2545
 2873SOL    HW120255   1.727   2.797  17.032  0.6372 -0.4289  2.2179
 2873SOL    HW220256   1.675   2.696  17.131  0.7554 -0.9076  0.0525
 2874SOL     OW20257   0.639   2.015   4.653 -0.2067  0.3650  0.0398
 2874SOL    HW120258   0.656   1.974   4.568 -0.0551 -2.6802  1.5251
 2874SOL    HW220259   0.688   1.960   4.714 -1.9832 -1.9872 -0.6427
 2875SOL     OW20260   0.760   1.085  12.299 -0.2133  0.2114 -0.3457
 2875SOL    HW120261   0.794   1.085  12.209 -1.1923 -0.2241 -0.7182
 2875SOL    HW220262   0.806   1.008  12.332 -1.1008 -0.0386  0.3164
 2876SOL     OW20263   0.143   4.328   2.073  0.2416  0.1571 -0.5340
 2876SOL    HW120264   0.192   4.265   2.126  1.0752  1.9944  0.8851
 2876SOL    HW220265   0.051   4.306   2.092  0.1085  0.7885 -0.4617
 2877SOL     OW20266   0.331   0.287  15.911 -0.2398 -0.2082 -0.1366
 2877SOL    HW120267   0.241   0.296  15.879 -0.1648  2.8186  0.5018
 2877SOL    HW220268   0.347   0.193  15.905 -1.0469 -0.3988  0.7090
 2878SOL     OW20269   4.343   4.158   8.315 -0.1671  0.0955  0.1900
 2878SOL    HW120270   4.359   4.229   8.253  1.0903  0.8415  1.3713
 2878SOL    HW220271   4.273   4.107   8.275 -1.3775  2.3598 -0.5690
 2879SOL     OW20272   3.297   0.907   8.299  1.0043  0.0751 -0.2229
 2879SOL    HW120273   3.205   0.908   8.326  0.1625 -2.4355 -2.9041
 2879SOL    HW220274   3.290   0.914   8.203 -1.2796 -1.0985 -0.1524
 2880SOL     OW20275   0.735   2.282   2.248 -0.6918 -0.2849  0.2709
 2880SOL    HW120276   0.661   2.303   2.305  0.2971  0.0418  1.4181
 2880SOL    HW220277   0.781   2.366   2.241 -2.9097  1.0401  1.4865
 2881SOL     OW20278   0.016   3.301   4.149  0.6571 -0.1088 -0.2611
 2881SOL    HW120279   4.689   3.272   4.083  1.6638  0.3930 -1.4534
 2881SOL    HW220280   0.105   3.300   4.113  0.3481 -0.8339 -0.9964
 2882SOL     OW20281   1.218   0.206   6.281  0.0697  0.0476  0.3876
 2882SOL    HW120282   1.252   0.235   6.196  0.6221 -1.4239  0.1067
 2882SOL    HW220283   1.257   0.277   6.332 -1.6301  0.9694  0.3848
 2883SOL     OW20284   0.788   4.623   4.013  0.0449  0.3297  0.0855
 2883SOL    HW120285   0.870   4.610   3.966 -0.6013 -3.1790 -0.0800
 2883SOL    HW220286   0.804   4.702   4.064 -0.0877 -0.0547  0.7207
 2884SOL     OW20287   3.783   3.536   2.413  0.1275 -0.5215  0.0450
 2884SOL    HW120288   3.812   3.599   2.479  0.5907 -2.3615  1.5940
 2884SOL    HW220289   3.804   3.599   2.344  0.1178 -2.0905 -1.3891
 2885SOL     OW20290   0.851   0.386  14.567  0.1220  0.5485 -0.0167
 2885SOL    HW120291   0.841   0.295  14.594 -1.1163  0.6242 -0.2206
 2885SOL    HW220292   0.935   0.411  14.606  0.8392 -1.3196 -0.3320
 2886SOL     OW20293   0.165   3.321  17.196  0.1711  0.3479  0.4815
 2886SOL    HW120294   0.210   3.246  17.158  0.6132  0.3111  1.0775
 2886SOL    HW220295   0.133   3.357  17.114  1.7329 -0.8035 -0.6240
 2887SOL     OW20296   4.524   3.353   3.451 -0.0927 -0.1940 -0.1179
 2887SOL    HW120297   4.600   3.393   3.493 -0.7105  2.0864 -1.1728
 2887SOL    HW220298   4.495   3.306   3.529 -2.1422  1.1954 -0.0535
 2888SOL     OW20299   0.590   3.422   4.794 -0.4938  0.0848 -0.0728
 2888SOL    HW120300   0.645   3.491   4.758  0.0448 -0.3673 -0.1150
 2888SOL    HW220301   0.631   3.391   4.875  0.7652 -1.4133 -1.2836
 2889SOL     OW20302   2.005   0.960   7.968  1.0121  0.4043  0.2043
 2889SOL    HW120303   1.985   1.017   7.893  0.3296  0.6735  0.5890
 2889SOL    HW220304   2.037   1.028   8.027 -0.0496  0.9611  0.1421
 2890SOL     OW20305   2.321   0.939   8.968 -0.6509  0.1436 -0.3302
 2890SOL    HW120306   2.400   0.926   8.915 -1.0656  0.9780 -1.1524
 2890SOL    HW220307   2.329   0.870   9.034  0.1823  0.2146 -0.3609
 2891SOL     OW20308   2.389   3.045  17.140 -0.0244 -0.3416  0.2794
 2891SOL    HW120309   2.477   3.058  17.105 -0.7268  0.0588 -1.3204
 2891SOL    HW220310   2.369   3.132  17.173  0.2914 -0.8604  1.8729
 2892SOL     OW20311   1.955   1.101   2.861 -0.5602 -0.1689 -0.1857
 2892SOL    HW120312   2.042   1.118   2.825 -0.0466 -1.4517  0.4618
 2892SOL    HW220313   1.932   1.191   2.884 -1.0199  0.1242 -1.7886
 2893SOL     OW20314   4.087   3.686   9.486  0.4614 -0.8572 -1.1350
 2893SOL    HW120315   4.041   3.753   9.537 -0.2056 -1.6331 -0.7132
 2893SOL    HW220316   4.037   3.609   9.514  0.4061 -1.1255 -1.9526
 2894SOL     OW20317   3.771   2.369   7.486 -0.0381 -0.2057  0.4198
 2894SOL    HW120318   3.855   2.325   7.495 -1.0857 -2.3079  0.0734
 2894SOL    HW220319   3.719   2.317   7.423 -1.2558  0.6134  0.7402
 2895SOL     OW20320   4.368   0.844   1.786  0.4224  0.0312  0.3390
 2895SOL    HW120321   4.277   0.868   1.807 -0.4434  0.7131 -4.1649
 2895SOL    HW220322   4.365   0.750   1.797 -2.0657 -0.1809 -2.1073
 2896SOL     OW20323   0.037   2.138   7.753  0.2788  0.4205 -0.0057
 2896SOL    HW120324   0.044   2.146   7.848  3.0626  0.1479 -0.2027
 2896SOL    HW220325   4.689   2.183   7.735 -0.7699 -0.8719  1.6403
 2897SOL     OW20326   1.242   3.664   6.911  0.5776 -0.0818 -0.0440
 2897SOL    HW120327   1.166   3.635   6.861  0.3292  0.2327  0.1519
 2897SOL    HW220328   1.316   3.669   6.850 -0.3653 -0.3479 -1.2074
 2898SOL     OW20329   3.649   2.460   4.543  0.5695 -0.1238 -0.5176
 2898SOL    HW120330   3.596   2.382   4.527  0.7984 -0.5971  0.9850
 2898SOL    HW220331   3.680   2.449   4.633 -2.1480 -0.0743  0.3989
 2899SOL     OW20332   3.691   0.074   4.169 -0.3399 -0.3686 -0.7169
 2899SOL    HW120333   3.756   0.049   4.235 -3.2464 -1.1522  1.8523
 2899SOL    HW220334   3.733   0.146   4.122 -0.9945 -0.0957 -0.8784
 2900SOL     OW20335   2.609   1.774  12.469 -0.2820 -0.4578  0.4008
 2900SOL    HW120336   2.700   1.787  12.442 -1.2420  3.2549 -0.9726
 2900SOL    HW220337   2.588   1.696  12.417 -3.3577  0.7325 -0.1304
 2901SOL     OW20338   0.489   4.001   3.348  0.2904 -0.0299 -1.2256
 2901SOL    HW120339   0.572   3.955   3.337  1.8031  2.4179 -0.1244
 2901SOL    HW220340   0.474   3.988   3.441 -2.2790  1.3797 -1.4407
 2902SOL     OW20341   3.223   3.837   1.644  0.3790 -0.6675  0.1177
 2902SOL    HW120342   3.150   3.847   1.705  2.5816 -1.0434  2.8237
 2902SOL    HW220343   3.225   3.926   1.608  1.7717 -0.1808  1.4060
 2903SOL     OW20344   0.846   0.545   3.771 -0.3452  0.0993  0.1212
 2903SOL    HW120345   0.863   0.457   3.738 -0.5329 -0.8345  2.4604
 2903SOL    HW220346   0.753   0.542   3.752 -0.5092  0.9638  0.8013
 2904SOL     OW20347   1.810   3.448   8.278 -0.1253 -0.2624  0.4753
 2904SOL    HW120348   1.816   3.444   8.183 -1.6633  0.3034  0.3558
 2904SOL    HW220349   1.767   3.365   8.297 -0.3350 -0.0432  0.9511
 2905SOL     OW20350   1.073   2.797   8.066 -0.5821  0.0478 -0.1339
 2905SOL    HW120351   1.049   2.714   8.026  0.7030 -0.6593  0.5967
 2905SOL    HW220352   1.139   2.827   8.004 -0.5896 -0.1055 -0.2160
 2906SOL     OW20353   4.009   4.594  13.436 -0.1948 -0.6664  0.1222
 2906SOL    HW120354   4.090   4.550  13.464  0.3804 -0.2262 -0.8336
 2906SOL    HW220355   3.947   4.522  13.449 -0.0249 -0.7547  0.4505
 2907SOL     OW20356   0.112   0.226   2.814  1.0248 -0.0603 -0.7933
 2907SOL    HW120357   0.127   0.242   2.721 -0.6248 -0.5746 -1.1534
 2907SOL    HW220358   0.018   0.209   2.803  0.8964 -0.4629  0.9316
 2908SOL     OW20359   2.829   0.634   4.375 -0.0793 -0.1619  0.1048
 2908SOL    HW120360   2.912   0.586   4.374 -0.7786 -1.3994  2.3699
 2908SOL    HW220361   2.850   0.726   4.389 -0.4539  0.3439 -2.6614
 2909SOL     OW20362   3.534   3.540   6.391  0.0142  0.4502 -0.1056
 2909SOL    HW120363   3.495   3.579   6.469  0.6254 -0.5191  0.6812
 2909SOL    HW220364   3.526   3.449   6.420 -1.3124  0.2557 -1.0441
 2910SOL     OW20365   0.604   4.414   1.882  0.0615 -0.0077 -0.2263
 2910SOL    HW120366   0.581   4.408   1.789  0.8205 -1.2226 -0.3320
 2910SOL    HW220367   0.622   4.321   1.899  3.3556  0.4275 -1.5282
 2911SOL     OW20368   4.415   4.654   5.258 -0.0049 -0.3748 -0.5309
 2911SOL    HW120369   4.453   4.614   5.336  0.0310  1.3836  0.3596
 2911SOL    HW220370   4.417   0.010   5.286 -0.7004 -0.4656 -0.1937
 2912SOL     OW20371   1.332   1.462   2.199 -0.4652 -0.0285  0.3598
 2912SOL    HW120372   1.402   1.521   2.230 -0.5230 -0.3311  1.0583
 2912SOL    HW220373   1.302   1.429   2.283 -0.2802 -0.5233  0.2280
 2913SOL     OW20374   4.511   4.620   2.577  0.2287 -0.0328  0.1911
 2913SOL    HW120375   4.476   4.531   2.586 -1.4120  0.6325  0.4814
 2913SOL    HW220376   4.537   4.625   2.486 -0.8352 -0.2755 -0.1290
 2914SOL     OW20377   1.901   1.416  12.334 -0.1108 -0.1101 -0.0622
 2914SOL    HW120378   1.974   1.478  12.338  1.2088 -1.5955 -1.1724
 2914SOL    HW220379   1.891   1.425  12.239  0.6057  1.6256  0.0196
 2915SOL     OW20380   2.847   0.125  14.467 -0.3747 -0.4495  0.1787
 2915SOL    HW120381   2.821   0.143  14.377  0.5797  1.5973  0.2981
 2915SOL    HW220382   2.937   0.157  14.459 -0.2285 -1.4990 -2.3311
 2916SOL     OW20383   1.208   3.000   9.861 -0.2137  0.3368 -0.0145
 2916SOL    HW120384   1.176   2.997   9.772 -1.6480 -0.1598  0.5264
 2916SOL    HW220385   1.191   3.092   9.882  0.9332  0.2798  1.1699
 2917SOL     OW20386   3.628   4.329   8.608 -0.2295  0.0986 -0.2448
 2917SOL    HW120387   3.669   4.267   8.548  0.4736 -0.7681  1.1188
 2917SOL    HW220388   3.634   4.407   8.553 -1.6436 -0.0548 -0.5998
 2918SOL     OW20389   0.492   2.035   6.135  0.2619 -0.4254 -0.1266
 2918SOL    HW120390   0.401   2.053   6.160  0.4636 -0.2703  0.5006
 2918SOL    HW220391   0.489   1.955   6.083  0.0965 -0.5581  0.0908
 2919SOL     OW20392   3.802   3.845  14.555 -0.0102  0.0503 -0.4598
 2919SOL    HW120393   3.834   3.896  14.629 -1.7581 -0.1651  0.4586
 2919SOL    HW220394   3.789   3.756  14.590  1.0705  0.1474  0.1799
 2920SOL     OW20395   4.252   4.243   7.663  0.2136  0.0298 -0.4741
 2920SOL    HW120396   4.291   4.180   7.723 -0.3222 -0.3286 -0.4995
 2920SOL    HW220397   4.251   4.321   7.720  0.4913 -1.2785  1.3199
 2921SOL     OW20398   0.454   3.857   5.227  0.4588 -0.6918 -0.0997
 2921SOL    HW120399   0.450   3.845   5.322  0.9925 -1.3613 -0.1614
 2921SOL    HW220400   0.394   3.799   5.180  1.8363 -3.0675  1.0518
 2922SOL     OW20401   0.000   4.587  10.207 -0.0419 -0.2359  0.1738
 2922SOL    HW120402   4.735   4.493  10.223 -0.2154  0.0271  1.7783
 2922SOL    HW220403   0.007   4.587  10.112 -1.7739 -1.8621  0.0603
 2923SOL     OW20404   4.192   0.473   5.883  0.1807  0.1724 -0.2342
 2923SOL    HW120405   4.119   0.510   5.933 -1.2179 -0.2756 -1.9437
 2923SOL    HW220406   4.197   0.538   5.813 -0.4505  0.5368  0.0602
 2924SOL     OW20407   0.236   1.828   2.642  0.2649 -0.0288  0.6560
 2924SOL    HW120408   0.281   1.893   2.588 -1.1252  0.6719  0.3499
 2924SOL    HW220409   0.191   1.783   2.570  1.6968  0.8163 -0.7625
 2925SOL     OW20410   0.578   1.130   5.617  0.4734  0.1817  0.4612
 2925SOL    HW120411   0.664   1.148   5.578 -0.4258  0.2827 -1.4959
 2925SOL    HW220412   0.536   1.203   5.571  1.0139  0.7165  0.8157
 2926SOL     OW20413   1.291   1.669   8.900  0.1949  0.2666 -0.0902
 2926SOL    HW120414   1.292   1.765   8.906 -0.5218  0.1278  2.0832
 2926SOL    HW220415   1.202   1.649   8.871 -0.4570  0.4863  1.7567
 2927SOL     OW20416   3.149   2.324   8.891  0.6681 -0.1055  0.2236
 2927SOL    HW120417   3.242   2.305   8.878  0.8280 -0.4492  1.8887
 2927SOL    HW220418   3.141   2.353   8.982 -1.5095 -0.1275  0.0353
 2928SOL     OW20419   0.001   0.998   7.093  0.2739  0.2149 -0.0218
 2928SOL    HW120420   0.042   0.923   7.049 -0.2649  0.2135 -0.5115
 2928SOL    HW220421   4.659   0.952   7.126  0.8534 -0.8314 -0.1178
 2929SOL     OW20422   4.540   2.261   4.779 -0.2252  0.2751 -0.2815
 2929SOL    HW120423   4.545   2.169   4.754  1.1982  0.1125  0.6163
 2929SOL    HW220424   4.483   2.287   4.706 -1.3873  0.5644  0.7379
 2930SOL     OW20425   2.929   2.027   8.072 -0.2874 -0.4131  0.1562
 2930SOL    HW120426   2.917   2.112   8.114 -1.7208 -0.8142  0.5885
 2930SOL    HW220427   3.021   2.033   8.047 -0.1639 -0.8360  0.5112
 2931SOL     OW20428   3.755   0.716   6.350  0.0893  0.1379  0.3150
 2931SOL    HW120429   3.826   0.781   6.352  0.7863 -0.6019 -0.3356
 2931SOL    HW220430   3.804   0.637   6.372  1.5762  0.5907 -1.3680
 2932SOL     OW20431   1.622   0.063   3.079 -0.0135  0.2608 -0.6969
 2932SOL    HW120432   1.616   4.709   3.044 -0.0314 -0.6899  1.7380
 2932SOL    HW220433   1.718   0.063   3.089  0.0377  0.1353 -1.2181
 2933SOL     OW20434   0.377   2.869   1.976 -0.1515 -0.4078 -0.5951
 2933SOL    HW120435   0.292   2.908   1.959 -0.2868 -0.0801  0.8017
 2933SOL    HW220436   0.352   2.777   1.964  0.0011 -0.3642 -1.2729
 2934SOL     OW20437   1.713   1.186   6.405  0.1984  1.0090  0.3311
 2934SOL    HW120438   1.655   1.163   6.332 -0.6491  3.6762  0.1368
 2934SOL    HW220439   1.681   1.124   6.471  1.2263 -1.0142 -1.0866
 2935SOL     OW20440   3.143   3.009   3.544  0.2145  0.3283 -0.8682
 2935SOL    HW120441   3.060   3.001   3.498 -0.4200  0.3364  0.2564
 2935SOL    HW220442   3.177   3.094   3.515  1.1777  0.0449 -0.5624
 2936SOL     OW20443   1.659   1.933   4.373 -0.1532 -0.6705 -0.0435
 2936SOL    HW120444   1.573   1.893   4.386 -0.8723  0.7450 -0.3904
 2936SOL    HW220445   1.716   1.873   4.422  0.8914  0.7461  0.4923
 2937SOL     OW20446   2.525   1.858   6.111 -0.1227  0.0802  0.4151
 2937SOL    HW120447   2.609   1.875   6.153 -0.3278  1.6399  0.2176
 2937SOL    HW220448   2.552   1.860   6.019 -0.3782  2.9005  0.3781
 2938SOL     OW20449   1.761   0.959   9.188 -0.0208 -0.0725 -0.1427
 2938SOL    HW120450   1.736   1.041   9.145  0.0686 -0.5243 -1.0553
 2938SOL    HW220451   1.747   0.968   9.283  0.8343 -0.6540  0.0367
 2939SOL     OW20452   2.486   1.801   2.441 -0.2509  0.0210 -0.2974
 2939SOL    HW120453   2.514   1.728   2.386 -2.1560 -1.0137  0.1406
 2939SOL    HW220454   2.454   1.770   2.525  1.9318 -0.0725  0.5073
 2940SOL     OW20455   1.645   1.839  15.715  0.3538  0.5385  0.8358
 2940SOL    HW120456   1.721   1.895  15.699  0.1192  0.4264 -0.6515
 2940SOL    HW220457   1.581   1.898  15.754  3.4706  3.3634  1.7065
 2941SOL     OW20458   3.455   3.043   7.436 -0.0779 -0.3613 -0.0754
 2941SOL    HW120459   3.373   3.091   7.429  0.8972  1.4063  0.8447
 2941SOL    HW220460   3.485   3.054   7.346 -0.7891 -0.0360 -0.2768
 2942SOL     OW20461   0.557   2.525   2.041  0.1868 -0.1019 -0.2157
 2942SOL    HW120462   0.504   2.447   2.052  0.6557 -0.2735  0.7579
 2942SOL    HW220463   0.493   2.596   2.031  0.8209  0.3718 -1.0124
 2943SOL     OW20464   0.913   0.166   4.999  0.1503 -0.3277 -0.4705
 2943SOL    HW120465   0.830   0.187   4.956  1.5762  0.7589 -2.6951
 2943SOL    HW220466   0.867   0.145   5.080  1.2685  1.4909  0.6372
 2944SOL     OW20467   3.588   3.881   4.534 -0.0170  0.4167  0.1552
 2944SOL    HW120468   3.597   3.838   4.448  2.4203 -2.4757  1.8482
 2944SOL    HW220469   3.658   3.843   4.587  0.2090  0.8133  0.1476
 2945SOL     OW20470   3.163   1.904   6.997  0.4960  1.0544  0.3381
 2945SOL    HW120471   3.106   1.910   7.074  0.3112 -1.6865  0.4249
 2945SOL    HW220472   3.142   1.990   6.962  0.8567  1.2449  0.5869
 2946SOL     OW20473   3.164   0.535   7.265 -0.1064 -0.2170 -0.2091
 2946SOL    HW120474   3.103   0.593   7.310 -0.5613  0.7534 -2.0820
 2946SOL    HW220475   3.118   0.452   7.275 -2.4741  1.3917  2.4017
 2947SOL     OW20476   3.197   4.627  17.102  0.3904 -0.5320  0.2923
 2947SOL    HW120477   3.224   4.535  17.103  0.2682 -0.5772 -1.1217
 2947SOL    HW220478   3.176   4.637  17.010  1.2810 -1.2005  0.0198
 2948SOL     OW20479   4.645   4.128  11.837 -0.1963 -0.0438  0.1315
 2948SOL    HW120480   4.613   4.140  11.926 -1.9786 -0.4791 -0.4457
 2948SOL    HW220481   4.594   4.196  11.794 -2.4218 -0.7222  1.7394
 2949SOL     OW20482   1.543   3.233   6.772 -0.1531  0.0859 -0.5428
 2949SOL    HW120483   1.558   3.275   6.857  2.0597 -2.4606  0.2976
 2949SOL    HW220484   1.506   3.304   6.719 -1.9048  0.1151  0.7202
 2950SOL     OW20485   4.715   1.661   4.465  0.0063  0.2807  0.8724
 2950SOL    HW120486   0.074   1.647   4.455 -0.2841 -1.5647  0.7745
 2950SOL    HW220487   4.707   1.665   4.561 -1.7493 -0.6661  0.7661
 2951SOL     OW20488   4.545   2.242   0.073  0.9704  0.1655  0.3568
 2951SOL    HW120489   4.566   2.204   0.159 -0.6410 -0.6943  0.3816
 2951SOL    HW220490   4.633   2.254   0.040  1.0671  1.1782  0.9901
 2952SOL     OW20491   4.244   1.782   7.261  0.1368  0.0722  0.4671
 2952SOL    HW120492   4.186   1.710   7.237 -0.9187  0.8860  0.6125
 2952SOL    HW220493   4.309   1.743   7.320  1.0416 -0.6715 -1.0118
 2953SOL     OW20494   1.031   3.055   3.270 -0.4907  0.0153  0.2760
 2953SOL    HW120495   1.087   3.059   3.348 -1.2452 -0.3482  0.8363
 2953SOL    HW220496   1.051   3.136   3.223  2.7888 -1.8090 -1.4936
 2954SOL     OW20497   2.919   1.571   1.240 -0.0958 -0.1156  0.5875
 2954SOL    HW120498   2.844   1.517   1.264  0.6404 -0.7705  1.4309
 2954SOL    HW220499   2.996   1.527   1.277 -0.5103 -0.7127  0.7415
 2955SOL     OW20500   1.349   0.243  15.924 -0.0313 -0.0691 -0.0782
 2955SOL    HW120501   1.282   0.222  15.859  0.0068 -0.7998  0.1145
 2955SOL    HW220502   1.374   0.162  15.969 -1.0970  0.3207  1.1961
 2956SOL     OW20503   2.417   0.226   5.851 -0.0839 -0.4376  0.3493
 2956SOL    HW120504   2.430   0.311   5.893  1.9935  0.8812 -2.9689
 2956SOL    HW220505   2.368   0.182   5.921 -0.1918 -0.5001  0.2328
 2957SOL     OW20506   4.698   3.389  12.182 -0.0393  0.4570 -0.3013
 2957SOL    HW120507   0.028   3.441  12.229 -1.8620  2.7743 -0.4028
 2957SOL    HW220508   4.629   3.384  12.248 -0.4113  0.0641 -0.7158
 2958SOL     OW20509   2.512   2.576  17.735  0.0351 -0.1902  0.1019
 2958SOL    HW120510   2.459   2.596  17.657 -1.7550  1.3115  1.7032
 2958SOL    HW220511   2.537   2.484  17.723  0.2871 -0.2351  0.9805
 2959SOL     OW20512   4.669   1.625  15.203 -0.4793 -0.2823  0.5419
 2959SOL    HW120513   4.605   1.690  15.174  0.9559  1.5650  1.5026
 2959SOL    HW220514   4.694   1.599  15.114  1.2370 -0.9340  1.2171
 2960SOL     OW20515   3.580   3.229   8.236  0.6074  0.5700  0.1183
 2960SOL    HW120516   3.615   3.219   8.148 -0.0407  2.5040 -0.3444
 2960SOL    HW220517   3.527   3.308   8.230 -0.9138 -0.6673 -2.8044
 2961SOL     OW20518   4.013   2.651   2.194  0.1725  0.6821 -0.2382
 2961SOL    HW120519   4.063   2.721   2.238 -1.3433  1.7630 -0.2328
 2961SOL    HW220520   4.046   2.568   2.227  1.9018  1.6487  0.4823
 2962SOL     OW20521   3.675   3.889   1.769  0.2019 -0.0176 -0.3198
 2962SOL    HW120522   3.708   3.974   1.741  0.2466  0.2548  0.5394
 2962SOL    HW220523   3.583   3.891   1.742 -0.2792 -0.8393  1.2310
 2963SOL     OW20524   3.538   3.956   8.175  0.4458 -0.1337  0.0504
 2963SOL    HW120525   3.467   4.013   8.146  1.3153  2.1509  2.4960
 2963SOL    HW220526   3.490   3.874   8.183 -0.4760  0.3621 -0.5051
 2964SOL     OW20527   1.925   1.300  11.081 -0.0402  0.4467  0.4714
 2964SOL    HW120528   1.843   1.311  11.129 -0.7653 -0.5506 -0.5448
 2964SOL    HW220529   1.993   1.282  11.147  1.3271  3.5145 -0.0918
 2965SOL     OW20530   1.597   3.576   9.600 -0.2112 -0.1635  0.2982
 2965SOL    HW120531   1.575   3.530   9.681 -0.6842 -2.7172 -1.3009
 2965SOL    HW220532   1.686   3.603   9.620 -0.4918 -0.0607  1.4242
 2966SOL     OW20533   1.184   3.720  16.234  0.6492 -0.4245 -0.4914
 2966SOL    HW120534   1.215   3.775  16.162  0.8642  2.0834  1.5084
 2966SOL    HW220535   1.098   3.692  16.203  0.6159 -2.9594  1.9189
 2967SOL     OW20536   1.959   0.757   3.137 -0.0765 -0.0258 -0.0098
 2967SOL    HW120537   1.945   0.776   3.044  2.8135 -0.6005 -0.5612
 2967SOL    HW220538   1.867   0.731   3.146  0.2536 -1.1729  0.0937
 2968SOL     OW20539   0.714   4.561   2.685 -0.4204 -0.2923 -0.4779
 2968SOL    HW120540   0.670   4.645   2.697  1.3600  0.0056  3.6957
 2968SOL    HW220541   0.648   4.502   2.648 -1.9196  0.3439  1.2046
 2969SOL     OW20542   3.405   0.899   1.164  0.1612  0.4021  0.4748
 2969SOL    HW120543   3.331   0.844   1.190 -2.0940  2.3221 -1.7922
 2969SOL    HW220544   3.379   0.984   1.200  1.7741  1.7842 -1.6066
 2970SOL     OW20545   0.346   1.625   6.652  0.1024  0.1333 -0.6079
 2970SOL    HW120546   0.369   1.718   6.645  2.5845 -0.3699  0.9977
 2970SOL    HW220547   0.303   1.629   6.738  1.4029 -1.2578  0.1035
 2971SOL     OW20548   1.624   3.742  10.758  0.3219 -0.0795  0.4196
 2971SOL    HW120549   1.550   3.712  10.704  0.6703  1.9522 -1.2070
 2971SOL    HW220550   1.606   3.679  10.828  0.5321 -0.8947 -0.2597
 2972SOL     OW20551   1.206   1.448   7.059 -0.0707  0.0991 -0.5172
 2972SOL    HW120552   1.202   1.436   6.964  0.5482  0.6323 -0.6088
 2972SOL    HW220553   1.155   1.530   7.061 -1.6265 -0.8174 -2.3282
 2973SOL     OW20554   1.721   4.327   2.976  0.1775 -0.3983  0.2974
 2973SOL    HW120555   1.713   4.251   2.920  1.3131 -1.0503  1.0138
 2973SOL    HW220556   1.816   4.339   2.978  0.2480 -1.0170  0.5918
 2974SOL     OW20557   4.096   3.931   7.339 -0.0268 -0.1648  0.2081
 2974SOL    HW120558   4.013   3.884   7.333  0.5645 -0.8627 -2.3900
 2974SOL    HW220559   4.121   3.926   7.432 -0.4003 -0.5529  0.2839
 2975SOL     OW20560   1.298   2.075   2.939 -0.5875  0.2716  0.3922
 2975SOL    HW120561   1.223   2.088   2.998 -1.4930 -2.4675 -0.1395
 2975SOL    HW220562   1.260   2.126   2.868 -2.8067 -1.8648  0.0361
 2976SOL     OW20563   0.085   2.127   7.267  0.1700 -0.5660 -0.0810
 2976SOL    HW120564   0.161   2.183   7.285 -0.4355 -0.0716  0.9302
 2976SOL    HW220565   0.106   2.094   7.179 -0.2027  0.7761 -0.6747
 2977SOL     OW20566   0.777   4.621   6.940  0.1005  0.0361  0.3546
 2977SOL    HW120567   0.784   4.528   6.964 -2.1023 -0.6069 -1.4835
 2977SOL    HW220568   0.690   4.647   6.972 -0.0490 -1.4845  1.1976
 2978SOL     OW20569   4.396   2.220   5.008 -0.0461  0.1012 -0.7309
 2978SOL    HW120570   4.452   2.244   4.934  0.7497  4.2544  1.2263
 2978SOL    HW220571   4.458   2.199   5.079 -0.6797 -0.9814 -0.4898
 2979SOL     OW20572   1.422   4.262  13.681  0.0952 -0.3594 -0.5468
 2979SOL    HW120573   1.394   4.187  13.628 -0.8888 -0.5149  0.1746
 2979SOL    HW220574   1.349   4.323  13.670 -1.2125 -1.4278  2.1932
 2980SOL     OW20575   0.897   2.536   2.769 -0.0421  0.2455 -0.1381
 2980SOL    HW120576   0.838   2.463   2.790  2.0409 -1.6484 -0.8244
 2980SOL    HW220577   0.882   2.534   2.675  0.8895 -1.1414 -0.2557
 2981SOL     OW20578   4.271   0.201   3.649 -0.3115  0.6092  0.2735
 2981SOL    HW120579   4.231   0.256   3.716  0.4812  0.6658  0.6982
 2981SOL    HW220580   4.333   0.262   3.610  2.4884 -1.0178  2.1562
 2982SOL     OW20581   4.661   0.823   4.108 -0.0115  0.2704  0.5797
 2982SOL    HW120582   4.687   0.890   4.046  1.8149  0.9461  2.0678
 2982SOL    HW220583   4.566   0.831   4.102  0.0049  0.2601  0.3076
 2983SOL     OW20584   4.391   3.932   7.611 -0.2079  0.1995 -1.0837
 2983SOL    HW120585   4.297   3.927   7.628  0.5688 -0.1439  3.0277
 2983SOL    HW220586   4.420   3.958   7.698 -3.5690  0.7394 -0.1132
 2984SOL     OW20587   2.361   1.808   5.128 -0.5645  0.2574  0.2163
 2984SOL    HW120588   2.322   1.839   5.210  0.2521  0.6418  0.4655
 2984SOL    HW220589   2.288   1.809   5.067 -0.2541 -0.5252 -0.1684
 2985SOL     OW20590   3.644   2.654  10.342 -0.0045 -0.0218  0.4375
 2985SOL    HW120591   3.667   2.690  10.427 -1.3222 -0.4347  0.9670
 2985SOL    HW220592   3.551   2.638  10.359 -0.2039  1.3753  0.6922
 2986SOL     OW20593   4.615   1.978   4.693 -0.2263 -0.6870 -0.5755
 2986SOL    HW120594   4.691   1.982   4.752  0.3911  1.9248 -1.5527
 2986SOL    HW220595   4.652   2.008   4.610 -0.0221 -1.1378 -0.6514
 2987SOL     OW20596   1.197   0.728   5.404  0.0147  0.7401  0.2509
 2987SOL    HW120597   1.253   0.757   5.477 -2.3096  0.1217  2.2944
 2987SOL    HW220598   1.130   0.687   5.458 -0.8142  2.4331  0.5236
 2988SOL     OW20599   4.706   2.988   8.369 -0.2969  0.4293  0.0299
 2988SOL    HW120600   4.712   3.057   8.303 -3.1106  1.2968  0.6666
 2988SOL    HW220601   4.643   3.025   8.431 -0.6049 -0.1295  0.0471
 2989SOL     OW20602   3.430   4.668   4.550  0.1650 -0.4511  0.0880
 2989SOL    HW120603   3.425   0.020   4.511  0.7666 -0.6089 -0.3380
 2989SOL    HW220604   3.424   4.624   4.465 -1.3330 -0.7819  0.3504
 2990SOL     OW20605   4.064   4.515   4.945 -0.0386 -0.4488 -0.0105
 2990SOL    HW120606   4.088   4.590   5.000 -0.4443  1.4301 -2.3746
 2990SOL    HW220607   4.124   4.527   4.871  0.7914  1.0547  0.9038
 2991SOL     OW20608   2.814   1.931   2.853  0.1551  0.5898  0.1244
 2991SOL    HW120609   2.825   2.008   2.909 -0.6076  1.0185 -0.3104
 2991SOL    HW220610   2.748   1.964   2.792 -0.9684 -1.9605 -0.0485
 2992SOL     OW20611   0.109   1.453   3.818  0.2260  0.3316 -0.6123
 2992SOL    HW120612   0.184   1.423   3.767  1.2389  0.5113  0.7700
 2992SOL    HW220613   0.152   1.454   3.903  2.2239 -1.3895 -1.6131
 2993SOL     OW20614   3.671   0.415   4.209 -0.2877  0.4185 -0.0039
 2993SOL    HW120615   3.715   0.384   4.129  1.3875 -0.5164  1.2688
 2993SOL    HW220616   3.746   0.461   4.247  1.0387 -0.6936 -1.2440
 2994SOL     OW20617   2.874   2.436  13.545 -0.1626  0.0311  0.1801
 2994SOL    HW120618   2.865   2.497  13.618  0.9459  0.6530 -0.2079
 2994SOL    HW220619   2.785   2.399  13.544  0.0410 -0.4830  1.1802
 2995SOL     OW20620   2.404   0.692   0.626  0.0921 -0.0921  0.9635
 2995SOL    HW120621   2.333   0.756   0.641  0.9014 -0.3141  5.6801
 2995SOL    HW220622   2.378   0.625   0.689  0.4970 -1.8055 -0.7089
 2996SOL     OW20623   0.043   3.768  10.719  0.4628 -0.3700  0.3608
 2996SOL    HW120624   4.729   3.825  10.661  0.7995  0.3482  0.7759
 2996SOL    HW220625   4.716   3.730  10.780  0.2195 -1.1768 -0.3885
 2997SOL     OW20626   2.498   1.185   0.882 -0.0799 -0.2947  0.5283
 2997SOL    HW120627   2.507   1.215   0.972  1.6213  2.4544 -0.5375
 2997SOL    HW220628   2.568   1.239   0.845 -2.5824  0.4942 -3.0286
 2998SOL     OW20629   4.523   4.222   0.983 -0.1752 -0.0096  0.1587
 2998SOL    HW120630   4.516   4.127   0.987 -0.4048 -0.0557 -1.1970
 2998SOL    HW220631   4.607   4.231   1.029 -0.2507 -0.8680  0.4604
 2999SOL     OW20632   2.101   2.983   8.707 -0.0525  0.0450  0.6826
 2999SOL    HW120633   2.022   3.034   8.725 -0.3190  0.8700 -2.8781
 2999SOL    HW220634   2.174   3.044   8.716 -0.7718  1.0221 -0.1301
 3000SOL     OW20635   0.013   3.995   7.390  0.2519  0.0992 -0.6902
 3000SOL    HW120636   4.724   4.052   7.462 -1.9512 -1.9381  0.1306
 3000SOL    HW220637   4.661   3.973   7.359  0.3234 -0.4061 -0.5394
 3001SOL     OW20638   2.200   0.778   6.081  1.0124 -0.4189 -0.2484
 3001SOL    HW120639   2.161   0.827   6.008  1.8834  1.5984  0.6625
 3001SOL    HW220640   2.283   0.759   6.037  0.8807 -1.1840 -0.1611
 3002SOL     OW20641   1.095   0.771   8.631 -0.4706 -0.1521 -0.4054
 3002SOL    HW120642   1.118   0.679   8.613 -0.3006 -0.1746 -0.0759
 3002SOL    HW220643   1.116   0.773   8.724 -0.0405  4.0325 -0.6074
 3003SOL     OW20644   0.030   4.694   2.652  0.7347  0.2938 -0.0102
 3003SOL    HW120645   0.045   4.610   2.695  3.4697  1.5186  1.4784
 3003SOL    HW220646   4.678   4.685   2.616  2.2818  0.0954 -3.7904
 3004SOL     OW20647   2.555   4.705   4.086 -0.2108 -0.1120 -0.8411
 3004SOL    HW120648   2.513   4.674   4.165  2.8800 -0.9359  0.4741
 3004SOL    HW220649   2.517   0.057   4.089 -0.0850 -0.0664 -0.5651
 3005SOL     OW20650   0.859   3.188   1.893  0.1793  0.2379  0.1272
 3005SOL    HW120651   0.802   3.255   1.855  2.0669  2.5388  1.3837
 3005SOL    HW220652   0.860   3.130   1.817  1.1093 -0.0966  0.3942
 3006SOL     OW20653   4.304   1.998   2.896 -0.1885 -0.5253 -0.8622
 3006SOL    HW120654   4.218   1.958   2.910  0.2162 -1.2865 -0.6097
 3006SOL    HW220655   4.285   2.085   2.859 -0.5495 -0.4263 -0.4475
 3007SOL     OW20656   1.654   3.575  14.033 -0.0015  0.4383  0.5217
 3007SOL    HW120657   1.706   3.654  14.047 -0.8628  1.6536 -3.2542
 3007SOL    HW220658   1.704   3.526  13.968 -0.9518  0.6748 -0.3854
 3008SOL     OW20659   1.781   3.469   2.725  0.1806  0.3522 -0.2821
 3008SOL    HW120660   1.704   3.459   2.780  1.9857 -1.3313  1.9261
 3008SOL    HW220661   1.737   3.455   2.641 -1.5045 -0.0742  0.6838
 3009SOL     OW20662   1.962   1.441   2.908  0.1849 -0.1027  0.3272
 3009SOL    HW120663   1.871   1.462   2.929  0.4115  0.8839  0.3122
 3009SOL    HW220664   2.015   1.454   2.987  1.2321 -0.3237 -0.3374
 3010SOL     OW20665   0.827   3.383   8.036 -0.1007  0.7314 -0.0969
 3010SOL    HW120666   0.847   3.299   7.995  1.3020  0.6583  0.7292
 3010SOL    HW220667   0.909   3.427   8.016  1.2950 -1.3348  1.1246
 3011SOL     OW20668   4.129   2.076  13.341  0.1187  0.0389  0.2500
 3011SOL    HW120669   4.196   2.137  13.310  0.0376  0.4010  0.7826
 3011SOL    HW220670   4.186   2.039  13.409  2.1163  1.0344 -0.8871
 3012SOL     OW20671   3.424   0.772   3.594  0.3654 -0.3433  0.1598
 3012SOL    HW120672   3.506   0.721   3.595  0.6865  0.1331 -1.7601
 3012SOL    HW220673   3.443   0.820   3.674  0.8878 -1.6380  0.8199
 3013SOL     OW20674   2.617   4.494   2.681 -0.0090 -0.3428 -0.1352
 3013SOL    HW120675   2.566   4.536   2.751  0.6611 -0.0608  0.1879
 3013SOL    HW220676   2.555   4.422   2.665  0.2659 -0.8711  1.2081
 3014SOL     OW20677   2.835   0.229   9.769  0.1554 -0.2005 -0.3353
 3014SOL    HW120678   2.892   0.164   9.728 -0.3016  0.1054 -1.4379
 3014SOL    HW220679   2.865   0.313   9.735  1.7149 -0.6466 -0.0646
 3015SOL     OW20680   0.425   0.791  13.655 -0.0852  0.1740  0.5192
 3015SOL    HW120681   0.338   0.831  13.658 -0.3060 -0.2926  0.4851
 3015SOL    HW220682   0.417   0.717  13.716  0.0226  1.0951  1.6369
 3016SOL     OW20683   0.230   0.795   4.486 -0.2617 -0.1520 -0.0838
 3016SOL    HW120684   0.268   0.867   4.435  3.9373 -0.4762  2.5386
 3016SOL    HW220685   0.176   0.748   4.423  0.5026  0.3053 -1.0745
 3017SOL     OW20686   0.819   1.362   3.845 -0.4577  0.0083 -0.0423
 3017SOL    HW120687   0.873   1.291   3.809 -2.2903 -0.6448 -1.4772
 3017SOL    HW220688   0.886   1.424   3.873 -0.1261  0.8192 -2.5869
 3018SOL     OW20689   4.226   1.848   7.796 -0.2425 -0.2825  0.8041
 3018SOL    HW120690   4.267   1.891   7.722 -3.0356  1.0929  0.0457
 3018SOL    HW220691   4.141   1.892   7.800 -0.0034  0.3604 -1.4007
 3019SOL     OW20692   1.780   1.164   8.851 -0.2880  1.0011  0.2241
 3019SOL    HW120693   1.691   1.168   8.817  0.5029  0.9000 -1.8657
 3019SOL    HW220694   1.813   1.236   8.797  1.3072  1.1117  1.3476
 3020SOL     OW20695   0.461   1.355   6.811 -0.1379 -0.2898  0.0731
 3020SOL    HW120696   0.419   1.432   6.772 -0.4908 -1.2139 -1.3843
 3020SOL    HW220697   0.412   1.291   6.760  0.3166 -1.7679  1.4911
 3021SOL     OW20698   1.598   1.404  10.898  0.0804 -0.2576  0.1322
 3021SOL    HW120699   1.545   1.436  10.971 -0.6083 -0.0045 -0.4766
 3021SOL    HW220700   1.654   1.480  10.885  1.1782 -0.9184  1.0486
 3022SOL     OW20701   4.557   0.569   5.207  0.4559 -0.7637  0.3914
 3022SOL    HW120702   4.648   0.554   5.232 -0.0893 -3.4116  0.7853
 3022SOL    HW220703   4.527   0.590   5.295 -1.6059  0.9791 -0.7161
 3023SOL     OW20704   1.430   4.440   8.102  0.3748 -0.6677  0.0239
 3023SOL    HW120705   1.460   4.465   8.015 -2.1831 -0.3052 -0.7367
 3023SOL    HW220706   1.342   4.408   8.083  0.4878 -1.3372  0.6166
 3024SOL     OW20707   1.439   2.350  12.223  0.6096 -0.7723 -0.4578
 3024SOL    HW120708   1.371   2.300  12.177 -0.0151 -1.0788  0.8163
 3024SOL    HW220709   1.412   2.442  12.221  0.3851 -0.8365 -0.4247
 3025SOL     OW20710   4.429   1.587  17.590 -0.1075 -0.2499  0.5839
 3025SOL    HW120711   4.356   1.602  17.650 -0.4144  1.2882 -0.1529
 3025SOL    HW220712   4.435   1.495  17.614 -0.0976 -0.3445  0.2139
 3026SOL     OW20713   2.206   2.693   2.648 -0.2899 -0.0624 -0.4389
 3026SOL    HW120714   2.189   2.639   2.725 -0.4287 -0.1439 -0.5252
 3026SOL    HW220715   2.163   2.635   2.585 -0.3676 -1.3942  0.8384
 3027SOL     OW20716   1.397   1.987  17.168  0.5364 -0.1546  0.2962
 3027SOL    HW120717   1.317   1.942  17.195 -0.6025  1.5073 -0.2967
 3027SOL    HW220718   1.438   2.015  17.250 -0.3744 -0.4396  0.8555
 3028SOL     OW20719   4.034   1.773   6.966 -0.1653 -0.0904  0.4864
 3028SOL    HW120720   4.024   1.689   6.920 -1.6065 -0.4136  1.3902
 3028SOL    HW220721   3.963   1.759   7.029  0.4771 -0.9723  1.0241
 3029SOL     OW20722   2.375   1.409   3.090  0.4359  0.7886 -0.1905
 3029SOL    HW120723   2.451   1.464   3.106 -0.5342  1.7755  1.0686
 3029SOL    HW220724   2.394   1.347   3.160 -0.5171  1.6684  0.8505
 3030SOL     OW20725   0.840   0.988   0.168 -0.0973  0.4941 -0.4746
 3030SOL    HW120726   0.763   0.931   0.171 -0.1481  0.6961  1.8483
 3030SOL    HW220727   0.834   1.011   0.075  1.2192  1.3937 -0.3338
 3031SOL     OW20728   2.415   1.048  10.588  0.0894 -0.6646 -0.1124
 3031SOL    HW120729   2.430   1.024  10.679  2.0361  0.5585 -0.1205
 3031SOL    HW220730   2.450   0.971  10.543  2.7148 -0.1121  0.9945
 3032SOL     OW20731   1.056   4.551   3.956 -0.3349  0.6349 -0.5927
 3032SOL    HW120732   1.136   4.590   3.993  0.3536  0.2781 -1.7029
 3032SOL    HW220733   1.093   4.513   3.876  0.9748 -1.4800  1.0167
 3033SOL     OW20734   4.000   0.765   9.992  0.0673  0.9502 -0.2018
 3033SOL    HW120735   4.065   0.762  10.062 -2.7063  0.1681  2.2949
 3033SOL    HW220736   3.938   0.828  10.027 -0.9310  0.8106 -1.7076
 3034SOL     OW20737   1.668   1.464   5.964 -0.3950  0.0819  0.0611
 3034SOL    HW120738   1.674   1.521   6.040  1.2588 -0.1326  0.0937
 3034SOL    HW220739   1.586   1.415   5.976  0.4486 -2.0022 -2.6008
 3035SOL     OW20740   3.673   3.817   5.823 -0.5460 -0.1201 -0.4907
 3035SOL    HW120741   3.583   3.786   5.837  0.1819 -0.2752  3.5596
 3035SOL    HW220742   3.693   3.801   5.730  1.5721  0.9814 -0.2057
 3036SOL     OW20743   2.044   0.121   0.853 -0.3095 -0.1508  0.6025
 3036SOL    HW120744   1.949   0.132   0.847 -0.2442 -1.1920 -2.6206
 3036SOL    HW220745   2.046   0.065   0.930  2.0627 -0.3456  0.4058
 3037SOL     OW20746   1.625   4.031   1.510  0.0486  0.1874 -0.0888
 3037SOL    HW120747   1.582   4.110   1.543 -2.3732 -1.6665  1.1720
 3037SOL    HW220748   1.642   4.055   1.419 -2.7112 -0.2251 -0.6924
 3038SOL     OW20749   4.542   2.070   5.408  0.3649 -0.2997 -0.2583
 3038SOL    HW120750   4.460   2.119   5.410  0.7599  0.3432  0.5333
 3038SOL    HW220751   4.538   2.033   5.496 -2.9589 -0.8649 -0.6673
 3039SOL     OW20752   3.310   4.637   6.035  0.0063  0.1972  0.1752
 3039SOL    HW120753   3.348   4.619   5.950 -0.7158  0.3588 -0.1820
 3039SOL    HW220754   3.265   4.720   6.021  1.6720  0.9084 -0.9308
 3040SOL     OW20755   0.849   2.016   4.864  0.1777 -0.3189  0.0635
 3040SOL    HW120756   0.941   1.989   4.852  0.6048  0.7636  0.9211
 3040SOL    HW220757   0.811   1.932   4.889  1.3329 -1.0397 -0.5448
 3041SOL     OW20758   1.981   2.293  12.183  0.0207  0.3920 -0.0617
 3041SOL    HW120759   1.972   2.198  12.176  2.4471  0.4287 -3.5641
 3041SOL    HW220760   2.017   2.298  12.272  2.5842 -0.5076 -1.0354
 3042SOL     OW20761   0.469   1.653  10.759  0.1914 -0.6128  0.3223
 3042SOL    HW120762   0.523   1.705  10.820  1.8284  1.4056 -2.8806
 3042SOL    HW220763   0.455   1.584  10.824 -0.3853 -0.7936  0.0030
 3043SOL     OW20764   2.652   3.422   3.821  0.3149 -0.5958 -0.2515
 3043SOL    HW120765   2.630   3.358   3.889 -3.2330 -0.3910 -1.1970
 3043SOL    HW220766   2.641   3.500   3.875  0.9022 -0.4041 -0.4130
 3044SOL     OW20767   1.525   4.081   6.734 -0.2190  0.4628  0.0262
 3044SOL    HW120768   1.595   4.117   6.789 -1.5354  1.1608  1.2614
 3044SOL    HW220769   1.460   4.147   6.758  0.0302  0.5830  0.3685
 3045SOL     OW20770   0.532   1.051  15.262  0.4571  0.7366 -0.5896
 3045SOL    HW120771   0.530   0.987  15.191 -0.7079  2.2209 -1.8904
 3045SOL    HW220772   0.530   0.985  15.332  0.4453 -0.0452 -1.3187
 3046SOL     OW20773   1.002   4.009   4.200 -0.2521  0.1110  0.0838
 3046SOL    HW120774   0.985   4.100   4.179 -3.9828 -0.7324 -0.6332
 3046SOL    HW220775   1.034   4.026   4.288 -0.1637  1.3432 -0.1923
 3047SOL     OW20776   1.613   1.003   3.167  0.5017 -0.7790 -0.4177
 3047SOL    HW120777   1.617   0.910   3.192 -3.6434 -0.1008  2.7610
 3047SOL    HW220778   1.702   1.024   3.140  0.4587  0.1574  0.1646
 3048SOL     OW20779   3.919   1.037   7.121 -0.2487  0.4183  0.1921
 3048SOL    HW120780   3.918   0.941   7.120 -1.5252  0.4403 -0.4220
 3048SOL    HW220781   3.921   1.054   7.215  1.4860  0.5736  0.1256
 3049SOL     OW20782   4.097   4.505   1.254 -0.3808  0.1866  0.2076
 3049SOL    HW120783   4.093   4.533   1.163  1.4852 -1.5410 -0.3835
 3049SOL    HW220784   4.123   4.582   1.305  0.5021  0.4491 -0.6459
 3050SOL     OW20785   1.755   0.035  14.875  0.1151 -0.0922 -0.5433
 3050SOL    HW120786   1.711   4.693  14.909 -0.4863  1.3277  1.9326
 3050SOL    HW220787   1.844   0.035  14.910  0.5128 -0.3548 -1.5732
 3051SOL     OW20788   3.503   2.526  15.938 -0.2205  0.6057  0.1693
 3051SOL    HW120789   3.561   2.549  15.866 -1.5176  2.1252 -0.4194
 3051SOL    HW220790   3.430   2.577  15.902 -2.0776 -1.7287  0.6617
 3052SOL     OW20791   4.104   3.838   1.207  0.1634  0.4625 -0.4880
 3052SOL    HW120792   4.032   3.840   1.144 -1.0925  0.0160  0.9299
 3052SOL    HW220793   4.063   3.823   1.292 -0.7592  1.1545 -0.8078
 3053SOL     OW20794   3.405   0.296  10.445 -0.3563  0.1612  0.7461
 3053SOL    HW120795   3.317   0.278  10.480 -0.3360  1.3397  1.4068
 3053SOL    HW220796   3.459   0.303  10.523 -0.0173  3.0845  0.2699
 3054SOL     OW20797   0.632   2.109   0.426 -0.1253  0.1662 -0.3488
 3054SOL    HW120798   0.686   2.149   0.494 -0.2701 -0.4086  0.0996
 3054SOL    HW220799   0.607   2.029   0.472  2.3875  0.4474  1.4977
 3055SOL     OW20800   0.112   3.788   3.916  0.0565  0.2668 -0.1802
 3055SOL    HW120801   0.077   3.809   3.830 -1.3148 -0.1953  0.2738
 3055SOL    HW220802   0.189   3.845   3.910  0.3025 -0.0151  0.2584
 3056SOL     OW20803   3.025   3.775   2.114  0.1993  0.2840  0.4259
 3056SOL    HW120804   3.116   3.801   2.129  0.6953 -1.4773  0.4755
 3056SOL    HW220805   2.975   3.853   2.140 -0.9830 -0.0591 -0.8247
 3057SOL     OW20806   0.712   1.468   4.521  0.4017 -0.4412 -0.2056
 3057SOL    HW120807   0.720   1.512   4.437 -2.5183 -0.0049 -0.2576
 3057SOL    HW220808   0.726   1.542   4.580  2.1296  1.0587 -2.5184
 3058SOL     OW20809   3.342   2.490  16.180  0.5536  0.4190  0.7665
 3058SOL    HW120810   3.391   2.427  16.233 -1.9934 -0.5031  2.0231
 3058SOL    HW220811   3.374   2.484  16.090 -1.3348 -0.3039  0.1469
 3059SOL     OW20812   3.922   1.772   9.914 -0.1696 -0.0215 -0.0674
 3059SOL    HW120813   3.945   1.680   9.903 -0.3720 -0.3996  2.5050
 3059SOL    HW220814   3.827   1.760   9.909 -0.0662 -0.0281 -1.9189
 3060SOL     OW20815   1.619   3.947  12.328 -0.1068 -0.1422  0.0774
 3060SOL    HW120816   1.677   3.880  12.293  0.8287  0.1369  1.1032
 3060SOL    HW220817   1.533   3.911  12.303  1.9270 -4.3419 -0.8371
 3061SOL     OW20818   0.231   2.280   5.970  0.2501  0.2494 -0.0877
 3061SOL    HW120819   0.188   2.218   5.912 -0.8451 -0.5346  1.5570
 3061SOL    HW220820   0.306   2.306   5.917  0.3351  0.2277  0.0224
 3062SOL     OW20821   1.089   4.275   1.918  0.8622  0.1988  0.1352
 3062SOL    HW120822   1.037   4.356   1.920  2.0393  0.9610 -0.3825
 3062SOL    HW220823   1.134   4.287   1.835 -0.2530 -2.6403 -0.8676
 3063SOL     OW20824   4.630   2.136   1.668  0.3540  0.3983  0.1315
 3063SOL    HW120825   4.563   2.197   1.700  1.2002  2.1481 -1.4514
 3063SOL    HW220826   4.626   2.160   1.576 -0.0820  0.0872  0.0695
 3064SOL     OW20827   1.262   0.815  17.320 -0.2943  0.2405  0.1738
 3064SOL    HW120828   1.167   0.821  17.312 -0.2503  1.8511  0.7349
 3064SOL    HW220829   1.280   0.774  17.235  0.0879  0.2990  0.2247
 3065SOL     OW20830   1.425   3.776   4.920  0.4701 -0.4673  0.0969
 3065SOL    HW120831   1.391   3.697   4.961 -1.2396 -0.1140 -0.6252
 3065SOL    HW220832   1.485   3.802   4.990  2.0336 -1.2572 -0.9654
 3066SOL     OW20833   2.061   2.150   2.014 -0.3876  0.6136  0.0715
 3066SOL    HW120834   1.996   2.131   2.082  0.3176  0.0382  0.5742
 3066SOL    HW220835   2.005   2.192   1.948  1.4934  2.7005 -0.1894
 3067SOL     OW20836   3.570   3.917   6.716  0.2168 -0.3764  0.9543
 3067SOL    HW120837   3.645   3.917   6.657  0.9261  0.9841  1.8441
 3067SOL    HW220838   3.509   3.977   6.673  0.9220 -0.2949  0.0689
 3068SOL     OW20839   3.097   2.468  14.591 -0.0943 -0.3506  0.0580
 3068SOL    HW120840   3.084   2.505  14.678 -1.1397 -0.4535 -0.0587
 3068SOL    HW220841   3.183   2.501  14.566 -1.5460  1.7172 -2.1956
 3069SOL     OW20842   0.128   2.608   3.074  0.2288 -0.1241  0.2903
 3069SOL    HW120843   0.036   2.626   3.094  0.1132 -0.9419  0.5073
 3069SOL    HW220844   0.183   2.638   3.147  0.8108 -1.1414  0.2713
 3070SOL     OW20845   4.229   4.710   1.391  0.7598 -0.3546 -0.0656
 3070SOL    HW120846   4.209   0.018   1.308 -2.6056  1.1346  1.5213
 3070SOL    HW220847   4.166   0.021   1.447  0.5354 -2.1604  1.2143
 3071SOL     OW20848   3.152   1.001   5.441 -0.2236 -0.2482  0.3238
 3071SOL    HW120849   3.231   1.048   5.467  0.3000 -0.4751 -0.8636
 3071SOL    HW220850   3.129   1.047   5.360  0.7938 -1.1710 -0.4939
 3072SOL     OW20851   2.902   2.631  15.026  0.0386  0.3405  0.0999
 3072SOL    HW120852   2.811   2.643  14.997  1.2437  0.5131 -3.6643
 3072SOL    HW220853   2.920   2.540  15.004  0.5078  0.4314  0.1086
 3073SOL     OW20854   1.180   2.870  12.754  0.2332  0.1786 -0.5016
 3073SOL    HW120855   1.162   2.936  12.821  1.1410  1.2045 -1.2771
 3073SOL    HW220856   1.127   2.801  12.795 -0.5248  1.8686  1.3840
 3074SOL     OW20857   2.446   4.045  16.030  0.1618  0.7617  0.4651
 3074SOL    HW120858   2.469   4.101  16.104  1.4544  0.5513  0.2264
 3074SOL    HW220859   2.437   3.955  16.062  0.0573  0.5216 -0.2307
 3075SOL     OW20860   1.803   4.580   4.709  0.2815  0.0504  0.5890
 3075SOL    HW120861   1.752   4.508   4.745 -0.3402  0.3790  0.3697
 3075SOL    HW220862   1.740   4.619   4.647 -0.3470  1.0481  1.8654
 3076SOL     OW20863   4.284   2.196   5.339 -0.6213 -0.3773 -0.2695
 3076SOL    HW120864   4.190   2.184   5.353 -0.4415  0.3372  1.5039
 3076SOL    HW220865   4.276   2.249   5.259 -2.6801  1.4963  1.1600
 3077SOL     OW20866   1.186   2.908   9.472  0.0205  0.2671 -0.3757
 3077SOL    HW120867   1.280   2.895   9.459  0.2778  1.4200  0.3121
 3077SOL    HW220868   1.180   2.978   9.537 -1.4996  0.7708 -1.0551
 3078SOL     OW20869   0.734   0.422   8.990 -0.4541 -0.3579  0.2240
 3078SOL    HW120870   0.791   0.391   9.060 -0.5959  0.1598  0.5686
 3078SOL    HW220871   0.773   0.503   8.960 -0.0541 -0.6086  0.0730
 3079SOL     OW20872   1.064   1.672   7.041 -0.3945  0.5441 -0.3790
 3079SOL    HW120873   0.988   1.681   6.983 -1.5389 -0.3754  0.9727
 3079SOL    HW220874   1.066   1.764   7.067 -2.0395  0.5793 -0.3820
 3080SOL     OW20875   1.983   0.761   9.274 -0.2474  0.0372 -0.0038
 3080SOL    HW120876   1.914   0.697   9.255  1.3518 -1.5598 -0.5319
 3080SOL    HW220877   1.953   0.842   9.233  0.0987  0.6923  1.0373
 3081SOL     OW20878   2.166   2.838  13.076 -0.1848 -0.3586  0.1596
 3081SOL    HW120879   2.108   2.763  13.064 -1.9157  1.0095 -0.1415
 3081SOL    HW220880   2.156   2.863  13.168 -2.0242  2.9740 -0.9169
 3082SOL     OW20881   1.596   1.919   8.194  0.3924  0.1556  0.0106
 3082SOL    HW120882   1.599   1.828   8.165 -0.0898 -0.1415  0.9035
 3082SOL    HW220883   1.514   1.928   8.242  1.3806 -1.5239  1.9618
 3083SOL     OW20884   1.541   0.969   8.957 -0.4529 -0.1827 -0.1042
 3083SOL    HW120885   1.541   1.008   8.870 -0.5242  0.8614  0.3621
 3083SOL    HW220886   1.563   0.878   8.936 -0.6419  0.0503 -1.3149
 3084SOL     OW20887   1.178   4.321   1.656  0.1524 -0.0028  0.0400
 3084SOL    HW120888   1.134   4.361   1.581  1.4115 -1.0743 -1.2491
 3084SOL    HW220889   1.266   4.300   1.627 -0.3690  0.0416 -1.5613
 3085SOL     OW20890   2.785   2.197  15.523 -0.4465  0.2778 -0.4204
 3085SOL    HW120891   2.738   2.223  15.602  1.4431 -1.1776  1.1569
 3085SOL    HW220892   2.709   2.180  15.467  0.0838 -1.7463 -0.5110
 3086SOL     OW20893   0.152   3.192   5.643 -0.2127  0.5844  0.2803
 3086SOL    HW120894   0.080   3.250   5.617  0.5919  1.1915 -0.5877
 3086SOL    HW220895   0.115   3.115   5.601 -1.4829  0.6210  1.3146
 3087SOL     OW20896   2.023   1.588   4.629 -0.3583  0.2973 -0.3623
 3087SOL    HW120897   2.049   1.593   4.538 -0.1883 -0.7279 -0.3681
 3087SOL    HW220898   1.997   1.679   4.646 -0.3783 -0.0575  1.5165
 3088SOL     OW20899   3.091   1.837   6.133 -0.2541  0.1980  1.0381
 3088SOL    HW120900   3.084   1.775   6.206 -0.8140  1.7190  2.2638
 3088SOL    HW220901   3.131   1.917   6.165  0.9695  1.3212 -3.2664
 3089SOL     OW20902   0.302   0.579   6.683 -0.2907  0.5331  0.3334
 3089SOL    HW120903   0.309   0.589   6.778  0.4132 -0.9234  0.4303
 3089SOL    HW220904   0.307   0.670   6.653 -0.3255  0.6587  0.7046
 3090SOL     OW20905   3.062   4.261   3.679  0.0289  0.7903 -0.5124
 3090SOL    HW120906   3.016   4.340   3.709  2.2477  1.3013  1.6475
 3090SOL    HW220907   2.997   4.192   3.692  0.3738  0.5107 -0.2501
 3091SOL     OW20908   3.446   3.100   7.150  0.3215 -0.1651  0.2182
 3091SOL    HW120909   3.365   3.111   7.100  0.1306  0.7024  0.7201
 3091SOL    HW220910   3.507   3.156   7.101 -0.9461  0.4792 -0.6213
 3092SOL     OW20911   4.247   4.107   2.734 -0.5549  0.1104  0.3457
 3092SOL    HW120912   4.281   4.132   2.820 -0.3861 -1.2184  0.6615
 3092SOL    HW220913   4.161   4.148   2.739  0.0542  1.2589  1.4145
 3093SOL     OW20914   2.770   2.954   9.386 -0.4030  0.3683  0.7461
 3093SOL    HW120915   2.781   2.878   9.443  2.1562 -0.7556 -1.2982
 3093SOL    HW220916   2.795   3.029   9.441  1.3179 -0.5475  1.2072
 3094SOL     OW20917   3.837   4.286   5.172  0.4341  0.2992  0.1687
 3094SOL    HW120918   3.915   4.334   5.143  0.7218 -0.7835 -0.8321
 3094SOL    HW220919   3.856   4.273   5.265  2.9131 -0.3864 -0.4212
 3095SOL     OW20920   3.811   4.730   2.910  0.5106  0.2542 -0.0037
 3095SOL    HW120921   3.762   4.706   2.988  1.5011  1.4476  0.9893
 3095SOL    HW220922   3.732   0.029   2.867  0.6749 -1.6513 -1.8456
 3096SOL     OW20923   0.950   2.511   3.783  0.0363 -1.1259 -0.2335
 3096SOL    HW120924   0.924   2.450   3.714 -1.4396 -1.1068  0.3079
 3096SOL    HW220925   0.959   2.456   3.861  1.1306  0.9813  1.1426
 3097SOL     OW20926   3.335   1.810   2.039 -0.0089 -0.4949 -0.2122
 3097SOL    HW120927   3.428   1.801   2.059 -0.1092 -0.2296  0.3620
 3097SOL    HW220928   3.334   1.889   1.985 -0.4049  0.0125  0.5449
 3098SOL     OW20929   1.419   2.665  11.175  0.8415  0.0560 -0.0771
 3098SOL    HW120930   1.409   2.751  11.215 -0.9674  0.5960 -1.6632
 3098SOL    HW220931   1.511   2.674  11.150  1.8025 -0.2608  3.4130
 3099SOL     OW20932   1.850   3.674  13.338 -0.1436 -0.0904 -0.5501
 3099SOL    HW120933   1.806   3.596  13.372  4.6208 -0.8273  4.0105
 3099SOL    HW220934   1.826   3.734  13.408 -1.1554 -2.1026  0.8378
 3100SOL     OW20935   1.842   0.431   9.726  0.4147 -0.4335  0.3446
 3100SOL    HW120936   1.907   0.371   9.762 -1.1989 -1.1057  2.1348
 3100SOL    HW220937   1.902   0.502   9.702  0.6706 -0.8119 -0.1350
 3101SOL     OW20938   2.750   2.955   4.147  0.5244  0.0343  0.5656
 3101SOL    HW120939   2.687   3.004   4.200 -1.7080 -2.2967  0.0460
 3101SOL    HW220940   2.744   2.872   4.193  0.5164  1.2337  2.7031
 3102SOL     OW20941   4.019   0.912   7.736  0.7610  0.0860 -0.2381
 3102SOL    HW120942   4.105   0.944   7.708  1.5306  0.2420  2.2932
 3102SOL    HW220943   4.035   0.818   7.737 -1.1383 -0.2276  0.3244
 3103SOL     OW20944   4.293   3.390   2.679 -0.3077 -0.0670 -0.1011
 3103SOL    HW120945   4.316   3.300   2.657 -2.5130 -1.2796  2.4520
 3103SOL    HW220946   4.233   3.412   2.609 -0.3190 -3.4053 -1.1193
 3104SOL     OW20947   0.272   0.843   5.003  0.6804  0.0882 -0.3885
 3104SOL    HW120948   0.234   0.896   5.073 -0.7293 -0.6685 -0.5618
 3104SOL    HW220949   0.262   0.756   5.042  0.2835  0.4571  0.3519
 3105SOL     OW20950   0.582   0.923   5.254 -0.0466 -0.2353 -0.4500
 3105SOL    HW120951   0.533   0.842   5.244  0.8617 -0.7741 -0.4747
 3105SOL    HW220952   0.509   0.969   5.296 -0.1035 -0.3879 -0.3848
 3106SOL     OW20953   2.724   3.198   9.593  0.1666  0.0490  0.0406
 3106SOL    HW120954   2.637   3.209   9.632 -0.4052 -0.4772 -1.0861
 3106SOL    HW220955   2.786   3.218   9.663  0.0989  0.3185  0.0254
 3107SOL     OW20956   3.382   4.731   5.012 -0.4801 -0.0305  0.5826
 3107SOL    HW120957   3.295   0.022   4.983 -0.0478 -0.5019 -1.1463
 3107SOL    HW220958   3.370   4.638   5.031 -0.6604  0.0374  0.8136
 3108SOL     OW20959   3.078   3.696   7.168 -0.3321 -0.3339  0.5418
 3108SOL    HW120960   3.023   3.735   7.101 -1.4675 -0.5682  1.3303
 3108SOL    HW220961   3.103   3.776   7.214  0.6318 -0.6399  0.5378
 3109SOL     OW20962   2.803   1.941   6.724  0.3864 -0.1712  0.0542
 3109SOL    HW120963   2.820   1.979   6.638 -1.0837  0.7424  0.1678
 3109SOL    HW220964   2.874   1.877   6.733  0.1344  0.2709  5.4155
 3110SOL     OW20965   2.952   3.916   7.485 -0.0349  0.1884 -0.7252
 3110SOL    HW120966   2.941   3.865   7.565  2.6872  0.6014 -0.0873
 3110SOL    HW220967   2.861   3.932   7.464  0.3127  3.4805  0.2524
 3111SOL     OW20968   2.003   3.813   5.619  0.4931  0.0382 -0.2862
 3111SOL    HW120969   1.957   3.735   5.587 -0.9574  0.8829 -0.2723
 3111SOL    HW220970   1.963   3.820   5.705 -0.1741  0.2884 -0.6167
 3112SOL     OW20971   1.479   0.375   4.259  0.0066 -0.3530 -0.2435
 3112SOL    HW120972   1.402   0.405   4.210 -0.3082 -1.9742 -0.7498
 3112SOL    HW220973   1.444   0.381   4.348 -2.5205 -0.1097 -1.2489
 3113SOL     OW20974   4.552   1.609   7.848 -0.2286 -0.1997  0.0271
 3113SOL    HW120975   4.472   1.635   7.803 -0.9177 -0.2483  1.2199
 3113SOL    HW220976   4.613   1.662   7.797 -0.8622  0.3631 -0.1545
 3114SOL     OW20977   4.141   2.822   8.830 -0.0496  0.1040 -0.4695
 3114SOL    HW120978   4.193   2.742   8.845 -1.4513 -0.7664 -0.2382
 3114SOL    HW220979   4.061   2.793   8.785  1.7078 -3.7864 -1.1288
 3115SOL     OW20980   4.418   3.989   8.940  0.0769  0.1735 -0.3338
 3115SOL    HW120981   4.430   4.044   8.863  0.2913 -1.5627 -1.5414
 3115SOL    HW220982   4.497   3.936   8.930 -0.1791 -0.6284  1.7747
 3116SOL     OW20983   2.835   2.760   7.271  0.0791 -0.0198 -0.5300
 3116SOL    HW120984   2.857   2.674   7.306 -0.6364 -0.0552 -0.1731
 3116SOL    HW220985   2.925   2.794   7.264 -0.3405  0.9094 -1.3587
 3117SOL     OW20986   0.174   1.866   6.066  0.0536  0.2200 -0.1775
 3117SOL    HW120987   0.222   1.812   6.003  0.1951 -1.0269  0.9731
 3117SOL    HW220988   0.085   1.842   6.042  1.0552 -2.1741 -1.5514
 3118SOL     OW20989   2.034   2.612   8.096  0.0609  0.7728  0.4441
 3118SOL    HW120990   1.978   2.688   8.081  0.8170  0.9361 -1.6108
 3118SOL    HW220991   2.103   2.648   8.152  1.4766  0.6351 -1.2189
 3119SOL     OW20992   0.293   1.020   4.806 -0.4284  0.0325  0.1838
 3119SOL    HW120993   0.294   0.957   4.878 -0.3330  0.9310  0.9696
 3119SOL    HW220994   0.210   1.004   4.763  0.4372  0.2395 -1.5684
 3120SOL     OW20995   3.600   2.986   0.502 -0.2555  0.4861 -0.6056
 3120SOL    HW120996   3.567   2.901   0.474 -0.9640  0.2580  0.8982
 3120SOL    HW220997   3.662   3.015   0.435  2.8961 -0.8765  1.7046
 3121SOL     OW20998   0.786   3.653   2.898 -0.2666 -0.9196 -0.6226
 3121SOL    HW120999   0.836   3.723   2.854  0.9782 -1.2891  0.1997
 3121SOL    HW221000   0.722   3.642   2.827  0.7512 -0.6278 -1.5887
 3122SOL     OW21001   2.672   2.462   7.236  0.0464 -0.2160  0.1138
 3122SOL    HW121002   2.673   2.485   7.143 -0.4572  0.8006  0.3686
 3122SOL    HW221003   2.579   2.459   7.259  0.2932 -1.5668  0.9484
 3123SOL     OW21004   1.430   2.588   0.345 -0.8682 -0.0006  0.1234
 3123SOL    HW121005   1.376   2.513   0.321 -0.7516 -0.3135  0.8449
 3123SOL    HW221006   1.510   2.545   0.317 -2.1872 -1.9849 -0.5883
 3124SOL     OW21007   1.766   0.263   3.312  0.1499  0.4676  0.4477
 3124SOL    HW121008   1.828   0.226   3.250 -0.1076  1.7357 -0.5740
 3124SOL    HW221009   1.805   0.346   3.336  1.8743 -0.7547  1.8066
 3125SOL     OW21010   2.490   0.205   5.096 -0.0913  1.0585  0.4747
 3125SOL    HW121011   2.507   0.253   5.177  3.0009  1.7790 -0.5819
 3125SOL    HW221012   2.535   0.121   5.107 -4.4874 -1.3315  0.0745
 3126SOL     OW21013   1.220   2.222  17.422  0.8271  0.3690 -0.2902
 3126SOL    HW121014   1.301   2.207  17.471  1.3733  0.2162 -1.2277
 3126SOL    HW221015   1.170   2.148  17.457 -0.9683  1.1486 -1.1954
 3127SOL     OW21016   3.730   2.302   4.169  0.0278 -0.2974 -0.0633
 3127SOL    HW121017   3.732   2.306   4.264  0.8932 -2.0660 -0.0061
 3127SOL    HW221018   3.817   2.338   4.153  0.0535 -0.8537 -1.2103
 3128SOL     OW21019   0.867   1.923   4.005 -0.3364 -0.8351  0.5378
 3128SOL    HW121020   0.955   1.941   3.973 -2.0934  0.6322 -3.3497
 3128SOL    HW221021   0.821   2.004   3.983  0.0230 -0.7238  0.1999
 3129SOL     OW21022   2.129   3.547   7.417  0.3932  0.0098 -0.0039
 3129SOL    HW121023   2.221   3.554   7.393  0.1046  1.2770 -0.7521
 3129SOL    HW221024   2.128   3.584   7.505 -1.0186 -1.5581  0.6483
 3130SOL     OW21025   0.953   3.272   7.070  0.0293 -0.0698 -0.0211
 3130SOL    HW121026   0.968   3.259   7.164  1.4737 -1.4724 -0.4508
 3130SOL    HW221027   0.964   3.185   7.031  0.4892  0.0254 -0.0978
 3131SOL     OW21028   2.061   3.925   7.215  0.4360  0.1532  0.3521
 3131SOL    HW121029   2.022   3.868   7.282  1.3774 -1.0559 -0.1397
 3131SOL    HW221030   1.989   3.916   7.152 -1.5812  1.1442  2.5145
 3132SOL     OW21031   1.676   2.362   7.870 -0.4157 -0.9555  0.5308
 3132SOL    HW121032   1.763   2.392   7.897 -1.5011  1.1174  1.7025
 3132SOL    HW221033   1.666   2.286   7.927  1.3286 -1.3793  0.2693
 3133SOL     OW21034   2.657   1.480   2.774 -0.2893 -0.4081  0.1231
 3133SOL    HW121035   2.684   1.535   2.848 -0.1374  0.0358 -0.2659
 3133SOL    HW221036   2.737   1.432   2.751 -0.0699  0.3458 -0.6924
 3134SOL     OW21037   3.062   3.906   2.685  0.7131  0.4288  0.4517
 3134SOL    HW121038   3.000   3.943   2.748 -1.0352 -0.3504 -0.7996
 3134SOL    HW221039   3.114   3.848   2.741  2.0274  1.5845  0.4103
 3135SOL     OW21040   4.568   1.123   8.433  0.6482 -0.0106 -0.0385
 3135SOL    HW121041   4.517   1.105   8.355  0.5846  0.5509 -0.1281
 3135SOL    HW221042   4.526   1.206   8.458  0.8382  0.2542 -0.6086
 3136SOL     OW21043   1.676   1.132   6.796 -0.1259 -0.1660 -0.7280
 3136SOL    HW121044   1.761   1.087   6.797 -0.9537 -1.6923  1.5964
 3136SOL    HW221045   1.639   1.110   6.710 -0.1968 -0.1891 -0.6914
 3137SOL     OW21046   3.964   0.158  10.863 -0.1224  0.1341  0.7889
 3137SOL    HW121047   4.036   0.095  10.851 -1.4182 -1.4003  1.1382
 3137SOL    HW221048   4.014   0.239  10.869  1.9674 -1.2316  1.9054
 3138SOL     OW21049   2.907   1.300   4.460  0.3897 -0.2278 -0.3736
 3138SOL    HW121050   2.960   1.276   4.536  2.9085  2.6567 -1.2343
 3138SOL    HW221051   2.932   1.392   4.451 -0.5523  0.0442 -0.1891
 3139SOL     OW21052   4.024   2.441  17.465 -0.6970 -0.8630 -0.3387
 3139SOL    HW121053   3.988   2.414  17.549  1.1192 -2.6865 -0.1315
 3139SOL    HW221054   3.953   2.502  17.447  0.0170  0.4214  1.2589
 3140SOL     OW21055   4.420   3.333   1.778  0.0397 -0.3484  0.1715
 3140SOL    HW121056   4.430   3.363   1.687 -1.0254 -0.6139 -0.0330
 3140SOL    HW221057   4.392   3.415   1.817 -0.3123 -0.1935 -0.3984
 3141SOL     OW21058   1.430   2.306  16.542  0.5244  0.1658  0.9571
 3141SOL    HW121059   1.466   2.225  16.505 -0.6244  0.7165 -1.3608
 3141SOL    HW221060   1.496   2.371  16.518 -0.0759  0.3602 -0.1502
 3142SOL     OW21061   1.832   0.411   6.493 -0.0182 -0.0684 -0.0292
 3142SOL    HW121062   1.750   0.378   6.529  0.2081 -2.8190 -2.0320
 3142SOL    HW221063   1.893   0.359   6.545  0.5647 -0.1558 -0.7895
 3143SOL     OW21064   0.737   1.804   5.672  0.0429 -0.1630 -0.3270
 3143SOL    HW121065   0.746   1.871   5.740  1.7032  0.1237 -0.8307
 3143SOL    HW221066   0.790   1.729   5.700  0.9972  0.5502 -0.2196
 3144SOL     OW21067   4.263   0.987   7.682 -0.2550 -0.2250  0.0028
 3144SOL    HW121068   4.303   1.074   7.682 -0.5074 -0.1121 -0.6541
 3144SOL    HW221069   4.328   0.922   7.709 -1.1545 -1.1355 -0.0541
 3145SOL     OW21070   0.557   3.471   8.125  0.9371 -0.0126 -0.6846
 3145SOL    HW121071   0.648   3.458   8.098  0.0983 -0.0642 -3.4764
 3145SOL    HW221072   0.541   3.558   8.089 -1.5177  0.2305  0.9661
 3146SOL     OW21073   1.920   2.522   2.905 -0.2266  0.2088  0.1020
 3146SOL    HW121074   1.868   2.442   2.916 -0.3717  0.4313  1.0018
 3146SOL    HW221075   1.886   2.573   2.979  0.1430 -1.1278  1.1869
 3147SOL     OW21076   2.524   4.326   4.750  0.3055 -1.0606  0.0694
 3147SOL    HW121077   2.559   4.414   4.736 -1.3550 -0.3010  0.6791
 3147SOL    HW221078   2.497   4.308   4.660 -2.1654  1.8762  0.2258
 3148SOL     OW21079   4.482   2.440   2.452 -0.2364 -0.2453  0.2037
 3148SOL    HW121080   4.488   2.489   2.370  0.4009 -1.5028 -0.5069
 3148SOL    HW221081   4.428   2.498   2.505 -0.2881 -1.5469  1.5776
 3149SOL     OW21082   4.048   3.543   7.829 -0.5325  0.3430  0.1999
 3149SOL    HW121083   4.061   3.453   7.857 -0.4518 -0.0459 -1.0777
 3149SOL    HW221084   3.992   3.580   7.898  0.5249  0.1661  1.1387
 3150SOL     OW21085   2.762   1.452   5.411 -0.1048 -0.0456 -0.0021
 3150SOL    HW121086   2.700   1.444   5.339 -1.6163  1.4229  1.1605
 3150SOL    HW221087   2.720   1.525   5.457  0.7120  0.2834  0.2220
 3151SOL     OW21088   1.911   0.317  16.539  0.6501 -0.3901  0.1154
 3151SOL    HW121089   1.975   0.384  16.516 -0.1556  0.2954 -0.1279
 3151SOL    HW221090   1.951   0.305  16.625 -0.0739 -0.1725  0.4840
 3152SOL     OW21091   2.704   0.829   3.656  0.3672  0.0387 -0.3473
 3152SOL    HW121092   2.690   0.871   3.740 -1.3299 -2.5132  0.6065
 3152SOL    HW221093   2.800   0.823   3.649  0.4556 -0.3800  1.3679
 3153SOL     OW21094   3.962   3.402  10.583 -0.1545 -0.3616 -0.1553
 3153SOL    HW121095   3.948   3.484  10.629 -2.2479 -1.0499  0.4634
 3153SOL    HW221096   3.882   3.359  10.615  1.0734 -0.1853  3.1418
 3154SOL     OW21097   0.084   3.695  12.290 -0.5199  0.2746 -0.1377
 3154SOL    HW121098   0.133   3.714  12.210  0.3290  1.5787  0.6968
 3154SOL    HW221099   0.138   3.621  12.319 -0.6433  0.0808 -0.3955
 3155SOL     OW21100   0.261   3.253   2.083 -0.0773 -0.5793 -0.9329
 3155SOL    HW121101   0.355   3.246   2.066  0.2889  0.8275  0.5593
 3155SOL    HW221102   0.255   3.304   2.163  0.6208 -2.2810  0.2189
 3156SOL     OW21103   3.621   1.287   8.397  0.3683 -0.1177 -0.0905
 3156SOL    HW121104   3.596   1.208   8.349  0.0301  0.3429 -0.6667
 3156SOL    HW221105   3.584   1.266   8.482  0.1504  3.9216  0.7934
 3157SOL     OW21106   0.926   1.158   5.298  0.3246  0.5929 -0.1496
 3157SOL    HW121107   0.889   1.150   5.210  1.3451  2.4252 -0.7642
 3157SOL    HW221108   0.983   1.083   5.287 -1.6824 -0.9668  0.1335
 3158SOL     OW21109   2.682   2.484   9.620  0.0883  0.1357 -0.5657
 3158SOL    HW121110   2.605   2.511   9.672  1.7177  3.1704  0.2759
 3158SOL    HW221111   2.657   2.525   9.537 -0.6031 -1.8070 -1.3164
 3159SOL     OW21112   3.160   3.407   9.061  0.0117  0.4157  0.2917
 3159SOL    HW121113   3.094   3.443   9.002 -0.6789 -0.6563  0.4135
 3159SOL    HW221114   3.240   3.424   9.010  0.0851  2.6702  1.1857
 3160SOL     OW21115   3.954   3.797  10.310  0.1928  0.0251  0.2816
 3160SOL    HW121116   4.004   3.841  10.241 -1.5107  0.4334 -0.7012
 3160SOL    HW221117   4.027   3.792  10.372 -0.0760 -0.0384  0.5967
 3161SOL     OW21118   0.773   3.290   2.836  0.3082 -0.2213  0.4153
 3161SOL    HW121119   0.724   3.232   2.777 -2.1854  0.6983  1.5492
 3161SOL    HW221120   0.712   3.356   2.869  0.1289 -0.7354  1.1222
 3162SOL     OW21121   1.511   0.665  13.561 -0.3587  0.3945  0.6680
 3162SOL    HW121122   1.428   0.690  13.601 -0.8086 -1.2000  0.7630
 3162SOL    HW221123   1.558   0.745  13.583 -0.5714  0.4740  0.8256
 3163SOL     OW21124   4.107   3.851   1.895  0.3726  0.2323  0.3423
 3163SOL    HW121125   4.080   3.779   1.838  2.9205  0.2967 -0.9556
 3163SOL    HW221126   4.027   3.848   1.948  0.1217  0.0662 -0.0534
 3164SOL     OW21127   4.381   2.291   2.842  0.2285 -0.4254  0.0222
 3164SOL    HW121128   4.419   2.286   2.930  0.3202 -0.7153 -0.0368
 3164SOL    HW221129   4.293   2.324   2.863  0.5659 -0.3463  1.3225
 3165SOL     OW21130   4.685   3.624   4.086 -0.0092  0.3153 -0.2047
 3165SOL    HW121131   4.724   3.688   4.026 -0.0721  0.9208  0.3945
 3165SOL    HW221132   4.675   3.554   4.022 -0.1353 -1.2362  1.5066
 3166SOL     OW21133   4.421   0.087   0.955  0.6679  0.0738 -0.3512
 3166SOL    HW121134   4.480   0.011   0.960  1.3497  0.8063  2.6085
 3166SOL    HW221135   4.379   0.074   0.870  0.1764 -1.0411  0.0694
 3167SOL     OW21136   2.366   2.271  11.324 -0.2980  0.1821 -0.2963
 3167SOL    HW121137   2.413   2.219  11.259  0.5051 -1.4945  1.6252
 3167SOL    HW221138   2.373   2.217  11.403 -0.0639  1.9347  0.8709
 3168SOL     OW21139   1.172   3.998   9.164  0.6977 -0.4431 -0.2452
 3168SOL    HW121140   1.102   3.998   9.099 -1.9774  0.6720  2.6294
 3168SOL    HW221141   1.243   3.954   9.117  0.8143  0.4246 -0.8854
 3169SOL     OW21142   2.092   0.298   1.762  0.1866 -0.4263  0.3032
 3169SOL    HW121143   2.037   0.221   1.749  1.8460 -1.1142 -2.6381
 3169SOL    HW221144   2.147   0.280   1.838  0.1410 -2.6926 -0.1889
 3170SOL     OW21145   4.640   1.697   4.974 -0.4818 -0.3191 -0.0989
 3170SOL    HW121146   4.668   1.784   4.948  4.3421 -0.9044  3.1984
 3170SOL    HW221147   4.649   1.707   5.069  1.6563 -0.6008 -0.2858
 3171SOL     OW21148   2.142   1.748   8.467  0.2488 -0.0659 -0.3573
 3171SOL    HW121149   2.223   1.787   8.436 -0.1693  1.5032  0.5109
 3171SOL    HW221150   2.155   1.752   8.561  0.1106 -0.3815 -0.3234
 3172SOL     OW21151   1.471   0.946   0.309 -0.1873  0.0576  0.2871
 3172SOL    HW121152   1.500   0.857   0.291  0.7757  0.6871 -1.2569
 3172SOL    HW221153   1.517   0.996   0.242  0.0089  1.3999  1.4151
 3173SOL     OW21154   2.951   0.548   8.071  0.5894 -0.4485  0.0506
 3173SOL    HW121155   2.902   0.627   8.045  0.8962 -0.0133  0.7776
 3173SOL    HW221156   2.965   0.570   8.163 -0.7925 -0.8993  0.3670
 3174SOL     OW21157   0.784   0.527  14.030  0.1872 -0.2538 -0.1670
 3174SOL    HW121158   0.722   0.506  13.960  3.6413 -2.8647 -2.4423
 3174SOL    HW221159   0.825   0.443  14.050  2.8452  1.3965  1.4142
 3175SOL     OW21160   0.776   0.854   4.929 -0.1286 -0.9312  1.1971
 3175SOL    HW121161   0.706   0.806   4.884  0.2478 -0.9394  0.6293
 3175SOL    HW221162   0.851   0.802   4.901 -1.6021 -2.1125 -0.5541
 3176SOL     OW21163   0.519   1.592   2.890 -0.3059 -0.3145  0.0360
 3176SOL    HW121164   0.515   1.594   2.986  0.3875 -1.2320  0.0787
 3176SOL    HW221165   0.427   1.595   2.865  0.0407  0.8405 -1.0878
 3177SOL     OW21166   1.306   2.076   8.553  0.0917 -0.2606 -0.1863
 3177SOL    HW121167   1.346   2.162   8.542 -0.9131  0.2271  0.0231
 3177SOL    HW221168   1.305   2.046   8.462  0.4613  2.1906 -1.0019
 3178SOL     OW21169   0.592   2.508   2.342 -0.1008 -0.3839 -0.9690
 3178SOL    HW121170   0.587   2.532   2.250  1.3489  1.6755 -0.5206
 3178SOL    HW221171   0.509   2.461   2.346  0.0511 -0.6548 -1.0361
 3179SOL     OW21172   4.562   0.605  12.882  0.7982  0.0052  0.3168
 3179SOL    HW121173   4.607   0.642  12.958  2.7559  1.5325 -1.5743
 3179SOL    HW221174   4.606   0.649  12.810  0.8042  0.4805  0.6135
 3180SOL     OW21175   0.683   0.728   4.499 -0.5934 -0.2206  0.0526
 3180SOL    HW121176   0.608   0.697   4.550 -0.2582 -0.5450  0.3467
 3180SOL    HW221177   0.702   0.809   4.546 -1.1350  0.3905 -0.7577
 3181SOL     OW21178   0.170   4.338  16.378  0.4268 -0.1738 -0.5079
 3181SOL    HW121179   0.185   4.337  16.473 -1.3813 -0.7239 -0.2398
 3181SOL    HW221180   0.196   4.427  16.354 -1.0128  1.0759  2.6305
 3182SOL     OW21181   3.240   4.561  12.435 -0.1107  0.1194  0.3093
 3182SOL    HW121182   3.184   4.484  12.426  0.4819 -0.3412  0.5864
 3182SOL    HW221183   3.172   4.616  12.395  0.7556 -1.9850 -3.9940
 3183SOL     OW21184   3.772   4.462   7.080 -0.3153  0.2768  0.5429
 3183SOL    HW121185   3.695   4.496   7.036  0.9420  0.7631 -1.3029
 3183SOL    HW221186   3.779   4.525   7.152 -0.1686  1.9410 -0.9432
 3184SOL     OW21187   0.664   2.905   0.604 -0.3535 -0.1213  0.2847
 3184SOL    HW121188   0.696   2.993   0.581  0.3777  0.0005  1.7547
 3184SOL    HW221189   0.749   2.860   0.598 -0.1440  0.0922  1.7716
 3185SOL     OW21190   3.852   3.674  14.782  0.1847 -0.3105  0.2506
 3185SOL    HW121191   3.798   3.723  14.843 -0.8068 -0.9276 -0.1188
 3185SOL    HW221192   3.794   3.600  14.763  2.3449 -1.5307 -1.6292
 3186SOL     OW21193   4.317   3.253   8.440  0.3940 -0.2401  0.0161
 3186SOL    HW121194   4.314   3.329   8.499  1.1086 -0.6169  0.5303
 3186SOL    HW221195   4.230   3.267   8.402  0.8875  1.7848 -0.3558
 3187SOL     OW21196   0.210   3.114   5.312 -0.0850  0.5550  0.1419
 3187SOL    HW121197   0.235   3.038   5.259  1.3525  0.6347  0.6838
 3187SOL    HW221198   0.129   3.126   5.263  1.0156  1.2744 -1.5036
 3188SOL     OW21199   4.097   3.468  14.836 -0.4114 -0.1185 -0.0446
 3188SOL    HW121200   4.067   3.444  14.749 -2.4472 -2.4234  1.2745
 3188SOL    HW221201   4.085   3.562  14.821  3.3280  0.4303  0.3940
 3189SOL     OW21202   4.486   3.262   5.613  0.2156 -0.1618 -0.0831
 3189SOL    HW121203   4.574   3.296   5.626  0.0993  1.3901 -3.2340
 3189SOL    HW221204   4.481   3.254   5.518 -1.5101 -1.3978  0.1053
 3190SOL     OW21205   3.252   0.373   2.248  0.6597 -0.5637  0.3783
 3190SOL    HW121206   3.308   0.306   2.288  0.6393 -1.4499 -1.0609
 3190SOL    HW221207   3.184   0.381   2.315 -0.1240  0.3750 -0.5287
 3191SOL     OW21208   3.486   1.184   3.096 -0.3801  0.0473  0.4214
 3191SOL    HW121209   3.504   1.133   3.175  1.2046  0.7323  0.5108
 3191SOL    HW221210   3.391   1.179   3.083 -0.0347 -1.3833 -1.5362
 3192SOL     OW21211   3.741   0.829   9.433  0.0345  0.2512 -0.2242
 3192SOL    HW121212   3.819   0.788   9.395 -1.2845 -0.7413 -1.8397
 3192SOL    HW221213   3.771   0.902   9.488 -0.7628 -0.1413  0.7239
 3193SOL     OW21214   1.187   1.428  12.078 -0.3286  0.0618  0.3666
 3193SOL    HW121215   1.104   1.382  12.089 -0.9504  1.4609  1.3917
 3193SOL    HW221216   1.192   1.428  11.982 -0.7411  0.5693  0.3476
 3194SOL     OW21217   2.399   1.873   8.392  0.3660 -0.1964  0.5802
 3194SOL    HW121218   2.472   1.907   8.445  1.1079 -1.1466  0.1702
 3194SOL    HW221219   2.389   1.942   8.326 -0.6663 -0.6164  0.2999
 3195SOL     OW21220   1.766   1.407  17.381  0.0037  0.0619 -0.4552
 3195SOL    HW121221   1.777   1.434  17.472  0.4571 -0.5094 -0.3405
 3195SOL    HW221222   1.822   1.330  17.372  0.5579  0.5483 -1.1701
 3196SOL     OW21223   0.531   2.195  16.134 -0.3264  0.8221  0.0932
 3196SOL    HW121224   0.597   2.144  16.181 -1.7976 -1.9671 -0.8838
 3196SOL    HW221225   0.511   2.254  16.206  1.2017  2.1669 -0.5752
 3197SOL     OW21226   1.102   4.594  13.763  0.5058 -0.1929 -0.1815
 3197SOL    HW121227   1.085   4.522  13.824  0.3353 -2.5239 -3.0042
 3197SOL    HW221228   1.015   4.594  13.723  0.4511  0.6025 -0.0799
 3198SOL     OW21229   3.804   2.073  15.372  0.1512  0.0916 -0.5366
 3198SOL    HW121230   3.818   2.084  15.466  0.5228  0.2126 -0.6071
 3198SOL    HW221231   3.843   2.150  15.332  1.0095  0.6121  1.2838
 3199SOL     OW21232   1.027   0.839   7.670 -0.3989  0.2685  0.0994
 3199SOL    HW121233   0.957   0.856   7.607 -2.7515  0.2762  2.7498
 3199SOL    HW221234   1.087   0.913   7.657  0.5207 -0.1582  1.9814
 3200SOL     OW21235   0.086   3.434   1.953  0.0856 -0.7636 -0.1101
 3200SOL    HW121236   0.007   3.381   1.938  1.1307 -1.9381 -1.4502
 3200SOL    HW221237   0.154   3.367   1.965 -0.1739 -0.4065  3.2469
 3201SOL     OW21238   4.692   4.596   6.355 -0.9708 -0.1078 -0.3859
 3201SOL    HW121239   0.035   4.648   6.341 -0.2583 -0.7841  1.1654
 3201SOL    HW221240   4.639   4.647   6.415 -0.1555  1.0375 -0.6392
 3202SOL     OW21241   3.859   0.210   5.047 -0.1430 -0.2600  0.7602
 3202SOL    HW121242   3.830   0.119   5.042 -0.3209 -0.1719  0.2684
 3202SOL    HW221243   3.914   0.199   4.970  1.9971  1.0001  2.1053
 3203SOL     OW21244   0.991   0.661   4.542  0.0737 -0.3130 -0.2141
 3203SOL    HW121245   1.013   0.657   4.449  1.7944  0.5253  0.1543
 3203SOL    HW221246   1.033   0.740   4.577  0.0210 -0.1973 -0.4085
 3204SOL     OW21247   4.343   4.719   8.958 -0.1751 -0.0445 -0.1164
 3204SOL    HW121248   4.324   0.034   9.036  0.5291  1.8205 -1.1610
 3204SOL    HW221249   4.331   4.632   8.997  0.0936 -0.1702 -0.3134
 3205SOL     OW21250   3.230   0.598   3.455  0.1810 -0.3151 -0.1996
 3205SOL    HW121251   3.178   0.599   3.535  1.4970 -0.5586  0.6565
 3205SOL    HW221252   3.288   0.668   3.485  2.0424 -1.6662 -0.5870
 3206SOL     OW21253   0.469   1.997   6.708  0.7797  0.3004  0.1209
 3206SOL    HW121254   0.380   1.978   6.679  1.1489 -1.3853  0.0755
 3206SOL    HW221255   0.468   1.926   6.773  2.5710  0.3745  0.2299
 3207SOL     OW21256   3.098   3.445  15.805 -0.0653  0.4859 -0.1719
 3207SOL    HW121257   3.118   3.363  15.760 -1.6758  0.0680 -0.1121
 3207SOL    HW221258   3.177   3.496  15.820 -0.3228  0.6881  0.5065
 3208SOL     OW21259   2.520   1.550   0.713  0.7410 -0.4101  0.2138
 3208SOL    HW121260   2.552   1.633   0.678 -0.6170  0.2855  0.5865
 3208SOL    HW221261   2.561   1.483   0.659  0.0022 -0.5445 -0.1821
 3209SOL     OW21262   4.709   3.774   2.641  0.1310 -0.1921  0.5122
 3209SOL    HW121263   0.065   3.749   2.628  0.8996  1.9920  1.8741
 3209SOL    HW221264   4.697   3.824   2.561 -0.4690 -2.7667 -1.0237
 3210SOL     OW21265   4.518   3.598   5.004  0.4833  0.3492  0.6633
 3210SOL    HW121266   4.427   3.603   5.034 -0.3355  1.3350 -2.0668
 3210SOL    HW221267   4.516   3.620   4.911 -2.8439  3.2068  1.4574
 3211SOL     OW21268   1.400   0.106   4.123  0.2771  0.2440 -0.7946
 3211SOL    HW121269   1.487   0.071   4.102  0.4865  1.1323 -1.4415
 3211SOL    HW221270   1.385   0.170   4.054 -0.1383 -1.0007 -1.8635
 3212SOL     OW21271   4.561   1.848   3.944  0.1649 -0.8729 -0.4140
 3212SOL    HW121272   4.583   1.934   3.981  0.0873 -1.7239  1.6048
 3212SOL    HW221273   4.516   1.879   3.866 -0.2841  1.5631  0.8022
 3213SOL     OW21274   4.550   0.895  10.591 -0.2955  0.6058  0.0620
 3213SOL    HW121275   4.497   0.815  10.582  1.4838 -0.3814 -1.7043
 3213SOL    HW221276   4.520   0.914  10.680  0.0175 -0.0226  0.3054
 3214SOL     OW21277   3.507   4.326   8.286  0.2566  0.0529 -0.2029
 3214SOL    HW121278   3.554   4.365   8.212  1.3799 -1.3527 -0.2325
 3214SOL    HW221279   3.441   4.275   8.238  0.2505 -0.7021  0.6181
 3215SOL     OW21280   2.584   1.974  16.789 -0.0029 -0.1307  0.5636
 3215SOL    HW121281   2.492   1.984  16.762 -0.2281 -1.1277  0.9357
 3215SOL    HW221282   2.591   2.039  16.859  0.4989  1.1920 -0.7292
 3216SOL     OW21283   2.107   3.180  11.580 -0.1873 -0.1044  0.0186
 3216SOL    HW121284   2.046   3.126  11.631  0.0344 -0.4215 -0.0517
 3216SOL    HW221285   2.150   3.121  11.517 -0.8494 -1.6762  1.0188
 3217SOL     OW21286   3.739   4.169   2.039  0.3550  0.1872 -0.5929
 3217SOL    HW121287   3.707   4.249   1.998 -1.3734 -0.2965 -0.1767
 3217SOL    HW221288   3.656   4.126   2.058  1.3551 -1.1849  0.7173
 3218SOL     OW21289   4.390   3.687   8.824  0.2502 -0.0159 -0.3202
 3218SOL    HW121290   4.468   3.655   8.869 -0.4849 -1.4747 -0.0606
 3218SOL    HW221291   4.411   3.653   8.737  1.5426 -2.6874  1.0222
 3219SOL     OW21292   1.015   2.026   0.085  1.0168  0.2117  0.1746
 3219SOL    HW121293   0.949   2.089   0.114 -2.2136 -1.8933 -2.5723
 3219SOL    HW221294   0.978   1.942   0.112 -1.1550  1.0339 -0.2095
 3220SOL     OW21295   3.768   0.963   4.209 -0.2233 -0.1125 -0.1361
 3220SOL    HW121296   3.816   0.899   4.261  0.4678  1.1854  0.8333
 3220SOL    HW221297   3.715   0.995   4.283 -0.6417  0.7799 -0.8171
 3221SOL     OW21298   1.917   1.275   9.061  0.0500  0.1157  0.6020
 3221SOL    HW121299   1.857   1.236   8.996  0.3221  1.5744 -0.5314
 3221SOL    HW221300   1.988   1.212   9.048 -0.4816 -0.2270 -0.6505
 3222SOL     OW21301   3.098   0.526   0.253 -0.6344  0.2698  0.1755
 3222SOL    HW121302   3.039   0.505   0.181 -0.1317 -0.7958  0.0759
 3222SOL    HW221303   3.170   0.463   0.247 -0.9274  0.2490 -2.9777
 3223SOL     OW21304   2.919   4.021   2.099  0.3557 -0.2694  0.5094
 3223SOL    HW121305   2.970   4.060   2.029 -0.7906  0.2134 -0.0486
 3223SOL    HW221306   2.829   4.012   2.068 -0.5113  1.7128  2.4555
 3224SOL     OW21307   3.436   3.365  11.349 -0.3720 -0.2163 -0.5254
 3224SOL    HW121308   3.505   3.371  11.415 -0.4259  1.5420 -0.6296
 3224SOL    HW221309   3.446   3.278  11.310  1.2558 -0.1795 -0.1905
 3225SOL     OW21310   1.075   3.011   7.421  0.8057 -0.0582  0.0633
 3225SOL    HW121311   1.112   3.093   7.388 -2.3111  0.6435 -1.6638
 3225SOL    HW221312   1.025   3.048   7.494 -1.0030 -1.2347 -0.5785
 3226SOL     OW21313   3.790   2.930   6.671 -0.1542  0.0173  0.1294
 3226SOL    HW121314   3.770   2.880   6.750 -0.8859 -1.4979 -1.0267
 3226SOL    HW221315   3.711   2.906   6.624 -0.1085  2.1949 -1.0763
 3227SOL     OW21316   2.317   3.649   5.345 -0.0630 -0.3179 -0.4374
 3227SOL    HW121317   2.390   3.606   5.388  0.4524 -0.9087 -1.8979
 3227SOL    HW221318   2.358   3.682   5.265  2.2045 -1.5171  0.2386
 3228SOL     OW21319   0.076   0.228   8.423  0.1721  0.5001  0.7495
 3228SOL    HW121320   0.033   0.222   8.338  1.2239 -2.0502  0.4229
 3228SOL    HW221321   0.036   0.305   8.463 -0.0056 -0.1883  1.8723
 3229SOL     OW21322   2.813   1.787   3.497 -0.6710  0.1063 -0.8468
 3229SOL    HW121323   2.814   1.768   3.591  2.0080 -0.2789 -0.9787
 3229SOL    HW221324   2.783   1.878   3.505 -1.5558 -0.3715  1.3107
 3230SOL     OW21325   3.449   3.094  15.134 -0.4577 -0.5961 -0.2023
 3230SOL    HW121326   3.439   3.147  15.055  1.2597 -0.7548 -0.5224
 3230SOL    HW221327   3.493   3.017  15.098  0.4034 -0.9091  1.5053
 3231SOL     OW21328   4.270   3.947   2.519  0.3111 -0.2908  0.4313
 3231SOL    HW121329   4.259   4.000   2.598  0.1338 -2.7794  2.0528
 3231SOL    HW221330   4.287   3.862   2.558  1.9702  0.3236  1.0281
 3232SOL     OW21331   1.472   1.167   6.264 -0.2158 -0.3990 -0.3118
 3232SOL    HW121332   1.404   1.233   6.250  1.0775  1.1419  0.6087
 3232SOL    HW221333   1.455   1.116   6.185 -0.2109 -2.0170  0.7319
 3233SOL     OW21334   2.201   0.191  17.698 -0.2233  0.3536 -0.6715
 3233SOL    HW121335   2.155   0.141  17.630 -1.4150 -2.4909  2.2306
 3233SOL    HW221336   2.199   0.279  17.661  2.0642  1.1113  0.9729
 3234SOL     OW21337   3.118   2.480  16.977 -0.1540  0.4464  0.2222
 3234SOL    HW121338   3.101   2.574  16.965 -1.5406  0.5370  2.8616
 3234SOL    HW221339   3.114   2.484  17.073  0.8227 -1.1203  0.3266
 3235SOL     OW21340   2.608   4.041   8.238 -0.2555  0.0338 -0.3251
 3235SOL    HW121341   2.692   4.004   8.267 -0.7875 -0.6212  0.3839
 3235SOL    HW221342   2.596   4.007   8.149 -0.9307 -3.1802  0.9598
 3236SOL     OW21343   3.845   0.166  10.101  0.1769  0.2392  0.2502
 3236SOL    HW121344   3.885   0.242  10.060  0.6353  0.4212  1.0458
 3236SOL    HW221345   3.883   0.097  10.048 -0.2353  0.4241 -0.2844
 3237SOL     OW21346   1.143   2.834  10.653  0.0447 -0.4124 -0.1185
 3237SOL    HW121347   1.126   2.790  10.569 -4.3683  1.6516 -0.2872
 3237SOL    HW221348   1.150   2.755  10.707 -0.1106 -0.2854  0.0841
 3238SOL     OW21349   0.072   0.889   2.466 -0.2013 -0.0567  0.2900
 3238SOL    HW121350   0.100   0.965   2.517 -2.2689  0.6604  0.3276
 3238SOL    HW221351   0.007   0.933   2.411  0.0888 -0.2514 -0.2074
 3239SOL     OW21352   2.588   0.882   7.800 -0.1262  0.0640 -0.2392
 3239SOL    HW121353   2.513   0.856   7.853  1.5030  3.5686  3.7482
 3239SOL    HW221354   2.650   0.843   7.861 -1.0883  1.5961  1.6881
 3240SOL     OW21355   0.593   3.646   5.107 -0.1539 -0.1857  0.6969
 3240SOL    HW121356   0.523   3.677   5.049 -1.6552  1.4938  3.4412
 3240SOL    HW221357   0.596   3.722   5.164  0.7789 -0.7228  1.3682
 3241SOL     OW21358   2.197   3.322  14.635 -0.0397 -0.3909 -0.2998
 3241SOL    HW121359   2.238   3.238  14.660  0.5929 -0.5167 -1.7911
 3241SOL    HW221360   2.129   3.292  14.575 -1.5213  0.0595  1.1601
 3242SOL     OW21361   3.439   2.907   3.934 -0.2065  0.2354  0.1035
 3242SOL    HW121362   3.434   2.966   3.859  0.0029  1.8593  1.3613
 3242SOL    HW221363   3.377   2.954   3.990 -0.0257 -0.5836  0.9932
 3243SOL     OW21364   3.853   0.162   3.161  0.0979  0.2878 -0.5862
 3243SOL    HW121365   3.943   0.153   3.192  0.2049  0.5031 -0.8436
 3243SOL    HW221366   3.857   0.156   3.066 -1.2131  0.2734 -0.6419
 3244SOL     OW21367   0.055   3.420  17.413 -0.0156  0.1227 -1.0258
 3244SOL    HW121368   0.132   3.431  17.470 -0.6229  0.7627 -0.3311
 3244SOL    HW221369   0.095   3.388  17.332 -1.2400 -0.9751 -1.1961
 3245SOL     OW21370   0.982   1.674  12.524  0.3031  0.0456 -0.1314
 3245SOL    HW121371   0.983   1.740  12.455  2.8796 -0.3224 -0.4373
 3245SOL    HW221372   0.963   1.591  12.481 -1.1476 -0.0628  0.6974
 3246SOL     OW21373   2.194   0.185  14.796  0.2009  0.5493 -0.4890
 3246SOL    HW121374   2.234   0.253  14.851  0.8564 -0.8563  0.7805
 3246SOL    HW221375   2.122   0.157  14.853  1.2573  1.0204  1.0890
 3247SOL     OW21376   0.503   4.469   5.661 -0.4308  0.2134 -0.6261
 3247SOL    HW121377   0.529   4.468   5.569  0.4522 -0.5234 -0.3574
 3247SOL    HW221378   0.408   4.478   5.653 -0.9438 -2.3483  2.6197
 3248SOL     OW21379   2.062   2.361   4.993 -0.0893 -0.2558 -0.1464
 3248SOL    HW121380   2.114   2.430   4.952 -0.4537  0.4853  0.6484
 3248SOL    HW221381   1.973   2.395   5.007 -0.5860 -1.9953  0.9070
 3249SOL     OW21382   3.820   0.500   1.779 -0.6276  0.4038  0.4028
 3249SOL    HW121383   3.759   0.573   1.783 -0.7239  0.2040  2.3162
 3249SOL    HW221384   3.795   0.451   1.700  1.5808 -0.4156  0.1847
 3250SOL     OW21385   3.860   1.470   5.265 -0.0740 -0.0281 -0.2421
 3250SOL    HW121386   3.882   1.486   5.173 -0.8081 -0.7875 -0.5543
 3250SOL    HW221387   3.845   1.377   5.254 -0.4470  0.1849 -1.4786
 3251SOL     OW21388   3.994   1.317   6.015  0.3967  0.2964  0.1971
 3251SOL    HW121389   3.927   1.384   6.020  1.2209  1.0855  0.6235
 3251SOL    HW221390   4.039   1.345   5.935  2.0168  0.6567  1.2181
 3252SOL     OW21391   2.592   2.662   5.964  0.2427 -0.3112  0.1166
 3252SOL    HW121392   2.622   2.711   6.040 -1.1737 -1.1449  1.2084
 3252SOL    HW221393   2.641   2.699   5.890 -0.2936  0.9661  0.4069
 3253SOL     OW21394   2.553   4.370   0.043 -0.1123  0.5355  0.0846
 3253SOL    HW121395   2.491   4.298   0.034 -0.0065  0.3664  0.6616
 3253SOL    HW221396   2.520   4.401   0.128 -0.0986 -1.1102  0.6926
 3254SOL     OW21397   4.281   2.564  13.740 -0.0739  0.5493 -0.0594
 3254SOL    HW121398   4.196   2.591  13.773  0.4538  1.3668  0.6077
 3254SOL    HW221399   4.330   2.569  13.822  0.4680 -0.2188 -0.3341
 3255SOL     OW21400   2.225   4.679  12.962 -0.3610 -0.1570  0.1300
 3255SOL    HW121401   2.296   4.699  12.902 -0.5589  0.9020  0.2531
 3255SOL    HW221402   2.155   4.650  12.903 -0.7426  3.1232 -1.0246
 3256SOL     OW21403   3.756   4.710   5.049  0.2786 -0.2071 -0.1023
 3256SOL    HW121404   3.757   4.618   5.023  2.1729  0.3752 -2.0927
 3256SOL    HW221405   3.708   4.700   5.131  0.1976  0.1576 -0.1037
 3257SOL     OW21406   4.503   0.242   3.915 -0.3843  0.2058  0.0448
 3257SOL    HW121407   4.573   0.227   3.851 -0.2595 -0.6935  0.3843
 3257SOL    HW221408   4.449   0.165   3.897  0.5004 -0.5698  0.6952
 3258SOL     OW21409   0.586   3.618   4.359  0.4677 -0.1212 -0.1210
 3258SOL    HW121410   0.645   3.545   4.376 -0.3943 -1.0954 -1.3746
 3258SOL    HW221411   0.655   3.685   4.354  0.5620 -0.0967  1.3623
 3259SOL     OW21412   1.776   3.240   1.781 -0.1279  0.5256  0.1092
 3259SOL    HW121413   1.856   3.212   1.824 -0.6672  2.3763  2.2656
 3259SOL    HW221414   1.791   3.207   1.692  0.1556 -1.6990  0.9740
 3260SOL     OW21415   1.410   2.254  14.873  0.2147  0.2646 -0.4897
 3260SOL    HW121416   1.488   2.311  14.876 -0.4472  1.0716  1.2446
 3260SOL    HW221417   1.423   2.199  14.950  1.5819  2.4628  0.8780
 3261SOL     OW21418   0.361   3.706   1.956 -0.0559  0.0996  0.6364
 3261SOL    HW121419   0.369   3.793   1.919 -0.6756 -0.5631 -1.0525
 3261SOL    HW221420   0.266   3.696   1.954  0.0256 -0.8988  1.2595
 3262SOL     OW21421   4.458   2.632   4.711  0.0412  0.3656  0.1747
 3262SOL    HW121422   4.363   2.631   4.718 -0.0341 -1.9864 -0.9837
 3262SOL    HW221423   4.486   2.551   4.754 -0.6021  0.0085 -0.0810
 3263SOL     OW21424   2.075   3.297   9.412 -0.8410  0.1447 -0.1680
 3263SOL    HW121425   2.009   3.259   9.470 -0.8778 -0.4222 -0.5783
 3263SOL    HW221426   2.024   3.368   9.372  0.6878  0.5765 -1.3460
 3264SOL     OW21427   4.484   0.478   3.351 -0.7812 -0.1475  0.0406
 3264SOL    HW121428   4.521   0.502   3.266  2.0788 -1.2282  0.9770
 3264SOL    HW221429   4.545   0.531   3.403  0.4209  0.0897 -1.6191
 3265SOL     OW21430   1.340   0.006  17.360 -0.0326  0.1461 -0.1435
 3265SOL    HW121431   1.329   4.677  17.429  1.8553  1.4515  1.4179
 3265SOL    HW221432   1.431   4.719  17.339 -1.1302 -2.3690 -2.2167
 3266SOL     OW21433   0.059   2.219   2.195  0.0593 -0.0413  0.0793
 3266SOL    HW121434   0.127   2.167   2.237  1.0809  0.4536 -0.9470
 3266SOL    HW221435   4.724   2.156   2.181 -1.0742  1.7790 -2.4066
 3267SOL     OW21436   4.703   1.405   6.882 -0.6265 -0.3109 -0.1136
 3267SOL    HW121437   4.687   1.415   6.788 -1.7245 -0.3093  0.0764
 3267SOL    HW221438   4.612   1.407   6.909 -0.7290  2.5128 -0.6113
 3268SOL     OW21439   2.552   0.034   2.147 -0.3641 -0.2223 -0.4340
 3268SOL    HW121440   2.534   0.059   2.237  0.9349 -2.7052  0.4983
 3268SOL    HW221441   2.482   4.713   2.115 -0.3058 -0.0930 -0.7915
 3269SOL     OW21442   1.931   3.079  12.723  0.1265 -0.1969  0.0805
 3269SOL    HW121443   1.923   3.149  12.788 -0.2271 -1.0108  0.9135
 3269SOL    HW221444   1.959   3.004  12.773 -0.5010  0.0194  0.7541
 3270SOL     OW21445   0.493   4.694   1.442  0.4582  0.2523 -0.4460
 3270SOL    HW121446   0.401   4.679   1.464  0.7589  0.4712  0.9523
 3270SOL    HW221447   0.486   0.040   1.392 -1.0530 -0.1912 -0.9728
 3271SOL     OW21448   1.347   1.489   0.895 -0.1790 -0.3541  0.3148
 3271SOL    HW121449   1.368   1.535   0.977 -0.6554  0.0612  0.1968
 3271SOL    HW221450   1.259   1.523   0.884 -0.0785  0.7526  2.8010
 3272SOL     OW21451   2.915   3.528   7.781  0.0029 -0.3264 -0.3192
 3272SOL    HW121452   3.002   3.567   7.793 -0.7591  1.1321  0.4562
 3272SOL    HW221453   2.929   3.464   7.711 -0.4593 -0.1629 -0.5593
 3273SOL     OW21454   1.133   0.164  15.760 -0.4664  0.4243 -0.3158
 3273SOL    HW121455   1.047   0.178  15.801 -0.0944 -0.0721  0.6337
 3273SOL    HW221456   1.114   0.170  15.666  3.1967 -3.3523 -1.3114
 3274SOL     OW21457   1.260   3.431   9.175  0.2938 -0.6033 -0.3556
 3274SOL    HW121458   1.294   3.347   9.144 -0.5363 -1.8578  2.1005
 3274SOL    HW221459   1.314   3.490   9.122 -1.4779  1.7385  0.4694
 3275SOL     OW21460   3.959   2.298   6.147  0.0504 -0.0456 -0.1970
 3275SOL    HW121461   3.907   2.378   6.148  0.1896  0.0083  3.3738
 3275SOL    HW221462   3.997   2.316   6.233 -2.6835 -1.6149  1.3483
 3276SOL     OW21463   3.962   2.808   5.352  0.1211 -0.3307  0.2526
 3276SOL    HW121464   3.984   2.880   5.293 -1.0480  0.3781  0.6944
 3276SOL    HW221465   3.927   2.750   5.284  1.8765 -0.1848 -0.7887
 3277SOL     OW21466   1.124   3.369   5.294 -0.6048  0.0664 -0.1444
 3277SOL    HW121467   1.072   3.305   5.343 -0.1065  0.8694  1.4453
 3277SOL    HW221468   1.173   3.309   5.238 -1.6098 -1.0574  0.1991
 3278SOL     OW21469   0.131   0.413   3.021  0.3092 -0.7923  0.2515
 3278SOL    HW121470   0.151   0.382   2.933  1.1582 -0.1913  0.2254
 3278SOL    HW221471   0.138   0.324   3.056  1.5066 -0.2844  1.2972
 3279SOL     OW21472   2.985   0.273   5.494 -0.7633 -0.6335  0.4955
 3279SOL    HW121473   3.004   0.181   5.478  0.1629 -0.5898  1.3280
 3279SOL    HW221474   3.045   0.323   5.437  1.0737 -1.4925  1.6700
 3280SOL     OW21475   0.085   4.110   4.826 -0.8335  0.6438  0.3439
 3280SOL    HW121476   0.015   4.047   4.840  3.1195 -4.1907 -1.7336
 3280SOL    HW221477   0.106   4.084   4.736 -0.3313  0.4314  0.5216
 3281SOL     OW21478   2.444   3.441   0.851 -0.6182 -0.6586  1.0398
 3281SOL    HW121479   2.391   3.465   0.774 -0.8224 -1.0313  1.0678
 3281SOL    HW221480   2.389   3.455   0.928  0.8205  0.9359  1.7804
 3282SOL     OW21481   3.737   0.901  12.799 -0.5076  0.3250 -0.4178
 3282SOL    HW121482   3.764   0.815  12.768  0.0624 -0.2007  1.5598
 3282SOL    HW221483   3.720   0.951  12.718 -0.1128 -1.8375 -1.8258
 3283SOL     OW21484   1.069   3.995  14.251  0.9112  0.6317 -0.5467
 3283SOL    HW121485   1.062   3.927  14.184  1.7864  0.6347 -0.6388
 3283SOL    HW221486   1.056   3.936  14.326 -0.2058  0.8176 -0.5939
 3284SOL     OW21487   0.972   1.957  12.448 -0.0866  0.2773  0.1483
 3284SOL    HW121488   0.886   1.981  12.480 -0.5388 -0.8993 -0.2075
 3284SOL    HW221489   0.996   2.040  12.406  0.8736 -0.0573  0.0154
 3285SOL     OW21490   4.214   0.804   5.251 -0.3618 -0.1860 -0.2300
 3285SOL    HW121491   4.200   0.715   5.285 -0.2721  1.2636  3.5501
 3285SOL    HW221492   4.235   0.845   5.335 -1.2585  0.6189 -0.4024
 3286SOL     OW21493   0.502   3.548  10.566  0.4300  0.3748  0.4467
 3286SOL    HW121494   0.452   3.624  10.596  0.2744 -0.1077  1.4084
 3286SOL    HW221495   0.538   3.571  10.480 -1.5199 -0.8299 -0.6920
 3287SOL     OW21496   2.489   1.579   5.213 -0.0937  0.0382 -0.4256
 3287SOL    HW121497   2.426   1.642   5.178  0.8872  1.6094  0.6390
 3287SOL    HW221498   2.460   1.572   5.304 -0.9467 -0.4012 -0.7362
 3288SOL     OW21499   0.785   3.874  12.269  0.0566  0.1298 -0.4334
 3288SOL    HW121500   0.697   3.865  12.233 -1.4343  0.3945  3.1619
 3288SOL    HW221501   0.841   3.852  12.194 -0.6693  1.7164 -1.4405
 3289SOL     OW21502   0.932   0.666   6.903  0.4946 -0.0129  0.0966
 3289SOL    HW121503   0.984   0.670   6.823 -0.9077  2.0721 -0.7018
 3289SOL    HW221504   0.989   0.704   6.970  1.1548 -0.6174 -0.1202
 3290SOL     OW21505   1.069   3.339   6.284  0.3050  0.4639  0.8412
 3290SOL    HW121506   1.036   3.315   6.371  2.0858 -3.4679  0.4559
 3290SOL    HW221507   1.024   3.270   6.235  0.8386 -0.7476  2.0289
 3291SOL     OW21508   1.655   2.962   1.974  0.5464  0.5912  0.1159
 3291SOL    HW121509   1.633   2.872   2.000 -1.5205  1.5814  1.8138
 3291SOL    HW221510   1.585   2.985   1.913  0.9886 -0.9981 -0.9926
 3292SOL     OW21511   2.633   0.347   4.889  0.3616  0.1895  0.2165
 3292SOL    HW121512   2.590   0.280   4.942 -2.0067 -0.0244 -1.9926
 3292SOL    HW221513   2.593   0.346   4.802  0.5546 -0.1525  0.1344
 3293SOL     OW21514   2.306   2.999   6.275 -0.6775  0.0183  0.1076
 3293SOL    HW121515   2.292   2.956   6.359  2.4145 -2.0854 -0.4816
 3293SOL    HW221516   2.229   3.056   6.269 -0.2759  0.7503  2.0620
 3294SOL     OW21517   1.536   3.516  10.920 -0.3354 -0.9278 -0.3962
 3294SOL    HW121518   1.500   3.482  11.002 -0.9802  2.7010  0.8589
 3294SOL    HW221519   1.459   3.509  10.863  0.1536 -0.8374 -1.0647
 3295SOL     OW21520   1.867   3.845   5.889  0.0460  0.0922  0.1157
 3295SOL    HW121521   1.857   3.787   5.965  3.3854 -0.7125 -0.0722
 3295SOL    HW221522   1.940   3.903   5.908 -1.5575  2.2264 -0.1849
 3296SOL     OW21523   4.364   0.896   5.501  0.6505  0.1545  0.0937
 3296SOL    HW121524   4.278   0.889   5.542  2.2590 -1.9529  3.1529
 3296SOL    HW221525   4.397   0.958   5.566  0.4616 -0.3464  0.6700
 3297SOL     OW21526   1.060   1.282   2.119 -0.1172 -1.1667  0.0554
 3297SOL    HW121527   1.025   1.210   2.066 -0.4956  0.1626 -1.4711
 3297SOL    HW221528   1.134   1.301   2.061  0.7423 -1.1489  1.1530
 3298SOL     OW21529   4.008   0.031   8.946  0.3552 -0.2438  0.3490
 3298SOL    HW121530   3.914   0.031   8.964 -0.0445 -0.7032 -1.6816
 3298SOL    HW221531   4.024   4.681   8.907  2.1783 -0.1372  0.8375
 3299SOL     OW21532   2.815   1.898   3.211 -0.1298 -0.1443 -0.3310
 3299SOL    HW121533   2.726   1.881   3.241  0.5191 -0.6215  1.3419
 3299SOL    HW221534   2.868   1.850   3.274 -3.1750 -0.1828  2.2023
 3300SOL     OW21535   2.276   2.816   0.687 -0.0148  0.1253  0.2131
 3300SOL    HW121536   2.337   2.781   0.622 -1.1976 -0.1727 -0.7259
 3300SOL    HW221537   2.312   2.766   0.760 -1.3419 -0.5629  0.3987
 3301SOL     OW21538   1.414   0.542   2.902 -0.2522 -0.2573 -0.2150
 3301SOL    HW121539   1.485   0.482   2.879 -0.7053 -0.9975  0.3139
 3301SOL    HW221540   1.371   0.570   2.821  0.8614  1.8243 -0.1070
 3302SOL     OW21541   0.816   2.621   9.236 -0.4328 -0.2154 -0.7861
 3302SOL    HW121542   0.893   2.672   9.263 -0.5167 -0.5529  0.1026
 3302SOL    HW221543   0.749   2.690   9.234  0.7630  1.0059  0.8082
 3303SOL     OW21544   3.571   0.341   2.566  0.2001  0.1632  0.2330
 3303SOL    HW121545   3.634   0.327   2.637 -0.9631  0.7634  1.3658
 3303SOL    HW221546   3.497   0.364   2.621 -0.3299  0.7659 -0.7371
 3304SOL     OW21547   1.029   3.917   3.783  0.2180  0.0603 -0.1641
 3304SOL    HW121548   0.957   3.957   3.832 -0.6565  0.1493 -1.5361
 3304SOL    HW221549   1.025   3.979   3.711  1.7318  0.8187  0.4135
 3305SOL     OW21550   0.704   3.355   3.141 -0.0164 -0.1312 -0.0710
 3305SOL    HW121551   0.709   3.269   3.100 -1.9578 -0.6004  0.6982
 3305SOL    HW221552   0.698   3.333   3.234 -0.7127  1.2370  0.1936
 3306SOL     OW21553   0.262   1.143   7.417 -0.3336 -0.2247  0.1836
 3306SOL    HW121554   0.193   1.162   7.353  2.6294 -2.7763 -3.8037
 3306SOL    HW221555   0.335   1.129   7.356  0.7774 -2.0046  1.9284
 3307SOL     OW21556   2.117   3.629  10.503  0.7158  0.0983  0.0659
 3307SOL    HW121557   2.116   3.534  10.493 -0.5363  0.0449  0.6749
 3307SOL    HW221558   2.036   3.647  10.456  2.4760  0.3562 -2.8239
 3308SOL     OW21559   2.775   4.486   8.497  0.2501  0.2823  0.3447
 3308SOL    HW121560   2.837   4.557   8.476 -1.2238  1.3352 -0.4169
 3308SOL    HW221561   2.695   4.513   8.453 -0.0198 -0.0989  0.6100
 3309SOL     OW21562   0.164   1.363  10.022 -0.6932  0.0881 -0.3656
 3309SOL    HW121563   0.127   1.395  10.105  0.2733  0.9075 -0.2522
 3309SOL    HW221564   0.166   1.449   9.980 -0.1331  0.7078  0.9255
 3310SOL     OW21565   2.289   3.496   4.792  0.4256 -0.6488 -0.4366
 3310SOL    HW121566   2.234   3.420   4.777  0.6218 -0.8895  0.0527
 3310SOL    HW221567   2.221   3.563   4.797 -3.7296 -4.9430 -0.5397
 3311SOL     OW21568   2.144   2.575   3.719 -0.5021 -0.1314 -0.0050
 3311SOL    HW121569   2.104   2.659   3.700 -2.1042 -1.1759 -1.2229
 3311SOL    HW221570   2.129   2.537   3.632  1.7153  0.7608 -0.7818
 3312SOL     OW21571   2.039   0.596  16.526 -0.2001 -0.1399  0.0875
 3312SOL    HW121572   2.031   0.609  16.432 -1.4285 -0.7531  0.1121
 3312SOL    HW221573   1.961   0.647  16.548  0.8077  1.4990 -0.1708
 3313SOL     OW21574   3.912   4.315   1.315 -0.4973  0.0366 -0.4064
 3313SOL    HW121575   3.917   4.310   1.411  1.4418 -0.0209 -0.5206
 3313SOL    HW221576   3.958   4.395   1.291  2.3809 -1.2839  0.7901
 3314SOL     OW21577   0.915   3.150   8.638  0.5889 -0.7575 -0.0001
 3314SOL    HW121578   0.857   3.170   8.565  0.2730  2.9427  1.2670
 3314SOL    HW221579   0.953   3.064   8.623  0.2394 -0.2012 -4.1439
 3315SOL     OW21580   3.174   0.224   9.261  0.1147 -0.0714 -0.0067
 3315SOL    HW121581   3.215   0.310   9.269  0.0122 -0.1390  1.1897
 3315SOL    HW221582   3.131   0.229   9.175 -1.6401  0.0156  0.8747
 3316SOL     OW21583   4.610   1.250   3.811 -0.1486  0.6277  0.8135
 3316SOL    HW121584   4.671   1.324   3.819 -0.0186  0.5212  0.8088
 3316SOL    HW221585   4.533   1.286   3.855 -0.4777  0.4036  0.4229
 3317SOL     OW21586   4.050   2.000   5.792 -0.3864 -0.0734  0.3187
 3317SOL    HW121587   4.009   1.975   5.708  1.5013 -0.5511 -0.4488
 3317SOL    HW221588   4.050   1.913   5.831 -0.0829  0.6603  1.9416
 3318SOL     OW21589   1.155   2.600   4.919  0.0137 -0.5593 -0.4843
 3318SOL    HW121590   1.250   2.606   4.927  0.2384 -1.3994 -2.5391
 3318SOL    HW221591   1.149   2.507   4.895 -3.3915  0.0779 -2.1281
 3319SOL     OW21592   2.694   2.173   5.274  0.5182 -0.3814  0.0958
 3319SOL    HW121593   2.757   2.221   5.328 -1.2353  0.7640  1.1230
 3319SOL    HW221594   2.724   2.084   5.291  0.1391 -0.3184  1.0873
 3320SOL     OW21595   1.533   4.388   3.796 -0.1705 -0.4623  0.3297
 3320SOL    HW121596   1.628   4.397   3.808 -0.0716  0.5915 -1.2260
 3320SOL    HW221597   1.518   4.313   3.853  0.6568  0.0650  1.2509
 3321SOL     OW21598   3.863   2.557   6.089 -0.7207  0.0001  0.3509
 3321SOL    HW121599   3.808   2.552   6.011  1.2059  0.3999 -1.0527
 3321SOL    HW221600   3.809   2.623   6.132 -0.2378  1.2546 -0.9945
 3322SOL     OW21601   3.425   4.244   0.770 -0.5426 -0.7621 -0.0530
 3322SOL    HW121602   3.382   4.172   0.815  0.1378  0.3363  2.3777
 3322SOL    HW221603   3.364   4.282   0.707 -0.1882 -0.6514 -0.3316
 3323SOL     OW21604   1.866   3.154   9.541  0.0099 -0.1613  0.3139
 3323SOL    HW121605   1.854   3.156   9.636 -1.8845 -1.6413  0.0933
 3323SOL    HW221606   1.774   3.154   9.514 -0.3568  1.6472  1.5507
 3324SOL     OW21607   3.452   3.111   8.982  0.2388 -0.0234 -0.2545
 3324SOL    HW121608   3.492   3.080   8.901 -0.3986  0.0372 -0.5854
 3324SOL    HW221609   3.362   3.079   8.980  1.0599 -2.4464  1.1816
 3325SOL     OW21610   1.017   3.799  15.216  0.0368  0.4224  0.1349
 3325SOL    HW121611   0.942   3.772  15.162  1.0380 -0.1208 -0.9747
 3325SOL    HW221612   1.058   3.835  15.137 -2.2597 -1.6963 -2.0443
 3326SOL     OW21613   4.649   3.457   3.871 -0.0101  0.0104  0.7018
 3326SOL    HW121614   4.681   3.441   3.782 -2.6358  2.3153 -0.6291
 3326SOL    HW221615   4.617   3.369   3.889  1.8534 -0.3097  2.4151
 3327SOL     OW21616   1.063   3.485  15.833  0.0739  0.0676 -0.4211
 3327SOL    HW121617   0.989   3.495  15.893 -0.7567 -3.2506 -0.8981
 3327SOL    HW221618   1.048   3.561  15.778  0.3287  0.4509  0.0452
 3328SOL     OW21619   3.073   2.512   5.493  0.7134  0.1671  0.1158
 3328SOL    HW121620   3.032   2.447   5.435 -0.2060  0.5672  0.3150
 3328SOL    HW221621   3.064   2.592   5.441 -0.9161  0.5843  1.0248
 3329SOL     OW21622   3.025   1.563  10.645  0.5657  0.4540 -0.3464
 3329SOL    HW121623   3.051   1.606  10.564  1.8127  0.4829  0.0767
 3329SOL    HW221624   3.110   1.557  10.688 -0.2070 -1.0810  0.9806
 3330SOL     OW21625   0.610   0.237   5.615 -0.0527 -0.2488  0.8542
 3330SOL    HW121626   0.570   0.153   5.591 -0.6422 -0.3244  2.0875
 3330SOL    HW221627   0.539   0.279   5.664  1.7818  0.9251  2.4839
 3331SOL     OW21628   2.796   4.370   0.431 -0.1430  0.3926 -0.2711
 3331SOL    HW121629   2.716   4.350   0.480 -1.3749 -0.6999 -2.7374
 3331SOL    HW221630   2.848   4.291   0.444  2.2129  1.7553 -1.3407
 3332SOL     OW21631   3.830   1.743   3.814 -0.9657 -0.2787  0.5235
 3332SOL    HW121632   3.757   1.700   3.858 -0.7796 -0.9051  0.2140
 3332SOL    HW221633   3.910   1.732   3.866 -1.4019 -1.7565  0.8674
 3333SOL     OW21634   3.744   3.474  17.385  0.1169 -0.0269  0.0894
 3333SOL    HW121635   3.708   3.563  17.386 -0.1459 -0.1356  0.2569
 3333SOL    HW221636   3.719   3.439  17.470 -0.6436 -0.6465 -0.3845
 3334SOL     OW21637   3.185   2.348   4.418  0.0446  0.1864 -0.2585
 3334SOL    HW121638   3.117   2.282   4.434  0.6584 -0.2905  0.4181
 3334SOL    HW221639   3.245   2.288   4.372 -0.8273 -1.8115  1.1766
 3335SOL     OW21640   3.257   1.928  16.459 -0.5621 -0.7340  0.0571
 3335SOL    HW121641   3.237   1.851  16.406  1.6677 -0.9052 -0.5476
 3335SOL    HW221642   3.219   1.903  16.543  0.2964  1.0509  0.9763
 3336SOL     OW21643   2.498   0.975  10.827 -0.1845  0.1770  0.2741
 3336SOL    HW121644   2.588   0.950  10.851  0.0204  0.7902  0.1509
 3336SOL    HW221645   2.441   0.916  10.877 -1.2751 -0.0502 -1.2577
 3337SOL     OW21646   1.619   3.488   8.616  0.1008 -0.1555 -0.5688
 3337SOL    HW121647   1.643   3.554   8.680 -0.7532 -0.9722  0.5860
 3337SOL    HW221648   1.529   3.468   8.640 -0.9650  1.7791 -2.9037
 3338SOL     OW21649   3.061   1.357   2.928 -0.1420 -0.1551 -0.5252
 3338SOL    HW121650   3.106   1.279   2.960 -0.9361 -0.4312 -0.1077
 3338SOL    HW221651   2.972   1.336   2.954  0.3047 -0.0029  1.1004
 3339SOL     OW21652   4.226   0.242   6.886 -0.5723 -0.2402  0.2190
 3339SOL    HW121653   4.288   0.312   6.906 -0.4977 -0.1419 -0.3391
 3339SOL    HW221654   4.144   0.287   6.909  1.7252  4.4772 -0.9033
 3340SOL     OW21655   2.820   3.706   4.035 -0.2680  0.3368  0.4259
 3340SOL    HW121656   2.859   3.780   4.083  0.4527 -0.5034  1.1317
 3340SOL    HW221657   2.875   3.633   4.061  1.0227  1.1447 -0.0074
 3341SOL     OW21658   2.540   1.088   4.216 -0.2632  0.3631 -0.3024
 3341SOL    HW121659   2.630   1.075   4.246 -1.1175  0.8304  2.4015
 3341SOL    HW221660   2.513   1.169   4.259  0.6314  2.2611 -3.3008
 3342SOL     OW21661   1.787   1.574   6.734 -0.1798 -0.0407  0.1800
 3342SOL    HW121662   1.736   1.554   6.655  0.6934  2.0400 -0.9186
 3342SOL    HW221663   1.787   1.487   6.773  0.3152  0.0454  0.3719
 3343SOL     OW21664   1.619   3.504  17.279  0.6917 -0.3912 -0.3200
 3343SOL    HW121665   1.622   3.409  17.265  1.5246 -0.4627  0.3072
 3343SOL    HW221666   1.531   3.531  17.254  1.1674  1.7856  0.3743
 3344SOL     OW21667   1.333   3.956   7.245 -0.0486  0.2815  0.4839
 3344SOL    HW121668   1.335   3.940   7.150  0.9460  0.3197  0.5021
 3344SOL    HW221669   1.423   3.940   7.273  0.1088  0.5482  0.1249
 3345SOL     OW21670   3.741   1.138   6.200  0.0535  0.4561  0.1027
 3345SOL    HW121671   3.759   1.130   6.294  1.9688  0.5474 -0.2680
 3345SOL    HW221672   3.750   1.233   6.195  0.9508  0.4221  1.1815
 3346SOL     OW21673   4.395   0.273   1.433  0.5747  0.6661 -0.1631
 3346SOL    HW121674   4.376   0.350   1.486 -0.5832  1.2042 -1.3740
 3346SOL    HW221675   4.392   0.206   1.503  1.8703  0.6859 -0.0792
 3347SOL     OW21676   2.311   0.746   9.203 -0.7757  0.1543  0.2115
 3347SOL    HW121677   2.327   0.831   9.245  2.3475  1.0210 -2.7573
 3347SOL    HW221678   2.261   0.706   9.274 -0.3531 -1.2563 -0.2994
 3348SOL     OW21679   2.678   0.040   0.013 -0.4444 -0.1349 -0.2423
 3348SOL    HW121680   2.613   4.735   0.070  0.6284 -0.8967  0.4403
 3348SOL    HW221681   2.632   0.111  17.710  0.3263  0.8516  0.5404
 3349SOL     OW21682   1.280   1.390   6.236 -0.4568  0.6782 -0.7315
 3349SOL    HW121683   1.289   1.460   6.301 -0.0949  0.2342 -0.3010
 3349SOL    HW221684   1.203   1.425   6.192  0.2069  1.3258 -1.3885
 3350SOL     OW21685   3.083   4.265   5.310  0.0353 -0.1652  0.1472
 3350SOL    HW121686   3.140   4.255   5.234 -0.0796  2.5020 -0.3030
 3350SOL    HW221687   2.994   4.265   5.274  0.8968 -3.2979 -1.8859
 3351SOL     OW21688   2.644   0.936   3.918  0.0117  0.0046  0.1733
 3351SOL    HW121689   2.568   0.912   3.972  1.4411 -1.1132  1.6935
 3351SOL    HW221690   2.718   0.952   3.976  0.6653  2.8908 -1.4577
 3352SOL     OW21691   2.586   3.914   6.953  0.1927 -0.1004 -0.2570
 3352SOL    HW121692   2.522   3.977   6.984 -2.1000 -1.9781 -1.2110
 3352SOL    HW221693   2.653   3.979   6.932  1.2439 -1.4118 -0.9979
 3353SOL     OW21694   2.874   1.254   0.398  0.0679  0.4746 -0.9733
 3353SOL    HW121695   2.944   1.220   0.342  1.4477  0.4807  0.7277
 3353SOL    HW221696   2.803   1.201   0.362  0.5255 -0.9216  0.1435
 3354SOL     OW21697   0.209   2.026   6.991  0.2293  0.1433 -0.0234
 3354SOL    HW121698   0.174   2.063   6.910  2.5332  0.7425 -0.7415
 3354SOL    HW221699   0.167   1.941   6.985  1.5582 -0.4791 -0.6249
 3355SOL     OW21700   1.095   1.288   8.016  0.2090 -0.3156  0.2130
 3355SOL    HW121701   1.182   1.314   8.046 -0.8074  0.0465  2.9052
 3355SOL    HW221702   1.065   1.362   7.963 -0.4580  0.7905  2.1228
 3356SOL     OW21703   1.600   0.457  13.145  0.1681 -0.4018 -0.6725
 3356SOL    HW121704   1.562   0.525  13.201  2.1600 -0.5753  0.8638
 3356SOL    HW221705   1.522   0.428  13.096  0.3840 -2.8000  0.4225
 3357SOL     OW21706   3.442   0.244   9.400  0.1501  0.2520 -0.4261
 3357SOL    HW121707   3.416   0.180   9.467  2.6406 -0.6818 -0.3376
 3357SOL    HW221708   3.517   0.291   9.435  0.1882  1.5624 -2.2727
 3358SOL     OW21709   4.245   1.139  13.062  0.1354  0.4388  0.4924
 3358SOL    HW121710   4.181   1.097  13.005  1.2068  1.9652 -1.8219
 3358SOL    HW221711   4.218   1.231  13.060  1.9297  0.9829  1.0548
 3359SOL     OW21712   1.806   4.580  12.222 -0.1066 -0.1373 -0.0873
 3359SOL    HW121713   1.844   4.641  12.285 -0.8627 -0.2238  0.4539
 3359SOL    HW221714   1.806   4.499  12.273  1.1283  0.1733  0.4073
 3360SOL     OW21715   3.695   1.004   8.700 -0.6274  0.2600 -0.2112
 3360SOL    HW121716   3.674   1.028   8.610  1.2823 -1.3399 -1.0879
 3360SOL    HW221717   3.750   1.079   8.727 -1.7851  0.7205  0.8513
 3361SOL     OW21718   1.309   3.926   6.976 -0.4468  0.0208  0.0642
 3361SOL    HW121719   1.289   3.985   6.903  0.3423  0.0103 -0.1585
 3361SOL    HW221720   1.251   3.852   6.960  2.1471 -1.6208 -1.5722
 3362SOL     OW21721   1.454   3.130   7.976 -0.1455 -0.4202  0.5742
 3362SOL    HW121722   1.496   3.070   7.913  2.0907  1.1987  0.5485
 3362SOL    HW221723   1.435   3.060   8.038 -0.2910  0.3721  1.4107
 3363SOL     OW21724   2.338   4.138   0.105 -0.0517 -0.2779 -0.3269
 3363SOL    HW121725   2.300   4.059   0.141  1.1287 -1.4166 -1.5973
 3363SOL    HW221726   2.390   4.100   0.035  1.2058  0.5614  0.1586
 3364SOL     OW21727   2.760   0.149   9.184  0.2905  0.1639 -0.7552
 3364SOL    HW121728   2.808   0.069   9.166  0.1618  0.0366 -0.5317
 3364SOL    HW221729   2.773   0.157   9.278  0.6966 -0.0848 -0.7920
 3365SOL     OW21730   3.984   3.117   2.623 -0.2582 -0.0379 -0.7154
 3365SOL    HW121731   3.972   3.099   2.530  2.0473 -3.3431 -0.3830
 3365SOL    HW221732   3.956   3.035   2.662  0.8827  0.3209  0.8922
 3366SOL     OW21733   1.833   2.631   4.174 -0.0936  0.0206  0.5953
 3366SOL    HW121734   1.836   2.537   4.187  1.1458  0.0866  0.7651
 3366SOL    HW221735   1.770   2.666   4.237 -1.5296  0.5060 -1.0981
 3367SOL     OW21736   0.629   2.215  16.516 -0.1361 -0.1718 -0.0568
 3367SOL    HW121737   0.655   2.123  16.524  0.3815  0.1101  1.4211
 3367SOL    HW221738   0.699   2.244  16.458  2.1205 -1.3253  2.0985
 3368SOL     OW21739   1.711   0.036   9.547 -0.2138  0.2858 -0.8547
 3368SOL    HW121740   1.702   0.131   9.544 -0.8137  0.2340 -0.7125
 3368SOL    HW221741   1.659   0.010   9.471 -1.8961 -0.7130  0.6336
 3369SOL     OW21742   2.191   0.321   2.755  1.3128  0.6455  0.4327
 3369SOL    HW121743   2.183   0.396   2.697  0.3265 -1.8579 -2.6954
 3369SOL    HW221744   2.219   0.359   2.838  0.7479  0.6893  0.6033
 3370SOL     OW21745   4.548   4.664  10.635 -0.2038  0.1365  0.0246
 3370SOL    HW121746   4.582   4.662  10.725  1.4089 -0.1390 -0.5834
 3370SOL    HW221747   4.618   4.611  10.595  0.2078  0.8953 -0.2534
 3371SOL     OW21748   1.467   1.421  17.304 -0.0732 -0.2690 -0.6673
 3371SOL    HW121749   1.512   1.438  17.387 -1.9902 -2.7811  0.8978
 3371SOL    HW221750   1.501   1.334  17.285  0.2113 -0.6394  1.4475
 3372SOL     OW21751   2.089   2.904  13.331 -0.2352 -0.4036  0.1192
 3372SOL    HW121752   2.049   2.985  13.362 -0.9388 -0.5376 -0.4317
 3372SOL    HW221753   2.095   2.855  13.413 -0.2899 -0.7846 -0.1029
 3373SOL     OW21754   3.335   2.689  15.795  0.1669 -0.0533  0.0053
 3373SOL    HW121755   3.259   2.668  15.740  0.5958 -0.9619 -0.2372
 3373SOL    HW221756   3.315   2.779  15.821  1.7869  0.7209 -1.3801
 3374SOL     OW21757   2.691   3.675   6.792 -0.2120  0.3285 -0.2761
 3374SOL    HW121758   2.645   3.751   6.828  0.6224 -0.5182  2.5553
 3374SOL    HW221759   2.781   3.708   6.788 -0.8644  1.9945 -1.2833
 3375SOL     OW21760   1.305   3.495  12.265  0.5962  0.5462 -0.3674
 3375SOL    HW121761   1.365   3.528  12.332  5.0869 -2.3467 -2.8893
 3375SOL    HW221762   1.332   3.532  12.181  0.4192  1.0532 -0.1955
 3376SOL     OW21763   4.258   2.874  15.387  0.1127 -0.0519 -0.0447
 3376SOL    HW121764   4.221   2.935  15.323 -2.0745 -1.9794 -0.6162
 3376SOL    HW221765   4.345   2.915  15.389  0.5183 -0.8125 -2.0397
 3377SOL     OW21766   2.879   2.957   8.093 -0.6070 -0.3660  0.0069
 3377SOL    HW121767   2.859   3.043   8.130  0.0031 -0.3557  0.3118
 3377SOL    HW221768   2.948   2.925   8.151 -0.7317  1.7827  1.3532
 3378SOL     OW21769   2.174   1.674  15.864 -0.3203  0.1798 -0.0761
 3378SOL    HW121770   2.175   1.756  15.814  2.7830  0.6188  0.6944
 3378SOL    HW221771   2.218   1.603  15.819  2.8266  1.3169  1.2256
 3379SOL     OW21772   3.418   1.869   9.682  0.4842  0.2610  0.2116
 3379SOL    HW121773   3.398   1.815   9.758 -1.4495 -0.0635 -0.5429
 3379SOL    HW221774   3.388   1.817   9.608  0.7855  0.2352  0.1058
 3380SOL     OW21775   0.555   0.742   1.234  0.4789 -0.1849  0.0761
 3380SOL    HW121776   0.574   0.661   1.186  0.0206 -0.6985  0.7710
 3380SOL    HW221777   0.641   0.756   1.274 -0.8470  4.6146  1.2101
 3381SOL     OW21778   4.623   2.461  14.100  0.0728  0.2521  0.1227
 3381SOL    HW121779   4.658   2.546  14.071 -0.4284  0.3633 -0.1623
 3381SOL    HW221780   4.539   2.457  14.055 -0.3632  1.6197  0.8016
 3382SOL     OW21781   2.560   3.034   6.068 -0.1871  0.1796  0.2984
 3382SOL    HW121782   2.478   2.990   6.043 -0.6673  1.3775 -0.2458
 3382SOL    HW221783   2.535   3.126   6.077 -0.2886  0.5059 -3.3643
 3383SOL     OW21784   1.600   2.043  14.540 -0.3900  0.0579  0.1273
 3383SOL    HW121785   1.676   2.101  14.543 -1.5346  1.5214  0.5038
 3383SOL    HW221786   1.570   2.047  14.449 -0.2239 -1.3546 -0.0010
 3384SOL     OW21787   0.966   4.356   5.072  0.6665 -0.0052  0.4777
 3384SOL    HW121788   0.987   4.399   4.989  3.5250 -0.9358  0.7020
 3384SOL    HW221789   0.923   4.275   5.045 -1.2968  1.0391  0.4661
 3385SOL     OW21790   0.900   4.163  10.277 -0.4843  0.5803  0.3454
 3385SOL    HW121791   0.865   4.236  10.227 -0.7204 -0.1733 -0.5830
 3385SOL    HW221792   0.964   4.128  10.215 -1.0528  0.7517 -0.3379
 3386SOL     OW21793   1.532   4.306   6.999 -0.4064  0.4178  0.0416
 3386SOL    HW121794   1.442   4.281   7.020  1.0577 -2.2270  3.1868
 3386SOL    HW221795   1.523   4.399   6.982 -0.4936  0.0612 -1.8877
 3387SOL     OW21796   2.001   2.987   1.644 -0.1215  0.2948 -0.0730
 3387SOL    HW121797   1.959   2.960   1.726  0.4850 -0.8892 -0.1538
 3387SOL    HW221798   2.094   2.972   1.657 -0.4082 -0.9850  0.4604
 3388SOL     OW21799   2.769   4.122   6.866  0.1786 -0.3519  0.4466
 3388SOL    HW121800   2.843   4.176   6.894  0.1653 -0.4723  0.7131
 3388SOL    HW221801   2.760   4.161   6.779  1.0271 -0.7312  0.1821
 3389SOL     OW21802   2.870   0.599   3.956  0.2262 -0.2425 -0.2949
 3389SOL    HW121803   2.951   0.638   3.924  0.6821  1.0594  2.4835
 3389SOL    HW221804   2.906   0.547   4.028  1.2321  0.2699 -0.4168
 3390SOL     OW21805   1.686   0.956   4.388  0.0107 -0.0740  0.1945
 3390SOL    HW121806   1.602   0.942   4.432 -0.3545 -0.9782 -0.8024
 3390SOL    HW221807   1.648   1.015   4.324 -0.6636 -1.0170 -0.2846
 3391SOL     OW21808   0.227   2.304  14.197  0.0856  0.1231 -0.4233
 3391SOL    HW121809   0.143   2.258  14.198 -0.8527  1.8932  1.1512
 3391SOL    HW221810   0.278   2.271  14.271  0.1461  0.1757 -0.4418
 3392SOL     OW21811   1.323   3.738   6.610 -0.2304  0.7358 -0.5360
 3392SOL    HW121812   1.262   3.807   6.635 -0.3727  0.1813  0.6515
 3392SOL    HW221813   1.401   3.787   6.584  0.9568  0.0424  1.6538
 3393SOL     OW21814   0.851   0.203  12.407 -0.3160 -0.0759  0.1017
 3393SOL    HW121815   0.781   0.148  12.442 -0.4358 -0.5757 -0.9382
 3393SOL    HW221816   0.873   0.260  12.481  1.9897 -0.4355 -0.2965
 3394SOL     OW21817   3.218   2.150   2.042  0.1101 -0.1180  0.0459
 3394SOL    HW121818   3.156   2.220   2.062 -0.7649 -0.4792 -1.4148
 3394SOL    HW221819   3.183   2.077   2.092  2.3775 -1.0031  0.3205
 3395SOL     OW21820   3.081   1.131   9.988  0.1650  0.1985  0.4222
 3395SOL    HW121821   3.025   1.167  10.057 -0.2037 -0.9076  0.7029
 3395SOL    HW221822   3.036   1.048   9.976  1.3423  0.0793 -3.0880
 3396SOL     OW21823   2.100   4.571   2.876 -0.4025 -0.1218 -0.1443
 3396SOL    HW121824   2.175   4.565   2.817  0.5559 -0.6849  1.1369
 3396SOL    HW221825   2.141   4.553   2.961 -0.6308  1.3768  0.2825
 3397SOL     OW21826   0.895   4.533   5.749 -0.3488  0.5032 -0.4913
 3397SOL    HW121827   0.845   4.614   5.758 -3.1997 -1.5934  2.5351
 3397SOL    HW221828   0.965   4.557   5.810 -1.4956  0.0059  1.0144
 3398SOL     OW21829   4.364   4.717   3.799  0.1291  0.5753 -0.2021
 3398SOL    HW121830   4.431   4.654   3.773  0.2926 -0.0848  1.8098
 3398SOL    HW221831   4.346   0.023   3.715 -0.9876 -1.9637 -1.1900
 3399SOL     OW21832   4.274   0.765   5.804 -0.0341 -0.0495  0.1271
 3399SOL    HW121833   4.196   0.816   5.826 -0.6253 -1.9129  2.3278
 3399SOL    HW221834   4.328   0.814   5.867 -0.1242 -1.4421  1.2763
 3400SOL     OW21835   1.520   4.660   3.648  0.4959  0.1817 -0.0113
 3400SOL    HW121836   1.598   4.622   3.608  0.6456  0.0925  0.3705
 3400SOL    HW221837   1.454   4.621   3.590 -0.0360  3.5567 -1.6551
 3401SOL     OW21838   0.146   2.256  16.036  0.2003  0.1401  0.0971
 3401SOL    HW121839   0.151   2.275  16.130 -0.7347 -1.5333  0.4968
 3401SOL    HW221840   0.226   2.292  15.999 -1.5342  3.0982 -0.7927
 3402SOL     OW21841   4.037   4.443   7.308  0.1039 -0.7330  0.3068
 3402SOL    HW121842   4.028   4.530   7.348  0.4035 -0.1791 -0.8418
 3402SOL    HW221843   4.028   4.473   7.218  0.9163 -0.2362  0.3953
 3403SOL     OW21844   0.243   3.040   0.905  0.2040 -0.2414 -0.1830
 3403SOL    HW121845   0.317   3.041   0.844  1.1522 -0.6964  0.9764
 3403SOL    HW221846   0.279   3.108   0.963  0.2661 -0.6755  0.2830
 3404SOL     OW21847   0.274   0.593   8.731 -0.4128 -0.4139  0.4636
 3404SOL    HW121848   0.364   0.566   8.749 -0.3813  2.2630  4.1478
 3404SOL    HW221849   0.294   0.686   8.734 -1.0870 -0.2578  0.0846
 3405SOL     OW21850   2.284   0.724   7.299 -0.2675 -0.7688 -0.3254
 3405SOL    HW121851   2.332   0.804   7.320  2.2537 -1.8879 -1.8177
 3405SOL    HW221852   2.262   0.685   7.384  1.6217  0.9955  0.9536
 3406SOL     OW21853   0.730   0.542   0.277 -0.1850  1.0665  0.1499
 3406SOL    HW121854   0.683   0.591   0.344 -0.1852 -0.4883  1.2898
 3406SOL    HW221855   0.728   0.597   0.198  0.4167 -0.1957 -0.7499
 3407SOL     OW21856   3.415   0.484   9.250  0.8380 -0.0857 -0.1627
 3407SOL    HW121857   3.477   0.536   9.301  1.4199 -0.8862 -0.0743
 3407SOL    HW221858   3.392   0.414   9.310  0.5866 -0.6402 -0.9054
 3408SOL     OW21859   2.079   4.180   8.798 -0.0338 -0.4962 -0.0814
 3408SOL    HW121860   2.068   4.178   8.893 -0.1297  2.4257 -0.0364
 3408SOL    HW221861   1.993   4.164   8.759  0.1906 -1.9986  0.0285
 3409SOL     OW21862   2.231   2.618  16.023 -0.2780 -0.2272 -0.0432
 3409SOL    HW121863   2.278   2.681  16.077  0.5892  0.8965 -2.1221
 3409SOL    HW221864   2.205   2.677  15.952  3.0148  0.7251 -0.4304
 3410SOL     OW21865   1.085   4.085   7.118  0.3648  0.0908 -0.5038
 3410SOL    HW121866   1.077   4.018   7.186 -1.9389  0.1281 -0.7420
 3410SOL    HW221867   1.035   4.053   7.044 -0.1549 -1.2918  0.4527
 3411SOL     OW21868   4.690   4.518   8.404 -0.4201 -0.3517  0.0408
 3411SOL    HW121869   0.017   4.585   8.433 -2.3503  1.6043 -0.3000
 3411SOL    HW221870   4.615   4.543   8.457 -0.2479 -0.6605  0.4347
 3412SOL     OW21871   0.691   0.575   3.289 -0.3354 -0.5105 -0.2388
 3412SOL    HW121872   0.598   0.562   3.270  0.5272 -1.8223 -3.5662
 3412SOL    HW221873   0.679   0.635   3.362 -2.2702 -2.5779  1.1579
 3413SOL     OW21874   1.327   1.789  16.805  0.4856 -0.6739  0.2075
 3413SOL    HW121875   1.343   1.730  16.732  2.0604 -0.4753  0.4046
 3413SOL    HW221876   1.263   1.738  16.854  0.9814 -1.0950  0.4128
 3414SOL     OW21877   1.557   2.057  13.043 -0.0663  0.0069  0.3906
 3414SOL    HW121878   1.489   1.994  13.068  2.2853 -2.6541  0.0923
 3414SOL    HW221879   1.547   2.121  13.113  2.0852  0.0038  0.6755
 3415SOL     OW21880   2.000   1.530  16.081  0.5901 -0.4831  0.0605
 3415SOL    HW121881   1.999   1.491  15.994  0.2193  1.9875 -1.0255
 3415SOL    HW221882   2.060   1.604  16.071  0.7834 -0.7404 -0.6559
 3416SOL     OW21883   4.055   4.631   2.991  0.1181  0.0664  0.4714
 3416SOL    HW121884   4.086   4.719   3.013  1.2329 -0.6849  1.9391
 3416SOL    HW221885   3.974   4.637   2.940  0.4461  1.3693  0.1048
 3417SOL     OW21886   1.518   3.523   1.566 -0.0743 -0.3229 -0.2117
 3417SOL    HW121887   1.499   3.617   1.568 -1.4121 -0.6550  2.2448
 3417SOL    HW221888   1.470   3.499   1.646 -1.5040  0.9964 -0.6587
 3418SOL     OW21889   3.441   0.506   7.196  0.0773 -0.0454  0.0747
 3418SOL    HW121890   3.419   0.462   7.113  0.1606 -1.0585  0.5840
 3418SOL    HW221891   3.351   0.527   7.222  0.6341 -0.4548  2.3429
 3419SOL     OW21892   2.719   2.324  13.252 -0.3243  0.2321 -0.1052
 3419SOL    HW121893   2.684   2.332  13.341  0.5305 -0.6854  0.3063
 3419SOL    HW221894   2.778   2.399  13.256  1.2674 -1.0883  1.5211
 3420SOL     OW21895   4.009   3.857   4.532 -0.4586  0.3180  0.0855
 3420SOL    HW121896   4.007   3.799   4.456 -0.7596 -0.4962  0.7156
 3420SOL    HW221897   3.985   3.944   4.500  1.4794  0.3472 -1.2828
 3421SOL     OW21898   4.441   1.430   7.022  0.2186  0.0183 -0.4557
 3421SOL    HW121899   4.458   1.431   7.116 -0.7531 -0.6056 -0.2686
 3421SOL    HW221900   4.422   1.337   7.006 -1.6445  0.6795 -2.0732
 3422SOL     OW21901   0.499   4.688   7.036 -0.3259 -0.1152 -0.5090
 3422SOL    HW121902   0.415   4.643   7.038  0.2272 -1.1361  0.0716
 3422SOL    HW221903   0.484   0.018   6.968 -0.3802  1.6442  1.2109
 3423SOL     OW21904   3.452   4.585   9.240  0.1926 -0.3911  0.4824
 3423SOL    HW121905   3.460   4.670   9.198 -0.8549 -1.1933 -1.3223
 3423SOL    HW221906   3.505   4.540   9.174  0.7205 -0.3533  0.8798
 3424SOL     OW21907   4.134   4.329   5.154 -0.4947 -0.3131  0.0900
 3424SOL    HW121908   4.223   4.294   5.157  0.0634  1.1039 -0.3253
 3424SOL    HW221909   4.149   4.404   5.097  0.0668  1.6803  2.8909
 3425SOL     OW21910   2.182   2.194  13.905  0.2152 -0.3929  0.1431
 3425SOL    HW121911   2.245   2.192  13.832  1.0083  0.4611  0.8047
 3425SOL    HW221912   2.134   2.275  13.889 -1.7218 -1.3532  1.0806
 3426SOL     OW21913   4.315   2.931  17.326 -0.0083  0.1647  0.7305
 3426SOL    HW121914   4.266   2.974  17.395 -0.1974  1.2740 -0.0936
 3426SOL    HW221915   4.401   2.973  17.320 -0.1291  0.5033  1.4029
 3427SOL     OW21916   4.171   2.344   0.296  0.1735 -0.4146 -0.2031
 3427SOL    HW121917   4.240   2.409   0.310 -0.3342  0.4109 -1.4583
 3427SOL    HW221918   4.217   2.295   0.229 -2.0000  0.5779 -2.4487
 3428SOL     OW21919   3.058   4.045   5.933  0.4178 -0.3686  0.6176
 3428SOL    HW121920   2.972   4.064   5.970  0.0184  2.9935 -1.9783
 3428SOL    HW221921   3.113   4.080   6.004 -0.1270 -0.2482  0.9773
 3429SOL     OW21922   3.797   3.277   6.519 -0.0450  0.2484 -0.4717
 3429SOL    HW121923   3.706   3.274   6.490 -0.2627  0.3073  0.1920
 3429SOL    HW221924   3.793   3.206   6.583  2.0499  1.5697  1.1042
 3430SOL     OW21925   3.868   0.009  16.493  0.3656 -0.3919 -0.2796
 3430SOL    HW121926   3.772   0.017  16.491  0.5246  1.8948  2.4538
 3430SOL    HW221927   3.876   0.019  16.587 -2.0213 -2.8145  0.1920
 3431SOL     OW21928   2.556   3.563   5.404 -0.5311 -1.2824 -0.3670
 3431SOL    HW121929   2.617   3.492   5.424  1.9342  0.1510 -2.9153
 3431SOL    HW221930   2.599   3.610   5.333  0.9316  0.4005  1.6156
 3432SOL     OW21931   3.306   2.395   6.180  0.3891 -0.9437 -0.3722
 3432SOL    HW121932   3.229   2.363   6.133  0.3713  0.3255 -1.2171
 3432SOL    HW221933   3.376   2.394   6.115  0.1121  1.7079 -0.7019
 3433SOL     OW21934   4.070   0.430  10.145 -0.4006 -0.1627  0.7231
 3433SOL    HW121935   4.045   0.522  10.151 -1.3062 -0.3574  0.0365
 3433SOL    HW221936   4.078   0.429  10.050 -2.0974 -2.5749  0.5963
 3434SOL     OW21937   4.332   0.875   2.406 -0.4933  0.0405 -0.1816
 3434SOL    HW121938   4.376   0.803   2.451 -0.1175  1.6820  2.0781
 3434SOL    HW221939   4.348   0.858   2.313  0.4684  0.2585 -0.0602
 3435SOL     OW21940   3.238   4.411   6.929 -0.2058  0.0618  0.0794
 3435SOL    HW121941   3.271   4.322   6.939  0.3063  0.3498  0.9411
 3435SOL    HW221942   3.270   4.445   6.845 -0.9489 -1.1055 -0.6752
 3436SOL     OW21943   3.053   2.640   2.425 -0.4369 -0.2579 -0.3870
 3436SOL    HW121944   3.079   2.698   2.496  1.0272 -2.2616  0.6685
 3436SOL    HW221945   3.050   2.705   2.354 -1.5217  0.4061  0.2546
 3437SOL     OW21946   2.747   4.583  14.717  0.5280 -0.0749 -0.3950
 3437SOL    HW121947   2.675   4.525  14.741  0.0233  1.4030  1.6888
 3437SOL    HW221948   2.714   4.611  14.632 -3.1947 -1.0933  0.6914
 3438SOL     OW21949   3.473   3.684  10.244 -0.0417 -0.2414  0.2332
 3438SOL    HW121950   3.538   3.724  10.301 -1.1627 -1.2466  2.2352
 3438SOL    HW221951   3.425   3.627  10.304  2.7780 -1.1786  1.5903
 3439SOL     OW21952   1.349   0.205   5.535 -0.2539 -0.6204  0.0802
 3439SOL    HW121953   1.301   0.187   5.454  1.9803 -0.5127 -1.2779
 3439SOL    HW221954   1.281   0.201   5.602 -1.6965 -1.4292 -1.4484
 3440SOL     OW21955   0.293   4.437   2.927  0.3466  0.6034  0.0884
 3440SOL    HW121956   0.377   4.401   2.899 -0.0515  0.8809 -1.4368
 3440SOL    HW221957   0.275   4.389   3.008  1.0110 -0.3611 -0.3361
 3441SOL     OW21958   0.805   0.476   8.079  0.0864  0.2443 -0.3951
 3441SOL    HW121959   0.884   0.497   8.129  0.0011  0.2099 -0.2464
 3441SOL    HW221960   0.765   0.563   8.077  0.1823  0.2958 -0.0979
 3442SOL     OW21961   1.575   1.728   7.495  0.2371 -0.4342 -0.0896
 3442SOL    HW121962   1.600   1.637   7.479  0.4063 -0.3885 -0.0888
 3442SOL    HW221963   1.492   1.715   7.540  0.3767  4.2712  1.5384
 3443SOL     OW21964   1.960   4.255  13.116 -0.1809  0.0327  0.1744
 3443SOL    HW121965   1.938   4.348  13.107 -3.0334 -0.6523  0.1178
 3443SOL    HW221966   1.948   4.247  13.211 -1.3348  2.4668  0.2492
 3444SOL     OW21967   4.550   3.517  17.504 -0.1852  0.4260  0.3764
 3444SOL    HW121968   4.635   3.482  17.477 -0.3686  1.1703 -1.1775
 3444SOL    HW221969   4.526   3.577  17.433  0.3026  0.2764  0.0830
 3445SOL     OW21970   4.283   2.836  13.925 -0.1953  0.0131  0.3512
 3445SOL    HW121971   4.349   2.870  13.865  0.9952 -1.1910  0.9954
 3445SOL    HW221972   4.272   2.908  13.988  0.9501  1.0175 -0.5893
 3446SOL     OW21973   3.069   2.422   6.656 -0.0107 -1.1061  0.1652
 3446SOL    HW121974   3.066   2.329   6.680 -2.8283 -1.4720 -1.5615
 3446SOL    HW221975   3.118   2.459   6.729  1.2047 -3.8117  0.7288
 3447SOL     OW21976   0.197   3.716   8.944 -0.1432  0.5560  0.6421
 3447SOL    HW121977   0.124   3.655   8.930  1.0604 -1.1537  1.8610
 3447SOL    HW221978   0.253   3.659   8.995  1.9422  1.7703 -0.2851
 3448SOL     OW21979   0.829   3.381   5.603  0.6718 -0.0869  0.0751
 3448SOL    HW121980   0.866   3.405   5.688  0.2716 -0.0860  0.2509
 3448SOL    HW221981   0.740   3.351   5.625  0.8037 -0.3977  0.1938
 3449SOL     OW21982   0.126   2.406  13.951 -0.1527  0.5397  0.2823
 3449SOL    HW121983   0.183   2.386  14.026  0.0978 -0.5763 -0.1982
 3449SOL    HW221984   0.044   2.389  13.996  1.0039  0.8999  2.5179
 3450SOL     OW21985   2.409   3.061   2.845 -0.2711  0.0653 -0.0424
 3450SOL    HW121986   2.407   2.967   2.862 -0.0616  0.5154  2.4452
 3450SOL    HW221987   2.334   3.083   2.788  0.2260 -2.2777 -1.5844
 3451SOL     OW21988   2.500   3.277   4.946  0.0369  0.1779  0.5408
 3451SOL    HW121989   2.448   3.197   4.932 -0.6972  0.3849  2.0987
 3451SOL    HW221990   2.450   3.325   4.881  1.5680  0.5149 -0.3901
 3452SOL     OW21991   1.380   2.258   8.216  0.8027 -0.5706  0.1149
 3452SOL    HW121992   1.316   2.328   8.218  2.6741  1.1492  0.0009
 3452SOL    HW221993   1.459   2.288   8.260  0.4768 -0.9135  0.9233
 3453SOL     OW21994   1.359   1.956   0.132 -0.3768  0.1714 -0.4410
 3453SOL    HW121995   1.417   1.901   0.079  1.9424  0.9717  1.2828
 3453SOL    HW221996   1.297   1.887   0.155 -0.2402 -0.8553 -3.1498
 3454SOL     OW21997   4.518   3.596   5.704 -0.3213  0.2759  0.2979
 3454SOL    HW121998   4.478   3.678   5.733 -0.1004  0.6538 -0.4559
 3454SOL    HW221999   4.582   3.582   5.774 -0.1230  2.0716  0.4740
 3455SOL     OW22000   2.576   1.735   8.860 -0.4870  0.5820 -0.2818
 3455SOL    HW122001   2.629   1.668   8.816 -0.9828  0.0174 -0.0200
 3455SOL    HW222002   2.638   1.805   8.841 -0.5584  1.6219  3.3631
 3456SOL     OW22003   3.561   1.553   6.974  0.1173 -0.2953 -0.2564
 3456SOL    HW122004   3.501   1.626   6.961 -0.4202 -0.9979 -1.7006
 3456SOL    HW222005   3.556   1.493   6.900 -0.6378  0.2518 -0.6374
 3457SOL     OW22006   2.603   4.380   3.060 -0.3607  0.4007  0.3274
 3457SOL    HW122007   2.541   4.317   3.023 -0.8942 -0.0374  1.9791
 3457SOL    HW222008   2.658   4.319   3.109 -0.1368  0.2848 -0.0643
 3458SOL     OW22009   3.183   4.277   3.431 -0.6736 -0.4323 -0.0643
 3458SOL    HW122010   3.101   4.237   3.403 -0.0778 -0.2001 -2.1575
 3458SOL    HW222011   3.169   4.259   3.524 -0.7947 -0.4789 -0.0924
 3459SOL     OW22012   4.049   0.887  13.266 -0.4024 -0.7040 -0.0793
 3459SOL    HW122013   4.108   0.960  13.282  1.2134 -2.3720  1.6179
 3459SOL    HW222014   4.071   0.817  13.328  0.4409 -4.8140 -5.0575
 3460SOL     OW22015   1.548   4.514   3.019 -0.4386 -0.0188  0.3039
 3460SOL    HW122016   1.500   4.465   3.087 -0.9208 -0.9066 -0.6715
 3460SOL    HW222017   1.628   4.461   3.016 -0.9618 -0.7068 -1.3010
 3461SOL     OW22018   4.338   1.452   8.929  0.0317 -0.5285  0.6733
 3461SOL    HW122019   4.386   1.469   9.011  2.6430  2.3201 -1.4731
 3461SOL    HW222020   4.415   1.443   8.873  0.1989  2.1393  0.4880
 3462SOL     OW22021   2.670   1.943  12.142  0.2608 -0.4044  0.2716
 3462SOL    HW122022   2.746   1.887  12.128  2.6947  2.9181  0.0048
 3462SOL    HW222023   2.619   1.895  12.208 -2.9259  1.4070 -0.8597
 3463SOL     OW22024   0.120   2.739   6.740 -0.6295 -0.2743  0.0221
 3463SOL    HW122025   0.073   2.773   6.817  0.7498  0.3401  0.5789
 3463SOL    HW222026   0.204   2.712   6.776 -0.2008  3.2796  1.6869
 3464SOL     OW22027   3.522   1.856   8.067  0.1965 -0.0077  0.4645
 3464SOL    HW122028   3.609   1.842   8.028 -0.8620 -1.6932 -1.2768
 3464SOL    HW222029   3.482   1.777   8.030  0.0920  1.2104 -2.0619
 3465SOL     OW22030   4.135   3.499  15.442 -0.8193  0.1847 -0.3322
 3465SOL    HW122031   4.222   3.499  15.400 -0.7690 -2.4080 -0.2769
 3465SOL    HW222032   4.144   3.586  15.481  0.3733 -1.1158  2.2981
 3466SOL     OW22033   0.372   2.676  15.403  0.6235 -0.3137 -0.4346
 3466SOL    HW122034   0.326   2.759  15.416  1.4749 -0.1327  1.4858
 3466SOL    HW222035   0.298   2.616  15.404 -0.1430  0.6367  0.8307
 3467SOL     OW22036   2.816   4.693   5.644  0.1620  0.1707 -0.3096
 3467SOL    HW122037   2.736   4.715   5.692 -0.1161 -0.6162 -0.4213
 3467SOL    HW222038   2.859   4.642   5.713 -0.9801 -0.8346 -0.3401
 3468SOL     OW22039   1.932   0.665   1.818 -0.1176  0.1611  0.0963
 3468SOL    HW122040   1.952   0.573   1.799  1.8520  1.0993 -2.3450
 3468SOL    HW222041   1.980   0.667   1.901  0.4102  0.1444 -0.2104
 3469SOL     OW22042   3.280   0.644   2.404 -0.4652  0.1585 -0.3253
 3469SOL    HW122043   3.329   0.617   2.482  1.5699  0.3695 -1.5177
 3469SOL    HW222044   3.221   0.710   2.441  1.0044  2.2471 -1.7022
 3470SOL     OW22045   3.632   0.262   1.781 -0.4950 -0.0793  0.3491
 3470SOL    HW122046   3.647   0.329   1.714 -2.1717  0.5943  0.6415
 3470SOL    HW222047   3.675   0.188   1.737 -1.4849  0.4360 -1.5083
 3471SOL     OW22048   1.030   2.372   1.321 -0.8742  0.7521  0.6101
 3471SOL    HW122049   1.023   2.277   1.318  1.7212  0.5417  0.7438
 3471SOL    HW222050   1.009   2.394   1.412  1.9105 -1.6279  1.8445
 3472SOL     OW22051   1.421   2.630   1.326 -0.5998  0.7994 -0.4272
 3472SOL    HW122052   1.341   2.650   1.277 -0.0988 -0.6268 -1.8478
 3472SOL    HW222053   1.482   2.608   1.255  1.2632  1.9696  0.8265
 3473SOL     OW22054   2.906   0.609   0.563 -0.1159 -1.0270  0.5171
 3473SOL    HW122055   2.923   0.520   0.533  0.1578 -1.5122  2.1198
 3473SOL    HW222056   2.814   0.598   0.586  0.3916  0.5056  3.3184
 3474SOL     OW22057   1.092   0.802  16.455 -0.6683 -0.2015 -0.5092
 3474SOL    HW122058   1.142   0.749  16.517 -0.3708 -0.9075 -1.3441
 3474SOL    HW222059   1.124   0.890  16.474 -1.4102  0.1928 -1.0907
 3475SOL     OW22060   0.635   3.087   5.748  0.2089 -0.4787  0.3404
 3475SOL    HW122061   0.591   3.171   5.731 -1.0274 -1.2917 -0.4910
 3475SOL    HW222062   0.706   3.121   5.802  0.1953  0.3967 -0.1931
 3476SOL     OW22063   0.535   4.056  11.079 -0.4360 -0.2164  0.4262
 3476SOL    HW122064   0.588   4.117  11.130 -0.4134 -1.6666  2.1341
 3476SOL    HW222065   0.545   4.092  10.991 -0.6757  1.1736  0.9505
 3477SOL     OW22066   2.303   0.261   2.274 -0.1994 -0.0036 -0.5123
 3477SOL    HW122067   2.209   0.274   2.285  0.2222  1.2320  1.5681
 3477SOL    HW222068   2.316   0.253   2.179 -1.7548  2.2291 -0.8970
 3478SOL     OW22069   3.474   0.542   5.706  0.4991 -0.5009 -0.3655
 3478SOL    HW122070   3.561   0.518   5.675  1.4552  1.9697  0.3931
 3478SOL    HW222071   3.474   0.638   5.700  0.8468 -0.4560  0.4598
 3479SOL     OW22072   4.005   1.749   2.163 -0.1556  0.3186  0.2715
 3479SOL    HW122073   3.929   1.726   2.109  0.4783 -1.5139  0.1697
 3479SOL    HW222074   4.010   1.673   2.220 -1.5940  1.7445  2.3134
 3480SOL     OW22075   2.098   4.594  11.249  0.0762  0.4455  0.1835
 3480SOL    HW122076   2.058   4.575  11.164 -2.3085 -0.3651  1.4860
 3480SOL    HW222077   2.016   4.607  11.297 -1.3310  1.4718 -2.4836
 3481SOL     OW22078   0.453   4.204   3.185  0.1216 -0.0827  0.2249
 3481SOL    HW122079   0.364   4.232   3.205 -0.5439 -1.6791 -0.4585
 3481SOL    HW222080   0.475   4.146   3.259  0.7772 -0.2993 -0.1423
 3482SOL     OW22081   2.312   1.496   4.234 -0.5761 -0.6669 -0.4253
 3482SOL    HW122082   2.372   1.544   4.178  0.8929  3.1262  4.3977
 3482SOL    HW222083   2.233   1.549   4.220  0.8311  1.4923 -0.1860
 3483SOL     OW22084   2.987   1.224   5.126  0.0970  0.3220  0.3805
 3483SOL    HW122085   2.951   1.193   5.043  0.0210 -0.4524  0.7023
 3483SOL    HW222086   2.932   1.165   5.177  0.7299 -1.2677 -0.7818
 3484SOL     OW22087   2.398   2.977   4.911  0.4352  0.0676 -0.2083
 3484SOL    HW122088   2.442   2.951   4.992  2.3325  1.6376 -0.7471
 3484SOL    HW222089   2.306   2.974   4.940  0.4894 -0.1511 -0.0584
 3485SOL     OW22090   0.204   4.492   8.634  0.0451 -0.0255  0.7247
 3485SOL    HW122091   0.206   4.552   8.559 -0.2364  1.4999  1.9489
 3485SOL    HW222092   0.123   4.524   8.674  1.0061  0.7753  2.0298
 3486SOL     OW22093   0.684   4.283   4.837  0.8477 -0.1957 -0.1153
 3486SOL    HW122094   0.649   4.289   4.926  2.1259 -0.3513  0.4041
 3486SOL    HW222095   0.612   4.308   4.779  0.4337  0.5196  0.7054
 3487SOL     OW22096   1.992   3.535   5.688  0.1912  0.2542  0.7408
 3487SOL    HW122097   2.050   3.492   5.625 -1.4937 -1.9946  0.7316
 3487SOL    HW222098   2.047   3.549   5.765 -0.9374  1.2422  1.3612
 3488SOL     OW22099   2.242   2.499   5.248  0.2442 -0.2127  0.3150
 3488SOL    HW122100   2.299   2.520   5.173  0.9767 -2.3060  0.2849
 3488SOL    HW222101   2.216   2.410   5.224 -2.2504  0.6035  0.0046
 3489SOL     OW22102   1.431   1.749  10.852  0.1886 -0.0146 -0.0411
 3489SOL    HW122103   1.432   1.699  10.935 -1.6080 -0.4134 -0.2620
 3489SOL    HW222104   1.457   1.683  10.788 -0.1494 -0.7207  0.5492
 3490SOL     OW22105   2.774   4.154   8.876  0.1257  0.4837  0.4273
 3490SOL    HW122106   2.807   4.211   8.806 -1.1951  3.1221  1.9787
 3490SOL    HW222107   2.686   4.189   8.887 -0.2843 -0.9319  1.6449
 3491SOL     OW22108   3.393   2.054   7.365  0.0892 -0.0945  0.7478
 3491SOL    HW122109   3.389   2.027   7.457 -2.6359  0.0667  0.6789
 3491SOL    HW222110   3.312   2.018   7.330 -1.2200  0.5634  3.1151
 3492SOL     OW22111   2.763   0.892  11.256  0.0421 -0.2627  0.2470
 3492SOL    HW122112   2.841   0.932  11.295 -0.3419  1.4378 -0.7729
 3492SOL    HW222113   2.732   0.964  11.202  1.4035 -0.3555 -0.6656
 3493SOL     OW22114   4.726   1.287   4.438 -0.0984  0.3456  0.6184
 3493SOL    HW122115   4.672   1.296   4.359  2.4406  1.8428 -0.9677
 3493SOL    HW222116   4.720   1.191   4.444  0.3247  0.4057  1.9977
 3494SOL     OW22117   1.130   0.688  14.264 -0.4335 -0.4560 -0.1709
 3494SOL    HW122118   1.099   0.663  14.177 -1.9543  0.5652  0.0718
 3494SOL    HW222119   1.079   0.769  14.271 -0.7038 -0.8939  3.2709
 3495SOL     OW22120   3.842   1.054   8.162  0.4272 -0.1561 -0.0014
 3495SOL    HW122121   3.773   1.042   8.227  1.5348  0.0389  1.2342
 3495SOL    HW222122   3.898   0.983   8.193 -1.1181 -0.7615  1.4264
 3496SOL     OW22123   4.038   2.693   5.047  1.1511 -0.6382 -0.2720
 3496SOL    HW122124   3.970   2.678   4.981  0.1465  1.6022  0.2361
 3496SOL    HW222125   4.046   2.788   5.036  0.9233 -0.6813 -0.8424
 3497SOL     OW22126   3.681   4.438   9.489 -0.2635 -0.7339 -0.7401
 3497SOL    HW122127   3.655   4.480   9.570 -0.5463  0.4565 -1.4439
 3497SOL    HW222128   3.757   4.393   9.526  0.7682  1.5220 -0.0941
 3498SOL     OW22129   3.738   0.153  10.676 -0.6904 -0.2891  0.2893
 3498SOL    HW122130   3.775   0.163  10.588  3.4856  2.6456  2.3183
 3498SOL    HW222131   3.813   0.123  10.728 -0.4192  0.0247  0.0852
 3499SOL     OW22132   2.313   2.249   5.382  0.3542 -0.2339  0.4529
 3499SOL    HW122133   2.278   2.323   5.432 -0.1711 -1.8152  2.4580
 3499SOL    HW222134   2.388   2.222   5.436 -0.1683  0.0268  1.3168
 3500SOL     OW22135   3.909   4.426   7.790  0.2054 -0.1801  0.6282
 3500SOL    HW122136   3.887   4.412   7.698 -0.5159 -1.3182  0.9646
 3500SOL    HW222137   3.979   4.361   7.794  0.2094 -0.3233 -1.7113
 3501SOL     OW22138   0.875   3.596  17.719 -0.3416 -0.2701  0.0952
 3501SOL    HW122139   0.896   3.632  17.633 -1.2266 -1.0005 -0.4290
 3501SOL    HW222140   0.908   3.663   0.038 -1.3047 -0.6915  1.0915
 3502SOL     OW22141   0.395   3.230   3.130  0.9769  0.1297 -0.3124
 3502SOL    HW122142   0.460   3.226   3.200  2.0181 -2.7289 -1.4307
 3502SOL    HW222143   0.415   3.151   3.079  3.9696 -0.2119  1.3715
 3503SOL     OW22144   2.034   4.070  15.695 -0.2064 -0.5059  0.5411
 3503SOL    HW122145   2.058   4.163  15.699 -0.9099 -0.2399 -1.3805
 3503SOL    HW222146   2.042   4.045  15.603 -1.5625 -1.5079  0.6957
 3504SOL     OW22147   0.668   2.410   5.993  0.0353  0.0566 -0.1523
 3504SOL    HW122148   0.722   2.464   6.050 -0.2584  0.4061 -0.2040
 3504SOL    HW222149   0.728   2.351   5.948  0.7257  0.8103 -0.2154
 3505SOL     OW22150   3.384   2.039   2.451  0.3159 -0.1032 -0.0995
 3505SOL    HW122151   3.396   2.121   2.405  2.8550 -1.3655 -1.7084
 3505SOL    HW222152   3.395   2.064   2.543 -0.6243  1.0536 -0.3039
 3506SOL     OW22153   3.057   4.107   7.705  0.3721 -0.1893 -0.2331
 3506SOL    HW122154   3.033   4.080   7.616 -0.8731  0.3611 -0.0721
 3506SOL    HW222155   3.123   4.174   7.690  1.2966 -1.1085 -0.2182
 3507SOL     OW22156   1.407   2.719  10.627  0.0627  0.3678 -0.5832
 3507SOL    HW122157   1.383   2.639  10.673  1.1636  0.4310  0.1009
 3507SOL    HW222158   1.393   2.792  10.688  0.4990 -0.2034  0.1963
 3508SOL     OW22159   2.092   2.256   3.314  0.0269 -0.1855 -0.1071
 3508SOL    HW122160   2.041   2.246   3.234 -0.7129  3.7331 -0.1040
 3508SOL    HW222161   2.033   2.216   3.378  0.2593 -1.6076 -0.7728
 3509SOL     OW22162   2.241   4.253  15.380  0.2714 -0.4062  0.0303
 3509SOL    HW122163   2.186   4.250  15.458  1.9216 -0.0138  1.2207
 3509SOL    HW222164   2.326   4.271  15.420 -0.3973  3.5567 -0.3956
 3510SOL     OW22165   0.524   1.913   6.368  0.4402  0.2966  0.3446
 3510SOL    HW122166   0.596   1.963   6.407 -0.5323 -0.0795  2.6037
 3510SOL    HW222167   0.509   1.958   6.285 -0.4759  0.3372  0.5386
 3511SOL     OW22168   1.493   0.453   5.604 -0.8194  0.1843 -0.0230
 3511SOL    HW122169   1.433   0.380   5.617  1.2507 -1.5652 -0.3585
 3511SOL    HW222170   1.458   0.495   5.525 -0.3106  3.1351  1.3198
 3512SOL     OW22171   2.086   2.056  15.191  0.0465 -0.2473 -0.2883
 3512SOL    HW122172   2.113   2.132  15.243 -1.0317  0.0881 -0.2185
 3512SOL    HW222173   2.155   2.043  15.126 -1.6195 -1.2253 -1.8607
 3513SOL     OW22174   0.452   1.182   0.379  0.3717  0.0823  0.1728
 3513SOL    HW122175   0.488   1.167   0.292  1.6199 -3.6000  1.3390
 3513SOL    HW222176   0.527   1.157   0.433  0.0300 -2.3013 -0.4280
 3514SOL     OW22177   3.160   1.505   1.334 -0.6966 -0.4183  0.6432
 3514SOL    HW122178   3.162   1.410   1.323 -2.2943 -0.3079 -0.5091
 3514SOL    HW222179   3.148   1.510   1.429  0.9218  2.7661  0.6729
 3515SOL     OW22180   2.512   1.334   8.397  0.2105 -0.2797  0.3397
 3515SOL    HW122181   2.518   1.428   8.412 -1.7025 -0.2416  0.8078
 3515SOL    HW222182   2.427   1.313   8.436  0.1322  1.3450  1.0357
 3516SOL     OW22183   2.215   1.351   3.910 -0.1501  0.1136  0.1421
 3516SOL    HW122184   2.188   1.261   3.895 -2.4815  0.8260  0.0673
 3516SOL    HW222185   2.304   1.339   3.943  0.2636 -2.3668 -1.9141
 3517SOL     OW22186   3.297   1.833   6.658 -0.4113 -0.5243 -0.1937
 3517SOL    HW122187   3.315   1.926   6.663  3.1647 -1.2212  0.1164
 3517SOL    HW222188   3.205   1.844   6.682 -0.6794 -2.1357 -0.4577
 3518SOL     OW22189   1.009   4.028  15.355  0.0892  0.0328 -0.2474
 3518SOL    HW122190   1.029   3.966  15.286 -0.2781 -0.3065 -0.0466
 3518SOL    HW222191   0.918   4.011  15.380  0.2356 -1.5122 -0.8194
 3519SOL     OW22192   1.067   1.804   4.537 -0.1139 -0.6027 -0.5130
 3519SOL    HW122193   0.997   1.745   4.510  0.1515  0.1379 -2.8557
 3519SOL    HW222194   1.036   1.849   4.616 -0.4680 -2.6793  0.5297
 3520SOL     OW22195   0.491   0.977   4.148 -0.1737  0.0017  0.0192
 3520SOL    HW122196   0.575   0.941   4.119  0.8081  0.6245  2.0992
 3520SOL    HW222197   0.467   1.027   4.069 -0.9086 -0.3659  0.0146
 3521SOL     OW22198   2.141   0.339   9.252  0.2479 -0.0116  0.3714
 3521SOL    HW122199   2.135   0.258   9.202 -0.4647  0.1347  0.2181
 3521SOL    HW222200   2.054   0.376   9.237  0.5266 -0.7493 -2.9098
 3522SOL     OW22201   1.631   2.158  12.204  0.0511 -0.1891  0.0823
 3522SOL    HW122202   1.565   2.089  12.209  0.2575 -0.1695  3.2634
 3522SOL    HW222203   1.580   2.236  12.227  0.0191  0.2355 -1.4498
 3523SOL     OW22204   4.175   2.893   4.754 -0.1251 -0.2990  0.7201
 3523SOL    HW122205   4.234   2.848   4.815  2.2656  1.9967  0.1301
 3523SOL    HW222206   4.172   2.823   4.690  1.1387  1.5522 -1.3738
 3524SOL     OW22207   1.336   0.169  11.773 -0.2944 -0.8773  0.2081
 3524SOL    HW122208   1.295   0.200  11.854  2.6350  0.4594  1.1830
 3524SOL    HW222209   1.415   0.135  11.814 -0.0108 -1.3917 -0.7769
 3525SOL     OW22210   3.868   4.129   2.289  0.0997 -0.2639  0.5954
 3525SOL    HW122211   3.945   4.074   2.274  1.0943  1.7855 -1.9661
 3525SOL    HW222212   3.828   4.152   2.205  0.4639  4.6601  1.7673
 3526SOL     OW22213   0.804   3.033   6.707  0.8834  0.0255 -0.0427
 3526SOL    HW122214   0.839   3.070   6.788  0.5346  0.7979 -0.2376
 3526SOL    HW222215   0.805   2.940   6.730  3.3599 -0.3352 -1.6295
 3527SOL     OW22216   0.532   3.934   6.560  0.9588 -0.2456 -0.1043
 3527SOL    HW122217   0.628   3.933   6.561  0.9955  0.2450 -2.5691
 3527SOL    HW222218   0.522   3.853   6.611  1.5058 -1.2474 -1.5576
 3528SOL     OW22219   2.803   0.568  15.298 -0.3442  0.2505 -1.0467
 3528SOL    HW122220   2.858   0.551  15.222  0.8729 -1.4683  0.2277
 3528SOL    HW222221   2.853   0.522  15.365  0.1470  1.0701 -0.8521
 3529SOL     OW22222   0.258   3.163   2.360 -0.5735 -0.4758 -0.2679
 3529SOL    HW122223   0.294   3.236   2.410 -2.4244  0.0092  0.3681
 3529SOL    HW222224   0.166   3.190   2.351 -0.4358  0.4083  1.0196
 3530SOL     OW22225   2.250   3.880   6.717 -0.1568  0.6022  0.3204
 3530SOL    HW122226   2.324   3.939   6.709 -1.0990  1.9296  1.4442
 3530SOL    HW222227   2.209   3.912   6.798 -1.8736 -1.7590  0.4144
 3531SOL     OW22228   2.226   1.491  11.697  0.6174 -0.2321 -0.5360
 3531SOL    HW122229   2.189   1.504  11.784  1.5975  2.8529 -0.5463
 3531SOL    HW222230   2.273   1.575  11.698  0.6715 -0.2518 -1.1400
 3532SOL     OW22231   4.573   2.977  14.042 -0.4465 -0.2640  0.3600
 3532SOL    HW122232   4.581   2.939  13.955 -0.0740 -3.5684  1.8674
 3532SOL    HW222233   4.562   2.904  14.103  1.5096 -2.5313 -2.0157
 3533SOL     OW22234   4.589   2.864   2.505  0.4150 -0.4794 -0.1546
 3533SOL    HW122235   4.501   2.853   2.469 -1.4157 -1.1809  4.6512
 3533SOL    HW222236   4.563   2.847   2.595  0.9434  0.0748  0.1094
 3534SOL     OW22237   2.532   4.094  12.447  0.3178 -0.1806  0.2565
 3534SOL    HW122238   2.626   4.112  12.443  0.0605  0.5445 -2.9293
 3534SOL    HW222239   2.523   4.050  12.531  0.5839 -2.1654 -0.7464
 3535SOL     OW22240   4.564   1.972   3.513 -0.4252 -0.5088  0.3145
 3535SOL    HW122241   4.500   2.036   3.483  0.4627  0.0180 -0.4674
 3535SOL    HW222242   4.622   2.025   3.568  1.3536 -1.6244 -0.4534
 3536SOL     OW22243   2.848   2.498   1.314  0.8316  0.8550 -0.3785
 3536SOL    HW122244   2.862   2.408   1.342  0.6694  1.1207  0.5284
 3536SOL    HW222245   2.869   2.541   1.396 -0.4987  1.8719 -0.5781
 3537SOL     OW22246   0.082   2.278   0.073 -0.7667 -0.0346  0.3208
 3537SOL    HW122247   0.084   2.187   0.044  0.8132  0.0100  0.2696
 3537SOL    HW222248   0.108   2.279   0.165 -1.6766  1.7652  0.5494
 3538SOL     OW22249   4.663   1.926   5.184 -0.2651 -0.5081  0.5207
 3538SOL    HW122250   4.699   1.852   5.232 -0.8940 -1.6247 -0.7480
 3538SOL    HW222251   4.631   1.979   5.258 -2.3653  1.6826 -1.9493
 3539SOL     OW22252   1.779   1.598  15.805 -0.2585 -0.1309  0.9059
 3539SOL    HW122253   1.854   1.637  15.850 -0.1379  1.8037 -0.9475
 3539SOL    HW222254   1.732   1.680  15.789  0.5346  0.4333  1.4819
 3540SOL     OW22255   0.607   2.997  12.439  0.4465  0.2410 -0.1757
 3540SOL    HW122256   0.699   2.970  12.440  0.4502  0.2555  0.1719
 3540SOL    HW222257   0.607   3.092  12.430  3.0309  0.2023 -0.3651
 3541SOL     OW22258   0.887   4.100  13.524  0.5542 -0.0896 -0.6522
 3541SOL    HW122259   0.862   4.191  13.509 -1.3967 -0.7734 -1.4833
 3541SOL    HW222260   0.835   4.057  13.456 -0.7596 -1.2968  1.1312
 3542SOL     OW22261   1.224   2.955   2.161 -0.6571  0.0852  0.5082
 3542SOL    HW122262   1.293   3.012   2.195 -0.0001 -1.1922  1.3290
 3542SOL    HW222263   1.163   3.020   2.127 -0.8423 -0.9457 -1.1244
 3543SOL     OW22264   0.443   4.157   6.891  0.0431  0.0185  1.0007
 3543SOL    HW122265   0.360   4.188   6.855  0.8044  0.0068 -0.7688
 3543SOL    HW222266   0.406   4.077   6.929  0.2228 -0.5602 -0.0560
 3544SOL     OW22267   4.265   3.406   6.821 -0.4758 -0.1078  0.0163
 3544SOL    HW122268   4.220   3.365   6.747  0.2981  1.1530 -1.1642
 3544SOL    HW222269   4.215   3.376   6.897 -0.5474  0.2093  0.0928
 3545SOL     OW22270   0.477   4.501   6.354 -0.1497 -0.1346 -0.0868
 3545SOL    HW122271   0.547   4.439   6.376  0.5619  0.7082 -0.0003
 3545SOL    HW222272   0.463   4.553   6.432  1.5142 -0.8807  0.7010
 3546SOL     OW22273   1.615   0.296   5.927  0.0582  0.4120  0.1662
 3546SOL    HW122274   1.630   0.209   5.890  1.3143  0.0196  1.5764
 3546SOL    HW222275   1.675   0.351   5.877 -0.6897  2.6640  1.7604
 3547SOL     OW22276   4.539   3.230   7.467  0.0058  0.4592  0.1074
 3547SOL    HW122277   4.482   3.258   7.394  0.4423  1.1611  0.0340
 3547SOL    HW222278   4.598   3.305   7.472  1.0083 -0.2770 -0.6635
 3548SOL     OW22279   3.256   4.180   5.770  0.5901 -0.2611  0.4164
 3548SOL    HW122280   3.345   4.180   5.805  0.2538 -2.1479  1.3109
 3548SOL    HW222281   3.201   4.167   5.848 -0.7299  2.9330  0.0238
 3549SOL     OW22282   2.247   3.812   4.678 -0.3311  0.0433  0.3402
 3549SOL    HW122283   2.235   3.903   4.704  1.4712  0.0555  1.1330
 3549SOL    HW222284   2.246   3.779   4.767 -1.8293  2.9282  1.3722
 3550SOL     OW22285   3.480   0.140   5.509  0.1076 -0.1035  0.0188
 3550SOL    HW122286   3.396   0.100   5.488  1.6142 -1.7504 -2.8145
 3550SOL    HW222287   3.526   0.106   5.432  0.4089  0.7359 -0.1627
 3551SOL     OW22288   1.296   4.708   3.208 -0.5131 -0.3681  0.1381
 3551SOL    HW122289   1.260   4.714   3.119  1.4627  4.7690 -0.3105
 3551SOL    HW222290   1.378   0.022   3.206 -1.1368  0.6486 -0.3507
 3552SOL     OW22291   0.096   1.092   5.835  0.1458  0.1492 -0.1205
 3552SOL    HW122292   0.123   1.183   5.841  0.5310  0.1299 -1.4560
 3552SOL    HW222293   0.044   1.076   5.914 -0.4025  0.7565 -0.3571
 3553SOL     OW22294   2.585   2.928   7.676 -0.0358 -0.0749  0.0689
 3553SOL    HW122295   2.564   2.874   7.751  0.3177  1.9458  1.6264
 3553SOL    HW222296   2.501   2.951   7.637 -0.4659 -1.1218  0.3940
 3554SOL     OW22297   1.999   0.990   8.829 -0.1974 -0.4474 -0.0363
 3554SOL    HW122298   2.044   1.026   8.906 -0.0447 -0.4455 -0.1260
 3554SOL    HW222299   1.911   1.027   8.835  0.5180  1.2334  0.2230
 3555SOL     OW22300   3.649   3.192   6.949  0.2406  0.5344 -0.4121
 3555SOL    HW122301   3.571   3.247   6.936  0.3285 -0.0158 -3.0872
 3555SOL    HW222302   3.709   3.265   6.966  0.5444  0.3322 -0.6305
 3556SOL     OW22303   3.636   4.722   0.628  0.3178 -0.0394 -0.5194
 3556SOL    HW122304   3.616   4.636   0.664  0.9820 -0.1726 -0.4693
 3556SOL    HW222305   3.595   4.706   0.544  0.0470  1.6740 -0.7193
 3557SOL     OW22306   4.142   0.274   3.257 -0.0808  0.0024  0.3461
 3557SOL    HW122307   4.219   0.269   3.200 -0.9300 -0.4942 -0.7657
 3557SOL    HW222308   4.131   0.184   3.289  1.1810 -0.5218 -0.7145
 3558SOL     OW22309   3.476   2.118   8.192 -0.3352 -0.5429  0.0715
 3558SOL    HW122310   3.490   2.029   8.160  0.4301 -0.7644  1.0311
 3558SOL    HW222311   3.538   2.154   8.128 -0.3239  0.7260  0.8014
 3559SOL     OW22312   3.649   3.965  10.301 -0.3101  0.6094  0.8904
 3559SOL    HW122313   3.683   3.902  10.365 -0.0168 -0.3273 -0.1908
 3559SOL    HW222314   3.623   4.040  10.354  0.3726  0.5504  1.3157
 3560SOL     OW22315   1.829   3.696  12.657  0.1907  0.2716  0.0397
 3560SOL    HW122316   1.884   3.672  12.733  1.0721 -0.0133 -0.6908
 3560SOL    HW222317   1.857   3.785  12.638 -1.0444  0.8148  0.7701
 3561SOL     OW22318   2.452   4.278   2.634 -0.2163 -0.2818  0.0122
 3561SOL    HW122319   2.398   4.243   2.704  1.3309 -1.0976  0.8093
 3561SOL    HW222320   2.431   4.205   2.575 -1.4863 -0.4530  0.6877
 3562SOL     OW22321   1.378   4.313   6.713  0.0165  0.4291 -0.0854
 3562SOL    HW122322   1.330   4.333   6.633  0.5802 -1.8407 -0.9759
 3562SOL    HW222323   1.301   4.309   6.770 -0.9206  1.5935 -1.2665
 3563SOL     OW22324   1.275   2.808  11.670 -0.3815 -0.3263  0.3144
 3563SOL    HW122325   1.370   2.816  11.659  0.0327 -1.6922  2.8054
 3563SOL    HW222326   1.257   2.741  11.603 -0.1213  1.0893 -1.1566
 3564SOL     OW22327   1.937   4.347   1.865  0.7553 -0.1427 -0.2892
 3564SOL    HW122328   1.940   4.254   1.886 -0.1649  0.0421  0.6698
 3564SOL    HW222329   1.864   4.369   1.922  0.0661  0.5721 -1.4354
 3565SOL     OW22330   2.730   1.712   5.845 -0.8556 -0.0227  0.5821
 3565SOL    HW122331   2.802   1.650   5.829 -0.3943  1.1073 -1.8098
 3565SOL    HW222332   2.753   1.748   5.931  0.0165 -1.2595  0.8702
 3566SOL     OW22333   0.304   4.242   5.508  0.1645  0.5780  0.3026
 3566SOL    HW122334   0.247   4.217   5.581  0.8211 -1.2585  0.1816
 3566SOL    HW222335   0.324   4.155   5.473 -0.5053  1.3368 -1.9847
 3567SOL     OW22336   3.830   0.263   0.075  0.6858 -0.1601 -0.2273
 3567SOL    HW122337   3.829   0.348   0.119 -0.3109 -0.4905  0.3850
 3567SOL    HW222338   3.820   0.205   0.151 -0.9287 -1.2770 -1.3073
 3568SOL     OW22339   2.462   4.234   5.262 -0.1630 -0.5503  0.3815
 3568SOL    HW122340   2.372   4.239   5.294 -0.3127 -0.4599 -0.0552
 3568SOL    HW222341   2.509   4.290   5.324 -0.4650  0.1652 -0.0451
 3569SOL     OW22342   3.799   1.243   3.848  0.5130 -0.1431 -0.3719
 3569SOL    HW122343   3.815   1.150   3.836 -2.1136 -0.2322 -3.0309
 3569SOL    HW222344   3.722   1.245   3.905  1.1931  2.1696  0.4550
 3570SOL     OW22345   1.892   1.310   5.830 -0.6326 -0.0195 -0.0961
 3570SOL    HW122346   1.879   1.317   5.735  0.1143  2.8827  0.0195
 3570SOL    HW222347   1.807   1.344   5.860 -0.7894 -0.1628 -0.3754
 3571SOL     OW22348   0.667   0.235   7.076 -0.1822  0.3987 -0.1806
 3571SOL    HW122349   0.708   0.165   7.127  0.8201  2.1732  1.4056
 3571SOL    HW222350   0.609   0.187   7.016  0.8431 -0.6078 -0.3628
 3572SOL     OW22351   1.516   1.999   4.684  0.7015  0.1492 -0.3082
 3572SOL    HW122352   1.595   1.947   4.700  1.1273  1.2035  1.0820
 3572SOL    HW222353   1.458   1.944   4.631 -0.9026  0.1456  1.4744
 3573SOL     OW22354   1.629   2.444   0.088 -0.5712  0.4033 -0.4956
 3573SOL    HW122355   1.544   2.473   0.057 -0.2137  1.4050 -0.5347
 3573SOL    HW222356   1.657   2.378   0.024  0.0097  0.2305 -0.0714
 3574SOL     OW22357   0.374   1.522   6.393 -0.3076 -0.0515 -0.2646
 3574SOL    HW122358   0.384   1.550   6.484 -0.9660 -3.1524  0.7504
 3574SOL    HW222359   0.279   1.513   6.391 -0.3999  0.6457  1.3874
 3575SOL     OW22360   1.805   1.168  14.754  0.4186 -0.5945  0.3961
 3575SOL    HW122361   1.764   1.241  14.706 -0.1874 -1.8768 -1.0516
 3575SOL    HW222362   1.732   1.146  14.813  1.2610  0.0564  1.6792
 3576SOL     OW22363   3.844   4.027  10.128  0.6948  0.0988  0.1074
 3576SOL    HW122364   3.899   4.039  10.205 -1.1768 -1.2413  1.6735
 3576SOL    HW222365   3.765   4.011  10.180 -0.1581  1.8953 -0.6190
 3577SOL     OW22366   2.410   4.429   2.389  0.2892 -0.0572  0.1669
 3577SOL    HW122367   2.398   4.521   2.415 -2.5670 -0.2784 -0.3557
 3577SOL    HW222368   2.424   4.387   2.474 -2.2915  0.1760  0.7080
 3578SOL     OW22369   0.434   3.450   5.205  1.0708  0.0877  0.3485
 3578SOL    HW122370   0.500   3.510   5.172  0.9273 -2.3122 -4.3326
 3578SOL    HW222371   0.385   3.433   5.125 -0.2017 -0.6229  1.2799
 3579SOL     OW22372   0.845   1.525   6.103  0.2351 -0.6803  0.7065
 3579SOL    HW122373   0.769   1.518   6.161 -0.0148 -0.3928  0.4168
 3579SOL    HW222374   0.796   1.542   6.023  2.0093  1.0195 -0.0375
 3580SOL     OW22375   3.803   0.644   5.160  0.0404 -0.3810  0.1596
 3580SOL    HW122376   3.798   0.619   5.068  1.4194  0.8463 -0.2470
 3580SOL    HW222377   3.723   0.603   5.193 -0.5277 -0.4375 -1.2840
 3581SOL     OW22378   3.644   1.727   5.170 -0.4007  0.1026 -0.0721
 3581SOL    HW122379   3.736   1.744   5.191 -0.3159  1.3338 -1.4687
 3581SOL    HW222380   3.643   1.761   5.081 -1.1006  0.5143  0.0968
 3582SOL     OW22381   2.108   4.380  16.295  0.4985 -0.0389  0.3974
 3582SOL    HW122382   2.039   4.428  16.249  2.4021  0.4101 -1.9284
 3582SOL    HW222383   2.081   4.289  16.281  0.4538  0.1095 -0.4353
 3583SOL     OW22384   3.633   2.213   0.747  0.1114  0.3556 -0.3304
 3583SOL    HW122385   3.634   2.190   0.654 -0.5669 -0.8548 -0.0380
 3583SOL    HW222386   3.672   2.137   0.791 -2.4766 -0.1415  1.0632
 3584SOL     OW22387   2.482   3.540   9.393  0.2633  0.1547 -0.2858
 3584SOL    HW122388   2.440   3.535   9.479  0.0936  0.2699 -0.3629
 3584SOL    HW222389   2.471   3.632   9.370 -0.7083  0.7893  2.7420
 3585SOL     OW22390   1.834   0.502   6.254 -0.1406  0.1157  0.7474
 3585SOL    HW122391   1.842   0.461   6.341 -0.0705  0.4801  0.9126
 3585SOL    HW222392   1.881   0.443   6.195 -1.0674  0.0058  0.1261
 3586SOL     OW22393   0.062   1.920   8.703 -1.0241 -0.0663 -0.8151
 3586SOL    HW122394   0.081   1.925   8.796 -1.3690 -0.1297 -0.7417
 3586SOL    HW222395   0.129   1.861   8.669 -3.1603 -1.7305 -2.1668
 3587SOL     OW22396   2.382   2.715   0.439 -0.5878  0.0868  0.5384
 3587SOL    HW122397   2.432   2.774   0.383 -1.4772  1.8028  1.5776
 3587SOL    HW222398   2.373   2.636   0.385  0.6149  0.4978 -0.2556
 3588SOL     OW22399   3.082   0.624   3.681  0.0341 -0.0305 -0.1425
 3588SOL    HW122400   3.117   0.680   3.750  0.1108 -1.3235  0.8868
 3588SOL    HW222401   3.025   0.685   3.635 -0.6937  0.2558  1.1388
 3589SOL     OW22402   4.155   2.249   3.985  0.2603  0.0440  0.3326
 3589SOL    HW122403   4.127   2.178   3.928  1.4320 -0.6520  0.6344
 3589SOL    HW222404   4.095   2.319   3.957  0.1216 -0.1982  0.0265
 3590SOL     OW22405   3.273   2.234  11.476 -0.0089 -0.2248  0.3898
 3590SOL    HW122406   3.258   2.145  11.507 -0.7134 -0.0100  0.6533
 3590SOL    HW222407   3.300   2.218  11.386  1.0363  1.0595  0.4551
 3591SOL     OW22408   2.438   3.137  15.742 -0.1472 -0.3561 -0.4128
 3591SOL    HW122409   2.468   3.216  15.697 -0.1046  0.2349  0.6631
 3591SOL    HW222410   2.412   3.080  15.669 -0.7141  0.5416 -0.9145
 3592SOL     OW22411   0.986   2.395   3.528 -0.1481 -0.2340  0.2199
 3592SOL    HW122412   0.981   2.369   3.436 -0.9158 -0.8347  0.4368
 3592SOL    HW222413   1.081   2.382   3.520 -0.5876 -2.9115 -0.6594
 3593SOL     OW22414   2.731   2.830   9.860  0.2729 -0.4220  0.0540
 3593SOL    HW122415   2.775   2.835   9.775  0.1935 -0.1957  0.0260
 3593SOL    HW222416   2.797   2.780   9.907  0.5279 -0.7841 -0.6786
 3594SOL     OW22417   3.915   0.528  13.249  0.1599 -0.4332  0.2260
 3594SOL    HW122418   3.994   0.553  13.296 -0.1236 -1.3425  1.1866
 3594SOL    HW222419   3.917   0.435  13.225  0.2221 -0.4802  0.4109
 3595SOL     OW22420   1.866   2.589   9.375 -0.7321 -0.2393  0.0707
 3595SOL    HW122421   1.836   2.578   9.465 -1.0462  2.8703  0.3449
 3595SOL    HW222422   1.789   2.625   9.331 -0.4892  1.3135  0.9042
 3596SOL     OW22423   0.069   0.973  12.376 -0.6571  0.6726 -0.3603
 3596SOL    HW122424   0.133   1.032  12.336 -1.3007  1.3725 -0.3513
 3596SOL    HW222425   0.113   0.940  12.455 -1.3431  0.7342  0.0472
 3597SOL     OW22426   2.321   4.232   3.944  0.2346 -0.1485 -0.6305
 3597SOL    HW122427   2.416   4.225   3.944  0.3748  1.6337  1.0952
 3597SOL    HW222428   2.299   4.139   3.950 -0.9815  0.1163 -0.8216
 3598SOL     OW22429   2.804   3.549  12.241  0.2081 -0.2197 -0.4045
 3598SOL    HW122430   2.769   3.477  12.294 -1.6426  1.2675  0.3752
 3598SOL    HW222431   2.823   3.613  12.310 -1.0881 -2.0254  1.6549
 3599SOL     OW22432   3.694   3.529   6.707  0.0432 -0.0074  0.0028
 3599SOL    HW122433   3.619   3.561   6.657  0.6181  0.0961 -0.7984
 3599SOL    HW222434   3.768   3.558   6.653 -1.4879  0.1378 -2.0182
 3600SOL     OW22435   0.210   1.230   6.402 -0.0860 -0.1188 -0.0240
 3600SOL    HW122436   0.201   1.178   6.323 -1.1168  1.3450 -0.8826
 3600SOL    HW222437   0.136   1.290   6.386  0.7382  0.7362 -0.6639
 3601SOL     OW22438   2.056   1.575   3.918  0.0940 -0.9650  0.3308
 3601SOL    HW122439   2.107   1.653   3.939  0.8579 -1.5413  0.6161
 3601SOL    HW222440   2.124   1.508   3.931  1.8063  0.5977 -0.5785
 3602SOL     OW22441   2.988   0.222   8.545 -0.8289  0.5015  0.0569
 3602SOL    HW122442   2.925   0.246   8.613  0.0409 -0.5798  1.2436
 3602SOL    HW222443   3.055   0.289   8.550 -0.8581  0.6877 -2.0431
 3603SOL     OW22444   2.293   4.570  16.345  0.1642 -0.4082  0.5710
 3603SOL    HW122445   2.237   4.496  16.320 -1.0208  0.5166  0.5155
 3603SOL    HW222446   2.370   4.516  16.363 -0.8563 -1.2379  2.5004
 3604SOL     OW22447   1.086   0.089   9.342  0.1585 -0.1923  0.0498
 3604SOL    HW122448   1.151   0.157   9.326  1.1180 -1.6781 -2.3328
 3604SOL    HW222449   1.148   0.016   9.337 -0.4483 -0.8403  1.8491
 3605SOL     OW22450   4.016   2.412  10.350  1.1023 -0.3650  0.2841
 3605SOL    HW122451   4.001   2.436  10.258  0.0189 -1.5917  0.1360
 3605SOL    HW222452   4.026   2.503  10.377 -0.4050 -0.7206  2.0316
 3606SOL     OW22453   2.570   3.609   4.399  0.0332  0.5845 -0.1189
 3606SOL    HW122454   2.638   3.542   4.398  1.3529  1.9911 -2.5608
 3606SOL    HW222455   2.546   3.608   4.492 -0.3404  0.1546 -0.2206
 3607SOL     OW22456   1.119   4.276  10.709 -0.1872 -0.0461  0.9217
 3607SOL    HW122457   1.190   4.305  10.650 -1.1329  0.9264  0.2630
 3607SOL    HW222458   1.159   4.192  10.732  0.4378  0.3096  1.1471
 3608SOL     OW22459   1.091   1.657   2.065 -0.2689  0.0665  0.4242
 3608SOL    HW122460   1.063   1.593   2.130  1.3164 -0.2580  0.7981
 3608SOL    HW222461   1.018   1.718   2.063 -0.0968  0.1733 -2.1309
 3609SOL     OW22462   3.099   0.573  16.658 -0.2443 -0.0647  0.0546
 3609SOL    HW122463   3.058   0.578  16.572 -0.3398 -0.8741  0.0514
 3609SOL    HW222464   3.106   0.665  16.683  1.4333  0.1396 -1.2274
 3610SOL     OW22465   0.398   2.222   9.939  0.6041 -0.0295  0.2970
 3610SOL    HW122466   0.365   2.142   9.897 -0.7564  0.0108  1.2748
 3610SOL    HW222467   0.361   2.292   9.885 -0.6608  1.3053  2.8944
 3611SOL     OW22468   2.294   0.428   3.235 -0.0231  0.2983 -0.1382
 3611SOL    HW122469   2.353   0.353   3.234 -0.2360  0.1125  1.2344
 3611SOL    HW222470   2.321   0.476   3.314  0.9325 -0.9421  0.2830
 3612SOL     OW22471   0.421   0.860  15.087 -0.0814  0.2186  0.1812
 3612SOL    HW122472   0.358   0.859  15.015  1.9792 -0.7260 -1.6081
 3612SOL    HW222473   0.372   0.917  15.147  1.2351  1.3362  0.2189
 3613SOL     OW22474   1.596   0.422   8.901  0.2002  0.4303 -0.3575
 3613SOL    HW122475   1.563   0.462   8.821 -0.2660  0.4879 -0.1372
 3613SOL    HW222476   1.669   0.368   8.870  0.2057  1.4080 -2.0671
 3614SOL     OW22477   4.300   3.934   5.199  0.1797 -0.6571  0.1274
 3614SOL    HW122478   4.278   3.881   5.123 -0.5884 -0.2541  0.0702
 3614SOL    HW222479   4.335   3.868   5.258 -2.2887 -2.0554 -0.0075
 3615SOL     OW22480   4.093   0.367   4.478  0.3292  0.0788  0.6228
 3615SOL    HW122481   4.045   0.286   4.492 -0.5763  0.3044 -1.1259
 3615SOL    HW222482   4.184   0.338   4.485  0.2695  0.2161  2.0273
 3616SOL     OW22483   0.208   4.190   7.799  0.3328  0.8680 -0.4568
 3616SOL    HW122484   0.259   4.234   7.868  0.2704  2.0830 -1.1856
 3616SOL    HW222485   0.254   4.108   7.781  0.2468  0.4461  1.2191
 3617SOL     OW22486   3.531   4.662  16.171 -0.2680 -0.1901 -0.1411
 3617SOL    HW122487   3.511   4.575  16.136  0.7089  0.2093 -1.7064
 3617SOL    HW222488   3.525   4.712  16.089  0.6116 -1.4165 -0.9383
 3618SOL     OW22489   4.289   1.498  11.136  0.2036  0.3474 -0.1099
 3618SOL    HW122490   4.232   1.442  11.083  0.4049  1.6175 -1.6959
 3618SOL    HW222491   4.226   1.557  11.176 -0.4133  0.4357 -1.2102
 3619SOL     OW22492   0.780   4.095   7.172  0.2462  0.2884 -0.1421
 3619SOL    HW122493   0.696   4.092   7.217  0.5163 -0.2415  0.3204
 3619SOL    HW222494   0.794   4.005   7.142 -1.1072 -0.2599  0.9166
 3620SOL     OW22495   0.744   1.347   4.928 -0.6065  0.1602 -0.5096
 3620SOL    HW122496   0.662   1.348   4.878 -0.5451 -1.0538 -0.6235
 3620SOL    HW222497   0.733   1.260   4.966  0.0133  0.0097 -0.6641
 3621SOL     OW22498   2.162   1.219   4.335 -0.6700 -0.3934  0.3021
 3621SOL    HW122499   2.230   1.265   4.286 -1.6427  0.1725 -0.5234
 3621SOL    HW222500   2.209   1.170   4.402  1.3392 -2.1281 -2.3833
 3622SOL     OW22501   0.834   2.152  15.846 -0.2014  0.3049 -0.2956
 3622SOL    HW122502   0.766   2.097  15.885  0.0640  0.6342  0.6408
 3622SOL    HW222503   0.880   2.185  15.923 -1.9140  2.1231 -0.0501
 3623SOL     OW22504   2.845   4.556   5.113 -0.0937 -0.6313 -0.3377
 3623SOL    HW122505   2.772   4.538   5.054 -0.2579 -0.9901 -0.0154
 3623SOL    HW222506   2.776   4.592   5.169  0.9166  0.1303  0.4232
 3624SOL     OW22507   3.619   3.076   3.530 -0.3601 -0.4071  0.6573
 3624SOL    HW122508   3.562   3.127   3.587 -1.7166 -1.5378  0.3271
 3624SOL    HW222509   3.557   3.054   3.460  0.6376 -0.5097 -0.1885
 3625SOL     OW22510   0.159   2.741   0.615 -0.0608 -0.3571 -0.2680
 3625SOL    HW122511   0.100   2.780   0.551  2.1546 -0.4484 -2.3541
 3625SOL    HW222512   0.098   2.674   0.647  0.0691  0.3488  1.4926
 3626SOL     OW22513   2.793   4.682   2.049 -0.2916  0.5443  0.2809
 3626SOL    HW122514   2.824   4.621   2.115  2.0059  0.2980 -1.0350
 3626SOL    HW222515   2.711   4.708   2.092 -2.7258  0.1293 -4.0430
 3627SOL     OW22516   1.243   2.039  13.240  0.0352 -0.0518 -0.4869
 3627SOL    HW122517   1.274   1.960  13.196  0.6296  0.7583 -1.5282
 3627SOL    HW222518   1.183   2.076  13.175 -1.2565  1.0170  1.3045
 3628SOL     OW22519   3.464   2.825   9.262  0.0601 -0.4215 -0.6114
 3628SOL    HW122520   3.411   2.764   9.313  0.7420 -2.8017 -2.7392
 3628SOL    HW222521   3.530   2.769   9.221  0.6430  0.1559 -0.4650
 3629SOL     OW22522   1.957   3.449   9.085  0.5144  0.0888  0.1074
 3629SOL    HW122523   1.965   3.498   9.168  1.1307  1.8131 -0.9696
 3629SOL    HW222524   1.931   3.525   9.033  1.3562 -0.4071 -1.0099
 3630SOL     OW22525   0.621   2.639  15.424  0.2671 -0.3079  0.4259
 3630SOL    HW122526   0.527   2.654  15.413  0.0586 -0.2280  2.4769
 3630SOL    HW222527   0.653   2.729  15.419  2.6742 -1.2764 -1.8737
 3631SOL     OW22528   0.776   2.344   8.090  0.0501  0.5273  0.1357
 3631SOL    HW122529   0.760   2.336   7.995 -0.8462  0.0592  0.3183
 3631SOL    HW222530   0.838   2.273   8.106 -0.6811 -0.3204 -0.7700
 3632SOL     OW22531   3.830   2.558  11.023 -0.3539  0.0209 -0.0015
 3632SOL    HW122532   3.801   2.513  11.103  3.1046 -1.4896  0.4118
 3632SOL    HW222533   3.811   2.647  11.050  0.0791  0.5374 -1.4203
 3633SOL     OW22534   4.468   4.540   7.274  0.7629  0.0936  0.1136
 3633SOL    HW122535   4.554   4.570   7.304  0.8664 -1.2836  1.1687
 3633SOL    HW222536   4.458   4.451   7.305  2.7365  0.1737  0.9626
 3634SOL     OW22537   0.242   3.931   5.489 -0.2572 -0.4558  0.0897
 3634SOL    HW122538   0.188   3.906   5.414  0.0179  2.0378 -0.9642
 3634SOL    HW222539   0.287   3.847   5.492 -0.8048 -0.8154 -1.6141
 3635SOL     OW22540   4.082   3.117  14.667 -0.0628  0.5495  0.7637
 3635SOL    HW122541   3.987   3.105  14.669  0.0865 -0.4502  1.6946
 3635SOL    HW222542   4.099   3.206  14.698 -1.0406  1.5101 -1.4530
 3636SOL     OW22543   3.661   0.592   9.137 -0.2898 -0.5492  0.2594
 3636SOL    HW122544   3.646   0.544   9.218 -0.2584 -0.6108  0.2291
 3636SOL    HW222545   3.754   0.579   9.114 -1.3188 -2.5730 -2.8037
 3637SOL     OW22546   0.343   0.053  13.861 -0.0709  0.0685  0.2760
 3637SOL    HW122547   0.385   0.011  13.786 -3.0873 -0.4597 -1.1239
 3637SOL    HW222548   0.416   0.102  13.900 -0.0832  0.8765 -0.7091
 3638SOL     OW22549   1.150   1.879   2.694  0.0788 -0.0771 -0.3908
 3638SOL    HW122550   1.157   1.807   2.631 -2.7187  0.5058 -1.3957
 3638SOL    HW222551   1.117   1.934   2.623  3.0106  1.7859 -0.2827
 3639SOL     OW22552   0.860   1.731   6.350  0.3838 -0.3296 -0.0823
 3639SOL    HW122553   0.772   1.696   6.341  0.1544  0.6498 -1.6946
 3639SOL    HW222554   0.847   1.802   6.287 -2.6907 -0.2743  0.6361
 3640SOL     OW22555   1.671   3.827   7.588 -0.1624  0.3938 -0.3830
 3640SOL    HW122556   1.670   3.895   7.654 -0.7989  0.1643 -0.1548
 3640SOL    HW222557   1.613   3.759   7.624 -1.8026  0.9727 -1.9378
 3641SOL     OW22558   2.570   1.890   4.964 -0.6733 -0.6331  0.4053
 3641SOL    HW122559   2.616   1.972   4.981 -0.9649 -0.2481 -0.7181
 3641SOL    HW222560   2.499   1.894   5.028 -1.9590 -0.4779 -1.0313
 3642SOL     OW22561   0.283   4.600  11.413  0.6446 -0.5361 -0.4328
 3642SOL    HW122562   0.342   4.577  11.484  0.7341  2.9062  0.5644
 3642SOL    HW222563   0.241   4.520  11.379 -0.3980 -0.2518  0.1680
 3643SOL     OW22564   2.173   3.836  15.460 -0.1608  0.1859  0.2085
 3643SOL    HW122565   2.082   3.850  15.435 -0.7669 -2.1148  1.1184
 3643SOL    HW222566   2.209   3.793  15.382  0.7186 -0.8846  1.2054
 3644SOL     OW22567   3.771   0.433  10.442  0.2517 -0.2502  0.0927
 3644SOL    HW122568   3.867   0.426  10.445  0.3388  0.1824 -1.3338
 3644SOL    HW222569   3.750   0.348  10.403  1.4502 -2.0456  3.3796
 3645SOL     OW22570   0.932   3.681  16.121 -0.6069  0.5190 -0.0379
 3645SOL    HW122571   0.897   3.700  16.034 -2.8982  1.0585  1.0039
 3645SOL    HW222572   0.936   3.586  16.111 -2.8346  0.4987 -0.7646
 3646SOL     OW22573   0.020   2.978   3.569  0.2559 -0.2586 -0.0404
 3646SOL    HW122574   4.668   2.976   3.609 -0.3316  4.1146 -1.0073
 3646SOL    HW222575   0.076   3.018   3.636  0.5464 -1.4539  0.4299
 3647SOL     OW22576   4.214   0.724   7.194  0.9949 -0.4215 -0.0484
 3647SOL    HW122577   4.223   0.631   7.213 -1.2252 -0.0674  2.6987
 3647SOL    HW222578   4.149   0.760   7.254  0.1449 -0.9129 -0.6628
 3648SOL     OW22579   0.843   0.267  10.270 -0.8414  0.9157 -0.0978
 3648SOL    HW122580   0.929   0.306  10.250 -0.7473  1.5924  1.6188
 3648SOL    HW222581   0.834   0.318  10.350  1.8736 -0.1438  0.9156
 3649SOL     OW22582   0.329   4.544  16.538  0.6714 -0.2034 -0.6729
 3649SOL    HW122583   0.298   4.560  16.449 -2.4435 -2.8043 -0.0532
 3649SOL    HW222584   0.283   4.613  16.586 -0.4871  0.2515 -2.4428
 3650SOL     OW22585   3.337   4.416   3.038  0.2770  0.3122 -0.3381
 3650SOL    HW122586   3.274   4.483   3.009  0.8686  1.9979  2.2512
 3650SOL    HW222587   3.292   4.334   3.020  1.0604 -0.2722  0.3803
 3651SOL     OW22588   2.180   3.336  14.333  0.4249 -0.3327  0.2417
 3651SOL    HW122589   2.220   3.398  14.395  1.0124  0.4904 -0.9781
 3651SOL    HW222590   2.135   3.397  14.275  0.9933  0.7212  0.8946
 3652SOL     OW22591   0.521   2.790  10.111  0.2171  0.5761 -0.1185
 3652SOL    HW122592   0.558   2.756  10.193 -0.5550 -0.6909 -0.2844
 3652SOL    HW222593   0.553   2.880  10.114 -0.5073  0.7318  2.3097
 3653SOL     OW22594   2.708   2.439   5.095  0.5116 -0.6357 -0.1768
 3653SOL    HW122595   2.675   2.355   5.124 -1.7140  0.3443  0.1310
 3653SOL    HW222596   2.725   2.421   5.002  1.9042 -0.6019  0.0728
 3654SOL     OW22597   3.145   2.490  12.103  0.2311  0.1449 -0.0019
 3654SOL    HW122598   3.126   2.534  12.021 -0.1309  0.4610  0.2502
 3654SOL    HW222599   3.105   2.546  12.170  2.3125  1.0562  0.4632
 3655SOL     OW22600   0.666   0.472  11.575 -0.1943  0.4781  0.8986
 3655SOL    HW122601   0.640   0.383  11.550  0.5747  1.0686 -2.0810
 3655SOL    HW222602   0.590   0.485  11.632 -2.2726  0.1448 -1.7797
 3656SOL     OW22603   0.682   2.862   8.009  0.0898  0.3534 -0.0347
 3656SOL    HW122604   0.775   2.869   7.987 -0.2887  2.5133 -0.9118
 3656SOL    HW222605   0.696   2.891   8.099  1.6775 -0.5599  0.0093
 3657SOL     OW22606   0.064   0.777  10.512 -0.0247  0.0326  0.0934
 3657SOL    HW122607   4.725   0.828  10.543  0.5453 -0.5220  2.3894
 3657SOL    HW222608   0.093   0.812  10.428  0.9501 -0.4878  0.2190
 3658SOL     OW22609   0.995   1.685   6.759 -0.1910 -0.2963  0.3386
 3658SOL    HW122610   1.010   1.769   6.717  0.3967  0.6794  2.5416
 3658SOL    HW222611   1.083   1.650   6.772  0.0081 -0.4359 -1.4131
 3659SOL     OW22612   3.551   3.590   7.877 -0.0119  0.0980 -0.3008
 3659SOL    HW122613   3.528   3.680   7.856  0.0779  0.8026  2.5328
 3659SOL    HW222614   3.501   3.547   7.808  0.8056 -2.1069  0.4678
 3660SOL     OW22615   0.902   3.563   5.796 -0.0705  0.5753 -0.0904
 3660SOL    HW122616   0.851   3.623   5.850 -0.8014 -0.5058  0.4159
 3660SOL    HW222617   0.991   3.598   5.798 -0.3515  1.1976  1.0416
 3661SOL     OW22618   1.855   4.144  12.541  0.9147 -0.0298 -0.0040
 3661SOL    HW122619   1.910   4.067  12.527  1.9595  0.4382  1.6303
 3661SOL    HW222620   1.804   4.124  12.620 -0.7615 -0.8364 -1.2679
 3662SOL     OW22621   3.745   2.171   5.419  0.4383 -0.3927 -0.2924
 3662SOL    HW122622   3.711   2.122   5.494 -1.0011 -1.8455 -1.8903
 3662SOL    HW222623   3.663   2.189   5.373 -0.3125  0.4845  1.4024
 3663SOL     OW22624   1.993   2.213   3.069 -0.4903  0.0341 -0.2288
 3663SOL    HW122625   1.902   2.193   3.094 -0.1478 -0.9584  0.2126
 3663SOL    HW222626   1.994   2.157   2.992  0.7416 -0.1883 -0.0464
 3664SOL     OW22627   2.283   0.812   4.652 -0.7137  0.1180 -0.3224
 3664SOL    HW122628   2.224   0.826   4.578 -2.1841  0.1571  0.8428
 3664SOL    HW222629   2.257   0.727   4.687  3.2830 -0.7476  0.5700
 3665SOL     OW22630   1.543   3.922   8.595  0.1593 -0.6090 -0.1099
 3665SOL    HW122631   1.463   3.927   8.544  0.7406  0.3648 -0.9152
 3665SOL    HW222632   1.565   4.014   8.583 -1.7825 -0.0894  0.3425
 3666SOL     OW22633   0.281   3.512   7.557  0.1065 -0.8605 -0.3543
 3666SOL    HW122634   0.211   3.567   7.521  0.7240 -0.0754 -0.3448
 3666SOL    HW222635   0.277   3.445   7.489 -0.6912 -0.6757 -0.4961
 3667SOL     OW22636   4.477   0.437   6.674 -0.3765 -0.2898  0.1430
 3667SOL    HW122637   4.523   0.364   6.717  0.9242  0.1513 -0.5330
 3667SOL    HW222638   4.419   0.470   6.743 -2.5395  0.3767 -2.0119
 3668SOL     OW22639   0.950   3.733  12.055  0.2377  0.7896  0.2311
 3668SOL    HW122640   0.959   3.801  11.989 -0.8826  1.5353  0.8624
 3668SOL    HW222641   0.962   3.659  11.995 -1.8353 -0.6795  1.6231
 3669SOL     OW22642   1.682   0.768   8.164  0.6890  0.2032 -0.0540
 3669SOL    HW122643   1.615   0.706   8.136  1.1965  0.0999 -1.0654
 3669SOL    HW222644   1.724   0.730   8.241  1.1708  0.9340  0.0474
 3670SOL     OW22645   2.235   0.774   3.986 -0.0010 -0.1300  0.1321
 3670SOL    HW122646   2.214   0.689   4.023  2.2902 -0.2768  1.0844
 3670SOL    HW222647   2.305   0.799   4.045 -1.7628  3.9292  0.4787
 3671SOL     OW22648   3.962   0.758   2.773  0.1753  0.0751 -0.2505
 3671SOL    HW122649   3.874   0.729   2.799  0.0180  2.0361  1.3727
 3671SOL    HW222650   3.939   0.848   2.746  0.6749 -0.1772 -1.5492
 3672SOL     OW22651   4.422   2.735  15.612 -0.0835  0.1243  0.0448
 3672SOL    HW122652   4.469   2.712  15.691 -2.4396  3.3911  2.4188
 3672SOL    HW222653   4.443   2.828  15.608  0.5068 -0.0827 -1.5184
 3673SOL     OW22654   0.912   3.268   6.517  0.1889 -0.4348  0.1571
 3673SOL    HW122655   0.820   3.255   6.541  0.0797 -1.8159 -1.0232
 3673SOL    HW222656   0.960   3.300   6.593  0.1183  1.2656 -0.5278
 3674SOL     OW22657   2.862   4.102   3.768 -0.2972 -0.4962  0.4188
 3674SOL    HW122658   2.771   4.124   3.748 -0.6701 -0.0420  2.5257
 3674SOL    HW222659   2.851   4.110   3.863  0.3572 -1.2609  0.5595
 3675SOL     OW22660   0.204   3.059  15.732 -0.0948 -0.1968 -0.3329
 3675SOL    HW122661   0.110   3.040  15.727 -1.0516  3.5239  3.0545
 3675SOL    HW222662   0.228   3.037  15.822 -1.0940 -0.9926 -0.2633
 3676SOL     OW22663   0.748   0.076   8.010 -0.2614 -0.8987 -0.6075
 3676SOL    HW122664   0.775   4.734   7.962  1.7139  0.7093 -2.0944
 3676SOL    HW222665   0.656   0.077   7.984 -0.8169 -0.1369  1.4268
 3677SOL     OW22666   2.184   2.440   6.368  0.0276 -0.2707  0.5045
 3677SOL    HW122667   2.177   2.378   6.440  0.2912 -0.5796  0.2698
 3677SOL    HW222668   2.209   2.390   6.290 -0.7794  1.0990 -0.6353
 3678SOL     OW22669   3.422   0.824   5.761  0.0829 -0.3020  0.8870
 3678SOL    HW122670   3.402   0.858   5.848 -1.4582 -2.0396  1.2145
 3678SOL    HW222671   3.332   0.821   5.728  0.9519  0.4560 -1.5227
 3679SOL     OW22672   2.380   4.506  15.361  0.1604 -0.4366  0.0425
 3679SOL    HW122673   2.422   4.428  15.397  1.7749 -0.7558 -2.5277
 3679SOL    HW222674   2.335   4.538  15.439  0.7103  1.6803 -0.5134
 3680SOL     OW22675   3.204   1.146  13.291  0.1892 -0.4472  0.1060
 3680SOL    HW122676   3.242   1.196  13.219  0.2888  0.1404  0.5689
 3680SOL    HW222677   3.273   1.082  13.310  1.1054  0.1957 -1.0237
 3681SOL     OW22678   4.612   3.213   1.371  0.1023  0.9251 -0.4822
 3681SOL    HW122679   4.644   3.250   1.454  0.0310 -0.4206  0.1558
 3681SOL    HW222680   4.558   3.281   1.332  0.0854  1.8627  1.1429
 3682SOL     OW22681   4.231   4.234   7.375 -0.3177  0.3111  0.4154
 3682SOL    HW122682   4.156   4.288   7.348 -2.1942 -2.6920 -0.4102
 3682SOL    HW222683   4.219   4.232   7.470  0.4424  2.4282  0.5679
 3683SOL     OW22684   0.886   1.841   2.097 -0.6880  0.8607 -0.0447
 3683SOL    HW122685   0.823   1.801   2.037 -0.5363 -1.5868  1.4647
 3683SOL    HW222686   0.840   1.833   2.180 -1.7530  0.2220 -0.7092
 3684SOL     OW22687   1.714   3.081   3.931 -0.0981  0.1326 -0.1308
 3684SOL    HW122688   1.779   3.011   3.925  0.9698  1.2773 -1.9746
 3684SOL    HW222689   1.750   3.155   3.882  1.3263  0.8726  2.0386
 3685SOL     OW22690   1.169   2.658  15.022 -0.5223 -0.4764  0.1713
 3685SOL    HW122691   1.078   2.628  15.012  0.0062 -1.7405 -0.7998
 3685SOL    HW222692   1.196   2.612  15.102 -1.9117 -0.2074  0.7901
 3686SOL     OW22693   0.779   4.325   7.011 -0.4154 -0.3017 -0.4220
 3686SOL    HW122694   0.760   4.248   7.065 -0.2656  0.0581  0.1531
 3686SOL    HW222695   0.781   4.278   6.929 -0.6204 -0.8553 -0.1077
 3687SOL     OW22696   3.939   2.753   8.646  0.2127  0.7986  0.0785
 3687SOL    HW122697   3.856   2.727   8.687 -0.0501  0.9652 -0.3526
 3687SOL    HW222698   3.917   2.838   8.609  0.3821  0.2750 -1.2532
 3688SOL     OW22699   3.822   2.944  14.409  0.5467  0.0367  0.5780
 3688SOL    HW122700   3.832   2.871  14.348  1.3594  0.1320  0.5993
 3688SOL    HW222701   3.817   3.019  14.349 -1.2283 -0.4204  0.1536
 3689SOL     OW22702   1.999   3.928   8.537 -0.0507  0.0398  0.3279
 3689SOL    HW122703   1.951   3.992   8.590 -0.1541 -0.0546  0.3469
 3689SOL    HW222704   2.072   3.934   8.600  0.3047 -1.3028  0.0426
 3690SOL     OW22705   4.167   4.485   2.727  0.0682  0.0848  1.3298
 3690SOL    HW122706   4.100   4.552   2.718  1.0934  1.2148  2.0484
 3690SOL    HW222707   4.120   4.416   2.774 -0.7204 -0.1342  0.2111
 3691SOL     OW22708   3.466   0.875   8.787 -0.0267 -0.2145  0.0215
 3691SOL    HW122709   3.516   0.795   8.802 -0.4089 -0.1349  1.7206
 3691SOL    HW222710   3.531   0.927   8.741 -0.2791 -0.5997 -0.7814
 3692SOL     OW22711   2.472   0.918  14.747 -0.0153 -0.0254  0.5979
 3692SOL    HW122712   2.410   0.988  14.766  0.3087  0.4624 -0.1391
 3692SOL    HW222713   2.447   0.848  14.807  2.2927 -1.1644  0.2602
 3693SOL     OW22714   2.581   0.091  14.512 -0.2632  0.1572  0.0446
 3693SOL    HW122715   2.595   0.104  14.606 -0.5491  0.1633  0.0857
 3693SOL    HW222716   2.668   0.119  14.482 -1.1151  1.6488 -1.0064
 3694SOL     OW22717   3.679   0.358   2.151 -0.2216  0.1007  0.0920
 3694SOL    HW122718   3.748   0.333   2.090  1.3133  1.8849  1.1029
 3694SOL    HW222719   3.709   0.442   2.184 -0.2370 -0.2933  1.1197
 3695SOL     OW22720   3.024   1.270   3.944  0.5948  0.3844  0.6121
 3695SOL    HW122721   3.019   1.307   3.855  0.0463 -1.6920 -0.2340
 3695SOL    HW222722   3.070   1.192   3.913  1.0988  1.0102 -0.2144
 3696SOL     OW22723   2.049   0.883   5.855  0.3209  0.5523 -0.5843
 3696SOL    HW122724   2.028   0.968   5.893  1.3849  0.3664  0.4283
 3696SOL    HW222725   1.980   0.871   5.790  0.7050 -0.2453 -0.8407
 3697SOL     OW22726   4.495   3.912   4.358  0.1654 -0.0278 -0.6405
 3697SOL    HW122727   4.539   3.954   4.284 -0.0431 -0.7579 -1.1791
 3697SOL    HW222728   4.565   3.864   4.401 -0.3466 -1.0819 -0.9966
 3698SOL     OW22729   3.534   4.404   9.027 -0.3295  0.3811 -0.3865
 3698SOL    HW122730   3.501   4.327   8.982 -0.1298  0.5655 -0.8466
 3698SOL    HW222731   3.615   4.416   8.977  0.7852 -0.6949  1.1614
 3699SOL     OW22732   3.768   2.808  11.127 -0.4164  0.2976 -0.8597
 3699SOL    HW122733   3.789   2.883  11.071  0.9296  1.1264  0.7554
 3699SOL    HW222734   3.817   2.833  11.205  1.4790 -3.5974 -0.8054
 3700SOL     OW22735   3.785   4.678   7.571  0.0881  0.3550 -0.4929
 3700SOL    HW122736   3.795   4.583   7.568 -2.5391  0.0736  0.2217
 3700SOL    HW222737   3.692   4.698   7.558  0.1176  0.0024 -1.2548
 3701SOL     OW22738   1.656   1.613   5.106  0.1667 -0.1978 -0.5047
 3701SOL    HW122739   1.631   1.637   5.195 -1.9624  0.5021 -1.2915
 3701SOL    HW222740   1.620   1.683   5.051 -1.4974  0.0674  0.8936
 3702SOL     OW22741   2.205   0.546   9.034 -0.0909 -0.2377 -0.4789
 3702SOL    HW122742   2.239   0.619   9.086  0.2596  1.4270 -3.0376
 3702SOL    HW222743   2.157   0.493   9.097  0.6929 -0.6563 -0.2337
 3703SOL     OW22744   0.275   2.416   7.413  0.1092  0.3376  0.0859
 3703SOL    HW122745   0.362   2.380   7.431  0.4722 -0.0787 -2.4636
 3703SOL    HW222746   0.236   2.398   7.498  0.3160 -0.4473  0.0078
 3704SOL     OW22747   1.865   1.526  12.078 -0.1813  0.0149  0.5932
 3704SOL    HW122748   1.788   1.481  12.045  0.6074 -1.6099  0.9739
 3704SOL    HW222749   1.847   1.615  12.049  0.0992 -0.9287 -2.4730
 3705SOL     OW22750   3.073   0.319   1.719 -0.6464  0.8689 -0.3113
 3705SOL    HW122751   3.015   0.244   1.708  0.7346 -0.4071  1.2088
 3705SOL    HW222752   3.158   0.277   1.706 -1.6340 -0.8120 -1.2722
 3706SOL     OW22753   3.252   3.587  12.001  0.1293 -0.5296  0.1883
 3706SOL    HW122754   3.256   3.525  11.929 -1.3404 -1.4930  0.9364
 3706SOL    HW222755   3.158   3.609  11.998  0.8558  2.6990  0.8287
 3707SOL     OW22756   1.780   3.274   3.358  0.2507  0.5122  0.1847
 3707SOL    HW122757   1.849   3.283   3.425 -0.0051 -2.2578  0.8358
 3707SOL    HW222758   1.708   3.309   3.410 -0.8959 -0.2881 -0.9005
 3708SOL     OW22759   1.771   3.776   1.857 -0.2751 -0.2221  0.4306
 3708SOL    HW122760   1.781   3.682   1.841 -2.9293 -0.3780 -0.3144
 3708SOL    HW222761   1.846   3.806   1.807  0.3195 -1.2181  0.7324
 3709SOL     OW22762   1.841   3.634   7.831 -0.0538  0.0697  0.1531
 3709SOL    HW122763   1.830   3.590   7.747  3.4004 -0.0179 -0.2321
 3709SOL    HW222764   1.753   3.671   7.842  0.3046  1.1082 -0.4948
 3710SOL     OW22765   4.454   0.452   8.710 -0.0801  0.8333  0.8749
 3710SOL    HW122766   4.491   0.490   8.790  1.6942  3.2760 -1.0810
 3710SOL    HW222767   4.388   0.416   8.769 -1.0455  1.8254  0.4005
 3711SOL     OW22768   0.343   2.091   4.381 -0.1560  1.0391  0.2280
 3711SOL    HW122769   0.384   2.156   4.438 -0.5314  0.9032  0.6497
 3711SOL    HW222770   0.370   2.125   4.295 -0.5242 -1.1235 -0.7353
 3712SOL     OW22771   4.381   2.898   9.012 -0.0856  0.9873 -0.1474
 3712SOL    HW122772   4.317   2.857   9.070  1.0205 -2.4508 -1.4084
 3712SOL    HW222773   4.337   2.920   8.930 -3.6025 -3.5534  0.5393
 3713SOL     OW22774   3.093   2.000  11.107 -0.8458  0.3283 -0.5183
 3713SOL    HW122775   3.104   2.095  11.114 -1.4229  0.3884 -0.4626
 3713SOL    HW222776   3.178   1.968  11.139  0.0966  2.7723 -0.5666
 3714SOL     OW22777   2.339   3.455   9.160  0.7963 -0.2701 -0.4598
 3714SOL    HW122778   2.390   3.489   9.087 -0.3757 -0.0915 -1.2082
 3714SOL    HW222779   2.379   3.482   9.242 -0.6863  0.1850  0.1166
 3715SOL     OW22780   4.085   0.867  15.807 -0.4142 -0.3316 -0.0035
 3715SOL    HW122781   4.022   0.903  15.745  0.6138 -0.2227 -0.9855
 3715SOL    HW222782   4.174   0.881  15.774  0.5704 -2.4732  1.6795
 3716SOL     OW22783   1.930   0.724   8.042  0.0654  0.0617 -0.2189
 3716SOL    HW122784   1.965   0.808   8.011  0.2672 -0.3908 -1.2377
 3716SOL    HW222785   1.852   0.750   8.091 -0.2222 -0.6820 -0.2685
 3717SOL     OW22786   0.293   3.519   3.274  0.2563 -0.1563  0.2722
 3717SOL    HW122787   0.382   3.540   3.246  0.1153 -2.6353 -1.9304
 3717SOL    HW222788   0.281   3.569   3.355 -1.5128 -1.5641  0.8655
 3718SOL     OW22789   4.098   0.768   5.557  0.1980  0.4486 -0.4712
 3718SOL    HW122790   4.155   0.755   5.633 -2.3148  1.2677  1.5561
 3718SOL    HW222791   4.072   0.685   5.519  1.3861  1.4255 -3.4287
 3719SOL     OW22792   3.243   0.065   2.529 -0.4493  0.2223 -0.3907
 3719SOL    HW122793   3.186   0.037   2.601  1.0100 -0.3576  0.5321
 3719SOL    HW222794   3.252   0.158   2.549 -1.4437 -0.1495  1.7381
 3720SOL     OW22795   3.407   1.704   4.699 -0.4390  0.4290 -0.1125
 3720SOL    HW122796   3.387   1.678   4.609 -0.6007 -1.2754  0.4160
 3720SOL    HW222797   3.448   1.787   4.675  0.9672  0.1553  1.3774
 3721SOL     OW22798   4.709   3.785  16.770  0.1821 -0.9024 -0.2604
 3721SOL    HW122799   0.047   3.823  16.817 -0.0455 -0.3666 -0.3365
 3721SOL    HW222800   0.013   3.713  16.720 -1.0795  0.3594 -3.0581
 3722SOL     OW22801   4.674   4.035   2.041  0.2523 -0.0455 -0.0721
 3722SOL    HW122802   4.631   4.119   2.026  1.9561  1.2238  2.1749
 3722SOL    HW222803   4.601   3.984   2.077  2.0450 -2.2863  0.3800
 3723SOL     OW22804   2.864   3.412   5.816 -0.3719  0.1829 -0.4407
 3723SOL    HW122805   2.930   3.481   5.826  0.3516  0.0066 -3.9390
 3723SOL    HW222806   2.829   3.404   5.905 -0.1492  2.2373 -0.1486
 3724SOL     OW22807   1.091   2.423  16.707 -0.2418 -0.0067 -0.4536
 3724SOL    HW122808   1.163   2.459  16.656 -0.6441 -0.1116 -1.0977
 3724SOL    HW222809   1.126   2.342  16.744  1.5033  0.6351 -0.6848
 3725SOL     OW22810   2.260   2.132   0.059 -0.3239  0.1914  0.2187
 3725SOL    HW122811   2.299   2.125   0.145 -1.1831  0.9150  0.6687
 3725SOL    HW222812   2.328   2.177   0.008  1.2547 -0.5983  1.6471
 3726SOL     OW22813   1.854   4.329   6.187  0.5346 -0.1886 -0.3986
 3726SOL    HW122814   1.812   4.366   6.265 -1.3351 -0.7179 -1.1575
 3726SOL    HW222815   1.792   4.260   6.166 -0.9064  0.7888  0.6509
 3727SOL     OW22816   0.271   3.779  13.423 -0.5321 -0.2091 -0.4630
 3727SOL    HW122817   0.232   3.804  13.339 -0.5600 -0.4216 -0.5117
 3727SOL    HW222818   0.280   3.685  13.412  1.1147 -0.3189  1.8874
 3728SOL     OW22819   3.248   4.375  16.055  0.1415 -0.1461 -0.0320
 3728SOL    HW122820   3.180   4.437  16.029 -0.4611  0.4602  3.1022
 3728SOL    HW222821   3.200   4.297  16.081 -0.4237  0.7185  1.4726
 3729SOL     OW22822   4.511   3.667   7.865 -0.0397  0.3829 -0.1414
 3729SOL    HW122823   4.526   3.592   7.923 -0.2721 -1.5612 -2.6197
 3729SOL    HW222824   4.416   3.678   7.877 -0.0950  0.3600 -0.5656
 3730SOL     OW22825   4.415   1.684   7.450  0.2044 -0.1342 -0.1263
 3730SOL    HW122826   4.493   1.736   7.468 -1.2946  2.0331  0.1333
 3730SOL    HW222827   4.392   1.652   7.538  1.6373  1.5806  0.8760
 3731SOL     OW22828   1.605   0.681   0.278  0.0860  0.5416  0.0401
 3731SOL    HW122829   1.602   0.683   0.182 -1.0922 -2.9989  0.0034
 3731SOL    HW222830   1.679   0.736   0.305  0.1607  0.6861 -0.4673
 3732SOL     OW22831   3.606   2.307  16.060  0.1409 -0.1646 -0.0222
 3732SOL    HW122832   3.553   2.245  16.010  0.1477 -1.6988  1.8676
 3732SOL    HW222833   3.580   2.398  16.042 -0.5292 -0.4468 -0.4684
 3733SOL     OW22834   1.184   2.871   6.786 -0.7109 -0.3686  0.2744
 3733SOL    HW122835   1.192   2.778   6.767  1.3331 -0.4098  1.3222
 3733SOL    HW222836   1.277   2.889   6.802 -0.5025  0.2441 -1.6458
 3734SOL     OW22837   2.484   2.787   7.890 -0.2992 -0.0926 -0.2369
 3734SOL    HW122838   2.515   2.810   7.978 -1.5602 -0.9129  0.4246
 3734SOL    HW222839   2.503   2.693   7.902 -0.0929 -0.1011 -0.6444
 3735SOL     OW22840   1.218   3.151   7.880  0.4335 -0.4591 -0.6085
 3735SOL    HW122841   1.199   3.059   7.859 -2.1930 -0.2333  0.7510
 3735SOL    HW222842   1.311   3.153   7.902  0.3344 -1.8185 -0.0469
 3736SOL     OW22843   1.074   2.880   8.664 -0.2230  0.1486  0.3301
 3736SOL    HW122844   1.053   2.843   8.578 -0.0761  0.1468  0.2942
 3736SOL    HW222845   1.023   2.826   8.723 -2.1664  2.3814  0.6996
 3737SOL     OW22846   4.363   1.344  17.677 -0.0875  0.6329 -0.4085
 3737SOL    HW122847   4.420   1.268  17.675 -1.3782 -0.3756  0.9223
 3737SOL    HW222848   4.305   1.320   0.008  2.2899 -0.5923  1.0562
 3738SOL     OW22849   1.526   1.089  14.545 -0.1121 -0.5694  0.0359
 3738SOL    HW122850   1.444   1.108  14.591  0.6241 -0.6534  1.3677
 3738SOL    HW222851   1.581   1.166  14.559 -0.2449 -0.2670 -1.1484
 3739SOL     OW22852   1.171   4.287   5.523 -0.2308 -0.3608 -0.1107
 3739SOL    HW122853   1.124   4.290   5.439  0.8716 -1.7391 -0.7736
 3739SOL    HW222854   1.100   4.301   5.585 -0.3888  4.3296 -1.3209
 3740SOL     OW22855   4.356   1.638   5.003  0.3959  0.4625  0.2819
 3740SOL    HW122856   4.433   1.583   5.018 -0.0236 -0.2325 -0.0792
 3740SOL    HW222857   4.397   1.697   4.941  0.0140  0.2745 -0.1562
 3741SOL     OW22858   2.504   2.465   6.618 -0.2474  0.0080  0.2894
 3741SOL    HW122859   2.509   2.472   6.714 -1.3517  2.5655  0.1585
 3741SOL    HW222860   2.578   2.523   6.601 -0.5729  0.7616  1.4369
 3742SOL     OW22861   4.297   2.509  14.248 -0.3082  0.0982  0.4398
 3742SOL    HW122862   4.258   2.442  14.304  0.4920 -1.3634 -0.7340
 3742SOL    HW222863   4.384   2.521  14.286  0.6783 -1.0710 -1.4185
 3743SOL     OW22864   3.875   1.218  16.120 -0.1454 -0.4206 -0.1050
 3743SOL    HW122865   3.909   1.307  16.121  0.3928 -0.5713 -3.2558
 3743SOL    HW222866   3.800   1.226  16.179 -1.0525  0.2635 -1.3684
 3744SOL     OW22867   3.097   3.256   4.916  0.6265  0.5117  0.0481
 3744SOL    HW122868   3.031   3.245   4.984 -0.0036  2.2644 -0.2783
 3744SOL    HW222869   3.160   3.192   4.950 -1.2311 -0.6057  1.4004
 3745SOL     OW22870   3.424   3.273   1.538 -0.1816 -0.6391 -0.4402
 3745SOL    HW122871   3.419   3.216   1.462 -1.8389  0.1681 -0.9380
 3745SOL    HW222872   3.348   3.250   1.591  0.0516 -1.2758 -0.3805
 3746SOL     OW22873   1.110   3.634  12.965 -0.7576 -0.2726  0.8273
 3746SOL    HW122874   1.079   3.714  13.008 -0.9731 -0.1007  0.3528
 3746SOL    HW222875   1.200   3.624  12.996 -1.4046 -0.6849  2.6344
 3747SOL     OW22876   3.063   3.472   9.671 -0.4928  0.4342  0.1095
 3747SOL    HW122877   3.122   3.397   9.683 -1.1378 -0.0732  0.0916
 3747SOL    HW222878   2.977   3.451   9.707  0.4173 -3.1538  0.1455
 3748SOL     OW22879   3.111   1.038   7.697  0.2814 -0.0644 -0.0049
 3748SOL    HW122880   3.138   1.122   7.734 -1.3217  0.7022 -0.5828
 3748SOL    HW222881   3.134   0.983   7.773  0.2097 -0.1855 -0.0707
 3749SOL     OW22882   2.304   0.048   4.535  0.5788 -0.4204  0.2848
 3749SOL    HW122883   2.310   0.011   4.447 -1.0050 -0.2042  0.0866
 3749SOL    HW222884   2.298   4.705   4.590 -2.5346  0.4522  1.2093
 3750SOL     OW22885   0.570   2.110   7.976  0.0078 -0.4416 -0.3548
 3750SOL    HW122886   0.563   2.171   7.902  0.4493  0.5693  0.4493
 3750SOL    HW222887   0.576   2.024   7.933 -2.9156 -0.8949  0.1302
 3751SOL     OW22888   0.445   0.349  16.156 -0.5607  0.3933 -0.0861
 3751SOL    HW122889   0.528   0.337  16.110 -0.4590  0.3793  0.1011
 3751SOL    HW222890   0.394   0.343  16.075 -0.7678 -1.5863  0.2041
 3752SOL     OW22891   4.723   0.514  16.722  0.6941 -0.0742 -0.4595
 3752SOL    HW122892   4.692   0.594  16.679 -0.8528  0.1508  1.0298
 3752SOL    HW222893   0.006   0.538  16.813 -0.5609 -0.8775  0.0159
 3753SOL     OW22894   2.774   4.317   2.015 -0.2017  0.1391 -0.4668
 3753SOL    HW122895   2.832   4.381   2.057  1.3827 -3.0771  2.2399
 3753SOL    HW222896   2.691   4.356   2.041 -0.1555  0.4575 -0.8037
 3754SOL     OW22897   1.646   1.648   6.167  0.1606 -0.1695  0.0440
 3754SOL    HW122898   1.611   1.716   6.225 -1.0334 -0.5743 -0.1943
 3754SOL    HW222899   1.688   1.597   6.236 -0.2455  0.0677  0.4623
 3755SOL     OW22900   3.273   4.477   4.306  0.5794 -0.3583  0.1229
 3755SOL    HW122901   3.368   4.494   4.299  0.9215 -1.8113  1.4563
 3755SOL    HW222902   3.263   4.414   4.234 -1.8728  0.9295 -0.6549
 3756SOL     OW22903   3.232   4.088   1.515 -0.1250  0.1727 -0.3487
 3756SOL    HW122904   3.161   4.148   1.489 -2.2546 -1.3763  1.7923
 3756SOL    HW222905   3.304   4.146   1.490  1.5723 -1.9375 -0.2631
 3757SOL     OW22906   0.075   0.345  12.246 -0.0021  0.0911  0.0186
 3757SOL    HW122907   0.137   0.279  12.216  0.6318  0.6666  0.0628
 3757SOL    HW222908   0.141   0.412  12.265  2.2882 -2.6495  1.6016
 3758SOL     OW22909   0.458   0.653   7.897  0.5116  0.4077 -0.0306
 3758SOL    HW122910   0.495   0.666   7.984 -1.0883  0.4284  0.6291
 3758SOL    HW222911   0.376   0.607   7.914  0.1473  0.7252 -0.9110
 3759SOL     OW22912   4.481   4.305   7.454  0.1536 -0.3602 -0.4794
 3759SOL    HW122913   4.386   4.297   7.449  0.2867 -0.9457 -1.9946
 3759SOL    HW222914   4.494   4.293   7.548  2.0775  0.0134 -0.6841
 3760SOL     OW22915   1.701   1.509   2.971  0.2710 -0.2378 -0.5199
 3760SOL    HW122916   1.637   1.576   2.947  1.9948  1.7233  0.3698
 3760SOL    HW222917   1.633   1.455   3.013  1.5185 -0.6568  0.9566
 3761SOL     OW22918   2.210   0.088   0.213  0.0881  0.3071  0.4637
 3761SOL    HW122919   2.117   0.067   0.224  0.0603 -0.4324 -1.2829
 3761SOL    HW222920   2.204   0.119   0.123  2.1210 -0.3489  0.0996
 3762SOL     OW22921   2.557   4.146  16.254 -0.1264 -0.1143  0.3850
 3762SOL    HW122922   2.648   4.124  16.235 -0.3840  2.0437 -3.1960
 3762SOL    HW222923   2.556   4.128  16.348  2.2882 -0.4704  0.3445
 3763SOL     OW22924   1.470   3.474  14.915  0.5378 -0.3552 -0.3226
 3763SOL    HW122925   1.414   3.444  14.844  1.2833 -2.0202 -0.2171
 3763SOL    HW222926   1.522   3.535  14.862  1.4571  1.2406  2.4464
 3764SOL     OW22927   2.858   4.267  16.271  0.0265 -0.4247  0.2685
 3764SOL    HW122928   2.940   4.266  16.222 -0.1873  3.8613 -0.1807
 3764SOL    HW222929   2.825   4.177  16.273 -1.3861  0.1202  2.4907
 3765SOL     OW22930   3.375   0.503   1.998 -0.2680 -0.2499 -0.1802
 3765SOL    HW122931   3.387   0.570   2.065  2.0523  0.5797 -1.4533
 3765SOL    HW222932   3.416   0.427   2.039 -1.2295  1.3750  3.8457
 3766SOL     OW22933   1.770   0.140   0.764 -0.3269 -0.1335 -0.4093
 3766SOL    HW122934   1.684   0.143   0.722 -0.6321 -2.4118  0.0769
 3766SOL    HW222935   1.813   0.095   0.691  0.2690 -0.3498  0.0786
 3767SOL     OW22936   1.823   3.711   2.319  0.7701 -0.3260 -0.1405
 3767SOL    HW122937   1.838   3.783   2.258  2.7872 -0.8611 -0.2861
 3767SOL    HW222938   1.791   3.641   2.263  0.1911  0.2885 -0.5746
 3768SOL     OW22939   2.259   0.703   5.670  0.5091 -0.3471  0.3503
 3768SOL    HW122940   2.285   0.768   5.605 -1.1788 -2.0951 -2.0716
 3768SOL    HW222941   2.176   0.741   5.699 -0.2528  0.3003 -2.7399
 3769SOL     OW22942   0.633   3.326  12.603 -0.0139  0.2687 -0.1025
 3769SOL    HW122943   0.606   3.309  12.513  0.5887 -1.4546  0.0403
 3769SOL    HW222944   0.716   3.368  12.580  0.3242 -1.6203 -2.3567
 3770SOL     OW22945   3.299   0.920   2.882 -0.1834 -0.4801  0.4010
 3770SOL    HW122946   3.386   0.917   2.920  0.2071 -0.3858 -0.4734
 3770SOL    HW222947   3.291   0.825   2.877 -0.4715 -0.3322 -1.9224
 3771SOL     OW22948   3.159   0.914   4.234 -0.4264 -0.3922  0.0078
 3771SOL    HW122949   3.168   1.009   4.238 -0.8602 -0.4315  1.8778
 3771SOL    HW222950   3.099   0.886   4.303  0.7000 -2.5092  0.1282
 3772SOL     OW22951   3.615   1.846   4.920 -0.2466  0.5963 -0.2610
 3772SOL    HW122952   3.641   1.828   4.830  0.2211  1.2533 -0.2615
 3772SOL    HW222953   3.606   1.941   4.907  0.0990  0.3832 -2.0118
 3773SOL     OW22954   3.518   1.668   0.254  0.1239 -0.0458 -0.6917
 3773SOL    HW122955   3.483   1.603   0.315 -1.6146 -0.3277 -1.9817
 3773SOL    HW222956   3.490   1.755   0.282 -0.9405  0.0865 -2.1755
 3774SOL     OW22957   2.187   0.339  11.185  0.4551 -0.2237 -0.5902
 3774SOL    HW122958   2.277   0.350  11.153  0.1535 -1.6485 -1.9096
 3774SOL    HW222959   2.191   0.258  11.234  0.2395 -0.0084 -0.2149
 3775SOL     OW22960   2.293   0.543   5.359  0.2503 -0.7277  0.6359
 3775SOL    HW122961   2.355   0.514   5.426  0.5875 -1.3912  0.0312
 3775SOL    HW222962   2.352   0.580   5.294 -1.2290 -0.9437 -0.8262
 3776SOL     OW22963   1.237   1.259   3.620  0.3358 -0.0737  0.0546
 3776SOL    HW122964   1.271   1.182   3.575  0.8939 -0.3165  0.8791
 3776SOL    HW222965   1.290   1.329   3.580 -1.7205  0.5557 -1.5370
 3777SOL     OW22966   1.844   0.034   6.664  0.3746  0.1467  0.3255
 3777SOL    HW122967   1.813   4.721   6.741  0.4686  1.8556  1.4359
 3777SOL    HW222968   1.872   0.121   6.691  0.2827  1.3114 -3.3502
 3778SOL     OW22969   0.464   1.264   5.413  0.4879  0.5703 -0.0328
 3778SOL    HW122970   0.477   1.352   5.379 -1.8351  0.7799 -0.3636
 3778SOL    HW222971   0.483   1.212   5.335 -1.3707  0.4600 -0.4022
 3779SOL     OW22972   1.905   2.645   2.121 -0.3266  0.1998  0.7688
 3779SOL    HW122973   1.903   2.557   2.158 -1.1083  0.2840  0.9231
 3779SOL    HW222974   1.831   2.685   2.165  0.6980  2.0305  0.8213
 3780SOL     OW22975   0.758   2.907   1.397  0.8155  0.1617  0.0636
 3780SOL    HW122976   0.799   2.820   1.398 -0.6463 -0.5473 -0.7889
 3780SOL    HW222977   0.753   2.926   1.304  1.8392  1.2583  0.2368
 3781SOL     OW22978   2.388   2.941   3.983 -0.6375  0.1009  0.4689
 3781SOL    HW122979   2.383   3.037   3.979 -0.5970  0.0704 -0.5233
 3781SOL    HW222980   2.298   2.922   3.958 -0.4023 -2.7490  1.8269
 3782SOL     OW22981   2.581   3.610   6.543 -0.6404  0.4200 -0.6787
 3782SOL    HW122982   2.608   3.643   6.629 -2.7612  1.6300 -0.4771
 3782SOL    HW222983   2.663   3.626   6.496  0.5128 -0.4216  1.0611
 3783SOL     OW22984   2.379   0.866   7.969 -0.1425  0.3475  0.2407
 3783SOL    HW122985   2.345   0.897   8.053  0.3316  0.4054  0.4092
 3783SOL    HW222986   2.348   0.776   7.969  0.7534  0.0321  1.6212
 3784SOL     OW22987   1.650   0.992   0.074 -0.2549 -0.9367  0.0430
 3784SOL    HW122988   1.699   1.009  17.734  0.1372  0.6243  0.6029
 3784SOL    HW222989   1.631   0.900   0.056  0.4720 -1.2424  0.8604
 3785SOL     OW22990   4.113   2.384   1.993  0.2116 -0.2916 -0.1634
 3785SOL    HW122991   4.163   2.458   1.958 -1.4464  0.4831 -0.8648
 3785SOL    HW222992   4.179   2.357   2.057 -2.8013  0.1025  3.0587
 3786SOL     OW22993   1.453   0.616  13.288 -0.0945  0.0834  0.0340
 3786SOL    HW122994   1.380   0.557  13.304 -1.7850  2.1367 -0.0197
 3786SOL    HW222995   1.437   0.698  13.336 -1.3367 -0.0320 -0.1917
 3787SOL     OW22996   2.914   0.228  10.313  0.3643 -0.4879 -0.5523
 3787SOL    HW122997   2.893   0.201  10.403  0.6045 -3.9958 -1.5342
 3787SOL    HW222998   2.969   0.306  10.319 -0.0959 -0.0795 -1.5812
 3788SOL     OW22999   4.130   4.192   8.521 -0.4680  0.0821  0.2877
 3788SOL    HW123000   4.198   4.125   8.524  0.2106  0.7905  0.7383
 3788SOL    HW223001   4.176   4.262   8.474  0.8081 -0.5314  0.6425
 3789SOL     OW23002   0.818   0.421   5.768 -0.6125  0.3550 -0.1169
 3789SOL    HW123003   0.740   0.425   5.824 -1.1375 -0.4004 -0.8000
 3789SOL    HW223004   0.793   0.348   5.711 -0.7723  0.7447 -0.5484
 3790SOL     OW23005   3.237   4.625   2.869  0.6268 -0.7062  0.0662
 3790SOL    HW123006   3.313   4.678   2.892  1.5011 -2.3116  0.9117
 3790SOL    HW223007   3.177   4.682   2.917  0.7516 -0.9563  0.5238
 3791SOL     OW23008   0.818   3.475   5.159 -0.2411 -0.3279 -0.2497
 3791SOL    HW123009   0.786   3.412   5.224 -0.4388 -1.1519 -1.1495
 3791SOL    HW223010   0.750   3.542   5.151 -0.9939 -0.7208  2.7846
 3792SOL     OW23011   0.235   2.514   4.624 -0.0964  0.0227  0.2862
 3792SOL    HW123012   0.264   2.436   4.673  0.2496  0.1057  0.2091
 3792SOL    HW223013   0.319   2.533   4.583  0.2468  2.1217  1.9888
 3793SOL     OW23014   1.672   2.603  14.396  0.0731  0.2111 -0.2004
 3793SOL    HW123015   1.759   2.638  14.417  0.3914 -1.1808  0.8673
 3793SOL    HW223016   1.669   2.539  14.467  1.0206 -0.7238 -1.0062
 3794SOL     OW23017   2.412   4.634   5.437 -0.1046  0.1397 -0.1987
 3794SOL    HW123018   2.461   4.660   5.359  0.0000 -1.9861 -0.8470
 3794SOL    HW223019   2.458   4.671   5.513  1.9705  0.3159 -1.5342
 3795SOL     OW23020   2.636   1.565   1.596 -0.1660  0.1364  0.0891
 3795SOL    HW123021   2.547   1.577   1.630 -0.3873 -2.6554  0.4851
 3795SOL    HW223022   2.666   1.499   1.658  0.9167  1.3536  0.8612
 3796SOL     OW23023   3.823   0.515   7.235 -0.6864 -0.5948 -0.4277
 3796SOL    HW123024   3.744   0.486   7.280 -1.0759  2.5490  0.9589
 3796SOL    HW223025   3.892   0.487   7.296 -0.2523 -0.8283 -1.0292
 3797SOL     OW23026   3.993   0.953   3.665  0.3271 -0.5547  0.3942
 3797SOL    HW123027   3.957   0.974   3.751 -0.2934 -0.6034  0.1501
 3797SOL    HW223028   4.045   1.032   3.650 -0.3664 -0.2449 -0.3853
 3798SOL     OW23029   1.254   2.576  13.357 -0.5354  0.0344 -0.3562
 3798SOL    HW123030   1.178   2.568  13.299  0.3010 -0.5764 -1.3623
 3798SOL    HW223031   1.322   2.513  13.335  0.3748  1.0767 -0.5111
 3799SOL     OW23032   1.267   2.717   2.461 -0.3923  0.1582 -0.3032
 3799SOL    HW123033   1.244   2.737   2.552 -2.3590 -0.4389 -0.6734
 3799SOL    HW223034   1.184   2.707   2.415  0.4570 -4.8947 -0.7184
 3800SOL     OW23035   2.503   4.291  15.454  0.2934 -0.0409 -0.1447
 3800SOL    HW123036   2.518   4.216  15.512 -2.8388 -0.9121 -0.4391
 3800SOL    HW223037   2.590   4.330  15.443 -0.3574  0.9360 -1.8109
 3801SOL     OW23038   2.946   3.645  12.014  0.4700  0.4149  0.0989
 3801SOL    HW123039   2.984   3.732  12.007 -1.2900  1.0938 -0.9651
 3801SOL    HW223040   2.873   3.665  12.072  0.8833  0.7064  0.5191
 3802SOL     OW23041   0.952   3.771   9.107 -0.0432 -0.0476  0.0682
 3802SOL    HW123042   0.958   3.861   9.076 -0.8902  0.4967  1.5104
 3802SOL    HW223043   0.998   3.728   9.034  0.5628 -1.4412  1.2839
 3803SOL     OW23044   0.423   3.409   2.431 -0.2275 -0.5608  0.0637
 3803SOL    HW123045   0.407   3.500   2.407  1.0345 -0.0400  1.1927
 3803SOL    HW223046   0.427   3.422   2.526 -0.9972  2.7258 -0.3581
 3804SOL     OW23047   1.235   0.650   0.153 -0.2446  0.4681 -0.1571
 3804SOL    HW123048   1.155   0.603   0.176  0.7903 -0.4288  1.6115
 3804SOL    HW223049   1.275   0.653   0.240  1.5576 -0.6432 -0.9444
 3805SOL     OW23050   3.993   4.671   7.083 -0.2625  0.0353 -0.2883
 3805SOL    HW123051   4.005   4.617   7.005 -1.6408  0.0564 -0.5270
 3805SOL    HW223052   3.957   0.017   7.048 -2.1516 -0.1410  1.2304
 3806SOL     OW23053   0.401   3.758   8.783 -0.4348 -0.1113  0.0496
 3806SOL    HW123054   0.349   3.730   8.858  0.5066 -0.1376  0.6892
 3806SOL    HW223055   0.375   3.698   8.713 -1.2242 -2.1694  2.1037
 3807SOL     OW23056   3.485   1.439   0.420  0.0370 -0.2076  0.0861
 3807SOL    HW123057   3.401   1.450   0.466  0.8955 -1.7902  2.0626
 3807SOL    HW223058   3.522   1.367   0.472  1.9812 -0.0856 -1.1152
 3808SOL     OW23059   1.916   1.078   7.741  0.1115 -0.3295 -0.0129
 3808SOL    HW123060   1.910   1.078   7.645 -2.6264  2.3549  0.1203
 3808SOL    HW223061   1.826   1.108   7.756  0.7015  0.6684  1.5596
 3809SOL     OW23062   3.795   0.923   5.101  0.4015 -0.0159  0.2481
 3809SOL    HW123063   3.841   0.938   5.018 -0.3286  0.2171 -0.1188
 3809SOL    HW223064   3.812   0.831   5.120 -2.1938 -0.1738  1.6983
 3810SOL     OW23065   0.230   3.400   5.348 -0.1359  0.4258  0.3184
 3810SOL    HW123066   0.316   3.410   5.307  0.0285 -0.0095  0.5716
 3810SOL    HW223067   0.194   3.315   5.323  0.4197  0.6191 -1.1795
 3811SOL     OW23068   1.861   3.013  13.177  0.4312  0.5782 -0.3737
 3811SOL    HW123069   1.858   3.013  13.082 -0.1187 -0.2464 -0.3543
 3811SOL    HW223070   1.876   2.919  13.187 -1.5418  0.3308  0.2048
 3812SOL     OW23071   3.977   0.860   4.800 -0.3728 -0.0715 -0.6387
 3812SOL    HW123072   4.040   0.887   4.867 -0.8092 -0.3014 -0.1308
 3812SOL    HW223073   4.040   0.859   4.729 -0.4738  0.5137 -0.7377
 3813SOL     OW23074   1.769   3.157   0.112  0.2212 -0.3209  0.1127
 3813SOL    HW123075   1.752   3.070   0.076 -2.2047  0.3487 -0.3556
 3813SOL    HW223076   1.844   3.140   0.169 -2.2463 -3.4250  2.4833
 3814SOL     OW23077   1.669   4.040   8.986  0.0110 -0.4426  0.1352
 3814SOL    HW123078   1.585   4.031   8.942 -0.5224  0.1300  1.0542
 3814SOL    HW223079   1.674   4.133   8.965  2.4550 -0.9671 -1.6721
 3815SOL     OW23080   3.482   1.582  14.213  0.3543 -0.1901  0.9487
 3815SOL    HW123081   3.471   1.500  14.166 -1.4819  0.0927  0.8877
 3815SOL    HW223082   3.431   1.569  14.293  3.0228 -0.6591  2.5720
 3816SOL     OW23083   2.429   2.293  17.639  0.1858  0.2158 -0.0704
 3816SOL    HW123084   2.348   2.296  17.590  0.1662 -0.8419 -0.0966
 3816SOL    HW223085   2.495   2.264  17.576  1.5691 -0.4425  1.6519
 3817SOL     OW23086   3.278   1.656   7.317  0.3823  0.3426 -0.1573
 3817SOL    HW123087   3.344   1.591   7.292 -2.1738 -2.4575  0.4548
 3817SOL    HW223088   3.250   1.634   7.406 -0.8584  3.5077  0.2314
 3818SOL     OW23089   3.296   0.796   7.197 -0.4710  0.1934 -0.4547
 3818SOL    HW123090   3.248   0.716   7.219 -1.5394  0.0972 -3.0849
 3818SOL    HW223091   3.362   0.789   7.266  0.4450  3.2715 -0.9879
 3819SOL     OW23092   1.548   0.714   8.896  0.0291 -0.1598 -0.6539
 3819SOL    HW123093   1.588   0.649   8.954  0.7727 -0.5138 -1.5799
 3819SOL    HW223094   1.614   0.729   8.829  1.7493 -1.5071  0.7138
 3820SOL     OW23095   2.888   1.563   6.568  0.4027 -0.3471  0.1124
 3820SOL    HW123096   2.965   1.507   6.566  0.3972 -0.3981  1.2874
 3820SOL    HW223097   2.840   1.542   6.488 -1.7256  0.2300  1.2281
 3821SOL     OW23098   2.279   0.156   9.043 -0.4151 -0.0287 -0.3021
 3821SOL    HW123099   2.365   0.114   9.032 -1.0921 -0.8537 -2.6743
 3821SOL    HW223100   2.283   0.224   8.975 -1.9290 -0.4210 -0.7844
 3822SOL     OW23101   0.321   0.898  16.083 -0.1674  0.1236 -0.3244
 3822SOL    HW123102   0.350   0.968  16.025 -0.5492  0.3799 -0.2047
 3822SOL    HW223103   0.246   0.859  16.038 -1.1634  2.3762 -0.6536
 3823SOL     OW23104   1.177   3.983   5.650 -0.4873 -0.3002  0.2865
 3823SOL    HW123105   1.103   3.974   5.709  0.6743 -0.3762  1.7334
 3823SOL    HW223106   1.238   4.032   5.705 -1.1571 -0.7727  1.4381
 3824SOL     OW23107   1.062   2.654   4.124 -0.2735  0.2021 -0.0341
 3824SOL    HW123108   0.998   2.692   4.065  0.9478 -0.0220 -1.4862
 3824SOL    HW223109   1.012   2.603   4.188 -0.5450  0.4526 -0.0498
 3825SOL     OW23110   3.276   4.143   3.801  0.0512  0.3318  0.5170
 3825SOL    HW123111   3.246   4.076   3.861 -2.2261  0.0140 -0.9759
 3825SOL    HW223112   3.194   4.179   3.768  1.4960  2.5326 -0.7087
 3826SOL     OW23113   0.997   2.728  16.318 -0.2253  0.5422 -0.0129
 3826SOL    HW123114   0.952   2.653  16.356 -2.1886  2.0436  0.5759
 3826SOL    HW223115   1.066   2.738  16.383  0.3007 -0.4545 -0.4015
 3827SOL     OW23116   2.737   2.271   2.065  0.2208 -0.3293  0.1327
 3827SOL    HW123117   2.773   2.202   2.121 -0.0111 -0.7084 -0.1824
 3827SOL    HW223118   2.737   2.346   2.125 -0.5735 -0.3793  0.2072
 3828SOL     OW23119   2.867   0.619   8.755  0.2462  0.3700  0.4787
 3828SOL    HW123120   2.789   0.564   8.744 -0.0756  1.1447 -1.0986
 3828SOL    HW223121   2.844   0.695   8.702  1.0795  0.0097 -0.3900
 3829SOL     OW23122   0.363   1.129   8.849 -0.3328 -0.3877 -0.4986
 3829SOL    HW123123   0.457   1.147   8.856 -0.3776 -1.0153  1.6471
 3829SOL    HW223124   0.323   1.209   8.885 -2.1295 -2.0846  1.2336
 3830SOL     OW23125   1.906   1.029   3.248 -0.2574  0.1201  0.2450
 3830SOL    HW123126   1.939   0.943   3.222  1.7124  0.5956  1.1426
 3830SOL    HW223127   1.886   1.017   3.341  0.5057  0.5289  0.4606
 3831SOL     OW23128   4.073   4.094   5.291 -0.5504  0.0950 -0.1431
 3831SOL    HW123129   4.088   4.164   5.228 -2.2718  0.0699 -0.5636
 3831SOL    HW223130   4.124   4.018   5.259  1.7539  0.5897  2.3582
 3832SOL     OW23131   0.955   3.288   3.500 -0.3362 -0.0506  0.1338
 3832SOL    HW123132   0.983   3.372   3.465  3.3003 -0.8020  1.2690
 3832SOL    HW223133   0.886   3.271   3.435 -1.0051 -0.9705  1.0932
 3833SOL     OW23134   1.704   3.485   3.921 -0.4510 -0.1816 -0.3697
 3833SOL    HW123135   1.774   3.549   3.910  0.3535 -1.4923 -2.9677
 3833SOL    HW223136   1.648   3.539   3.977 -0.1977 -0.3047 -0.0001
 3834SOL     OW23137   2.186   3.143  12.555 -0.5450  0.5753  0.2297
 3834SOL    HW123138   2.178   3.059  12.510 -3.6813  0.6427  0.6061
 3834SOL    HW223139   2.269   3.139  12.603  1.0228  1.7374 -2.4170
 3835SOL     OW23140   0.083   0.153   8.125 -0.6844  0.2727 -0.7132
 3835SOL    HW123141   0.043   0.235   8.098  0.7322  0.5862 -1.8455
 3835SOL    HW223142   0.015   0.093   8.157  0.7090 -0.6921  0.4938
 3836SOL     OW23143   1.153   4.716  11.683 -0.3166  0.4156 -0.5012
 3836SOL    HW123144   1.193   0.060  11.717 -0.9205  0.3157  0.4370
 3836SOL    HW223145   1.200   4.718  11.599  1.3920  0.5795  0.4521
 3837SOL     OW23146   3.087   2.812   8.234  0.1966 -0.5042  0.4522
 3837SOL    HW123147   3.127   2.812   8.320  2.8170  2.6615 -0.7880
 3837SOL    HW223148   3.162   2.802   8.175 -1.2138  0.3303 -1.4958
 3838SOL     OW23149   1.811   0.388  12.988  0.1469  0.8838  0.1789
 3838SOL    HW123150   1.874   0.381  13.060 -0.2969 -0.8131  0.4108
 3838SOL    HW223151   1.741   0.411  13.048 -0.6420  1.1321 -0.8463
 3839SOL     OW23152   3.690   1.438   3.466  0.0491  0.7676  0.1537
 3839SOL    HW123153   3.765   1.408   3.518  0.1500 -0.8510 -0.9251
 3839SOL    HW223154   3.620   1.409   3.525  0.1216  1.2132  0.4565
 3840SOL     OW23155   3.491   3.585   2.395 -0.3964  0.1013 -0.5659
 3840SOL    HW123156   3.422   3.545   2.448  0.7305 -1.4236 -0.2267
 3840SOL    HW223157   3.562   3.558   2.453  0.0886  2.4970 -0.0624
 3841SOL     OW23158   1.430   2.359  10.989 -0.0793 -0.3326  0.6060
 3841SOL    HW123159   1.404   2.270  11.016 -1.0693 -0.7508 -1.7413
 3841SOL    HW223160   1.494   2.368  11.060  1.5363 -2.4796 -0.5852
 3842SOL     OW23161   4.208   0.484   8.243 -0.2578 -0.5450  0.6159
 3842SOL    HW123162   4.119   0.497   8.210  0.4986  0.6664 -0.9323
 3842SOL    HW223163   4.201   0.518   8.332 -4.0521  0.5618 -0.1157
 3843SOL     OW23164   0.197   4.582   4.903 -0.1575 -0.5571  0.2089
 3843SOL    HW123165   0.250   4.505   4.880  0.9432 -0.0609  1.0781
 3843SOL    HW223166   0.227   4.644   4.837 -0.4090  0.4193  1.0158
 3844SOL     OW23167   3.754   2.458   5.851  0.2041  0.1534  0.3092
 3844SOL    HW123168   3.799   2.375   5.834 -0.1786  0.1235 -0.5244
 3844SOL    HW223169   3.724   2.472   5.762 -2.7408  0.2805  1.3169
 3845SOL     OW23170   0.528   1.207  12.347 -0.6391 -0.4120 -0.8196
 3845SOL    HW123171   0.548   1.289  12.302 -2.3555  0.3020 -0.3017
 3845SOL    HW223172   0.617   1.171  12.347 -0.6925 -0.5442 -1.3759
 3846SOL     OW23173   0.501   0.352   1.893 -0.1326 -0.1895  0.1064
 3846SOL    HW123174   0.483   0.355   1.987 -4.4611  2.4065 -0.7789
 3846SOL    HW223175   0.446   0.421   1.856 -0.3047  0.8863  2.3024
 3847SOL     OW23176   3.031   0.070   5.957  0.0168  0.1617 -0.6292
 3847SOL    HW123177   2.971   0.008   5.999  0.2432 -1.3610 -2.5928
 3847SOL    HW223178   3.011   0.144   6.014  1.0585  0.6596 -0.9132
 3848SOL     OW23179   1.569   1.359   4.775  0.1023 -0.4662  0.4086
 3848SOL    HW123180   1.633   1.400   4.717 -0.3079  1.1853  1.1304
 3848SOL    HW223181   1.524   1.432   4.817  2.4781  0.3278  1.5356
 3849SOL     OW23182   1.786   2.435  14.612  0.7665  0.6163 -0.8423
 3849SOL    HW123183   1.730   2.455  14.687  1.4468 -1.7855  0.3152
 3849SOL    HW223184   1.747   2.349  14.597 -1.9009  2.1360 -2.5802
 3850SOL     OW23185   0.750   0.527   5.307  0.4255  0.1217 -0.8693
 3850SOL    HW123186   0.822   0.465   5.296  0.1129 -0.1454 -1.4627
 3850SOL    HW223187   0.802   0.595   5.348 -0.1169  0.8648 -1.4254
 3851SOL     OW23188   4.435   1.207  10.975  0.1319 -0.3175 -0.5718
 3851SOL    HW123189   4.523   1.231  11.003 -1.1229  1.1109  2.0499
 3851SOL    HW223190   4.404   1.185  11.062 -1.9743 -0.3062 -1.3241
 3852SOL     OW23191   0.725   2.616  17.422 -0.4776  0.3033 -0.3396
 3852SOL    HW123192   0.750   2.705  17.396  0.9885  0.3122  1.1392
 3852SOL    HW223193   0.642   2.635  17.465 -1.0482  1.3976 -1.9192
 3853SOL     OW23194   1.780   2.900   3.483  0.5883  0.3769  0.0187
 3853SOL    HW123195   1.749   2.946   3.405 -0.7314 -1.4722 -0.5145
 3853SOL    HW223196   1.699   2.875   3.527 -0.1943 -0.5579 -1.9892
 3854SOL     OW23197   2.681   4.387   7.714 -0.0533  0.2890  0.4771
 3854SOL    HW123198   2.744   4.336   7.664 -1.8082 -2.4807  1.1376
 3854SOL    HW223199   2.727   4.408   7.795 -1.2908  2.2083  0.6905
 3855SOL     OW23200   0.867   3.819   2.165  0.5949  0.3122  0.4073
 3855SOL    HW123201   0.839   3.808   2.074  3.7747 -1.9285 -0.3185
 3855SOL    HW223202   0.955   3.857   2.167  0.6031  0.3590 -1.3827
 3856SOL     OW23203   4.001   2.991   4.474  0.0659 -0.3884  0.0693
 3856SOL    HW123204   3.974   2.940   4.551  1.6471  0.2381  1.0318
 3856SOL    HW223205   3.962   3.075   4.495  1.5487 -0.0601  1.5221
 3857SOL     OW23206   2.737   3.227   7.368 -0.0332  0.1211  0.3821
 3857SOL    HW123207   2.715   3.178   7.289  0.6449  2.6843 -1.4009
 3857SOL    HW223208   2.779   3.152   7.409  2.4357  0.3813 -1.6739
 3858SOL     OW23209   3.224   0.721  12.996 -0.2646  0.4039  0.9022
 3858SOL    HW123210   3.214   0.740  13.090 -0.6697  3.7037  0.2040
 3858SOL    HW223211   3.297   0.660  13.001  0.0991  0.7497 -0.1783
 3859SOL     OW23212   3.715   2.069   2.165  0.9039 -0.1510 -0.0727
 3859SOL    HW123213   3.647   2.135   2.155  1.7250  1.0161  2.2612
 3859SOL    HW223214   3.669   2.007   2.222  1.5303 -1.4908 -0.9987
 3860SOL     OW23215   0.953   4.563   8.534 -0.2487 -0.2670  0.0939
 3860SOL    HW123216   0.897   4.557   8.612 -2.5780  0.6504 -1.5158
 3860SOL    HW223217   0.964   4.658   8.531  2.6851 -0.5049  3.2249
 3861SOL     OW23218   1.228   1.014  14.283  0.6387  0.4084 -0.0582
 3861SOL    HW123219   1.200   1.102  14.308 -0.2005  0.2499 -0.4454
 3861SOL    HW223220   1.151   0.962  14.303  1.5312 -1.5883 -1.7163
 3862SOL     OW23221   0.268   4.193  17.023  0.5878 -0.7179  0.3388
 3862SOL    HW123222   0.204   4.158  16.960  0.3170  1.7111 -0.7417
 3862SOL    HW223223   0.213   4.174  17.099 -2.3178  0.9781 -1.3263
 3863SOL     OW23224   0.376   4.425  14.593 -0.0248 -0.0488 -0.2993
 3863SOL    HW123225   0.447   4.399  14.535 -1.2175 -1.7689 -0.9825
 3863SOL    HW223226   0.317   4.351  14.581  0.5475 -1.3825  4.7901
 3864SOL     OW23227   0.524   3.958   2.937  0.1942  0.3039 -0.2214
 3864SOL    HW123228   0.618   3.951   2.921  0.9228  4.5780  2.1876
 3864SOL    HW223229   0.527   3.997   3.025 -3.2646 -1.2295  0.5708
 3865SOL     OW23230   1.045   4.096   3.580  0.0430 -0.2044 -0.1788
 3865SOL    HW123231   1.001   4.136   3.505 -0.0089 -0.5208 -0.3134
 3865SOL    HW223232   1.138   4.104   3.560  0.1523  2.2885  1.2609
 3866SOL     OW23233   2.637   1.283   6.733 -0.3909 -0.3365  0.0423
 3866SOL    HW123234   2.555   1.260   6.776 -2.4362  3.4865 -1.7757
 3866SOL    HW223235   2.618   1.376   6.719  1.0404 -0.2875 -1.6426
 3867SOL     OW23236   4.455   2.791   3.508  0.1315  0.2367  0.0346
 3867SOL    HW123237   4.360   2.780   3.519  0.2180 -1.0812 -0.4709
 3867SOL    HW223238   4.471   2.867   3.563 -2.7426  0.2714  0.8275
 3868SOL     OW23239   3.872   1.206   8.768  0.3411  0.1587 -0.4500
 3868SOL    HW123240   3.855   1.148   8.842  1.0551  0.1900 -0.2584
 3868SOL    HW223241   3.956   1.245   8.793  0.6143 -0.8496  0.2026
 3869SOL     OW23242   0.644   4.512  17.561  0.1662 -0.1781  0.3855
 3869SOL    HW123243   0.555   4.548  17.559  1.4128  2.6481 -3.7726
 3869SOL    HW223244   0.623   4.421  17.583 -1.2370  0.0756  0.1106
 3870SOL     OW23245   0.271   2.774   5.090  0.1380  0.1348 -0.1666
 3870SOL    HW123246   0.218   2.755   5.168 -0.5696 -1.3610 -1.0037
 3870SOL    HW223247   0.334   2.827   5.139 -1.0840  1.5946 -0.1632
 3871SOL     OW23248   0.946   3.159   5.378  0.1113 -0.4368 -0.1026
 3871SOL    HW123249   0.936   3.123   5.466 -0.1415 -1.4913 -0.5762
 3871SOL    HW223250   0.994   3.089   5.334 -2.0102 -0.9293 -1.6048
 3872SOL     OW23251   1.013   3.199  11.054 -0.5228 -0.0984 -0.5061
 3872SOL    HW123252   1.013   3.184  10.959  1.9819  2.2856 -0.8527
 3872SOL    HW223253   1.073   3.132  11.086 -1.1973  0.1750  1.3556
 3873SOL     OW23254   1.208   0.376   3.595 -0.0476  0.1421  0.1140
 3873SOL    HW123255   1.230   0.390   3.503  2.8468  0.8751  0.9042
 3873SOL    HW223256   1.273   0.308   3.610  0.8513  0.5744 -1.7728
 3874SOL     OW23257   2.012   3.561   9.353  0.4657 -0.1862 -0.6096
 3874SOL    HW123258   1.965   3.642   9.374 -0.1956 -0.8732  0.5864
 3874SOL    HW223259   2.079   3.598   9.296 -1.5228  1.5761 -1.7667
 3875SOL     OW23260   3.463   2.377   3.402 -0.5891  0.1865 -0.0077
 3875SOL    HW123261   3.503   2.316   3.463 -0.0968  2.1270  1.6055
 3875SOL    HW223262   3.421   2.444   3.456  1.4906  1.0176  0.5750
 3876SOL     OW23263   4.280   1.431   3.550  0.1451  0.0518 -0.5664
 3876SOL    HW123264   4.295   1.469   3.464  0.1964  0.1634 -0.5082
 3876SOL    HW223265   4.293   1.337   3.539 -1.1196 -0.2278  0.3383
 3877SOL     OW23266   2.169   2.506   1.050  0.3067 -0.2769  0.5383
 3877SOL    HW123267   2.187   2.413   1.039 -1.2339 -0.8145  2.6940
 3877SOL    HW223268   2.096   2.502   1.111 -1.8215  0.1319 -1.9714
 3878SOL     OW23269   1.345   3.567  13.071  0.3978 -0.0522 -0.2724
 3878SOL    HW123270   1.344   3.642  13.130  3.9730 -0.0873 -0.1619
 3878SOL    HW223271   1.302   3.498  13.122  0.1356  1.3157  1.3411
 3879SOL     OW23272   0.621   1.065   1.873  0.1345  0.3167 -1.0849
 3879SOL    HW123273   0.709   1.092   1.898  0.1472 -1.1635  0.4273
 3879SOL    HW223274   0.580   1.051   1.958 -1.1740 -1.9200 -2.0660
 3880SOL     OW23275   3.096   2.730   5.765  0.1906 -0.0696  0.0352
 3880SOL    HW123276   3.061   2.708   5.851  0.3520 -0.7300 -0.0712
 3880SOL    HW223277   3.164   2.795   5.787 -0.3784  0.5132  0.0817
 3881SOL     OW23278   4.372   0.247  11.331 -0.3781 -0.7221 -0.2115
 3881SOL    HW123279   4.449   0.292  11.295 -0.3812 -0.2434  0.3821
 3881SOL    HW223280   4.314   0.323  11.331 -1.0681 -1.2553  0.6663
 3882SOL     OW23281   4.383   1.739   2.367 -0.3314 -0.8085  0.0790
 3882SOL    HW123282   4.374   1.795   2.445  0.0226 -1.7073  0.7678
 3882SOL    HW223283   4.312   1.772   2.311 -0.5647 -1.2236  0.1294
 3883SOL     OW23284   3.509   3.085   6.279 -0.3858  0.2323 -0.3974
 3883SOL    HW123285   3.599   3.060   6.300  0.0225  1.1858 -0.9969
 3883SOL    HW223286   3.521   3.119   6.190  0.6307  1.9398  0.3794
 3884SOL     OW23287   4.424   4.517  14.309  0.0014  0.2489  0.2122
 3884SOL    HW123288   4.401   4.424  14.313 -1.6498  0.5230 -2.7907
 3884SOL    HW223289   4.341   4.551  14.276 -0.5191  0.2336  1.4978
 3885SOL     OW23290   4.418   0.368   5.092  0.5723 -0.1950  0.1092
 3885SOL    HW123291   4.477   0.435   5.128 -0.2404  0.4288  0.2846
 3885SOL    HW223292   4.372   0.430   5.035  1.6592  1.4745  1.0287
 3886SOL     OW23293   3.600   0.121   7.963  0.2150 -0.1432  0.3106
 3886SOL    HW123294   3.638   0.115   8.050  2.7069  1.7138 -0.6417
 3886SOL    HW223295   3.651   0.056   7.915 -0.3467 -1.0164  0.8961
 3887SOL     OW23296   0.657   0.404   7.636 -0.2500 -0.0293  0.2960
 3887SOL    HW123297   0.688   0.465   7.704 -0.1358  0.6214 -0.3446
 3887SOL    HW223298   0.677   0.325   7.687 -2.1163 -0.6944 -0.0302
 3888SOL     OW23299   0.443   0.873   0.073 -0.1387 -0.0298 -0.2776
 3888SOL    HW123300   0.365   0.925   0.089  0.1639  0.3682 -0.0930
 3888SOL    HW223301   0.407   0.793   0.034  2.0781 -0.8460 -0.6969
 3889SOL     OW23302   4.278   0.436   5.341  0.1815  0.1751  0.1241
 3889SOL    HW123303   4.332   0.364   5.309  0.9199 -0.1043  2.0181
 3889SOL    HW223304   4.247   0.474   5.259  2.2305  0.1399 -0.6701
 3890SOL     OW23305   1.991   0.879   9.788  0.2419  0.2221  0.0981
 3890SOL    HW123306   2.077   0.900   9.752 -0.3296  0.8897 -0.8863
 3890SOL    HW223307   1.935   0.943   9.743  1.5577  0.1993 -1.5410
 3891SOL     OW23308   3.288   1.162   7.514  0.6079  0.1249  0.0124
 3891SOL    HW123309   3.241   1.092   7.560  0.7014 -0.4854 -0.8113
 3891SOL    HW223310   3.229   1.234   7.534 -1.6325 -1.5451 -0.5003
 3892SOL     OW23311   3.628   3.305  15.467 -0.0936 -0.4791 -0.0269
 3892SOL    HW123312   3.687   3.248  15.418 -1.2559 -0.3400 -1.5769
 3892SOL    HW223313   3.696   3.370  15.486 -1.5945  0.3801  2.4294
 3893SOL     OW23314   2.555   4.726   9.852  0.0134 -0.2865  0.1968
 3893SOL    HW123315   2.552   0.084   9.873  1.7208 -0.0542 -0.5978
 3893SOL    HW223316   2.649   4.709   9.854 -0.0385 -0.6987 -0.8220
 3894SOL     OW23317   0.154   2.556   9.786  0.6838 -0.5384 -0.0683
 3894SOL    HW123318   0.187   2.562   9.875 -1.9997  0.2587  0.8836
 3894SOL    HW223319   0.210   2.482   9.764  0.6247 -0.9372  1.1171
 3895SOL     OW23320   1.281   3.770   3.055  0.0884  0.4203  0.5464
 3895SOL    HW123321   1.370   3.753   3.084  0.1625  0.6327  0.4454
 3895SOL    HW223322   1.240   3.684   3.061 -3.2287  1.9012 -0.8917
 3896SOL     OW23323   1.745   4.601  11.070 -0.5015  0.0359 -0.8478
 3896SOL    HW123324   1.801   4.527  11.048 -1.0319 -1.2928  2.2321
 3896SOL    HW223325   1.748   4.608  11.166 -3.2321 -1.1977 -0.6563
 3897SOL     OW23326   1.480   4.167   7.912 -0.1854 -0.4431  0.1200
 3897SOL    HW123327   1.573   4.161   7.934  0.2673  0.0041 -1.6847
 3897SOL    HW223328   1.432   4.133   7.987 -3.1101  0.3671 -1.3878
 3898SOL     OW23329   2.832   2.219   5.507  0.2585 -0.3468  0.0682
 3898SOL    HW123330   2.902   2.174   5.555  0.3348  0.0144  0.2956
 3898SOL    HW223331   2.755   2.165   5.528 -1.1994  1.6402 -0.1840
 3899SOL     OW23332   0.361   3.728   1.501 -0.2801  0.1140 -0.3404
 3899SOL    HW123333   0.425   3.798   1.511 -0.7271  0.6148 -1.0091
 3899SOL    HW223334   0.420   3.666   1.458  1.5396  0.4254  1.7266
 3900SOL     OW23335   2.712   4.404  15.128  0.0274  0.1524  0.5164
 3900SOL    HW123336   2.797   4.376  15.094  0.2009  2.5679 -1.0831
 3900SOL    HW223337   2.742   4.436  15.213  0.2431 -0.6937  0.7591
 3901SOL     OW23338   2.129   3.304   5.112  0.2877  0.2561  0.7522
 3901SOL    HW123339   2.096   3.361   5.182 -0.5715  3.3739 -2.1450
 3901SOL    HW223340   2.224   3.317   5.116  0.3154  0.2590 -0.0298
 3902SOL     OW23341   2.787   0.365   7.415 -0.1181 -0.1692  0.1605
 3902SOL    HW123342   2.780   0.367   7.511 -0.9665 -1.5987  0.1413
 3902SOL    HW223343   2.699   0.369   7.377 -0.9853 -1.6377  1.9932
 3903SOL     OW23344   3.921   2.749   9.123 -0.2126 -0.1663  0.1056
 3903SOL    HW123345   3.881   2.679   9.073  2.0434 -0.6428 -1.0357
 3903SOL    HW223346   3.911   2.719   9.214  1.0824  0.9182  0.6240
 3904SOL     OW23347   2.005   2.803   0.793  0.1268 -0.1367  0.3581
 3904SOL    HW123348   2.023   2.819   0.886 -1.8087 -0.4973  0.7860
 3904SOL    HW223349   2.087   2.829   0.752  0.1282 -0.9399 -0.1377
 3905SOL     OW23350   0.015   2.489   8.972  0.7315 -0.4837 -0.2454
 3905SOL    HW123351   4.719   2.578   8.989 -0.3006 -0.6768 -1.1447
 3905SOL    HW223352   4.730   2.500   8.879  1.8629 -0.1066 -0.4500
 3906SOL     OW23353   2.233   1.382  12.292  0.5016 -0.6649  0.3145
 3906SOL    HW123354   2.163   1.349  12.237 -0.9229 -0.0007  1.7111
 3906SOL    HW223355   2.183   1.440  12.350 -0.5888 -1.1571 -0.1258
 3907SOL     OW23356   1.194   1.497   9.586  0.0526  0.4358  0.0094
 3907SOL    HW123357   1.273   1.537   9.549 -0.2636  1.7543  0.7766
 3907SOL    HW223358   1.176   1.538   9.670 -0.2709  0.2903  0.0091
 3908SOL     OW23359   1.248   2.719  12.513  0.2625 -0.0327 -0.2430
 3908SOL    HW123360   1.181   2.730  12.445 -0.2910  1.2970  0.5210
 3908SOL    HW223361   1.241   2.798  12.565 -0.3524 -0.5345  0.4300
 3909SOL     OW23362   0.669   2.752   2.781  0.4052  0.5859 -1.3271
 3909SOL    HW123363   0.707   2.803   2.853 -1.5661  0.2225 -0.0177
 3909SOL    HW223364   0.732   2.682   2.767 -0.4399 -0.2609 -0.8791
 3910SOL     OW23365   2.481   1.394   4.711 -0.0954 -0.8652 -0.1280
 3910SOL    HW123366   2.420   1.467   4.713 -0.3487 -1.0633 -0.5672
 3910SOL    HW223367   2.475   1.364   4.802  0.7530 -1.5574 -0.2954
 3911SOL     OW23368   3.300   2.858   6.791 -0.6550  0.2311  0.1929
 3911SOL    HW123369   3.388   2.889   6.771 -0.6273  0.9057  1.3088
 3911SOL    HW223370   3.315   2.783   6.849 -1.1073  0.5381  0.7078
 3912SOL     OW23371   3.530   0.185   1.450  0.8948 -0.2107  0.6876
 3912SOL    HW123372   3.535   0.163   1.357 -0.4114  2.4278 -0.0096
 3912SOL    HW223373   3.527   0.098   1.490 -1.1057 -0.1489  0.6846
 3913SOL     OW23374   3.944   2.688   1.858  0.1366 -0.3558  0.3522
 3913SOL    HW123375   4.024   2.649   1.823  0.6765  0.3744  0.7823
 3913SOL    HW223376   3.963   2.681   1.951  0.1593 -1.6595  0.2558
 3914SOL     OW23377   1.629   0.684  12.275 -0.6123  0.1736  0.1321
 3914SOL    HW123378   1.676   0.727  12.346  1.0078 -0.2441 -0.6884
 3914SOL    HW223379   1.541   0.667  12.307 -0.9276  0.7430 -0.4275
 3915SOL     OW23380   2.412   2.439   8.902  0.0429 -0.2344 -0.2001
 3915SOL    HW123381   2.337   2.454   8.960  0.9753  0.9519  0.7064
 3915SOL    HW223382   2.370   2.432   8.816 -2.2112 -2.9873  1.1011
 3916SOL     OW23383   3.299   4.527   7.767  1.0221  0.5775 -0.6789
 3916SOL    HW123384   3.310   4.619   7.790  0.5231  0.8909 -1.7012
 3916SOL    HW223385   3.262   4.495   7.850  4.4278 -0.0672  0.5851
 3917SOL     OW23386   2.071   4.727   2.019  0.1815  0.1558 -0.5115
 3917SOL    HW123387   2.065   4.725   2.115 -1.8202 -0.9937 -0.6494
 3917SOL    HW223388   2.126   0.069   2.010 -0.1714  0.7097  1.9128
 3918SOL     OW23389   4.096   2.417   4.492  0.1569 -0.4082  0.2349
 3918SOL    HW123390   4.144   2.349   4.539  0.0847 -1.7663 -1.6656
 3918SOL    HW223391   4.008   2.381   4.481 -0.7633  2.4259 -1.4966
 3919SOL     OW23392   1.565   1.266  14.192 -0.2251  0.1848  0.0596
 3919SOL    HW123393   1.653   1.230  14.182 -1.0815 -2.8789  3.5688
 3919SOL    HW223394   1.531   1.194  14.245  2.0849 -2.2815 -1.7805
 3920SOL     OW23395   1.889   3.959   2.663  0.0274  0.4018 -0.3405
 3920SOL    HW123396   1.943   4.032   2.632  0.4666  0.1234 -0.2297
 3920SOL    HW223397   1.952   3.912   2.718 -0.3285  0.8228  0.4227
 3921SOL     OW23398   2.890   0.364   6.506  0.3813 -0.4523 -0.5039
 3921SOL    HW123399   2.956   0.365   6.437  1.1211  0.8736  0.2214
 3921SOL    HW223400   2.949   0.380   6.580 -1.8439  0.7988  1.0381
 3922SOL     OW23401   2.212   0.784  14.804  0.0926  0.6261 -0.1796
 3922SOL    HW123402   2.159   0.731  14.744 -0.2242  0.5792  0.1419
 3922SOL    HW223403   2.158   0.862  14.815  0.4176  0.5432  1.8408
 3923SOL     OW23404   3.916   2.380  12.823  0.3367  0.5772  0.6298
 3923SOL    HW123405   3.860   2.454  12.799 -0.2130 -0.0244  0.0571
 3923SOL    HW223406   3.941   2.337  12.741 -2.0782  3.2369 -1.4982
 3924SOL     OW23407   0.994   3.557  12.242 -0.8033  0.3342  0.9895
 3924SOL    HW123408   1.040   3.591  12.319  0.2338  0.8194  0.1491
 3924SOL    HW223409   0.965   3.636  12.197  2.5943  1.4857  0.8744
 3925SOL     OW23410   0.463   1.551   4.072  0.0860 -0.0844 -0.1410
 3925SOL    HW123411   0.524   1.478   4.061 -1.3842 -0.9663 -2.4292
 3925SOL    HW223412   0.447   1.587   3.984  3.4457  0.6362 -0.4519
 3926SOL     OW23413   2.376   0.863   2.180 -0.4258  0.3040  0.1262
 3926SOL    HW123414   2.458   0.907   2.158 -0.1866 -0.1392  0.1287
 3926SOL    HW223415   2.310   0.920   2.141 -1.5849 -1.7170 -0.8834
 3927SOL     OW23416   4.130   0.355   7.806  0.2206  0.2871 -0.2470
 3927SOL    HW123417   4.181   0.326   7.731  1.1459  0.4328  0.3334
 3927SOL    HW223418   4.155   0.281   7.861  3.0249  1.4960  0.0463
 3928SOL     OW23419   3.652   0.868   9.163  0.3506 -0.2254 -0.3300
 3928SOL    HW123420   3.626   0.776   9.154  2.9535 -1.2029  2.2172
 3928SOL    HW223421   3.682   0.857   9.253  0.3910  0.8567 -0.2082
 3929SOL     OW23422   0.488   0.398   6.682  0.0783  0.5116 -0.2735
 3929SOL    HW123423   0.554   0.455   6.721  0.4200  2.3860 -3.5358
 3929SOL    HW223424   0.409   0.452   6.695  0.8964  1.5813  0.2530
 3930SOL     OW23425   0.784   0.182   6.015  0.7515  0.0901 -0.2012
 3930SOL    HW123426   0.729   0.149   6.085  1.2733  2.5179  1.3558
 3930SOL    HW223427   0.748   0.270   6.006 -1.2566 -0.8292 -1.2574
 3931SOL     OW23428   1.886   4.678  12.466  0.0783  0.5857  0.1250
 3931SOL    HW123429   1.795   4.705  12.478  0.0996 -0.1361  1.9220
 3931SOL    HW223430   1.888   4.590  12.505 -0.4473 -1.0236 -3.4593
 3932SOL     OW23431   2.601   2.349  13.502 -0.2706  0.1576  0.2247
 3932SOL    HW123432   2.553   2.432  13.512 -1.5858 -0.4312 -1.1358
 3932SOL    HW223433   2.543   2.297  13.556 -1.9296 -1.8771 -3.5266
 3933SOL     OW23434   1.679   2.620   3.784 -0.0670  0.6542  0.1344
 3933SOL    HW123435   1.612   2.661   3.729 -1.1638  0.1306  1.0681
 3933SOL    HW223436   1.640   2.641   3.869  0.7808 -1.0603  0.9436
 3934SOL     OW23437   3.773   0.667   8.199 -0.1291  0.3724  0.0843
 3934SOL    HW123438   3.739   0.726   8.266  0.2419  2.8742 -1.8889
 3934SOL    HW223439   3.727   0.711   8.127  0.3630  0.9279  0.1050
 3935SOL     OW23440   0.804   2.783   6.777 -0.0491  0.4112 -0.1651
 3935SOL    HW123441   0.826   2.766   6.685 -3.2645 -2.0062 -0.4715
 3935SOL    HW223442   0.776   2.695   6.802 -1.1497  0.1534 -2.3416
 3936SOL     OW23443   0.273   1.531   5.649  0.1671 -0.0154  0.1108
 3936SOL    HW123444   0.233   1.448   5.625 -1.4711  0.6087  0.6759
 3936SOL    HW223445   0.314   1.559   5.567 -0.9433  0.3522 -0.3325
 3937SOL     OW23446   2.142   1.914   1.912  0.1231  0.2548 -0.1735
 3937SOL    HW123447   2.231   1.944   1.894  0.2435  0.2331  0.3649
 3937SOL    HW223448   2.110   1.992   1.958  1.0171 -0.1412  1.1344
 3938SOL     OW23449   2.392   2.665  12.380 -0.0099 -0.1129  0.1142
 3938SOL    HW123450   2.383   2.594  12.442 -0.8484 -1.2715 -1.3254
 3938SOL    HW223451   2.418   2.620  12.299 -1.1550  0.4286 -0.5689
 3939SOL     OW23452   1.705   4.176  12.779  0.6587  0.2089 -0.1385
 3939SOL    HW123453   1.735   4.264  12.803  0.2822 -0.5061  2.9843
 3939SOL    HW223454   1.759   4.124  12.838  3.2949 -1.4577 -4.0337
 3940SOL     OW23455   0.377   2.373   4.809 -0.7073 -0.3860 -0.3572
 3940SOL    HW123456   0.387   2.292   4.759 -0.6421 -1.0577  0.7603
 3940SOL    HW223457   0.441   2.351   4.876 -0.9476  0.9538  0.3036
 3941SOL     OW23458   2.431   3.450  12.941  0.3647  0.0266 -0.3945
 3941SOL    HW123459   2.429   3.464  13.036 -1.1661 -0.3135 -0.3730
 3941SOL    HW223460   2.369   3.516  12.909  0.5261  0.1539 -0.4448
 3942SOL     OW23461   2.918   3.303  11.506 -0.2531  0.0804  0.3392
 3942SOL    HW123462   2.859   3.345  11.444 -1.0417 -0.6541  0.5938
 3942SOL    HW223463   2.936   3.372  11.570 -1.5112 -0.2600  1.0671
 3943SOL     OW23464   0.847   1.391   8.555  0.1129  1.0840 -0.5290
 3943SOL    HW123465   0.850   1.402   8.650 -0.3087 -0.5595 -0.3222
 3943SOL    HW223466   0.832   1.296   8.550  1.5055  0.7813  0.9649
 3944SOL     OW23467   1.620   0.841   3.506  0.0278  0.1244  0.2648
 3944SOL    HW123468   1.557   0.838   3.578 -0.7899  0.0312 -0.4590
 3944SOL    HW223469   1.561   0.844   3.431 -3.7019  0.4231  3.1679
 3945SOL     OW23470   0.648   2.399   4.046  0.2815 -0.6731  0.5728
 3945SOL    HW123471   0.616   2.400   3.956  4.4148  0.2426 -0.8995
 3945SOL    HW223472   0.652   2.493   4.062 -5.1597 -0.2848 -0.2819
 3946SOL     OW23473   1.467   2.902  12.019 -0.5727  0.2166 -0.6573
 3946SOL    HW123474   1.423   2.819  12.002  0.5450 -0.0192 -2.3952
 3946SOL    HW223475   1.553   2.875  11.986 -0.1028  1.5062 -0.4871
 3947SOL     OW23476   0.647   2.313   7.826 -0.4714  0.2638 -0.6099
 3947SOL    HW123477   0.613   2.377   7.762 -2.2899 -0.4628 -0.3739
 3947SOL    HW223478   0.701   2.264   7.764 -2.9009 -1.1729 -1.6070
 3948SOL     OW23479   0.356   3.006   3.403 -0.2701  0.1761  0.5777
 3948SOL    HW123480   0.355   2.938   3.336 -5.2403 -2.8362  3.6903
 3948SOL    HW223481   0.299   3.081   3.383 -2.1797 -2.1840 -2.7315
 3949SOL     OW23482   1.471   2.026   7.194  0.1882 -0.3742 -0.1623
 3949SOL    HW123483   1.526   1.950   7.214  0.5686  0.8724  3.5554
 3949SOL    HW223484   1.417   1.975   7.133 -0.5317  0.7650 -0.4748
 3950SOL     OW23485   0.730   0.699   6.394  0.2274 -0.0986 -0.0552
 3950SOL    HW123486   0.803   0.640   6.414  0.6804  0.2999 -0.5155
 3950SOL    HW223487   0.711   0.670   6.305 -1.5052  0.0195  0.2824
 3951SOL     OW23488   1.030   4.733   6.302 -0.7710 -0.1575  0.2266
 3951SOL    HW123489   1.001   0.014   6.392  2.5679 -0.1902  1.2836
 3951SOL    HW223490   1.092   0.068   6.283 -2.2238  0.8008 -0.9852
 3952SOL     OW23491   3.201   3.228   9.667  0.2357  0.9051  0.0348
 3952SOL    HW123492   3.263   3.172   9.714 -1.9413  0.6538  2.6013
 3952SOL    HW223493   3.252   3.247   9.588  0.3995  0.1021 -0.0623
 3953SOL     OW23494   2.292   1.503   7.821  0.5707  0.2246  0.1145
 3953SOL    HW123495   2.253   1.417   7.837  1.6260 -0.4720 -1.0305
 3953SOL    HW223496   2.221   1.540   7.770  0.1302 -2.6415 -1.3709
 3954SOL     OW23497   2.541   1.593  11.151 -0.3491 -0.5009  0.3252
 3954SOL    HW123498   2.572   1.638  11.230  0.5741  1.5259 -1.1796
 3954SOL    HW223499   2.457   1.565  11.188 -0.1973 -1.0149  0.2686
 3955SOL     OW23500   4.149   4.459  15.650 -0.3139 -0.5414 -0.4427
 3955SOL    HW123501   4.156   4.364  15.639  0.1707 -0.6497  0.7998
 3955SOL    HW223502   4.115   4.482  15.563  2.0137 -0.0262 -1.2301
 3956SOL     OW23503   4.616   2.253  17.204  0.9856  0.1987 -0.0637
 3956SOL    HW123504   4.644   2.203  17.127  2.1624 -0.9737  1.1377
 3956SOL    HW223505   4.588   2.334  17.160  1.4957 -0.3208 -1.3375
 3957SOL     OW23506   0.606   3.796  14.229  0.0629 -0.0853 -0.5217
 3957SOL    HW123507   0.558   3.784  14.147 -2.4300 -0.4566  0.9749
 3957SOL    HW223508   0.559   3.734  14.285  1.4055 -1.0275 -0.4466
 3958SOL     OW23509   3.926   2.214  13.548  0.1245  0.0949  0.1441
 3958SOL    HW123510   3.978   2.187  13.623  0.0027  0.2351  0.2786
 3958SOL    HW223511   3.986   2.197  13.476  0.3876 -0.2318  0.4422
 3959SOL     OW23512   2.474   2.061  14.613  0.3229 -0.0362  0.5445
 3959SOL    HW123513   2.450   2.064  14.521 -1.5261 -0.4832  1.0122
 3959SOL    HW223514   2.409   1.997  14.641  0.0622 -0.0308 -0.0554
 3960SOL     OW23515   3.140   2.492   7.181  0.6818  0.0348  0.9104
 3960SOL    HW123516   3.177   2.411   7.218 -1.5211 -0.0219  2.9871
 3960SOL    HW223517   3.070   2.511   7.243 -0.5850 -0.5178 -0.3435
 3961SOL     OW23518   4.311   1.434   5.660 -0.3634  0.8222  0.3137
 3961SOL    HW123519   4.268   1.484   5.590  0.0827 -0.1859 -0.6824
 3961SOL    HW223520   4.404   1.438   5.636 -0.8005  1.4534 -1.3069
 3962SOL     OW23521   3.720   0.400   9.326 -0.2220 -0.0596 -0.2542
 3962SOL    HW123522   3.773   0.343   9.269 -2.5610  1.1041 -3.6133
 3962SOL    HW223523   3.782   0.442   9.385 -1.3546 -0.6175  1.3462
 3963SOL     OW23524   1.370   3.142  12.617 -0.3012 -0.1088 -0.5945
 3963SOL    HW123525   1.307   3.148  12.689  1.9312  0.2055  1.3349
 3963SOL    HW223526   1.315   3.170  12.544 -0.9220  1.6456  0.5720
 3964SOL     OW23527   3.241   2.338   0.926  0.1973  0.2913  0.4785
 3964SOL    HW123528   3.217   2.315   1.016  2.0937 -0.4833  0.7738
 3964SOL    HW223529   3.218   2.430   0.910 -0.8744 -0.4704 -2.4508
 3965SOL     OW23530   0.906   2.223  16.095  0.2261 -0.4803 -0.9710
 3965SOL    HW123531   0.935   2.134  16.118 -0.2913 -0.2848  0.4285
 3965SOL    HW223532   0.872   2.262  16.175  1.5098 -1.5139  0.0966
 3966SOL     OW23533   4.042   3.310   6.659 -0.1272  0.3166  0.4098
 3966SOL    HW123534   4.099   3.264   6.597 -1.9013 -1.2955 -0.0383
 3966SOL    HW223535   3.962   3.325   6.608  1.0892  0.7828 -1.3502
 3967SOL     OW23536   2.249   0.843   6.766  0.0859  0.0530 -0.2688
 3967SOL    HW123537   2.223   0.819   6.855  0.1791 -3.5076 -1.2031
 3967SOL    HW223538   2.207   0.770   6.721 -1.1445  0.8084 -0.3187
 3968SOL     OW23539   2.589   0.698   4.330 -0.1945  0.5768 -0.3465
 3968SOL    HW123540   2.585   0.750   4.411  0.1010  1.1130 -0.6752
 3968SOL    HW223541   2.676   0.660   4.339  0.1346  1.5368  0.5173
 3969SOL     OW23542   1.497   2.694   6.323  0.3466  0.2056 -0.1943
 3969SOL    HW123543   1.441   2.620   6.299  0.5815  0.3118 -1.0982
 3969SOL    HW223544   1.474   2.706   6.415 -2.3476 -0.1561 -0.8059
 3970SOL     OW23545   2.503   4.168  12.161 -0.3734  0.2568 -0.0385
 3970SOL    HW123546   2.473   4.166  12.251  1.5435 -0.9388  0.5776
 3970SOL    HW223547   2.555   4.088  12.154 -0.2484  0.2729  0.8356
 3971SOL     OW23548   0.390   2.679   9.889  0.0561 -0.6481  0.3958
 3971SOL    HW123549   0.371   2.605   9.948 -1.1954 -0.2172  0.5288
 3971SOL    HW223550   0.434   2.738   9.950 -0.0790 -2.0861  1.8875
 3972SOL     OW23551   0.198   1.115  10.874  0.0738  0.1330  0.8879
 3972SOL    HW123552   0.228   1.034  10.915 -1.3088 -1.2202 -0.7733
 3972SOL    HW223553   0.250   1.179  10.923 -0.7656  0.4721  1.3384
 3973SOL     OW23554   2.021   0.070  15.005  0.6196  0.1378  0.1096
 3973SOL    HW123555   1.998   4.714  15.018  2.4203 -0.4116 -0.6354
 3973SOL    HW223556   2.033   0.102  15.095 -1.0735 -1.6177  0.9573
 3974SOL     OW23557   3.213   3.225  12.065  0.0123 -0.3077 -0.6087
 3974SOL    HW123558   3.234   3.227  11.971 -0.9940  1.1891 -0.7946
 3974SOL    HW223559   3.131   3.272  12.077  0.2428 -0.6754  2.2789
 3975SOL     OW23560   1.784   0.033   8.930  0.8706  0.7366  0.6716
 3975SOL    HW123561   1.786   0.116   8.883 -1.6143  0.8013  0.6757
 3975SOL    HW223562   1.798   4.705   8.860  1.9853  1.4011  0.2915
 3976SOL     OW23563   0.471   3.366   9.686  0.3513 -0.6710 -0.0757
 3976SOL    HW123564   0.397   3.380   9.745 -0.1274 -0.8655 -0.6354
 3976SOL    HW223565   0.439   3.288   9.642  1.7664 -1.1208 -0.2932
 3977SOL     OW23566   2.398   2.829   9.305  0.1240  0.5064  0.3551
 3977SOL    HW123567   2.440   2.890   9.365 -2.8873 -1.1012  4.1169
 3977SOL    HW223568   2.328   2.885   9.269 -1.4436 -1.4674  0.3077
 3978SOL     OW23569   1.562   0.043  16.344 -0.5318  0.0794 -0.0117
 3978SOL    HW123570   1.648   0.010  16.319  0.2418  1.4648  0.8114
 3978SOL    HW223571   1.595   0.112  16.401  0.2131 -0.0899 -0.2439
 3979SOL     OW23572   4.446   0.023   6.814 -0.3300 -0.5824  0.0297
 3979SOL    HW123573   4.356   0.036   6.842  0.0370  2.1165  0.0058
 3979SOL    HW223574   4.473   4.682   6.863  0.2167  0.5016  1.4171
 3980SOL     OW23575   0.885   1.414  12.494 -0.3464 -0.5369  0.1654
 3980SOL    HW123576   0.870   1.322  12.514  2.6618 -1.2166 -0.7231
 3980SOL    HW223577   0.798   1.454  12.498  1.0193  2.4470  0.2113
 3981SOL     OW23578   2.972   3.025   5.400 -0.4513  0.1861 -0.7749
 3981SOL    HW123579   3.055   3.023   5.447 -0.3569  1.5278 -0.8751
 3981SOL    HW223580   2.992   3.066   5.316  0.1711 -0.1446 -0.7874
 3982SOL     OW23581   0.996   3.881   1.850  0.3840  0.1043 -0.2130
 3982SOL    HW123582   1.005   3.935   1.772  0.6938 -0.1513 -0.3525
 3982SOL    HW223583   1.067   3.821   1.828  1.7767  1.4686  0.5699
 3983SOL     OW23584   2.516   2.377   6.341 -0.6592  0.8745  0.0483
 3983SOL    HW123585   2.475   2.443   6.285 -0.4104  0.8091 -0.2080
 3983SOL    HW223586   2.522   2.424   6.424 -1.1856 -0.0488  0.6035
 3984SOL     OW23587   1.604   3.425   9.096 -0.7464 -0.5081  0.1287
 3984SOL    HW123588   1.616   3.408   9.190 -0.9382 -2.1782 -0.1353
 3984SOL    HW223589   1.651   3.357   9.047  1.5284  0.7210  0.6372
 3985SOL     OW23590   0.079   3.907  14.806  0.3970 -0.3915  0.9387
 3985SOL    HW123591   0.006   3.860  14.847  0.5584 -0.1093  1.5564
 3985SOL    HW223592   0.022   3.970  14.762 -0.3930 -1.3049  0.6581
 3986SOL     OW23593   0.772   0.372   2.176  0.0983  0.3633 -0.0459
 3986SOL    HW123594   0.683   0.355   2.144  0.4883 -1.6065 -0.0516
 3986SOL    HW223595   0.778   0.328   2.260 -1.1918  1.2313  0.5078
 3987SOL     OW23596   3.126   1.478   8.026  0.6794  0.4170 -0.3137
 3987SOL    HW123597   3.220   1.483   8.044  0.7833 -0.2406 -0.6913
 3987SOL    HW223598   3.078   1.490   8.108  0.4316 -1.8594 -0.1218
 3988SOL     OW23599   4.125   1.093   6.148 -0.3496  0.2005 -0.1928
 3988SOL    HW123600   4.195   1.159   6.145 -0.5508  0.4199 -0.0626
 3988SOL    HW223601   4.060   1.131   6.088  1.2932  1.0588 -1.4280
 3989SOL     OW23602   0.737   2.551  11.225  0.1229 -0.0414  0.1628
 3989SOL    HW123603   0.825   2.533  11.191 -0.4064  0.8255 -1.6863
 3989SOL    HW223604   0.686   2.539  11.145 -0.3492  0.2832  0.4182
 3990SOL     OW23605   3.923   0.492   4.289  0.1866  0.3173 -0.1283
 3990SOL    HW123606   3.966   0.459   4.368  0.3679 -0.5982 -0.6234
 3990SOL    HW223607   3.991   0.517   4.226 -0.1895  0.4593 -0.4745
 3991SOL     OW23608   1.013   3.554   7.941 -0.2391 -0.1984  0.1280
 3991SOL    HW123609   1.057   3.529   7.860  0.3762 -1.9024  0.9740
 3991SOL    HW223610   1.088   3.569   7.999  0.0810 -0.9506 -0.0924
 3992SOL     OW23611   3.972   1.409  16.436  0.0772  0.3639 -0.1321
 3992SOL    HW123612   3.879   1.418  16.454  0.0264 -1.0402  0.3213
 3992SOL    HW223613   4.001   1.498  16.418 -0.5542  0.7267  0.6328
 3993SOL     OW23614   2.808   0.449   9.956 -0.1141  0.5584  0.0210
 3993SOL    HW123615   2.871   0.495  10.011 -0.2036 -0.3779  0.9192
 3993SOL    HW223616   2.850   0.399   9.886 -0.0316 -0.3288  0.6949
 3994SOL     OW23617   0.390   1.399   4.317  0.4704 -0.0435  0.8290
 3994SOL    HW123618   0.329   1.468   4.293 -0.5493 -0.1849  3.0248
 3994SOL    HW223619   0.454   1.398   4.245  0.3859  2.3209  0.7347
 3995SOL     OW23620   2.520   1.332   5.694  0.2913  0.0458  0.0188
 3995SOL    HW123621   2.506   1.242   5.724 -2.0315  0.8791  1.4566
 3995SOL    HW223622   2.491   1.379   5.773  1.5806  2.0977 -0.7393
 3996SOL     OW23623   0.431   3.900   9.070 -0.4291 -0.2444 -0.0920
 3996SOL    HW123624   0.442   3.907   8.975 -0.7670  1.3915 -0.0181
 3996SOL    HW223625   0.469   3.813   9.082 -1.2032 -0.6681 -0.7279
 3997SOL     OW23626   3.867   0.762   4.356 -0.2397  0.3035  0.0925
 3997SOL    HW123627   3.855   0.668   4.367  1.3681 -0.1288 -1.8620
 3997SOL    HW223628   3.950   0.765   4.404  0.3837  0.2890 -0.9848
 3998SOL     OW23629   4.350   2.434   4.092  0.5702  0.2917  0.1588
 3998SOL    HW123630   4.340   2.489   4.170 -1.6404  1.0346 -0.6290
 3998SOL    HW223631   4.288   2.363   4.108  0.6074 -0.3766 -2.7888
 3999SOL     OW23632   3.360   2.014   8.536 -0.2655 -0.1205  0.1101
 3999SOL    HW123633   3.274   1.987   8.505 -0.0051 -1.5089  0.6012
 3999SOL    HW223634   3.405   1.929   8.540 -1.4788 -0.7452  0.4949
 4000SOL     OW23635   2.420   1.604   8.336 -0.3726 -0.0707  0.0323
 4000SOL    HW123636   2.404   1.607   8.241  0.9698 -1.0268 -0.2238
 4000SOL    HW223637   2.439   1.696   8.350 -3.0244  0.9065 -2.7130
 4001SOL     OW23638   1.048   4.128  11.516  0.3520  0.1851  0.4661
 4001SOL    HW123639   0.964   4.152  11.555 -1.3622 -2.5152 -1.6564
 4001SOL    HW223640   1.089   4.213  11.497  1.8576 -0.4999  0.5866
 4002SOL     OW23641   0.669   1.373   4.101 -0.1440  0.6580  0.1491
 4002SOL    HW123642   0.732   1.357   4.031 -0.9906 -0.6115 -0.3299
 4002SOL    HW223643   0.704   1.314   4.168 -3.5143 -2.6543 -0.9827
 4003SOL     OW23644   3.213   3.047   5.549 -0.0100  0.1785  0.5252
 4003SOL    HW123645   3.178   3.118   5.603 -1.1735 -2.1026  2.7899
 4003SOL    HW223646   3.276   3.090   5.491  4.4926 -0.2785  5.0462
 4004SOL     OW23647   1.989   4.534   0.751  0.0145  0.3421  0.0327
 4004SOL    HW123648   1.961   4.529   0.842  0.9104  1.4007  0.3585
 4004SOL    HW223649   1.970   4.628   0.737  1.1842  0.4051 -1.1425
 4005SOL     OW23650   1.150   3.296   3.195 -0.4939 -0.4147 -0.5214
 4005SOL    HW123651   1.116   3.282   3.106 -1.1880  0.5637 -0.4116
 4005SOL    HW223652   1.088   3.365   3.218  0.3789  1.0603 -2.6353
 4006SOL     OW23653   0.506   0.627   5.892 -0.1337 -0.6447  0.7172
 4006SOL    HW123654   0.413   0.644   5.909 -0.4310 -2.1037  0.5563
 4006SOL    HW223655   0.538   0.701   5.839  1.9428 -2.3325 -0.4098
 4007SOL     OW23656   1.536   0.093   1.482 -0.4841  0.1474  0.3912
 4007SOL    HW123657   1.501   0.180   1.461  1.6587  0.5340 -1.5568
 4007SOL    HW223658   1.547   0.061   1.393 -1.2888  1.7957 -0.3037
 4008SOL     OW23659   1.833   1.143  15.823  0.8703  0.4626 -0.3626
 4008SOL    HW123660   1.795   1.101  15.901  0.1149  2.3908  0.3050
 4008SOL    HW223661   1.875   1.224  15.853  0.7569  1.2743 -2.4150
 4009SOL     OW23662   1.051   0.348  13.087 -0.3933  0.8268 -0.1966
 4009SOL    HW123663   0.969   0.311  13.119 -0.7775  1.5568 -0.3368
 4009SOL    HW223664   1.058   0.297  13.006 -0.3619  1.3922 -0.5473
 4010SOL     OW23665   1.549   1.134  15.333 -0.7067 -0.0561  0.1772
 4010SOL    HW123666   1.558   1.041  15.351 -2.0006 -0.2361 -0.0489
 4010SOL    HW223667   1.454   1.139  15.347 -0.4068 -1.1594  2.6500
 4011SOL     OW23668   2.332   3.169   6.534  0.7450 -0.1298 -0.1628
 4011SOL    HW123669   2.394   3.099   6.548  0.4873 -0.8383 -2.5247
 4011SOL    HW223670   2.396   3.231   6.499  1.7284 -0.4703  1.0750
 4012SOL     OW23671   4.179   3.079  10.600  0.6501  0.1582  0.0338
 4012SOL    HW123672   4.086   3.059  10.593  0.5001  0.5248  1.0324
 4012SOL    HW223673   4.203   3.073  10.507  1.3649  0.1622  0.2215
 4013SOL     OW23674   3.764   0.165   4.787  0.0190 -0.5284  0.0722
 4013SOL    HW123675   3.842   0.173   4.733  0.5889  1.9579  1.2397
 4013SOL    HW223676   3.740   0.075   4.767  2.3144 -1.1361  0.0112
 4014SOL     OW23677   0.879   3.482   7.331  0.5157 -0.0693  0.2755
 4014SOL    HW123678   0.973   3.500   7.321  0.7608 -1.1028  0.7259
 4014SOL    HW223679   0.875   3.410   7.394 -0.6082 -1.5330 -1.5038
 4015SOL     OW23680   3.272   3.493   0.005  0.4595  0.2769  0.3947
 4015SOL    HW123681   3.304   3.436  17.677  1.9840  1.7475 -0.1121
 4015SOL    HW223682   3.239   3.424   0.062  2.7349  1.1368  2.7552
 4016SOL     OW23683   0.619   3.488   9.512  0.1636  0.5184  0.6590
 4016SOL    HW123684   0.602   3.580   9.529 -0.9347  0.4943 -0.2563
 4016SOL    HW223685   0.559   3.438   9.568 -0.3359  1.3374  0.8508
 4017SOL     OW23686   0.264   0.735   0.382  0.1615 -0.0305 -0.4724
 4017SOL    HW123687   0.186   0.732   0.439  0.2009  3.6441 -0.2237
 4017SOL    HW223688   0.242   0.822   0.349  3.1383  0.1753 -1.9116
 4018SOL     OW23689   0.263   2.963  10.985  0.1701  0.0456  0.0315
 4018SOL    HW123690   0.299   2.914  11.060 -2.4210  0.0854  1.2856
 4018SOL    HW223691   0.208   3.025  11.032  0.9075  1.4202 -0.9432
 4019SOL     OW23692   3.078   4.714   8.253 -0.3649 -0.0536 -0.0732
 4019SOL    HW123693   3.083   4.709   8.348 -1.5745 -1.0633 -0.0645
 4019SOL    HW223694   3.168   0.010   8.240 -0.1295 -0.3451  0.8327
 4020SOL     OW23695   2.356   2.880   3.614  0.3112 -0.2524  0.2664
 4020SOL    HW123696   2.394   2.824   3.682  1.6946 -2.7247 -2.5501
 4020SOL    HW223697   2.331   2.819   3.544  1.8522 -1.3873  0.7189
 4021SOL     OW23698   2.266   1.988   6.093  0.1488  0.3749 -0.4907
 4021SOL    HW123699   2.350   1.965   6.132 -1.0950 -2.3327  0.6009
 4021SOL    HW223700   2.225   1.901   6.096  2.3583 -0.6427  0.7800
 4022SOL     OW23701   1.305   1.828  13.529  0.1674  0.1533 -0.3060
 4022SOL    HW123702   1.252   1.748  13.525 -1.2610  1.0428  0.6090
 4022SOL    HW223703   1.233   1.888  13.550 -0.4560 -0.5365 -0.4502
 4023SOL     OW23704   1.844   4.522  13.112 -0.1150  0.4031  0.2220
 4023SOL    HW123705   1.803   4.540  13.197  2.2520  2.8717  0.8336
 4023SOL    HW223706   1.870   4.612  13.091 -2.4666  0.6219 -1.7755
 4024SOL     OW23707   1.343   3.571   7.364  0.4557  0.4370 -0.0783
 4024SOL    HW123708   1.365   3.534   7.450  3.6261  2.1749 -0.1729
 4024SOL    HW223709   1.299   3.651   7.392 -0.2066  0.2106 -0.4737
 4025SOL     OW23710   4.733   1.101   1.334 -0.3273 -0.3591 -0.3708
 4025SOL    HW123711   0.015   1.059   1.250 -2.1167 -4.3359  1.2668
 4025SOL    HW223712   0.016   1.028   1.393  0.4414 -0.1814 -0.3935
 4026SOL     OW23713   1.982   4.341  11.787  0.3484  0.0102 -0.2851
 4026SOL    HW123714   1.985   4.319  11.880  2.2226  1.8700  0.1130
 4026SOL    HW223715   2.066   4.322  11.743  0.2642  1.8385 -1.2209
 4027SOL     OW23716   0.320   2.384   1.899 -0.3670  0.8197  0.0054
 4027SOL    HW123717   0.355   2.333   1.972  0.2137  3.2970  1.4757
 4027SOL    HW223718   0.269   2.315   1.857 -0.1208  0.7277 -0.1419
 4028SOL     OW23719   1.343   2.925   5.834  0.1364 -0.2439 -0.3179
 4028SOL    HW123720   1.367   2.923   5.927  0.7806  0.7203 -0.4677
 4028SOL    HW223721   1.390   2.852   5.794  4.4783  2.7461 -0.6593
 4029SOL     OW23722   3.289   3.094  15.370  0.1656 -0.2165 -0.1223
 4029SOL    HW123723   3.317   3.070  15.282 -2.1834  1.1664 -1.2437
 4029SOL    HW223724   3.224   3.025  15.383  0.4867 -0.3075  1.0299
 4030SOL     OW23725   3.870   0.002   9.388 -0.0223  0.0524 -0.2536
 4030SOL    HW123726   3.799   4.697   9.340 -1.0694  0.1081  1.2346
 4030SOL    HW223727   3.875   4.677   9.462  0.0277  0.3881  0.0218
 4031SOL     OW23728   0.306   1.667   3.859 -0.0621  0.5941  0.0054
 4031SOL    HW123729   0.319   1.659   3.765 -0.1858 -0.3606  0.0761
 4031SOL    HW223730   0.298   1.763   3.860  0.9367  0.7046 -2.6042
 4032SOL     OW23731   1.324   3.164   2.356  0.0246  0.3311 -0.6723
 4032SOL    HW123732   1.299   3.256   2.366 -0.2541  0.2943 -1.0329
 4032SOL    HW223733   1.327   3.122   2.442 -0.4760  0.9329 -0.3580
 4033SOL     OW23734   0.936   3.098   6.167 -0.2612  0.1656 -0.3199
 4033SOL    HW123735   0.963   3.103   6.075  0.0429  0.3778 -0.2213
 4033SOL    HW223736   0.841   3.099   6.164 -0.2708 -3.7208 -0.5980
 4034SOL     OW23737   3.861   4.677  10.479  0.0261 -0.4241  0.2619
 4034SOL    HW123738   3.949   4.644  10.461  0.4374 -0.1462  1.7663
 4034SOL    HW223739   3.837   4.616  10.549 -0.5131 -0.1119  0.3502
 4035SOL     OW23740   3.867   4.240   8.957 -0.4332  0.2441  0.0206
 4035SOL    HW123741   3.808   4.181   9.003 -1.6363 -0.1719 -2.0774
 4035SOL    HW223742   3.833   4.241   8.867  2.6562  1.3967 -1.1253
 4036SOL     OW23743   1.265   4.097  10.431  0.1655 -0.1501  0.0979
 4036SOL    HW123744   1.290   4.061  10.516  2.1182 -0.1216 -0.4663
 4036SOL    HW223745   1.267   4.190  10.455 -0.5850  0.0519 -0.6246
 4037SOL     OW23746   3.772   0.324   1.252 -0.0047  0.0084  0.4399
 4037SOL    HW123747   3.759   0.418   1.268 -1.9201 -0.3868  1.1112
 4037SOL    HW223748   3.721   0.306   1.173  0.8963  2.5472 -0.7282
 4038SOL     OW23749   1.231   1.285   5.276  0.1376  0.0923  0.1205
 4038SOL    HW123750   1.247   1.334   5.356 -0.6253 -1.0445  0.9686
 4038SOL    HW223751   1.246   1.199   5.314 -1.7633 -0.8481 -1.2169
 4039SOL     OW23752   4.686   4.537   7.504 -0.0684 -0.3855 -0.6530
 4039SOL    HW123753   4.622   4.491   7.558  1.9764 -0.3687  1.7487
 4039SOL    HW223754   0.033   4.491   7.518 -0.6104 -0.7712  1.2660
 4040SOL     OW23755   2.174   3.386  11.436 -0.6956  0.4685 -0.3016
 4040SOL    HW123756   2.173   3.321  11.507  0.0180 -1.2721 -1.8878
 4040SOL    HW223757   2.232   3.341  11.374 -0.1250  1.7104 -0.6638
 4041SOL     OW23758   1.161   0.583   9.539 -0.7081 -0.7592 -0.0792
 4041SOL    HW123759   1.140   0.671   9.571  0.7157 -0.9775  1.4251
 4041SOL    HW223760   1.085   0.536   9.574 -0.4330 -0.2640  1.1674
 4042SOL     OW23761   2.126   2.158  11.636 -0.1366  0.0634  0.1814
 4042SOL    HW123762   2.221   2.158  11.621  0.0828 -0.4972  1.5854
 4042SOL    HW223763   2.125   2.066  11.660 -0.7697 -0.2788 -1.1652
 4043SOL     OW23764   1.657   1.374   4.266  0.2160 -0.2096 -0.7693
 4043SOL    HW123765   1.656   1.430   4.344  0.8190 -0.2769 -0.7169
 4043SOL    HW223766   1.631   1.443   4.204  2.6157  2.2276  0.9223
 4044SOL     OW23767   0.161   3.182  12.125 -0.1093  0.2361  0.1292
 4044SOL    HW123768   0.104   3.151  12.054  0.8996  0.5612 -0.8176
 4044SOL    HW223769   0.110   3.258  12.155 -0.0737  1.0279 -1.8415
 4045SOL     OW23770   0.411   4.314   7.936  0.6565 -0.5880  0.5377
 4045SOL    HW123771   0.496   4.310   7.894 -0.6521  0.5595 -2.2481
 4045SOL    HW223772   0.429   4.295   8.028  3.1468  1.3114  0.4517
 4046SOL     OW23773   2.286   4.693  13.538  0.1427 -0.1909 -0.2431
 4046SOL    HW123774   2.358   0.020  13.533 -0.7602  0.8723  0.1005
 4046SOL    HW223775   2.232   4.729  13.467 -0.8250 -1.6547 -0.2678
 4047SOL     OW23776   3.398   1.571   6.592 -0.0927 -0.0201  0.5657
 4047SOL    HW123777   3.378   1.657   6.629  0.8889  0.2518  0.4609
 4047SOL    HW223778   3.311   1.544   6.561  1.2169  0.4268 -3.4948
 4048SOL     OW23779   0.119   2.993   7.736 -0.7627 -0.2626  0.0724
 4048SOL    HW123780   0.107   3.048   7.813  0.3102  0.6895 -0.4528
 4048SOL    HW223781   0.170   2.918   7.769  0.9295  0.1143 -1.6520
 4049SOL     OW23782   2.457   2.762   1.434  0.1379  0.3074 -0.0055
 4049SOL    HW123783   2.479   2.788   1.523  1.0263  1.6219 -0.6089
 4049SOL    HW223784   2.481   2.669   1.431 -0.5106  0.1108  1.0704
 4050SOL     OW23785   4.177   3.162   6.020  0.5934 -0.2748 -0.0893
 4050SOL    HW123786   4.193   3.213   5.941 -2.8285 -0.9277 -1.1915
 4050SOL    HW223787   4.265   3.124   6.021  0.1527 -1.2134  3.2938
 4051SOL     OW23788   2.982   0.771   0.348 -0.0230  0.4947  0.0682
 4051SOL    HW123789   2.952   0.720   0.423 -0.3095  1.7507  0.8167
 4051SOL    HW223790   3.043   0.714   0.302 -0.8411  0.0348 -0.4371
 4052SOL     OW23791   0.825   4.358  10.467 -0.1845 -0.0170 -0.3220
 4052SOL    HW123792   0.730   4.347  10.463 -0.1653 -0.0850 -0.6396
 4052SOL    HW223793   0.864   4.281  10.425  0.6059  0.8913 -1.2447
 4053SOL     OW23794   1.224   2.912  15.064 -0.3981  0.1695  0.9571
 4053SOL    HW123795   1.283   2.877  15.130 -0.3552 -1.2613  0.1701
 4053SOL    HW223796   1.173   2.833  15.044 -1.1014  1.0050 -0.5536
 4054SOL     OW23797   4.244   3.157   8.861 -0.1464 -0.2244  0.3184
 4054SOL    HW123798   4.151   3.179   8.866  0.1105  1.7515 -3.3220
 4054SOL    HW223799   4.281   3.242   8.886 -1.5938 -0.9368  4.8849
 4055SOL     OW23800   1.509   4.243   5.700  0.0056  0.4026 -0.3285
 4055SOL    HW123801   1.462   4.277   5.777  0.7634 -0.3143  0.4580
 4055SOL    HW223802   1.546   4.326   5.669 -1.9573  2.0469  1.6878
 4056SOL     OW23803   0.869   2.141   2.747  0.4276  0.0997  0.3170
 4056SOL    HW123804   0.910   2.069   2.794 -0.7176 -0.6703  0.1317
 4056SOL    HW223805   0.910   2.139   2.660  0.5481 -1.6854  0.4127
 4057SOL     OW23806   0.882   3.965   7.457  0.2298  0.0123 -0.5429
 4057SOL    HW123807   0.805   3.968   7.514 -0.0442 -2.0983 -0.8160
 4057SOL    HW223808   0.840   4.001   7.379  3.0586  2.9138 -0.7264
 4058SOL     OW23809   1.777   1.728  13.899 -0.6602 -0.7453  0.0940
 4058SOL    HW123810   1.789   1.689  13.812  0.6178  2.4379 -1.1326
 4058SOL    HW223811   1.741   1.815  13.884 -1.0712 -1.1584 -1.3258
 4059SOL     OW23812   0.149   2.845   4.241  0.2652  0.0022 -0.3417
 4059SOL    HW123813   0.065   2.891   4.243  1.2228  1.7247 -0.1307
 4059SOL    HW223814   0.195   2.865   4.322  0.0722 -1.5838  0.1599
 4060SOL     OW23815   1.620   0.189   2.431 -0.1168  0.4893  0.6548
 4060SOL    HW123816   1.554   0.152   2.372  0.3312  0.1556  0.3596
 4060SOL    HW223817   1.610   0.135   2.509  2.6439  0.5680  1.0333
 4061SOL     OW23818   2.355   3.588  16.165  0.0221 -0.1938  0.7163
 4061SOL    HW123819   2.367   3.527  16.093  0.6038 -2.0717  2.4106
 4061SOL    HW223820   2.329   3.669  16.120  1.5805 -0.6154 -0.9476
 4062SOL     OW23821   1.795   0.935  16.962 -0.0568 -0.5723  0.5770
 4062SOL    HW123822   1.700   0.933  16.973 -0.3105 -1.5675 -1.7048
 4062SOL    HW223823   1.794   0.938  16.866  0.3074 -2.1386  0.5153
 4063SOL     OW23824   2.325   4.484   7.748  0.7126 -0.1551  0.3406
 4063SOL    HW123825   2.246   4.431   7.735  0.6342 -0.1720  0.8820
 4063SOL    HW223826   2.368   4.485   7.663 -1.2771 -0.3743 -0.6850
 4064SOL     OW23827   1.946   0.076   1.763  0.1059  0.0499 -0.3282
 4064SOL    HW123828   1.938   0.039   1.851  1.0498 -0.9024 -0.6403
 4064SOL    HW223829   1.855   0.075   1.734  0.6886  3.0213 -2.2246
 4065SOL     OW23830   4.277   1.417   7.486  0.7016 -0.4416  0.3191
 4065SOL    HW123831   4.290   1.435   7.393  0.0499  0.8185  0.4791
 4065SOL    HW223832   4.213   1.485   7.504 -0.8996 -2.2118  1.2844
 4066SOL     OW23833   2.078   0.690   2.096 -0.0375  0.2247  0.3570
 4066SOL    HW123834   2.165   0.651   2.099  0.4271  0.9508 -2.8878
 4066SOL    HW223835   2.100   0.783   2.092  0.3618  0.1873  1.9809
 4067SOL     OW23836   2.390   1.945   0.614 -0.1137 -0.0116 -0.1306
 4067SOL    HW123837   2.422   1.898   0.537 -0.7765  1.1364 -1.1108
 4067SOL    HW223838   2.452   2.017   0.625  1.1418 -1.1628  0.3586
 4068SOL     OW23839   2.088   1.187   3.585 -0.2880  0.0057 -0.7102
 4068SOL    HW123840   2.126   1.099   3.594 -1.0135 -0.7225 -4.7546
 4068SOL    HW223841   2.003   1.170   3.626 -0.5252  1.0390 -0.7925
 4069SOL     OW23842   4.222   2.794   7.211  0.1141 -0.3453  0.2536
 4069SOL    HW123843   4.287   2.777   7.143  0.3649 -0.6431  0.5737
 4069SOL    HW223844   4.237   2.887   7.227  0.0920 -0.2534 -0.2434
 4070SOL     OW23845   3.796   2.344   8.326  0.0299  0.1443 -0.7504
 4070SOL    HW123846   3.810   2.431   8.362 -0.5020  0.4024 -1.1738
 4070SOL    HW223847   3.720   2.356   8.270 -1.7383 -0.5500  1.5001
 4071SOL     OW23848   0.850   1.095   6.265  0.0732 -0.4484  0.0869
 4071SOL    HW123849   0.835   1.174   6.316 -0.2559  0.2287 -1.0528
 4071SOL    HW223850   0.801   1.022   6.303  0.2329  1.0177  3.1036
 4072SOL     OW23851   4.096   2.382   7.918  0.0349 -1.2651 -0.3691
 4072SOL    HW123852   4.051   2.465   7.933  0.3140 -1.2724  0.4934
 4072SOL    HW223853   4.040   2.323   7.968  0.1156 -1.6679 -0.7479
 4073SOL     OW23854   1.968   4.339  11.436  0.1383 -0.1285 -0.4493
 4073SOL    HW123855   1.906   4.276  11.473  2.1404 -2.2788 -0.6918
 4073SOL    HW223856   2.053   4.299  11.454 -0.1626 -1.2529 -1.5426
 4074SOL     OW23857   2.038   0.630   9.639 -0.2088  0.0455  0.4114
 4074SOL    HW123858   2.066   0.685   9.712  1.3656 -1.1195  0.6762
 4074SOL    HW223859   1.960   0.673   9.604  0.4210  0.5230 -0.4311
 4075SOL     OW23860   0.121   0.708  11.701 -0.2782  0.6279 -0.2073
 4075SOL    HW123861   0.212   0.703  11.672 -0.2095  3.7097 -0.4542
 4075SOL    HW223862   0.108   0.644  11.771 -1.0054  0.9074 -0.0885
 4076SOL     OW23863   3.101   3.180   5.186 -0.2806 -0.2984  0.2655
 4076SOL    HW123864   3.129   3.264   5.223  0.6126 -0.2522 -0.5428
 4076SOL    HW223865   3.176   3.148   5.137 -1.1218  1.8917 -2.4290
 4077SOL     OW23866   2.191   0.494   5.049  0.2418  0.0668 -0.3468
 4077SOL    HW123867   2.275   0.531   5.077  0.5609  0.5903 -2.0204
 4077SOL    HW223868   2.159   0.451   5.128  1.4720  0.3620  0.3026
 4078SOL     OW23869   0.979   0.254   4.198  0.6383  0.1616  0.4557
 4078SOL    HW123870   0.897   0.264   4.247 -0.1425  0.5803 -0.9388
 4078SOL    HW223871   0.948   0.236   4.109  0.5784 -2.2893  0.9776
 4079SOL     OW23872   3.286   4.719   5.450 -0.1294 -0.0750 -0.0359
 4079SOL    HW123873   3.258   4.657   5.518 -0.0040 -0.4565 -0.3372
 4079SOL    HW223874   3.198   0.018   5.434 -0.3179  0.1041  1.3351
 4080SOL     OW23875   2.642   3.590   9.746  0.2107  0.2284  0.0777
 4080SOL    HW123876   2.715   3.569   9.805  0.5537  0.3453 -0.3065
 4080SOL    HW223877   2.629   3.677   9.784  0.9245  0.6984 -0.7501
 4081SOL     OW23878   2.722   1.422   0.580  0.4270  0.3155  0.1003
 4081SOL    HW123879   2.728   1.401   0.673  0.2601  1.1669  0.2997
 4081SOL    HW223880   2.782   1.359   0.539  2.3036  0.5775  2.4468
 4082SOL     OW23881   4.722   2.947   3.929 -0.5556  0.0444 -0.1661
 4082SOL    HW123882   4.647   3.007   3.931 -1.7340 -1.5527  3.9238
 4082SOL    HW223883   4.703   2.893   4.006 -0.3817  0.6766  0.3232
 4083SOL     OW23884   2.017   2.009  12.216  0.7655  0.0720 -0.1442
 4083SOL    HW123885   2.012   1.940  12.283 -0.4735  0.2345 -0.0677
 4083SOL    HW223886   2.111   2.008  12.200  0.5328  1.1672 -1.5589
 4084SOL     OW23887   3.978   3.246  15.280  0.0716 -0.4417  0.2610
 4084SOL    HW123888   3.906   3.201  15.325 -2.9769  1.7195 -2.4288
 4084SOL    HW223889   3.988   3.333  15.318 -0.9953 -0.6173  0.9446
 4085SOL     OW23890   1.038   1.704   3.050  0.4723 -0.5498 -0.5921
 4085SOL    HW123891   1.108   1.710   3.116  0.3746 -0.9926 -0.4489
 4085SOL    HW223892   0.965   1.667   3.100 -0.1336 -0.6173 -1.5321
 4086SOL     OW23893   4.238   3.777   4.971  0.1105 -0.2917 -0.4587
 4086SOL    HW123894   4.181   3.706   4.941 -0.4529  0.2879 -0.7720
 4086SOL    HW223895   4.233   3.826   4.889 -1.1317  0.7423  0.2358
 4087SOL     OW23896   2.872   3.206   9.795 -0.2845  0.2504  0.2185
 4087SOL    HW123897   2.964   3.182   9.780  0.0770  1.1135  1.0945
 4087SOL    HW223898   2.868   3.179   9.886 -3.4205 -1.3917 -0.3821
 4088SOL     OW23899   1.952   4.675   5.893 -0.2566  0.2834  0.2350
 4088SOL    HW123900   1.982   4.620   5.820  0.3716  0.2190  0.5427
 4088SOL    HW223901   1.978   0.024   5.857  1.6354 -0.4731 -0.1909
 4089SOL     OW23902   2.403   3.877   2.767  0.2289  0.5741  0.0738
 4089SOL    HW123903   2.464   3.873   2.694  1.3135  0.2959  0.9947
 4089SOL    HW223904   2.448   3.816   2.826  1.0476  1.6873  0.5967
 4090SOL     OW23905   2.419   3.500   0.225 -0.8169  0.2559  0.1606
 4090SOL    HW123906   2.450   3.515   0.315  0.9640 -0.3751 -0.3532
 4090SOL    HW223907   2.393   3.584   0.186 -0.0640  0.0292 -0.8043
 4091SOL     OW23908   3.247   3.541   2.887  0.5031 -0.0715  0.8149
 4091SOL    HW123909   3.195   3.572   2.961  0.1083  3.3207 -0.8501
 4091SOL    HW223910   3.189   3.550   2.811  1.5597 -0.0062  0.0113
 4092SOL     OW23911   1.322   3.700   4.378  0.1948  0.0991 -0.3649
 4092SOL    HW123912   1.281   3.760   4.441 -1.7189 -2.9392  1.2892
 4092SOL    HW223913   1.265   3.624   4.388  0.2025  0.2559  0.8660
 4093SOL     OW23914   2.691   0.206  11.199 -0.8018  0.6151 -0.2808
 4093SOL    HW123915   2.637   0.132  11.171  1.3185 -0.4551 -1.5410
 4093SOL    HW223916   2.746   0.162  11.263 -1.1977 -1.3193 -1.2825
 4094SOL     OW23917   1.713   2.445   0.901  0.2111 -0.3814 -0.5182
 4094SOL    HW123918   1.775   2.472   0.834 -1.8787 -0.0981 -2.3218
 4094SOL    HW223919   1.762   2.377   0.948  0.3427 -1.3158 -2.0240
 4095SOL     OW23920   2.773   4.209   3.384 -0.0731 -0.0410 -0.2753
 4095SOL    HW123921   2.731   4.128   3.353  2.0366 -1.6035  0.9373
 4095SOL    HW223922   2.731   4.230   3.467 -3.3362 -0.2358 -1.8795
 4096SOL     OW23923   0.436   1.646  14.356 -0.2697  0.0887  0.0948
 4096SOL    HW123924   0.433   1.696  14.275 -3.3055 -0.7073 -0.2578
 4096SOL    HW223925   0.503   1.696  14.403  2.1592 -0.8443 -2.3587
 4097SOL     OW23926   0.972   0.949  13.786  0.8432 -0.6715  0.1127
 4097SOL    HW123927   0.977   0.899  13.867  1.4782 -1.6944 -0.5550
 4097SOL    HW223928   1.055   0.995  13.777  0.7509 -0.8905 -1.9332
 4098SOL     OW23929   3.567   4.314   0.353 -0.5716 -0.1082  0.6471
 4098SOL    HW123930   3.513   4.267   0.416 -1.3674 -0.0635 -0.0055
 4098SOL    HW223931   3.516   4.307   0.272  0.0908 -0.6261  0.2721
 4099SOL     OW23932   2.448   2.218   5.625 -0.2968  0.3897  0.4458
 4099SOL    HW123933   2.526   2.169   5.651 -0.6044  0.0679  0.7733
 4099SOL    HW223934   2.389   2.194   5.697 -1.5624 -0.3479 -0.8264
 4100SOL     OW23935   2.551   1.792   3.678 -0.1115 -0.2332 -0.0646
 4100SOL    HW123936   2.484   1.725   3.660 -0.1987 -0.8275  2.5301
 4100SOL    HW223937   2.501   1.870   3.653  0.4520  0.4277  0.9176
 4101SOL     OW23938   3.364   1.134  16.059 -0.5166 -0.2530 -0.2142
 4101SOL    HW123939   3.275   1.129  16.024 -0.6266  0.5990 -0.0576
 4101SOL    HW223940   3.402   1.189  15.990 -0.0100 -1.2769 -0.7570
 4102SOL     OW23941   0.448   1.031   1.682  0.4082  0.4511  0.4491
 4102SOL    HW123942   0.528   1.044   1.732  0.9193  0.2061 -0.2995
 4102SOL    HW223943   0.382   1.043   1.750 -1.5176  1.1481 -1.4986
 4103SOL     OW23944   3.719   2.729   3.475  0.4456 -0.2779 -0.2978
 4103SOL    HW123945   3.629   2.756   3.495  0.4324 -0.9855  0.6162
 4103SOL    HW223946   3.742   2.791   3.406  1.3608 -0.3178 -0.0297
 4104SOL     OW23947   2.999   1.579   8.544  0.2315 -0.1184 -0.9244
 4104SOL    HW123948   3.016   1.673   8.541 -1.3188  0.2026  0.2854
 4104SOL    HW223949   2.980   1.562   8.452  0.4812 -0.9928 -0.8146
 4105SOL     OW23950   3.741   2.446   4.816  0.1491  0.3537  0.1965
 4105SOL    HW123951   3.706   2.381   4.877 -0.6455  0.3775 -0.2364
 4105SOL    HW223952   3.745   2.524   4.871 -0.3676  0.0197  0.7190
 4106SOL     OW23953   0.256   3.123   3.744 -0.0537  0.0425  0.0348
 4106SOL    HW123954   0.340   3.096   3.708 -0.3039 -0.3673 -0.2319
 4106SOL    HW223955   0.260   3.090   3.834  0.7063 -0.8915 -0.3462
 4107SOL     OW23956   4.554   0.414   1.713  0.3772 -0.2917  0.1585
 4107SOL    HW123957   4.512   0.335   1.678 -1.6141 -0.2376  2.5048
 4107SOL    HW223958   4.488   0.481   1.698 -0.6832 -0.9153  2.1084
 4108SOL     OW23959   4.701   0.205   6.326  0.1156 -0.5586  0.1263
 4108SOL    HW123960   4.697   0.295   6.295  2.7153 -0.3314  0.4887
 4108SOL    HW223961   4.651   0.157   6.260  0.2965 -1.4533  0.6316
 4109SOL     OW23962   0.632   1.227  17.610 -0.3443  0.2621  0.3614
 4109SOL    HW123963   0.713   1.183  17.636  0.1949 -0.1266 -1.9622
 4109SOL    HW223964   0.636   1.214  17.515 -0.2484 -0.5086  0.4682
 4110SOL     OW23965   4.652   3.191   7.074  0.0837 -0.0454  0.0540
 4110SOL    HW123966   4.722   3.126   7.074  0.2102  0.0897  1.7341
 4110SOL    HW223967   4.585   3.148   7.128 -1.4829  2.6232  0.2362
 4111SOL     OW23968   0.957   4.291   8.544 -0.1683 -0.3014  0.0276
 4111SOL    HW123969   0.976   4.385   8.547 -0.4974 -0.2738  1.3257
 4111SOL    HW223970   0.863   4.276   8.543 -0.3799  0.8550  1.7517
 4112SOL     OW23971   4.407   3.701   4.185 -0.4026  0.0228  0.4058
 4112SOL    HW123972   4.449   3.731   4.265 -0.7655  3.2404 -0.6083
 4112SOL    HW223973   4.481   3.681   4.128  0.7858 -0.0686  1.9835
 4113SOL     OW23974   1.449   2.154  17.551  0.2300  0.2755  0.1142
 4113SOL    HW123975   1.515   2.152  17.481  0.4963  0.3495  0.3643
 4113SOL    HW223976   1.426   2.061  17.559  1.2918  0.2023  2.2398
 4114SOL     OW23977   0.151   2.419   1.117  0.3211 -0.1317  0.0256
 4114SOL    HW123978   0.141   2.386   1.027 -2.5859  0.6783  0.0444
 4114SOL    HW223979   0.246   2.426   1.109  0.7930 -3.5639  2.2665
 4115SOL     OW23980   2.665   4.346   5.864  0.1830 -0.3907 -0.0630
 4115SOL    HW123981   2.652   4.275   5.801 -1.4737  0.1305 -0.3099
 4115SOL    HW223982   2.627   4.421   5.818  1.2703  0.0732 -0.2221
 4116SOL     OW23983   2.631   1.439  13.106 -0.6653 -0.0448  0.6727
 4116SOL    HW123984   2.706   1.380  13.112 -0.7824 -0.1798  0.8059
 4116SOL    HW223985   2.583   1.400  13.034 -0.3223 -0.5226  0.7065
 4117SOL     OW23986   0.627   1.329   1.298  0.1868 -0.1289 -0.0062
 4117SOL    HW123987   0.636   1.372   1.383 -1.1920  1.0134 -0.4455
 4117SOL    HW223988   0.677   1.250   1.321  2.0547  1.2475  0.5672
 4118SOL     OW23989   2.882   2.661   1.524  0.0343  0.2677 -0.0100
 4118SOL    HW123990   2.849   2.623   1.605  1.3800 -0.8367  0.0191
 4118SOL    HW223991   2.888   2.751   1.557  2.3225  0.7842 -1.8976
 4119SOL     OW23992   0.920   0.833   5.596  0.5183 -0.2505 -0.8358
 4119SOL    HW123993   0.965   0.754   5.568  2.4524  0.6223 -0.1909
 4119SOL    HW223994   0.872   0.851   5.515 -2.2516  0.4811  0.9730
 4120SOL     OW23995   0.182   0.976  12.634  0.0206 -0.4677 -0.0411
 4120SOL    HW123996   0.108   1.009  12.686  1.5229  1.7781  0.6727
 4120SOL    HW223997   0.239   0.939  12.702 -0.6803 -1.0598  0.2234
 4121SOL     OW23998   0.416   0.968   2.940 -0.1831 -0.3798  0.1456
 4121SOL    HW123999   0.491   0.911   2.921  0.2857  0.5366 -0.7342
 4121SOL    HW224000   0.457   1.044   2.981  2.0104 -1.2085 -0.5426
 4122SOL     OW24001   3.179   0.004   3.255  0.4478  0.0893 -0.1462
 4122SOL    HW124002   3.141   4.666   3.303  0.5913  1.4463  2.0032
 4122SOL    HW224003   3.211   0.049   3.333  1.2866  0.0587 -0.4686
 4123SOL     OW24004   3.012   4.235   2.422 -0.0733  0.1874  0.4519
 4123SOL    HW124005   3.019   4.320   2.466 -0.0007  0.8854 -0.9241
 4123SOL    HW224006   2.935   4.195   2.463  0.1105  0.1742  0.7820
 4124SOL     OW24007   2.149   4.270  16.553  0.3555  0.0536  0.1393
 4124SOL    HW124008   2.103   4.211  16.492 -0.1685 -1.4834  2.0241
 4124SOL    HW224009   2.190   4.331  16.492 -1.0224 -2.2591 -3.1441
 4125SOL     OW24010   0.388   1.222   3.371  0.2871 -0.1279 -0.3374
 4125SOL    HW124011   0.342   1.144   3.338 -2.4880  1.1911  0.4199
 4125SOL    HW224012   0.394   1.249   3.280 -2.4916  3.6014  0.6165
 4126SOL     OW24013   3.711   1.146   4.437 -0.5523  0.2905 -0.1279
 4126SOL    HW124014   3.650   1.218   4.455  0.9093  1.4419  0.1785
 4126SOL    HW224015   3.707   1.091   4.516 -1.9844  0.2128 -0.2536
 4127SOL     OW24016   1.034   4.322   2.267  0.3484 -0.3505 -0.3524
 4127SOL    HW124017   1.062   4.269   2.193  2.8987 -0.6628  0.8315
 4127SOL    HW224018   1.123   4.335   2.301 -0.2870  1.0822  0.7604
 4128SOL     OW24019   1.155   4.596   8.766 -0.1250  0.0441  0.4479
 4128SOL    HW124020   1.063   4.622   8.767  0.2954  1.6566 -2.5243
 4128SOL    HW224021   1.154   4.519   8.708 -0.3263 -0.8913  1.6915
 4129SOL     OW24022   1.688   1.945   5.763  0.7808  0.3413  0.5371
 4129SOL    HW124023   1.671   1.891   5.840 -2.5528  2.2378  1.1324
 4129SOL    HW224024   1.748   2.005   5.806 -0.6755  1.6884  0.7078
 4130SOL     OW24025   3.529   4.670   6.242 -0.2618  0.2133 -0.1507
 4130SOL    HW124026   3.453   4.614   6.231  0.1881 -0.5594  0.6572
 4130SOL    HW224027   3.586   4.607   6.287 -1.2919 -0.0035  0.8457
 4131SOL     OW24028   1.670   3.217  15.974 -0.1129  0.4447  0.3375
 4131SOL    HW124029   1.617   3.194  15.897  0.8056 -1.2605  0.2012
 4131SOL    HW224030   1.622   3.295  16.002 -1.0751 -0.0251  0.0158
 4132SOL     OW24031   4.159   3.515   4.220 -0.0297  0.6586 -0.0530
 4132SOL    HW124032   4.230   3.567   4.258 -0.3648  0.8218  0.3534
 4132SOL    HW224033   4.092   3.573   4.255 -1.8599 -2.2826  1.3609
 4133SOL     OW24034   1.475   2.704  16.548  0.1675  0.2670  0.1429
 4133SOL    HW124035   1.532   2.743  16.614 -0.4520 -0.8417  1.3372
 4133SOL    HW224036   1.495   2.610  16.557 -1.3109 -0.2209 -1.6164
 4134SOL     OW24037   0.094   1.266   4.986 -0.0545 -0.4254  0.3925
 4134SOL    HW124038   0.021   1.310   4.942 -0.4119 -0.6952  0.7171
 4134SOL    HW224039   0.129   1.222   4.908 -0.1633 -0.2832  0.2619
 4135SOL     OW24040   2.681   0.232   6.208 -0.0309 -0.1359 -0.8554
 4135SOL    HW124041   2.709   0.296   6.142  2.9297 -0.3371  0.2029
 4135SOL    HW224042   2.612   0.292   6.239  0.4462  1.0201 -2.0082
 4136SOL     OW24043   3.637   4.333  15.100 -0.1428  0.3642 -0.2145
 4136SOL    HW124044   3.675   4.268  15.159  1.2631  0.1189 -1.3777
 4136SOL    HW224045   3.672   4.413  15.139 -1.1188  0.1029  1.1626
 4137SOL     OW24046   2.320   1.727   3.937  0.0591 -0.0802  0.5995
 4137SOL    HW124047   2.307   1.808   3.986  1.3678  0.2269  0.4390
 4137SOL    HW224048   2.405   1.701   3.971  0.7236 -0.8459 -1.6540
 4138SOL     OW24049   3.024   3.296   9.302 -0.0655  0.0762 -1.3185
 4138SOL    HW124050   2.954   3.343   9.347  0.1081  0.4496 -1.4437
 4138SOL    HW224051   3.069   3.363   9.251 -0.4609 -0.7638 -2.7626
 4139SOL     OW24052   0.454   0.981  10.225  0.0183  0.7398 -0.3329
 4139SOL    HW124053   0.416   1.035  10.156 -2.3843 -1.5772 -0.8323
 4139SOL    HW224054   0.545   0.973  10.194 -0.2066 -0.2316 -0.7393
 4140SOL     OW24055   3.851   3.901   7.728 -0.0794  0.1274  0.4942
 4140SOL    HW124056   3.837   3.885   7.822 -3.2941  2.0302  0.3170
 4140SOL    HW224057   3.897   3.984   7.719  0.6664 -0.2029  1.2252
 4141SOL     OW24058   0.514   2.600  10.604  0.4471 -0.8977  0.5522
 4141SOL    HW124059   0.567   2.664  10.649  0.6084 -1.0227  0.5403
 4141SOL    HW224060   0.432   2.608  10.653  0.7122  1.2936  0.6287
 4142SOL     OW24061   3.084   3.146  11.054  0.0674 -0.3801 -0.3241
 4142SOL    HW124062   3.066   3.161  10.961 -0.0115 -1.7971 -0.5329
 4142SOL    HW224063   3.148   3.217  11.059 -0.2741 -0.1839  1.4443
 4143SOL     OW24064   1.493   3.913  12.596 -0.2810 -0.1366  0.2587
 4143SOL    HW124065   1.538   3.912  12.511 -3.5032  1.2021 -1.4449
 4143SOL    HW224066   1.487   4.006  12.616 -0.5886  0.0472 -0.6855
 4144SOL     OW24067   4.279   3.687   3.399  0.0880 -0.2710 -0.1855
 4144SOL    HW124068   4.339   3.634   3.346  1.1809 -1.6410  2.3925
 4144SOL    HW224069   4.241   3.622   3.458 -3.7083  1.2182 -0.9842
 4145SOL     OW24070   1.608   1.575  12.838 -0.0135 -0.3859 -0.1314
 4145SOL    HW124071   1.665   1.633  12.888 -0.7600 -0.5778  0.9550
 4145SOL    HW224072   1.588   1.633  12.765  0.3515 -2.9652 -2.2886
 4146SOL     OW24073   3.070   3.583   2.664 -0.2707 -0.4612 -0.4276
 4146SOL    HW124074   3.003   3.566   2.598  2.4551 -1.9070 -2.8731
 4146SOL    HW224075   3.146   3.578   2.606 -1.3800  0.8619 -1.9835
 4147SOL     OW24076   2.520   0.821   4.800  0.1012  0.0088 -0.0069
 4147SOL    HW124077   2.528   0.752   4.866  0.1839  0.5857  0.5879
 4147SOL    HW224078   2.448   0.793   4.744 -0.7983  1.6052  0.3556
 4148SOL     OW24079   2.147   1.294   2.349  0.2265  0.4981 -0.0703
 4148SOL    HW124080   2.219   1.319   2.407 -0.3868 -1.1525  1.4124
 4148SOL    HW224081   2.170   1.354   2.279  0.0506  0.0773 -0.4851
 4149SOL     OW24082   1.719   1.349   9.239  0.1021 -0.0039 -0.4101
 4149SOL    HW124083   1.663   1.275   9.215  0.3965 -0.8473  1.4817
 4149SOL    HW224084   1.786   1.360   9.172 -0.4416  3.3545 -0.4194
 4150SOL     OW24085   1.902   0.293   4.310 -0.4663 -0.4299  0.6349
 4150SOL    HW124086   1.915   0.251   4.395 -0.9982 -0.6041  0.6248
 4150SOL    HW224087   1.840   0.232   4.271  0.9140 -0.7959 -0.9578
 4151SOL     OW24088   2.459   4.060   3.594 -0.0106  0.2637 -0.1542
 4151SOL    HW124089   2.432   4.028   3.508 -0.7545 -0.6938  0.4345
 4151SOL    HW224090   2.529   3.998   3.615  0.2397 -0.5304 -3.2072
 4152SOL     OW24091   4.195   4.254   1.207 -0.0548 -0.1993 -0.0386
 4152SOL    HW124092   4.152   4.340   1.206  0.1777 -0.0780  0.4277
 4152SOL    HW224093   4.286   4.283   1.221 -0.0901 -0.4857  0.7682
 4153SOL     OW24094   4.695   2.506   6.547  0.0543 -0.0862 -0.5166
 4153SOL    HW124095   4.635   2.550   6.487 -2.7550  1.6503  3.6061
 4153SOL    HW224096   0.034   2.561   6.526  0.8986 -1.0780 -0.1337
 4154SOL     OW24097   0.753   1.988   8.438 -0.8044 -0.0305  0.1118
 4154SOL    HW124098   0.694   2.006   8.365  0.2945  0.0745 -0.7445
 4154SOL    HW224099   0.724   2.060   8.494 -0.4872  0.8940 -0.9175
 4155SOL     OW24100   4.158   2.799   6.214 -0.4924  0.3067  0.5691
 4155SOL    HW124101   4.199   2.759   6.290  0.0198  0.1798  0.2258
 4155SOL    HW224102   4.233   2.834   6.165 -0.8174 -1.9721 -1.5515
 4156SOL     OW24103   4.417   1.457   5.981  0.1120  0.0790  0.3616
 4156SOL    HW124104   4.390   1.549   5.981  1.3369  0.4333 -1.2053
 4156SOL    HW224105   4.506   1.465   6.015  0.3791 -0.3252 -0.2651
 4157SOL     OW24106   2.111   3.215   6.346  0.1746 -0.4479 -0.2719
 4157SOL    HW124107   2.153   3.301   6.351  0.8115 -0.7721 -0.0165
 4157SOL    HW224108   2.109   3.190   6.439  1.3313  0.5684  0.0329
 4158SOL     OW24109   4.260   2.196   7.332  0.3018 -0.3141  0.6312
 4158SOL    HW124110   4.341   2.246   7.329  1.2452 -1.9527 -1.7983
 4158SOL    HW224111   4.208   2.252   7.390  1.7440  0.3871  1.2510
 4159SOL     OW24112   1.738   0.910   4.097 -0.0742  0.3490  0.0276
 4159SOL    HW124113   1.704   0.995   4.124  2.3893  1.3799 -0.0977
 4159SOL    HW224114   1.812   0.918   4.037  0.0049  2.1841  0.3647
 4160SOL     OW24115   1.586   2.625   9.228  0.2326 -0.5901 -0.3072
 4160SOL    HW124116   1.567   2.533   9.244  0.2401  0.1128  3.6733
 4160SOL    HW224117   1.601   2.626   9.133  3.2926 -3.1705  0.1424
 4161SOL     OW24118   4.027   0.133   1.513  0.1079 -0.0271  0.1788
 4161SOL    HW124119   3.981   0.132   1.429  1.2927 -0.9914 -0.4525
 4161SOL    HW224120   3.955   0.094   1.563 -0.7264  1.6334  0.2791
 4162SOL     OW24121   0.248   4.578  16.246  0.3720  0.1326  0.0392
 4162SOL    HW124122   0.273   4.567  16.154 -2.0396  0.4128 -0.6341
 4162SOL    HW224123   0.215   4.668  16.242 -0.2807 -0.1262 -0.3012
 4163SOL     OW24124   4.485   0.497   2.478  0.4368 -0.3132  0.4001
 4163SOL    HW124125   4.446   0.569   2.529  0.2418  0.8736 -1.4352
 4163SOL    HW224126   4.418   0.496   2.410  0.1350 -2.4017  0.7207
 4164SOL     OW24127   1.710   4.435   8.681 -0.1927  0.0886  0.0005
 4164SOL    HW124128   1.773   4.501   8.655 -0.1471 -0.2178 -0.6482
 4164SOL    HW224129   1.638   4.495   8.704 -2.7596 -3.4528  1.1668
 4165SOL     OW24130   1.423   2.412   0.838 -0.7013 -0.1317 -0.0016
 4165SOL    HW124131   1.517   2.421   0.853 -0.1919 -3.5416 -1.2352
 4165SOL    HW224132   1.403   2.505   0.825 -2.6350 -0.5088  0.2286
 4166SOL     OW24133   4.375   0.813   4.247 -0.1090  0.5604  0.0982
 4166SOL    HW124134   4.365   0.757   4.324  0.0537 -1.2708 -1.2118
 4166SOL    HW224135   4.405   0.892   4.292  1.4689  1.0519 -1.8204
 4167SOL     OW24136   3.118   3.508   6.339 -0.0473 -0.5245  0.0544
 4167SOL    HW124137   3.068   3.444   6.289  3.0222 -1.4756 -1.7627
 4167SOL    HW224138   3.203   3.473   6.314 -0.1941 -1.7110  1.2469
 4168SOL     OW24139   2.217   4.735   5.037  0.0444  0.4259 -0.3090
 4168SOL    HW124140   2.228   0.089   5.006  1.5643 -0.2260 -1.6493
 4168SOL    HW224141   2.153   4.710   4.970 -0.6691 -2.5993  1.5253
 4169SOL     OW24142   2.299   3.294  13.878 -0.3559 -0.9982 -0.0435
 4169SOL    HW124143   2.355   3.325  13.950  0.1000  1.1363 -1.3226
 4169SOL    HW224144   2.294   3.369  13.819 -1.0776 -0.5189  0.6159
 4170SOL     OW24145   3.713   2.690  13.432 -0.0834  0.1454 -0.8077
 4170SOL    HW124146   3.622   2.706  13.409 -0.1512 -0.7875 -1.1712
 4170SOL    HW224147   3.740   2.620  13.373 -0.6507 -0.8482  0.1213
 4171SOL     OW24148   4.201   4.459   9.273  0.5701 -0.6219 -0.2939
 4171SOL    HW124149   4.192   4.399   9.348 -0.0738  1.1180  1.0007
 4171SOL    HW224150   4.114   4.440   9.238  0.3448  0.1543 -0.1490
 4172SOL     OW24151   3.412   3.196   1.983 -0.0631 -0.5660  0.2017
 4172SOL    HW124152   3.504   3.208   1.960  0.0720  0.3276  1.2335
 4172SOL    HW224153   3.409   3.111   2.026  1.3749 -1.7011 -1.8956
 4173SOL     OW24154   1.495   2.108  14.277  0.2772  0.2859 -0.0073
 4173SOL    HW124155   1.452   2.193  14.272 -0.6525 -0.1868  0.0199
 4173SOL    HW224156   1.413   2.059  14.281 -0.4947  1.6044  0.3332
 4174SOL     OW24157   1.747   3.494   1.914  0.4093 -0.3634  0.3217
 4174SOL    HW124158   1.748   3.407   1.873 -1.9361 -0.0616 -0.3672
 4174SOL    HW224159   1.767   3.477   2.006  1.2844 -2.2668 -0.2204
 4175SOL     OW24160   3.804   2.353   2.369  0.4821  0.3030  0.3078
 4175SOL    HW124161   3.897   2.373   2.360  0.6560  0.7016  3.0593
 4175SOL    HW224162   3.772   2.369   2.280  1.2681  0.4019  0.0435
 4176SOL     OW24163   4.270   2.197   0.085  0.0751 -0.2842 -0.0419
 4176SOL    HW124164   4.244   2.201  17.734 -1.6442  1.5843  0.5270
 4176SOL    HW224165   4.362   2.218   0.072 -0.1848  1.9626  1.7527
 4177SOL     OW24166   3.142   4.207  11.572  0.1777  0.4677 -0.1768
 4177SOL    HW124167   3.070   4.162  11.616 -1.7832  3.2248 -0.6056
 4177SOL    HW224168   3.098   4.292  11.570  2.2471  1.5370 -0.1282
 4178SOL     OW24169   3.969   3.187   8.853  0.3456  0.0667 -0.5276
 4178SOL    HW124170   3.897   3.209   8.793  1.6621  2.0503 -1.4055
 4178SOL    HW224171   3.960   3.093   8.863 -1.2200  0.3129  0.3462
 4179SOL     OW24172   1.058   1.142   8.571  0.3144  0.0123  0.2562
 4179SOL    HW124173   0.984   1.158   8.513 -0.0184 -2.0309  0.1337
 4179SOL    HW224174   1.110   1.221   8.555  0.0747 -0.3806 -2.3582
 4180SOL     OW24175   4.065   2.783  12.849  0.4265 -0.0823 -0.7719
 4180SOL    HW124176   4.047   2.740  12.766 -0.2803 -1.7207  0.2411
 4180SOL    HW224177   4.152   2.745  12.862  0.4483  0.2538  0.0742
 4181SOL     OW24178   0.390   2.371  15.928  0.3403 -0.1856  0.0162
 4181SOL    HW124179   0.452   2.312  15.970 -0.4513  1.4109  3.4467
 4181SOL    HW224180   0.391   2.451  15.980  1.4343  0.0281 -0.3299
 4182SOL     OW24181   4.322   0.415   1.164 -0.1026  0.1577 -0.1122
 4182SOL    HW124182   4.381   0.432   1.091  0.4558 -0.1336  0.2765
 4182SOL    HW224183   4.303   0.507   1.183  0.3036  0.2916 -0.3747
 4183SOL     OW24184   2.820   1.062   2.065  0.0914 -0.3248 -0.2423
 4183SOL    HW124185   2.838   1.060   2.159 -0.2734 -0.5018 -0.1750
 4183SOL    HW224186   2.762   0.988   2.049 -2.4470  1.8475 -1.1174
 4184SOL     OW24187   3.428   2.456   7.888  0.0148  0.2450 -0.4460
 4184SOL    HW124188   3.479   2.423   7.814 -0.2277 -2.2087  0.4906
 4184SOL    HW224189   3.429   2.550   7.869 -0.7752  0.0343 -1.5036
 4185SOL     OW24190   3.420   3.253  16.160  0.1575  0.0698  0.2095
 4185SOL    HW124191   3.501   3.301  16.140  1.2091 -1.2395  1.3368
 4185SOL    HW224192   3.446   3.173  16.114 -0.1934 -0.9278  1.7588
 4186SOL     OW24193   4.210   2.983  11.119 -0.2786 -0.0589  0.1310
 4186SOL    HW124194   4.273   3.004  11.050 -0.2031 -1.5122 -0.2515
 4186SOL    HW224195   4.246   3.035  11.191  3.2044  0.7244 -2.1558
 4187SOL     OW24196   3.741   4.196  13.808 -0.2799 -0.2717 -0.0996
 4187SOL    HW124197   3.661   4.154  13.840 -0.6679  0.9180  0.5312
 4187SOL    HW224198   3.745   4.279  13.856  1.2844  0.4055 -1.4189
 4188SOL     OW24199   0.885   2.267   4.944 -1.2847  0.6024  0.4018
 4188SOL    HW124200   0.885   2.180   4.905 -1.8844  0.6806  0.2229
 4188SOL    HW224201   0.979   2.282   4.934 -1.6469  1.8803 -1.1315
 4189SOL     OW24202   1.725   0.466   9.388 -0.0198  0.1422  0.3370
 4189SOL    HW124203   1.743   0.548   9.434 -0.0668 -0.5864  1.6689
 4189SOL    HW224204   1.641   0.441   9.428  0.4870 -2.3709 -0.1931
 4190SOL     OW24205   4.522   0.831   1.503 -0.1959  0.2923 -0.2125
 4190SOL    HW124206   4.476   0.824   1.587  0.3134 -1.3516 -0.0747
 4190SOL    HW224207   4.449   0.861   1.448  0.7790  0.1428 -1.5654
 4191SOL     OW24208   0.118   4.113   2.406 -0.0711 -0.0206 -0.5157
 4191SOL    HW124209   0.181   4.173   2.366 -0.5938  0.7971 -0.0826
 4191SOL    HW224210   0.179   4.044   2.434  1.1335 -0.2932 -3.7489
 4192SOL     OW24211   1.843   2.022  15.594  0.4293 -0.1776 -0.6066
 4192SOL    HW124212   1.891   1.980  15.523  1.9807 -0.7040  0.7513
 4192SOL    HW224213   1.914   2.055  15.649  0.9911 -1.8450 -0.3153
 4193SOL     OW24214   0.254   4.059  11.164  0.4668  0.1148 -0.0056
 4193SOL    HW124215   0.198   3.991  11.127 -1.4859  0.4693  2.2844
 4193SOL    HW224216   0.342   4.026  11.147 -0.6710 -2.5367 -0.6088
 4194SOL     OW24217   3.565   2.840   2.635  0.3502  0.0909 -0.2148
 4194SOL    HW124218   3.548   2.796   2.552  0.6228  1.0636 -0.7760
 4194SOL    HW224219   3.514   2.788   2.697  1.7276  0.0178  0.8707
 4195SOL     OW24220   0.639   4.136   2.363  0.1584  0.0480 -0.0049
 4195SOL    HW124221   0.674   4.187   2.290  0.7775 -2.0474 -1.1920
 4195SOL    HW224222   0.717   4.095   2.401 -1.2461 -0.1751  2.5560
 4196SOL     OW24223   1.923   1.666  14.978 -0.6952 -0.3190 -0.5514
 4196SOL    HW124224   1.863   1.595  14.956  0.2694 -1.5155  0.7314
 4196SOL    HW224225   1.941   1.656  15.071 -0.3195  2.3226 -0.3385
 4197SOL     OW24226   0.853   4.289   7.603 -0.7875  0.1213 -0.1204
 4197SOL    HW124227   0.769   4.284   7.558  0.5496  1.4159 -2.7845
 4197SOL    HW224228   0.909   4.264   7.529 -2.0335 -0.8991 -0.7315
 4198SOL     OW24229   4.147   0.071  12.826 -0.0233  0.5539 -0.2707
 4198SOL    HW124230   4.190   0.125  12.760 -0.9076  1.3877 -0.1587
 4198SOL    HW224231   4.208   4.734  12.832 -1.5512 -0.8590 -2.2335
 4199SOL     OW24232   3.331   1.183   5.141  0.2771  0.1414  0.2060
 4199SOL    HW124233   3.424   1.182   5.119 -0.2345 -1.4269 -1.9659
 4199SOL    HW224234   3.325   1.260   5.197 -1.8414  1.3410 -1.6856
 4200SOL     OW24235   0.620   0.346   3.889  0.0120  0.1418  0.2830
 4200SOL    HW124236   0.621   0.385   3.801  1.0091 -1.1269 -0.2762
 4200SOL    HW224237   0.531   0.361   3.919  0.1046 -0.7950  1.0165
 4201SOL     OW24238   0.936   2.418   7.743 -0.1094  0.0186  0.0894
 4201SOL    HW124239   0.955   2.361   7.668 -3.2214 -0.3137 -0.4535
 4201SOL    HW224240   0.850   2.449   7.717  0.1589  0.0669 -0.7550
 4202SOL     OW24241   0.730   2.806   5.182  0.2014  0.4968 -0.0082
 4202SOL    HW124242   0.781   2.828   5.260 -0.1917 -0.8407  0.6367
 4202SOL    HW224243   0.788   2.745   5.138 -0.8744 -2.4393  2.6541
 4203SOL     OW24244   2.084   3.998   5.919  0.0165  0.2768  0.2782
 4203SOL    HW124245   2.167   3.996   5.966  0.9880  0.6616 -1.4314
 4203SOL    HW224246   2.061   4.090   5.907  2.8774  1.0463  0.7812
 4204SOL     OW24247   0.717   3.178   3.358  0.2816  0.4956  0.5219
 4204SOL    HW124248   0.700   3.125   3.436  0.1379 -0.5365 -0.2174
 4204SOL    HW224249   0.727   3.110   3.292  1.2101  0.7770  0.3649
 4205SOL     OW24250   0.588   0.176   6.551  0.6590  0.5318  0.2696
 4205SOL    HW124251   0.671   0.221   6.536 -1.0669  2.0994 -4.6617
 4205SOL    HW224252   0.547   0.247   6.601 -0.3063 -1.0361  1.6931
 4206SOL     OW24253   4.036   3.390   2.208 -0.1926 -0.4565 -0.3339
 4206SOL    HW124254   4.050   3.445   2.131 -1.0859  1.6241  0.9888
 4206SOL    HW224255   4.127   3.376   2.234 -0.3018 -0.5002  0.0267
 4207SOL     OW24256   1.511   3.740   2.753 -0.2299 -0.3917 -0.2782
 4207SOL    HW124257   1.585   3.785   2.794 -0.7566  0.7714 -0.5922
 4207SOL    HW224258   1.539   3.749   2.662  4.1087 -1.0593  0.9577
 4208SOL     OW24259   0.951   0.794   1.900 -0.3579  0.0738 -0.2994
 4208SOL    HW124260   0.954   0.833   1.813  1.3518  0.3084 -0.1416
 4208SOL    HW224261   1.009   0.718   1.894  0.9611  0.9154  1.5773
 4209SOL     OW24262   2.937   0.463   1.532 -0.0851  0.4949  0.2913
 4209SOL    HW124263   2.982   0.461   1.617 -0.0699  0.1251  0.2735
 4209SOL    HW224264   2.857   0.428   1.571 -0.7042  1.8836  0.2764
 4210SOL     OW24265   3.058   2.526   5.046 -0.2279  0.1299  0.5027
 4210SOL    HW124266   3.020   2.440   5.026  0.3400  0.1490 -0.6753
 4210SOL    HW224267   3.129   2.521   4.982 -1.5774 -0.3046 -0.9747
 4211SOL     OW24268   3.192   0.689   9.017  0.3889 -0.2296  0.1981
 4211SOL    HW124269   3.271   0.727   9.057  1.6431 -1.1815 -1.3934
 4211SOL    HW224270   3.169   0.618   9.076 -2.3929 -0.4625 -1.1896
 4212SOL     OW24271   4.349   2.052   7.618  0.0419  0.1721  0.1765
 4212SOL    HW124272   4.286   2.121   7.640 -0.6571  0.1383 -1.7194
 4212SOL    HW224273   4.288   2.010   7.557  0.6706 -1.5189  0.7147
 4213SOL     OW24274   1.300   2.160   1.929  0.1450  0.3538  0.2419
 4213SOL    HW124275   1.224   2.217   1.936 -1.3067 -1.4094 -1.2052
 4213SOL    HW224276   1.245   2.084   1.909 -0.2973  0.8691 -0.4888
 4214SOL     OW24277   2.717   3.471  17.078  0.2112  0.3031  0.4143
 4214SOL    HW124278   2.728   3.408  17.149 -2.0324  1.4104  1.7722
 4214SOL    HW224279   2.727   3.415  17.002  1.4150  0.4469  0.4758
 4215SOL     OW24280   3.053   1.421   2.366  0.3742  0.7992 -0.1427
 4215SOL    HW124281   3.050   1.374   2.450 -0.8671  0.2779 -0.4798
 4215SOL    HW224282   3.123   1.378   2.317 -0.6487  1.7108 -2.3936
 4216SOL     OW24283   3.504   3.676   6.629 -0.6669  0.2417  0.2316
 4216SOL    HW124284   3.514   3.761   6.672  1.1220 -0.2086  0.6789
 4216SOL    HW224285   3.432   3.639   6.680 -0.6799  0.1352  0.1330
 4217SOL     OW24286   3.608   2.769   8.352  0.1045  0.0664 -0.2691
 4217SOL    HW124287   3.677   2.810   8.403 -0.1342 -0.5373  0.5321
 4217SOL    HW224288   3.550   2.739   8.422  0.6109 -2.2210 -0.8174
 4218SOL     OW24289   3.370   3.496   8.873  0.3099  0.3283  0.8382
 4218SOL    HW124290   3.303   3.560   8.851  1.5538  1.6189  0.8529
 4218SOL    HW224291   3.446   3.536   8.832  1.3481 -0.7803  1.6946
 4219SOL     OW24292   0.845   4.613   6.164 -0.0441  0.4537  0.1728
 4219SOL    HW124293   0.900   4.642   6.236 -0.3139  1.4030  0.0011
 4219SOL    HW224294   0.773   4.676   6.169  0.8900  1.4024  1.4111
 4220SOL     OW24295   4.289   3.173   0.325 -0.0625  0.1954  0.2340
 4220SOL    HW124296   4.346   3.148   0.252 -0.6642 -1.5187  0.3562
 4220SOL    HW224297   4.324   3.132   0.404  1.8860 -2.5373 -2.0553
 4221SOL     OW24298   4.442   3.433   8.052  0.3445 -0.1897  0.7198
 4221SOL    HW124299   4.386   3.371   8.005  1.1264 -0.3024 -0.0457
 4221SOL    HW224300   4.479   3.375   8.118 -1.0885  0.0032  1.7131
 4222SOL     OW24301   4.185   2.733   9.134 -0.3287  0.2108 -0.1196
 4222SOL    HW124302   4.181   2.669   9.205  2.4941 -0.9876 -1.0482
 4222SOL    HW224303   4.096   2.760   9.109 -0.7843  0.8353  2.1207
 4223SOL     OW24304   0.771   3.821  14.488  0.0779  0.3515  0.0448
 4223SOL    HW124305   0.757   3.729  14.463  3.5818 -0.2621  0.2158
 4223SOL    HW224306   0.740   3.865  14.409 -0.4953  1.0088  0.6434
 4224SOL     OW24307   3.353   1.702   7.716  0.5414  0.0282 -0.0824
 4224SOL    HW124308   3.357   1.644   7.640 -2.3298 -0.4146  0.1144
 4224SOL    HW224309   3.439   1.682   7.753  0.1239 -1.5544  0.0312
 4225SOL     OW24310   3.567   4.542   6.913 -0.3432  0.3469  0.0323
 4225SOL    HW124311   3.493   4.603   6.905 -1.8389 -1.1300  2.5602
 4225SOL    HW224312   3.626   4.585   6.851  0.4669 -1.8443 -0.7181
 4226SOL     OW24313   3.150   4.372   6.604 -0.6408 -0.3366 -0.3824
 4226SOL    HW124314   3.112   4.410   6.524 -0.2273  0.3621 -0.2468
 4226SOL    HW224315   3.243   4.369   6.584 -0.7893  1.0632 -1.3312
 4227SOL     OW24316   1.185   3.943   6.704 -0.2068 -0.1153 -0.7693
 4227SOL    HW124317   1.099   3.918   6.737 -0.4891 -1.9072 -2.9102
 4227SOL    HW224318   1.162   4.025   6.661 -1.2437 -0.7956 -1.5095
 4228SOL     OW24319   1.918   1.814  15.893  0.4711  0.3952 -0.1664
 4228SOL    HW124320   1.983   1.831  15.962 -0.4616  0.1508  0.7687
 4228SOL    HW224321   1.973   1.836  15.817  2.5997 -3.0620  0.3698
 4229SOL     OW24322   1.126   1.940   0.867 -0.5634  0.3495  0.3849
 4229SOL    HW124323   1.157   1.997   0.797  1.3735  0.4962  1.3739
 4229SOL    HW224324   1.042   1.905   0.837  0.5510 -0.1437 -2.1420
 4230SOL     OW24325   2.331   1.579   1.981 -0.4116  0.1476  0.5066
 4230SOL    HW124326   2.338   1.581   1.886  0.7329  3.5689  0.6780
 4230SOL    HW224327   2.242   1.543   1.979 -0.5717  0.5252  0.7963
 4231SOL     OW24328   0.724   2.983   4.744 -0.3061 -0.8636 -0.3161
 4231SOL    HW124329   0.688   3.038   4.814  1.9674  0.3821 -0.1388
 4231SOL    HW224330   0.689   2.896   4.764 -0.8845 -1.3292 -3.3612
 4232SOL     OW24331   2.400   2.232  10.148 -0.0152 -0.1937  0.2629
 4232SOL    HW124332   2.491   2.205  10.134 -0.7511 -2.3071 -0.5696
 4232SOL    HW224333   2.351   2.154  10.175 -0.4123 -0.8206 -2.2474
 4233SOL     OW24334   3.186   3.681   7.787 -0.5179 -0.0732 -0.4435
 4233SOL    HW124335   3.210   3.765   7.827 -3.3143 -0.0661  1.2115
 4233SOL    HW224336   3.239   3.681   7.707  1.1139  0.9780  0.6231
 4234SOL     OW24337   4.502   0.701  11.847  0.8112 -0.0952 -0.0807
 4234SOL    HW124338   4.562   0.765  11.809  1.1709  0.3843  1.2959
 4234SOL    HW224339   4.514   0.724  11.939  0.2862  1.1756 -0.3258
 4235SOL     OW24340   1.763   4.371  12.012  0.2763 -0.0124  0.3954
 4235SOL    HW124341   1.846   4.406  12.043  0.1836 -0.6883  1.3972
 4235SOL    HW224342   1.716   4.395  12.092  1.3640 -0.7604  1.2561
 4236SOL     OW24343   0.882   0.461   1.443  0.1620 -0.0007 -0.6948
 4236SOL    HW124344   0.966   0.434   1.408  0.1970 -0.7656 -0.0165
 4236SOL    HW224345   0.839   0.377   1.459  2.5154 -1.1904 -0.6727
 4237SOL     OW24346   4.541   1.575   8.319  0.0583 -0.4339 -0.7317
 4237SOL    HW124347   4.562   1.661   8.355  2.2071 -0.2619 -2.4117
 4237SOL    HW224348   4.560   1.582   8.225  0.8668 -1.8506 -0.6587
 4238SOL     OW24349   3.216   2.275   4.927 -0.1905 -0.3766 -0.3267
 4238SOL    HW124350   3.122   2.258   4.934 -0.0637 -0.3955  1.2236
 4238SOL    HW224351   3.251   2.201   4.976 -2.6441 -0.2359  1.6508
 4239SOL     OW24352   0.762   3.934  15.468  0.3631  0.6286  0.4813
 4239SOL    HW124353   0.679   3.981  15.457  0.2808  0.6477  1.1815
 4239SOL    HW224354   0.738   3.857  15.417  0.4777  0.7126  0.3014
 4240SOL     OW24355   2.862   1.910   7.233  0.1665  0.3335 -0.4063
 4240SOL    HW124356   2.901   1.823   7.221  0.5242  0.5276 -0.6722
 4240SOL    HW224357   2.803   1.919   7.158  2.1618 -0.1941 -2.0520
 4241SOL     OW24358   3.062   0.032  12.405  0.1224  0.0735  0.3951
 4241SOL    HW124359   3.033   0.033  12.496 -0.3206  0.0582  0.2542
 4241SOL    HW224360   2.980   0.031  12.357 -0.3718 -0.2080  1.2390
 4242SOL     OW24361   0.793   3.973   2.859 -0.1814 -1.0305 -0.1043
 4242SOL    HW124362   0.867   3.935   2.812  1.5832  3.4183 -0.8997
 4242SOL    HW224363   0.816   4.065   2.848 -0.6312 -0.9025  0.0254
 4243SOL     OW24364   3.091   3.679   9.479  0.8713 -0.2723 -0.0453
 4243SOL    HW124365   2.997   3.697   9.486  1.2427  2.7178 -2.5741
 4243SOL    HW224366   3.091   3.602   9.535  0.4757 -1.1516 -1.2688
 4244SOL     OW24367   0.875   2.880   7.814  0.4316  0.4660 -0.2059
 4244SOL    HW124368   0.831   2.919   7.738 -0.9283 -0.7127 -0.0195
 4244SOL    HW224369   0.912   2.799   7.778 -2.1153 -0.2629 -1.2555
 4245SOL     OW24370   3.177   3.426   1.546  0.1748 -0.1083 -0.1632
 4245SOL    HW124371   3.096   3.427   1.598  0.7630  1.1756  0.7298
 4245SOL    HW224372   3.157   3.471   1.464 -0.6318 -0.9347 -0.4228
 4246SOL     OW24373   2.171   3.087   6.729  0.5495  0.1155  0.4199
 4246SOL    HW124374   2.226   3.106   6.653 -0.1476 -3.1075 -0.9431
 4246SOL    HW224375   2.100   3.148   6.708  0.7994  0.1566 -0.2971
 4247SOL     OW24376   1.044   3.644   8.522  0.2072  0.1715  0.5108
 4247SOL    HW124377   0.958   3.669   8.555  0.4093  0.4146  0.8632
 4247SOL    HW224378   1.019   3.573   8.463 -0.1488  0.1552  0.6810
 4248SOL     OW24379   3.516   1.778   3.019  0.1854  0.2854 -0.0959
 4248SOL    HW124380   3.530   1.738   2.933  0.7825 -2.1548  1.1574
 4248SOL    HW224381   3.430   1.818   3.007 -0.6418 -1.9765 -1.6554
 4249SOL     OW24382   1.243   2.165  12.177  0.0725 -0.6252 -0.3571
 4249SOL    HW124383   1.154   2.173  12.210  0.8183  0.8873  1.3134
 4249SOL    HW224384   1.282   2.094  12.228 -1.1882 -1.0348  0.0401
 4250SOL     OW24385   4.564   0.227   6.924  0.3648 -0.1076  0.4287
 4250SOL    HW124386   4.591   0.161   6.987 -1.8700  0.5125  2.0460
 4250SOL    HW224387   4.513   0.169   6.867  0.6072 -0.4826  0.6015
 4251SOL     OW24388   3.924   4.232   7.095  0.1242 -0.5442  0.3181
 4251SOL    HW124389   3.852   4.181   7.057 -0.0476  0.1520 -0.2929
 4251SOL    HW224390   3.872   4.309   7.119  2.4822  1.4222 -0.8187
 4252SOL     OW24391   3.432   4.683   8.648  0.1865 -0.3469 -0.3378
 4252SOL    HW124392   3.448   0.041   8.636 -0.9078 -0.2150 -0.8167
 4252SOL    HW224393   3.351   4.682   8.701 -0.3344  0.2761 -1.1206
 4253SOL     OW24394   1.090   0.921   6.300  0.2140  0.4374 -0.0735
 4253SOL    HW124395   0.998   0.946   6.307  0.0171 -0.4652  0.6714
 4253SOL    HW224396   1.101   0.886   6.212  1.3759  1.1446 -0.2024
 4254SOL     OW24397   0.004   2.538   0.709  0.0518 -0.2954 -0.1008
 4254SOL    HW124398   4.715   2.474   0.642  0.8665  0.4276 -1.1075
 4254SOL    HW224399   4.666   2.546   0.768 -0.5387 -0.1630 -0.8544
 4255SOL     OW24400   4.697   3.901   2.383  0.3260  0.6449  0.0991
 4255SOL    HW124401   0.002   3.987   2.393  0.2915  0.4518  1.9333
 4255SOL    HW224402   4.607   3.919   2.355 -0.3911 -2.5601  0.2774
 4256SOL     OW24403   1.682   1.053   2.822  0.0051 -0.3260  0.3612
 4256SOL    HW124404   1.776   1.049   2.839 -0.4649  1.5564  3.3915
 4256SOL    HW224405   1.683   1.094   2.736 -0.5027 -1.5394 -0.2227
 4257SOL     OW24406   0.164   1.099   2.672 -0.1335  0.4806 -0.6433
 4257SOL    HW124407   0.170   1.102   2.768  2.5397 -0.1717 -0.7963
 4257SOL    HW224408   0.069   1.105   2.668 -0.2416 -0.2999  0.5960
 4258SOL     OW24409   4.300   1.492   0.861 -0.1880  0.6671 -0.3921
 4258SOL    HW124410   4.250   1.570   0.886 -1.6734 -0.6605  0.7856
 4258SOL    HW224411   4.333   1.460   0.944 -0.7012  1.3131  0.0659
 4259SOL     OW24412   1.181   3.283   9.920 -0.5949 -0.1373  0.3646
 4259SOL    HW124413   1.200   3.293  10.013  0.0573  0.7460  0.1348
 4259SOL    HW224414   1.092   3.320   9.920 -0.5181  0.0335  1.2446
 4260SOL     OW24415   1.924   3.747   5.169  0.7888 -0.2277 -0.4578
 4260SOL    HW124416   1.952   3.670   5.218  1.3232 -0.7622 -1.6037
 4260SOL    HW224417   1.934   3.809   5.241  1.7210  1.2894 -1.9007
 4261SOL     OW24418   3.043   1.616   4.146 -0.5295 -0.4215 -0.0100
 4261SOL    HW124419   3.117   1.655   4.100 -1.0017 -0.9879 -1.2455
 4261SOL    HW224420   2.977   1.612   4.076 -0.4794 -1.8131  0.0357
 4262SOL     OW24421   2.957   4.478   3.834 -0.2471 -0.1462  0.0120
 4262SOL    HW124422   3.026   4.470   3.900  1.2818  1.1718 -1.4297
 4262SOL    HW224423   2.996   4.555   3.793 -1.2409  0.8937  1.0496
 4263SOL     OW24424   4.107   3.719  16.527  0.3722  0.2348  0.5265
 4263SOL    HW124425   4.119   3.794  16.469  0.3594  0.7677  1.2251
 4263SOL    HW224426   4.018   3.735  16.559  0.1828  0.8965 -0.3251
 4264SOL     OW24427   4.416   0.442   2.874 -0.3474  0.1747  0.2848
 4264SOL    HW124428   4.361   0.518   2.895 -0.9875  0.4505 -2.2842
 4264SOL    HW224429   4.349   0.404   2.817  0.1455  0.5302 -0.5475
 4265SOL     OW24430   4.405   2.677  10.756 -0.0704 -0.0961 -0.5435
 4265SOL    HW124431   4.469   2.742  10.728 -0.6542  0.2797 -1.0094
 4265SOL    HW224432   4.336   2.707  10.696  0.9103  2.3761 -0.4355
 4266SOL     OW24433   1.064   4.052   4.460 -0.6680 -0.1198  0.5418
 4266SOL    HW124434   0.979   4.019   4.490 -0.3975 -2.8112 -1.5938
 4266SOL    HW224435   1.069   4.140   4.497 -2.0762 -0.2809  1.1368
 4267SOL     OW24436   0.579   0.230  15.251  0.1003 -0.6098 -0.0094
 4267SOL    HW124437   0.562   0.316  15.290  2.5101 -0.5641  0.9188
 4267SOL    HW224438   0.493   0.195  15.229 -0.7258  1.0622  0.5377
 4268SOL     OW24439   1.309   0.909  16.823  0.2704 -0.1285  0.5067
 4268SOL    HW124440   1.358   0.910  16.741  0.6295 -0.0865  0.7226
 4268SOL    HW224441   1.224   0.946  16.800  1.2180  0.5315 -1.9294
 4269SOL     OW24442   3.849   2.543   7.932 -0.1575  0.7022 -0.4778
 4269SOL    HW124443   3.794   2.536   8.010  0.1772 -2.9905 -0.5500
 4269SOL    HW224444   3.798   2.501   7.863 -0.7529  0.3416  0.1781
 4270SOL     OW24445   0.420   4.700  17.500  1.0042 -0.0386  0.0128
 4270SOL    HW124446   0.495   0.022  17.515 -0.1363  0.9714  1.7760
 4270SOL    HW224447   0.378   0.019  17.434  1.3515  0.9131  0.5719
 4271SOL     OW24448   2.059   4.507  13.297  0.0135 -0.3942 -0.1095
 4271SOL    HW124449   2.024   4.457  13.370 -3.3708  0.2889 -1.2596
 4271SOL    HW224450   1.981   4.521  13.243  0.1974 -0.2885 -0.3493
 4272SOL     OW24451   0.304   0.233   1.183  0.0219 -0.1337  0.3578
 4272SOL    HW124452   0.279   0.279   1.263 -0.7039 -2.6703  1.5783
 4272SOL    HW224453   0.237   0.165   1.176 -0.8199  0.7879 -0.5688
 4273SOL     OW24454   2.109   3.326  15.059 -0.4730 -0.2317  0.8743
 4273SOL    HW124455   2.132   3.375  14.980  1.3741 -0.0996  1.4898
 4273SOL    HW224456   2.015   3.323  15.043 -0.1053  2.0300 -1.7932
 4274SOL     OW24457   3.204   1.770   7.964 -0.4048  0.5669 -0.4839
 4274SOL    HW124458   3.115   1.735   7.969  0.3961 -1.2288  1.2642
 4274SOL    HW224459   3.246   1.717   7.896  1.3345  0.6304  0.5468
 4275SOL     OW24460   0.115   3.676  11.304  0.0995  0.1577  0.0715
 4275SOL    HW124461   0.194   3.622  11.312 -0.8862 -1.8720 -3.9180
 4275SOL    HW224462   0.054   3.623  11.253  0.0506  1.1396 -0.8971
 4276SOL     OW24463   0.979   1.783   7.360  0.7594  0.8257 -0.0103
 4276SOL    HW124464   1.042   1.833   7.308  0.5339 -0.8469 -1.8784
 4276SOL    HW224465   0.898   1.825   7.330  1.2565  1.5115 -0.4045
 4277SOL     OW24466   2.235   0.072   3.214  0.1291 -0.1575  0.1604
 4277SOL    HW124467   2.307   0.130   3.190 -0.1817  0.6304  1.1290
 4277SOL    HW224468   2.230   0.089   3.308 -1.4736 -1.3931  0.2858
 4278SOL     OW24469   0.180   0.983   5.234  0.6541 -0.3965  0.4424
 4278SOL    HW124470   0.154   1.062   5.282  0.1285  0.8330 -1.8556
 4278SOL    HW224471   0.260   0.961   5.280 -0.5307 -3.4717  1.0070
 4279SOL     OW24472   0.226   1.855   1.969 -0.3471 -0.9205 -0.0783
 4279SOL    HW124473   0.212   1.761   1.956  0.5949 -1.2284  1.1708
 4279SOL    HW224474   0.154   1.889   1.916 -0.4443  0.0619  0.6845
 4280SOL     OW24475   1.810   2.558   9.667  0.2904  0.4523 -0.1962
 4280SOL    HW124476   1.853   2.474   9.652  0.8341  0.8033 -0.6261
 4280SOL    HW224477   1.843   2.579   9.754 -0.9555  0.3842  0.2796
 4281SOL     OW24478   3.932   2.239   5.846  0.0055 -0.0346 -0.3320
 4281SOL    HW124479   3.968   2.152   5.832 -0.3851 -0.2356 -0.0850
 4281SOL    HW224480   3.955   2.260   5.937  0.5626  0.3230 -0.5556
 4282SOL     OW24481   3.088   3.639   5.168 -0.2082 -0.3002  0.0001
 4282SOL    HW124482   3.139   3.572   5.212  1.3207  2.1546  1.9248
 4282SOL    HW224483   3.143   3.655   5.091 -0.2244  1.2240  0.3146
 4283SOL     OW24484   4.573   1.902   4.358 -0.1550  0.1625 -0.2107
 4283SOL    HW124485   4.481   1.881   4.374 -0.5377  0.8896 -1.4187
 4283SOL    HW224486   4.616   1.820   4.382 -0.1156  0.1960 -0.1661
 4284SOL     OW24487   3.823   2.618  17.434  0.2940 -0.0557 -0.3667
 4284SOL    HW124488   3.848   2.679  17.364 -1.1423 -0.6741 -1.4123
 4284SOL    HW224489   3.817   2.675  17.511 -0.8762 -1.7335  0.7853
 4285SOL     OW24490   3.737   2.457  13.301  0.3168  0.0063 -0.1088
 4285SOL    HW124491   3.678   2.386  13.325 -1.4691  0.9517 -1.6698
 4285SOL    HW224492   3.801   2.409  13.249 -0.3464  0.5653 -1.4636
 4286SOL     OW24493   3.288   3.420   7.540 -0.8075  0.5948 -0.2405
 4286SOL    HW124494   3.381   3.427   7.560 -0.8422 -0.3690  0.2824
 4286SOL    HW224495   3.275   3.507   7.504  0.1107  1.1097  0.6896
 4287SOL     OW24496   1.277   0.697   4.712  0.2961  0.3236  0.3037
 4287SOL    HW124497   1.268   0.751   4.633  0.6576 -0.5868 -0.3651
 4287SOL    HW224498   1.303   0.612   4.677 -2.0207  0.0217 -0.6597
 4288SOL     OW24499   1.492   4.074   4.426  0.1795 -0.1473 -0.2699
 4288SOL    HW124500   1.492   4.021   4.506  1.5315 -0.9937 -0.8446
 4288SOL    HW224501   1.582   4.106   4.427  0.6872 -1.6549  1.1550
 4289SOL     OW24502   4.453   0.611   7.635 -0.6909 -0.6210 -0.1229
 4289SOL    HW124503   4.375   0.641   7.588 -2.3507 -2.0419  1.7314
 4289SOL    HW224504   4.454   0.666   7.714  0.4748  0.2331 -0.7294
 4290SOL     OW24505   1.799   0.409   8.423  0.5387  0.6659 -0.2028
 4290SOL    HW124506   1.763   0.323   8.444 -0.0977  1.1923  0.9097
 4290SOL    HW224507   1.846   0.388   8.343  0.2200 -2.9562  0.5394
 4291SOL     OW24508   0.651   1.568   3.445  0.1600 -0.4188  0.3130
 4291SOL    HW124509   0.661   1.589   3.538  0.0598  1.1384 -0.0305
 4291SOL    HW224510   0.558   1.592   3.437  1.3337  3.4260 -1.7827
 4292SOL     OW24511   1.646   1.312   2.087 -0.2535  0.1872  0.3543
 4292SOL    HW124512   1.636   1.377   2.018 -0.1182  0.9933  1.0806
 4292SOL    HW224513   1.681   1.235   2.042  1.0970  0.1303  1.4872
 4293SOL     OW24514   1.708   1.392  15.599 -0.0454  0.3243 -0.9892
 4293SOL    HW124515   1.656   1.330  15.649  0.7747  0.8271  0.4741
 4293SOL    HW224516   1.725   1.456  15.668 -1.4696  0.8226 -1.1169
 4294SOL     OW24517   3.951   3.154   2.325  0.7010  0.2124  0.1417
 4294SOL    HW124518   3.942   3.241   2.287 -0.2818  0.3636  0.7266
 4294SOL    HW224519   3.872   3.113   2.290  1.6879 -1.5702 -0.0315
 4295SOL     OW24520   3.807   3.110   2.945  0.4144  0.2874  0.4123
 4295SOL    HW124521   3.761   3.112   2.861 -3.0771 -1.8021  2.2707
 4295SOL    HW224522   3.775   3.026   2.978 -0.3831 -1.0276 -3.7133
 4296SOL     OW24523   3.591   4.456   5.525  0.2961 -0.0957  0.3351
 4296SOL    HW124524   3.651   4.530   5.515 -0.1816  0.5540  2.3630
 4296SOL    HW224525   3.527   4.499   5.582 -1.9769 -1.0764 -1.4803
 4297SOL     OW24526   1.438   0.922   9.333 -0.5672 -0.7963  0.3204
 4297SOL    HW124527   1.533   0.936   9.332 -0.9256  1.8103  1.7518
 4297SOL    HW224528   1.417   0.845   9.280 -0.7470  0.2733 -1.1642
 4298SOL     OW24529   1.482   0.454  14.753 -0.3561  0.0150  0.0957
 4298SOL    HW124530   1.444   0.443  14.665 -1.2891  0.2102  0.4807
 4298SOL    HW224531   1.557   0.396  14.739  0.6894  1.7559 -1.5900
 4299SOL     OW24532   4.042   4.263  17.525  0.3525 -0.0903 -0.2726
 4299SOL    HW124533   4.124   4.288  17.568  0.3318  0.7438 -0.7150
 4299SOL    HW224534   3.994   4.218  17.594 -0.4661  0.4106 -0.5142
 4300SOL     OW24535   2.304   4.482  13.169 -0.3659  0.4113  0.5176
 4300SOL    HW124536   2.290   4.523  13.084 -0.6556 -1.1464 -0.1864
 4300SOL    HW224537   2.232   4.506  13.227  0.8447  1.4049  1.6160
 4301SOL     OW24538   0.241   2.482   5.690 -0.3838 -0.1407 -0.4087
 4301SOL    HW124539   0.281   2.569   5.688  0.7588 -0.6415  0.6611
 4301SOL    HW224540   0.315   2.429   5.721  0.0287 -0.7174 -2.3798
 4302SOL     OW24541   3.461   3.678   0.778 -0.2383 -0.0249  0.8630
 4302SOL    HW124542   3.424   3.682   0.866  0.4271 -1.8428  1.2396
 4302SOL    HW224543   3.521   3.604   0.794 -0.6501 -0.6564 -0.5470
 4303SOL     OW24544   0.742   2.847   6.325 -0.1018 -0.1756 -0.1272
 4303SOL    HW124545   0.733   2.900   6.246 -1.7989  0.4788  0.5241
 4303SOL    HW224546   0.670   2.886   6.373  0.9217 -0.2710  1.5044
 4304SOL     OW24547   3.328   4.511   9.886  0.0811 -0.4315  0.5764
 4304SOL    HW124548   3.367   4.576   9.944  1.4189 -1.2736  0.6207
 4304SOL    HW224549   3.265   4.467   9.943 -0.5832  1.2743  1.1468
 4305SOL     OW24550   3.493   1.997   3.675  0.1296 -0.4663  0.1413
 4305SOL    HW124551   3.585   1.974   3.690 -0.0995 -2.5610 -1.6449
 4305SOL    HW224552   3.515   2.074   3.623 -0.5400 -0.6719 -0.4551
 4306SOL     OW24553   2.483   0.395   4.342  0.1559  0.1543 -0.3277
 4306SOL    HW124554   2.457   0.486   4.356 -0.8984 -0.2167  0.1898
 4306SOL    HW224555   2.437   0.352   4.415 -1.7938  2.8376  0.0378
 4307SOL     OW24556   0.523   0.724  10.951 -0.3172  0.0655 -0.3641
 4307SOL    HW124557   0.440   0.677  10.961  0.6974 -1.4182  0.9858
 4307SOL    HW224558   0.580   0.666  10.900  0.8756  1.1630 -0.2816
 4308SOL     OW24559   0.382   2.150   6.454 -0.1476  0.2301  0.6507
 4308SOL    HW124560   0.439   2.074   6.443 -2.4005 -1.0436 -2.3896
 4308SOL    HW224561   0.352   2.155   6.363 -1.7473  1.4316  1.2499
 4309SOL     OW24562   4.380   3.155  11.324 -0.8520  0.4124 -0.0353
 4309SOL    HW124563   4.349   3.238  11.288  0.5009  1.4360  1.1400
 4309SOL    HW224564   4.429   3.184  11.401  0.3394  0.3035 -0.7449
 4310SOL     OW24565   2.100   3.297   8.136  0.1956 -0.4014  0.1009
 4310SOL    HW124566   2.008   3.302   8.109  0.5640  0.3293 -1.0170
 4310SOL    HW224567   2.129   3.387   8.146  0.1230 -0.3818  0.1362
 4311SOL     OW24568   4.012   0.225   7.153  0.4700 -0.7981 -0.0832
 4311SOL    HW124569   3.957   0.205   7.077  0.4562  0.3188 -0.3656
 4311SOL    HW224570   3.943   0.239   7.219  0.4724 -0.6615 -0.1085
 4312SOL     OW24571   2.506   1.208   6.113 -0.1609 -0.3932  0.5992
 4312SOL    HW124572   2.415   1.186   6.091  0.0904  0.1711 -1.0308
 4312SOL    HW224573   2.499   1.241   6.203 -0.9564 -1.5138  0.9540
 4313SOL     OW24574   1.315   3.192   9.035 -0.0613 -0.2102  0.2783
 4313SOL    HW124575   1.261   3.137   8.979  1.3316 -0.7297 -0.5572
 4313SOL    HW224576   1.326   3.135   9.112 -2.1056 -2.0888 -0.8240
 4314SOL     OW24577   2.384   1.505  14.997 -0.2683  0.2936 -0.4953
 4314SOL    HW124578   2.444   1.444  14.953 -1.5491 -1.3199 -0.0201
 4314SOL    HW224579   2.318   1.442  15.025  0.7753 -1.0198 -1.0070
 4315SOL     OW24580   2.775   1.986   1.862 -0.1762  0.2719 -0.0769
 4315SOL    HW124581   2.707   1.980   1.929 -1.6891 -1.4333 -1.7383
 4315SOL    HW224582   2.736   1.932   1.793  0.1455 -0.1845  0.0984
 4316SOL     OW24583   1.587   2.825  11.679  0.2684 -0.4502  0.1734
 4316SOL    HW124584   1.607   2.812  11.771  1.6755 -0.3329 -0.1122
 4316SOL    HW224585   1.657   2.777  11.634 -0.4140 -1.1859 -0.1173
 4317SOL     OW24586   2.054   1.779   5.638 -0.1546  0.3850  0.1327
 4317SOL    HW124587   2.084   1.867   5.612 -1.4429  0.1388 -2.2412
 4317SOL    HW224588   1.959   1.786   5.639 -0.1814 -0.1760  1.1889
 4318SOL     OW24589   1.066   3.947   6.305  0.3919 -0.1477 -0.1142
 4318SOL    HW124590   0.970   3.943   6.310  0.4100 -0.7645 -0.2167
 4318SOL    HW224591   1.078   4.042   6.304 -3.0633  0.2512 -3.0778
 4319SOL     OW24592   2.067   2.721   8.512 -0.2889  0.2400  0.2591
 4319SOL    HW124593   2.142   2.781   8.514 -0.7925  0.7549  3.0830
 4319SOL    HW224594   2.010   2.746   8.585  0.2818  2.6155 -0.1020
 4320SOL     OW24595   4.180   1.390   8.522 -0.1735  0.2392  0.5313
 4320SOL    HW124596   4.130   1.308   8.523 -0.2524  0.3099  1.8984
 4320SOL    HW224597   4.127   1.445   8.578 -1.6521  1.0083 -1.6166
 4321SOL     OW24598   3.689   3.043   2.384 -0.0110  0.1187 -0.0116
 4321SOL    HW124599   3.682   3.124   2.435 -0.9427  1.5160 -2.3500
 4321SOL    HW224600   3.624   3.064   2.317 -1.7298 -1.7096  1.0788
 4322SOL     OW24601   2.927   1.378   2.724 -0.3982 -0.2871 -0.3237
 4322SOL    HW124602   2.989   1.395   2.795 -2.1277 -1.8343  1.5493
 4322SOL    HW224603   2.917   1.460   2.676 -1.8137 -0.3146 -0.0627
 4323SOL     OW24604   3.659   2.789   4.038  0.1993 -0.1673 -0.3195
 4323SOL    HW124605   3.704   2.858   3.989 -0.0244  0.7458  0.7646
 4323SOL    HW224606   3.567   2.808   4.020  0.9271  0.8175 -2.9824
 4324SOL     OW24607   2.641   0.224  13.942 -0.0997 -0.3007  0.0454
 4324SOL    HW124608   2.736   0.232  13.945  0.0410 -1.5818 -1.1437
 4324SOL    HW224609   2.616   0.191  13.856  1.3015 -1.8498  0.2335
 4325SOL     OW24610   0.579   1.984   5.338  0.0374 -0.1977  0.2842
 4325SOL    HW124611   0.569   2.067   5.385  1.0739  0.8945 -1.3966
 4325SOL    HW224612   0.612   2.018   5.255  1.4908  0.2543  1.0619
 4326SOL     OW24613   1.281   2.219   5.733 -0.5170  0.1992  0.0193
 4326SOL    HW124614   1.328   2.154   5.785 -0.6038 -0.1620 -0.3545
 4326SOL    HW224615   1.281   2.285   5.802  2.6170 -0.0460  0.2442
 4327SOL     OW24616   0.742   1.080   0.774 -0.0814 -0.0540  0.3754
 4327SOL    HW124617   0.725   1.174   0.779 -0.1876 -0.0186 -0.5473
 4327SOL    HW224618   0.732   1.067   0.680 -1.3174  0.1826  0.4704
 4328SOL     OW24619   4.119   1.950   9.831 -0.0498 -0.1577 -0.9765
 4328SOL    HW124620   4.144   2.004   9.906  0.3267 -2.2248  0.3859
 4328SOL    HW224621   4.039   1.909   9.865  0.5218 -0.9766 -0.6143
 4329SOL     OW24622   1.489   4.353   8.350 -0.6033  0.4118 -0.3517
 4329SOL    HW124623   1.397   4.331   8.362 -0.9510  1.1197 -1.7573
 4329SOL    HW224624   1.473   4.386   8.262  1.8586 -1.8677 -1.6496
 4330SOL     OW24625   0.920   3.563   2.277 -0.0064  0.4055 -0.0973
 4330SOL    HW124626   0.867   3.483   2.269  0.2925  0.3189 -1.2542
 4330SOL    HW224627   0.883   3.614   2.205  0.7605  0.5857 -0.3612
 4331SOL     OW24628   2.447   3.345   3.367  0.1567 -0.1711 -0.2149
 4331SOL    HW124629   2.510   3.357   3.437  0.5001 -2.2990 -0.1517
 4331SOL    HW224630   2.424   3.255   3.392 -1.1936 -0.4050 -2.2983
 4332SOL     OW24631   3.330   2.172   4.264  0.0065 -0.2388 -0.3434
 4332SOL    HW124632   3.303   2.212   4.181  0.1519 -0.1623 -0.3552
 4332SOL    HW224633   3.363   2.085   4.242  1.4415  0.0910  0.4720
 4333SOL     OW24634   2.586   0.268   3.797  0.0590 -0.4642 -0.2555
 4333SOL    HW124635   2.505   0.318   3.789 -0.2060 -1.2133 -2.1123
 4333SOL    HW224636   2.590   0.266   3.893  0.4469  1.9521 -0.2211
 4334SOL     OW24637   1.527   1.887   6.823  0.5753 -0.4860  0.1530
 4334SOL    HW124638   1.438   1.909   6.850 -0.4627 -0.7501 -3.0426
 4334SOL    HW224639   1.537   1.795   6.850 -0.2638 -0.2552  1.2687
 4335SOL     OW24640   3.532   4.416   3.621 -0.2151 -0.2022 -0.2879
 4335SOL    HW124641   3.591   4.397   3.548 -0.6514 -0.7840 -0.4837
 4335SOL    HW224642   3.495   4.498   3.588 -0.3447  0.0172  0.3917
 4336SOL     OW24643   3.686   2.346   9.236 -0.5839  0.2798  0.0077
 4336SOL    HW124644   3.671   2.364   9.329  1.6283  0.1036  0.3889
 4336SOL    HW224645   3.774   2.311   9.230  0.2550  2.2896  0.3149
 4337SOL     OW24646   0.360   0.732   5.599  0.1358  0.0201 -0.5557
 4337SOL    HW124647   0.319   0.685   5.671  1.1120 -0.7485 -0.5016
 4337SOL    HW224648   0.448   0.695   5.590  0.5461  0.6877  0.7047
 4338SOL     OW24649   3.601   1.840  12.153  0.3389  0.1395  0.2591
 4338SOL    HW124650   3.665   1.769  12.142 -0.3922 -0.6289  0.9980
 4338SOL    HW224651   3.646   1.917  12.119  2.3680 -1.6004 -0.9683
 4339SOL     OW24652   0.692   0.628   7.790  0.7098  0.5007  0.5372
 4339SOL    HW124653   0.610   0.624   7.839  0.8100 -0.1616  0.6513
 4339SOL    HW224654   0.726   0.700   7.844  0.1940  0.8923  0.3429
 4340SOL     OW24655   2.727   1.312   7.180 -0.6307  1.0125 -0.0421
 4340SOL    HW124656   2.724   1.263   7.098 -0.4768  0.3671  0.3436
 4340SOL    HW224657   2.660   1.269   7.232 -0.4907  0.0270 -0.6810
 4341SOL     OW24658   1.516   1.240   4.483  0.6535  0.1932  0.4887
 4341SOL    HW124659   1.469   1.318   4.512  1.3185  0.5023  0.7535
 4341SOL    HW224660   1.608   1.268   4.486  1.1678 -1.7123  2.4228
 4342SOL     OW24661   3.944   2.371   5.134 -0.1366  0.0937  0.2018
 4342SOL    HW124662   3.946   2.405   5.223  0.6077 -0.8566  0.5559
 4342SOL    HW224663   3.855   2.337   5.123 -0.5921  1.3125  0.0956
 4343SOL     OW24664   1.796   4.364  12.364  0.2747  0.2924  0.3317
 4343SOL    HW124665   1.708   4.326  12.363 -0.3792  1.7685  0.2312
 4343SOL    HW224666   1.847   4.299  12.410 -0.7746  0.2710  1.4583
 4344SOL     OW24667   0.675   3.885  11.715  0.6731  0.6875  0.1889
 4344SOL    HW124668   0.598   3.942  11.715  0.9841  1.1128  0.5689
 4344SOL    HW224669   0.653   3.809  11.662 -1.2878 -0.1762  2.1991
 4345SOL     OW24670   4.356   3.280   7.258 -0.5826  0.0010 -0.1823
 4345SOL    HW124671   4.327   3.371   7.264  0.8184  0.4087  0.3559
 4345SOL    HW224672   4.271   3.236   7.267  0.0604 -1.4140 -0.8863
 4346SOL     OW24673   1.860   1.488   4.996 -0.3552  0.1335  0.0500
 4346SOL    HW124674   1.791   1.533   5.045  0.7214  1.2043  0.5865
 4346SOL    HW224675   1.810   1.413   4.962  0.2799 -1.1836  1.9877
 4347SOL     OW24676   3.547   2.816   3.200  0.8912  0.2442  0.6787
 4347SOL    HW124677   3.475   2.753   3.201  1.2038 -0.1233 -0.7974
 4347SOL    HW224678   3.500   2.888   3.242 -0.8146 -1.8608  2.3961
 4348SOL     OW24679   4.254   1.783  11.462  0.0069  0.5712  0.0768
 4348SOL    HW124680   4.241   1.788  11.367 -0.5678 -2.0980  0.0082
 4348SOL    HW224681   4.305   1.864  11.471  1.1212 -0.3479  2.0090
 4349SOL     OW24682   4.122   2.883   2.283  0.2702  0.3888  0.3111
 4349SOL    HW124683   4.123   2.937   2.204 -0.5615  1.8801  1.3156
 4349SOL    HW224684   4.051   2.923   2.333  0.5669  0.2787  0.8277
 4350SOL     OW24685   2.254   3.877   5.488 -0.4753 -0.2673  0.2100
 4350SOL    HW124686   2.278   3.801   5.435  0.6905 -1.4039  2.3835
 4350SOL    HW224687   2.182   3.839   5.538  0.1319  0.5090  1.6601
 4351SOL     OW24688   3.518   2.725   7.905 -0.5386  0.4893  0.1365
 4351SOL    HW124689   3.597   2.775   7.886  1.5009 -2.1073  1.9051
 4351SOL    HW224690   3.484   2.747   7.992  1.2578  1.3111  0.6255
 4352SOL     OW24691   2.606   2.018  16.453  0.2241 -0.4352  0.1125
 4352SOL    HW124692   2.578   2.109  16.447  0.4816 -0.0400  5.1468
 4352SOL    HW224693   2.642   2.022  16.542 -0.4845  2.8420  0.2554
 4353SOL     OW24694   2.325   4.449   4.139 -0.3025  0.0052  0.3167
 4353SOL    HW124695   2.334   4.405   4.224 -0.0068 -1.2057 -0.3321
 4353SOL    HW224696   2.322   4.374   4.080  0.5481 -1.0018  1.5358
 4354SOL     OW24697   3.802   0.785   2.448 -0.0295  0.2131  0.3195
 4354SOL    HW124698   3.885   0.825   2.421  0.3508 -2.2833 -2.1053
 4354SOL    HW224699   3.743   0.860   2.461  0.1846  0.0799  2.0601
 4355SOL     OW24700   3.790   1.947   2.902  0.2301 -0.3457 -0.0861
 4355SOL    HW124701   3.735   1.997   2.841  0.6709  0.1434 -0.0761
 4355SOL    HW224702   3.732   1.927   2.975  0.0487 -0.6698 -0.3165
 4356SOL     OW24703   3.276   1.453   2.571  0.2130  0.4134  0.3373
 4356SOL    HW124704   3.213   1.453   2.499  1.8811 -2.0640 -1.1673
 4356SOL    HW224705   3.346   1.397   2.536 -0.2285  0.8393 -1.2401
 4357SOL     OW24706   2.940   2.989   2.661  0.3966 -0.1554 -0.6658
 4357SOL    HW124707   3.014   3.047   2.676  0.2111  0.4217 -1.9848
 4357SOL    HW224708   2.865   3.036   2.696  0.3711 -0.8055  0.1734
 4358SOL     OW24709   4.141   3.320   1.333  0.1434  0.5934  0.4733
 4358SOL    HW124710   4.110   3.381   1.265  1.6076 -0.2036 -0.9166
 4358SOL    HW224711   4.100   3.356   1.412  1.8118 -0.1806  1.6985
 4359SOL     OW24712   1.014   2.840   1.227  0.4838  0.2946  0.2940
 4359SOL    HW124713   0.933   2.875   1.191  0.4324 -0.1604 -0.0267
 4359SOL    HW224714   1.030   2.902   1.298 -1.6090  0.6364  0.4668
 4360SOL     OW24715   2.124   4.151  16.831 -0.3050 -0.5956  0.1823
 4360SOL    HW124716   2.117   4.191  16.745 -0.3021 -1.2418 -0.1156
 4360SOL    HW224717   2.162   4.069  16.800  1.5618  1.1470 -2.1002
 4361SOL     OW24718   4.279   3.985   5.592  0.2118  0.1840 -0.3516
 4361SOL    HW124719   4.317   3.922   5.654  1.4765  0.5331 -0.7616
 4361SOL    HW224720   4.188   3.957   5.589  0.1029  0.2898  2.0521
 4362SOL     OW24721   0.065   0.368   6.901  0.3376  0.4024  0.0956
 4362SOL    HW124722   0.125   0.316   6.848 -0.0536  1.5827 -1.5129
 4362SOL    HW224723   4.714   0.329   6.885  0.8081 -1.4480  2.0590
 4363SOL     OW24724   0.644   4.295   8.870  0.1350 -0.0726 -0.1529
 4363SOL    HW124725   0.550   4.305   8.854 -0.2936 -1.9168  1.0833
 4363SOL    HW224726   0.678   4.302   8.781 -2.3899 -1.7958 -1.2559
 4364SOL     OW24727   1.234   0.330   8.393  0.1626  0.0065 -0.1416
 4364SOL    HW124728   1.297   0.295   8.331 -0.4652  0.3755 -0.9860
 4364SOL    HW224729   1.213   0.259   8.455 -0.9526  0.8242  0.4352
 4365SOL     OW24730   0.636   0.830   7.572 -0.3186  0.3418 -0.2035
 4365SOL    HW124731   0.651   0.920   7.601 -0.7695  0.5942 -0.7524
 4365SOL    HW224732   0.652   0.789   7.657  0.8980 -0.5166 -0.8557
 4366SOL     OW24733   3.263   3.656   4.390 -0.0742 -0.2300 -0.4339
 4366SOL    HW124734   3.288   3.566   4.366  1.4395 -0.6867  2.8491
 4366SOL    HW224735   3.292   3.660   4.481  0.7163 -0.1747 -0.6902
 4367SOL     OW24736   2.259   2.937   4.513 -0.0292 -0.0668  0.4128
 4367SOL    HW124737   2.197   2.991   4.563  0.1803  1.0361 -0.5302
 4367SOL    HW224738   2.213   2.929   4.430 -1.4900  0.2934  1.1762
 4368SOL     OW24739   3.294   0.793   6.161 -0.2403 -0.0947 -0.3533
 4368SOL    HW124740   3.317   0.777   6.252  2.4317 -0.0730 -1.0172
 4368SOL    HW224741   3.340   0.725   6.111 -0.6221 -0.4132 -0.2649
 4369SOL     OW24742   1.091   0.395   4.977  0.0393  0.2236  0.1053
 4369SOL    HW124743   1.039   0.315   4.981 -1.6986  1.3627  0.0876
 4369SOL    HW224744   1.116   0.406   5.068 -1.2545  1.2674  0.3359
 4370SOL     OW24745   0.845   3.386  11.143 -0.2802  0.5085  0.8242
 4370SOL    HW124746   0.806   3.434  11.071  0.6603 -3.3405 -2.2652
 4370SOL    HW224747   0.907   3.331  11.096 -2.1295 -0.8695 -0.0401
 4371SOL     OW24748   2.215   2.652  15.153 -0.2155 -0.1107 -0.9159
 4371SOL    HW124749   2.136   2.680  15.108 -1.3805  1.0947  1.8546
 4371SOL    HW224750   2.214   2.556  15.155 -0.4380 -0.0033  3.6402
 4372SOL     OW24751   3.492   3.822   7.759  0.0807  0.1514  0.0254
 4372SOL    HW124752   3.540   3.898   7.794  1.8547 -1.5087  1.1820
 4372SOL    HW224753   3.519   3.849   7.671 -0.4664  0.9003  0.0900
 4373SOL     OW24754   0.047   0.718   4.679  0.4731 -0.5385 -0.5201
 4373SOL    HW124755   0.103   0.714   4.602  1.0409 -1.4235 -0.0646
 4373SOL    HW224756   0.048   0.811   4.702 -0.0200 -0.9051  1.0471
 4374SOL     OW24757   3.345   0.114   8.336  0.1228 -0.3190 -0.1024
 4374SOL    HW124758   3.271   0.175   8.326 -0.4081 -0.6387  1.8484
 4374SOL    HW224759   3.378   0.131   8.424  1.4518 -2.3068 -0.2343
 4375SOL     OW24760   1.399   1.675  13.999  0.4425 -0.2592  0.1081
 4375SOL    HW124761   1.488   1.642  14.010 -0.1573 -1.9868 -0.2032
 4375SOL    HW224762   1.388   1.740  14.069 -1.6991  0.4085 -0.8519
 4376SOL     OW24763   0.259   4.185  12.670 -0.0672  0.3633  0.2933
 4376SOL    HW124764   0.277   4.279  12.680  1.5210  0.0868 -0.0732
 4376SOL    HW224765   0.344   4.151  12.696  0.0481 -1.0558 -2.0610
 4377SOL     OW24766   4.358   3.277  14.302  0.6530 -0.6631  0.4579
 4377SOL    HW124767   4.347   3.202  14.361 -2.5800 -0.3907  0.1994
 4377SOL    HW224768   4.351   3.346  14.368  0.9236 -0.9286  0.7661
 4378SOL     OW24769   3.383   1.764   6.918  0.3641 -0.2625 -0.0390
 4378SOL    HW124770   3.320   1.815   6.968  0.7661  0.9384 -0.7562
 4378SOL    HW224771   3.372   1.792   6.827 -0.8695  0.8121  0.4501
 4379SOL     OW24772   1.010   4.005   8.948  0.5640  0.3164  0.4920
 4379SOL    HW124773   0.916   4.000   8.928  1.1185 -3.5875 -1.0689
 4379SOL    HW224774   1.045   3.971   8.866 -1.3639 -0.6819  0.0704
 4380SOL     OW24775   2.785   2.135   7.358  0.5988  0.0048  0.2109
 4380SOL    HW124776   2.830   2.052   7.348 -0.7272 -0.9584  2.2872
 4380SOL    HW224777   2.851   2.185   7.407 -1.4341  2.5281  0.4186
 4381SOL     OW24778   2.199   1.730  15.503  0.2341 -0.3401  0.4735
 4381SOL    HW124779   2.164   1.641  15.515  1.8973 -0.9397  0.9045
 4381SOL    HW224780   2.231   1.730  15.413  1.4616 -0.9525  0.9202
 4382SOL     OW24781   3.997   0.419   7.475  0.6342 -0.3976  0.4838
 4382SOL    HW124782   3.935   0.418   7.548 -0.2324 -0.9169 -0.2583
 4382SOL    HW224783   3.982   0.330   7.443  1.5383 -0.2943 -0.2322
 4383SOL     OW24784   0.415   3.729   7.121 -0.1869 -0.0951 -0.3903
 4383SOL    HW124785   0.350   3.761   7.184  2.1802  0.6092  1.6952
 4383SOL    HW224786   0.373   3.656   7.076 -1.4789  1.1847 -1.2697
 4384SOL     OW24787   0.727   4.224  11.180 -0.3648 -0.6018  0.0900
 4384SOL    HW124788   0.776   4.169  11.118  1.5826 -0.0604  1.1298
 4384SOL    HW224789   0.798   4.277  11.217  0.1010 -1.1177 -0.0448
 4385SOL     OW24790   4.107   1.937   8.177  0.1588  0.1776 -0.2594
 4385SOL    HW124791   4.124   2.015   8.230  1.5849 -1.4560  1.6868
 4385SOL    HW224792   4.198   1.907   8.174  0.1888  0.0777  1.6353
 4386SOL     OW24793   2.400   4.381  11.212 -0.2978 -0.2772  0.5013
 4386SOL    HW124794   2.345   4.408  11.286  0.3503  3.0406 -0.2584
 4386SOL    HW224795   2.479   4.432  11.227 -0.6664  0.0409  1.4114
 4387SOL     OW24796   2.567   2.207   3.212  0.2854 -0.3568 -0.2509
 4387SOL    HW124797   2.662   2.224   3.213 -0.0997  1.7354  0.7942
 4387SOL    HW224798   2.557   2.112   3.220 -0.8748 -0.1875  0.2888
 4388SOL     OW24799   4.294   4.290  14.285  1.0940  0.3465 -0.3900
 4388SOL    HW124800   4.220   4.265  14.229  2.7921 -0.8576 -2.0551
 4388SOL    HW224801   4.352   4.218  14.263  0.6121 -0.5571  1.3090
 4389SOL     OW24802   3.654   0.407   6.299  0.0070  0.1013 -0.5650
 4389SOL    HW124803   3.618   0.488   6.263  0.3976  0.0359 -1.1002
 4389SOL    HW224804   3.624   0.347   6.231 -0.6153  0.4816 -0.6325
 4390SOL     OW24805   2.057   0.190  15.289 -0.0813 -0.4479 -0.7352
 4390SOL    HW124806   2.145   0.153  15.298  0.8030  1.2054 -2.5379
 4390SOL    HW224807   2.077   0.266  15.234  0.1429 -0.2975 -0.4434
 4391SOL     OW24808   0.987   0.716  14.017 -0.0083 -0.1650  0.4416
 4391SOL    HW124809   1.039   0.665  13.955 -0.6526  1.3295 -1.2989
 4391SOL    HW224810   0.913   0.656  14.025  0.6954 -0.7011  2.9554
 4392SOL     OW24811   2.776   3.922   9.207  0.1835  0.0660  0.3027
 4392SOL    HW124812   2.733   4.007   9.215 -0.1757  0.1888 -2.9507
 4392SOL    HW224813   2.861   3.940   9.248  0.0136  2.1371 -0.2618
 4393SOL     OW24814   3.263   1.499  15.966  0.0259  0.1928 -0.5741
 4393SOL    HW124815   3.177   1.475  16.000 -0.1111  0.1523 -0.9519
 4393SOL    HW224816   3.271   1.467  15.876 -0.8238 -1.1966 -0.1628
 4394SOL     OW24817   4.322   2.488  10.959  0.1090 -0.1498  0.3604
 4394SOL    HW124818   4.298   2.570  11.002 -1.0379  0.4529 -1.4160
 4394SOL    HW224819   4.360   2.523  10.878  2.0679 -1.4190  0.7333
 4395SOL     OW24820   1.327   1.458   4.541 -0.0297 -0.1161 -0.1942
 4395SOL    HW124821   1.288   1.389   4.595  1.7776 -0.6000  0.5024
 4395SOL    HW224822   1.305   1.539   4.587  1.4020  0.5321 -0.6515
 4396SOL     OW24823   1.237   1.261   4.692  0.0203  0.2013 -0.4331
 4396SOL    HW124824   1.143   1.247   4.686  0.0391 -0.9184  1.8630
 4396SOL    HW224825   1.244   1.255   4.787  2.2860 -0.9828 -0.6628
 4397SOL     OW24826   1.958   2.842   9.117 -0.2814  0.5270 -0.0573
 4397SOL    HW124827   2.030   2.837   9.055 -0.9335  2.4780 -0.9506
 4397SOL    HW224828   1.907   2.765   9.091 -0.4931  1.1594 -1.5124
 4398SOL     OW24829   3.481   4.108   2.104 -0.0438 -0.2414  0.2439
 4398SOL    HW124830   3.449   4.051   2.035  0.2326  0.8802 -0.8024
 4398SOL    HW224831   3.413   4.174   2.096 -1.5403 -1.8465 -0.0734
 4399SOL     OW24832   4.234   3.740   7.956  0.3001  0.0134  0.3342
 4399SOL    HW124833   4.195   3.679   7.894  0.2808  0.4557 -0.0898
 4399SOL    HW224834   4.159   3.747   8.014  0.2834  0.5569  0.2447
 4400SOL     OW24835   1.667   2.740  11.186 -0.0011 -0.5810 -0.4212
 4400SOL    HW124836   1.662   2.799  11.261 -0.0783  0.2475 -1.0730
 4400SOL    HW224837   1.729   2.675  11.219  0.0350 -0.1477  0.3693
 4401SOL     OW24838   1.118   4.360   8.105 -0.0481 -0.2530 -0.4279
 4401SOL    HW124839   1.072   4.286   8.064 -1.1115  1.8526 -3.0505
 4401SOL    HW224840   1.043   4.412   8.134  0.5680 -0.9349  2.3862
 4402SOL     OW24841   2.652   4.308   8.310  0.1848  0.1344  0.5210
 4402SOL    HW124842   2.635   4.223   8.268 -1.4964  1.4507 -1.4394
 4402SOL    HW224843   2.686   4.352   8.232 -3.9242  1.6333 -0.3927
 4403SOL     OW24844   0.404   2.292   2.401  0.1983 -0.3438  0.0543
 4403SOL    HW124845   0.414   2.332   2.488  1.6168  2.2309 -1.3127
 4403SOL    HW224846   0.418   2.201   2.428  1.9028  0.0869  0.6136
 4404SOL     OW24847   0.830   3.147   8.364 -0.0932  0.5338  0.1829
 4404SOL    HW124848   0.735   3.143   8.376 -0.2627  2.0264 -0.6701
 4404SOL    HW224849   0.842   3.106   8.278 -3.8878  0.9594 -0.5464
 4405SOL     OW24850   4.407   3.867  16.368  0.3618 -0.3203  0.1988
 4405SOL    HW124851   4.347   3.940  16.384 -1.2355 -1.7660  0.9123
 4405SOL    HW224852   4.407   3.816  16.449 -0.4416  2.7700  2.1688
 4406SOL     OW24853   0.565   3.337   5.608 -0.3046  0.0709  0.0954
 4406SOL    HW124854   0.503   3.281   5.562 -0.9141  2.1822 -1.6923
 4406SOL    HW224855   0.519   3.348   5.691  0.8800 -0.2907  0.8112
 4407SOL     OW24856   1.108   4.445   6.671 -0.8034  0.2947  0.3374
 4407SOL    HW124857   1.051   4.502   6.722 -1.3473 -0.0739  0.1386
 4407SOL    HW224858   1.061   4.454   6.588 -0.4484 -1.9712 -0.1139
 4408SOL     OW24859   0.636   1.001  17.158  0.2814  0.2188 -0.5736
 4408SOL    HW124860   0.729   1.015  17.139  0.2884 -0.9236 -1.4011
 4408SOL    HW224861   0.617   0.926  17.101 -0.7935 -1.5721  2.1197
 4409SOL     OW24862   0.065   2.034  15.302 -0.5236  0.2692  0.3177
 4409SOL    HW124863   0.115   2.111  15.331  0.1691 -0.1597  0.2571
 4409SOL    HW224864   4.735   2.079  15.248 -1.2852 -0.7406  0.4023
 4410SOL     OW24865   0.211   1.463  10.319  0.0221 -0.1439 -0.0200
 4410SOL    HW124866   0.181   1.386  10.368  1.2193  1.0319  2.5826
 4410SOL    HW224867   0.288   1.427  10.275  0.0480 -2.4027  1.8645
 4411SOL     OW24868   0.070   0.455   5.308 -0.2142  0.4331 -0.0184
 4411SOL    HW124869   0.082   0.464   5.403  0.2645  0.5041 -0.0886
 4411SOL    HW224870   0.164   0.462   5.293 -0.5941 -0.0580 -2.5164
 4412SOL     OW24871   0.020   1.591   4.737  0.4021  0.4900 -0.2516
 4412SOL    HW124872   0.115   1.581   4.742  0.1401 -2.4434 -1.4120
 4412SOL    HW224873   4.731   1.605   4.828 -0.0982  0.3561 -0.3610
 4413SOL     OW24874   2.480   1.323   4.355 -0.0546  0.2739  0.0844
 4413SOL    HW124875   2.529   1.390   4.308  1.1651 -0.4484  0.3113
 4413SOL    HW224876   2.402   1.378   4.362 -0.6436 -0.2041 -2.9481
 4414SOL     OW24877   0.091   3.613   4.976 -0.2220 -0.0800 -0.2632
 4414SOL    HW124878   4.735   3.593   4.961  0.1500 -1.0892 -1.2566
 4414SOL    HW224879   0.096   3.617   5.072 -0.3602 -0.6820 -0.2265
 4415SOL     OW24880   1.176   3.027   4.750  0.9175 -0.1252 -0.7642
 4415SOL    HW124881   1.117   2.953   4.765 -0.4263  1.0745 -0.1207
 4415SOL    HW224882   1.144   3.085   4.819 -0.6710 -2.5139  0.4979
 4416SOL     OW24883   0.599   0.725  14.575  0.6214  0.1066  0.0372
 4416SOL    HW124884   0.655   0.737  14.652  0.2199 -2.3009  0.7254
 4416SOL    HW224885   0.657   0.677  14.516  0.5428 -2.1694  1.7707
 4417SOL     OW24886   1.049   2.051   2.068 -0.3056  0.5946  0.3383
 4417SOL    HW124887   1.016   1.964   2.091  0.5418  0.1638 -0.0772
 4417SOL    HW224888   0.970   2.089   2.028 -0.1596 -0.9089 -1.3727
 4418SOL     OW24889   0.705   0.728  12.019 -0.5289  0.3135  0.1788
 4418SOL    HW124890   0.726   0.637  12.039 -0.9368  0.3976  0.9879
 4418SOL    HW224891   0.796   0.759  12.010 -1.2964  2.4566 -0.0969
 4419SOL     OW24892   3.552   4.253   7.664  0.1104 -0.0914 -0.1119
 4419SOL    HW124893   3.466   4.230   7.628  0.4071  0.6366 -1.2934
 4419SOL    HW224894   3.615   4.234   7.594 -0.0290  0.4058 -0.3767
 4420SOL     OW24895   4.668   0.964   9.786 -0.1678 -0.1992  0.0956
 4420SOL    HW124896   4.609   0.889   9.795 -0.0992 -0.2389  0.2042
 4420SOL    HW224897   4.608   1.039   9.793  0.2999  0.2665 -0.9089
 4421SOL     OW24898   3.985   3.957  10.577  0.0232 -0.1647 -0.0494
 4421SOL    HW124899   3.957   4.022  10.642 -1.0185 -1.5878  0.9352
 4421SOL    HW224900   3.977   4.016  10.502 -1.4427  0.3372  0.4785
 4422SOL     OW24901   3.509   3.558   5.650  0.1420  0.5539  0.2085
 4422SOL    HW124902   3.450   3.633   5.654  1.9856  1.8872  2.6465
 4422SOL    HW224903   3.587   3.596   5.609 -0.1782  0.1180 -0.8261
 4423SOL     OW24904   2.761   0.194   5.895  0.2052 -0.3932 -0.7490
 4423SOL    HW124905   2.815   0.239   5.829  0.4858 -0.6274 -0.6830
 4423SOL    HW224906   2.680   0.242   5.905  1.1855  1.1828 -0.4094
 4424SOL     OW24907   4.080   4.153   3.741  0.0198  0.1957  0.5335
 4424SOL    HW124908   4.142   4.205   3.690 -1.7983  2.4903  0.6899
 4424SOL    HW224909   4.128   4.070   3.749 -1.1487 -0.5722 -0.3408
 4425SOL     OW24910   2.774   3.116  10.055 -1.1210 -0.3675  0.1006
 4425SOL    HW124911   2.691   3.134  10.100 -0.7682  1.2783  0.0912
 4425SOL    HW224912   2.819   3.054  10.112  0.9627  0.7970 -0.3131
 4426SOL     OW24913   1.844   3.893   2.108 -0.7516 -0.3935 -0.1407
 4426SOL    HW124914   1.895   3.974   2.109 -0.7519 -0.3918 -0.4232
 4426SOL    HW224915   1.828   3.870   2.017 -2.1227 -0.7244  0.1886
 4427SOL     OW24916   3.798   3.695   2.191 -0.5567 -0.4679  0.0562
 4427SOL    HW124917   3.707   3.668   2.177 -0.1134 -1.6164 -0.5538
 4427SOL    HW224918   3.814   3.757   2.120 -1.0645  1.3688  1.5343
 4428SOL     OW24919   3.159   1.069   9.694 -0.0861 -0.0271 -0.9659
 4428SOL    HW124920   3.069   1.083   9.723  0.3937 -1.8818  1.4141
 4428SOL    HW224921   3.150   0.989   9.643 -0.2039 -0.5859 -0.0642
 4429SOL     OW24922   0.331   0.554  11.416 -0.6351 -0.3238 -0.1866
 4429SOL    HW124923   0.370   0.616  11.477 -1.4120 -0.1795  0.1534
 4429SOL    HW224924   0.401   0.536  11.353  0.2967 -1.7411  1.2677
 4430SOL     OW24925   0.768   0.640   2.100  0.0939  0.1050 -0.2065
 4430SOL    HW124926   0.852   0.669   2.065 -0.6297  3.5009  0.9402
 4430SOL    HW224927   0.786   0.547   2.116 -1.9730  0.0801  1.9605
 4431SOL     OW24928   3.929   0.785   2.062  0.4066  0.2221  0.2840
 4431SOL    HW124929   3.879   0.792   1.981  0.3971 -0.0114  0.2697
 4431SOL    HW224930   3.946   0.877   2.082  0.7365  0.0307  0.8925
 4432SOL     OW24931   1.023   2.896  16.609 -0.2420 -0.0187 -0.3561
 4432SOL    HW124932   1.094   2.864  16.553 -1.4738 -1.4397 -1.1130
 4432SOL    HW224933   1.033   2.836  16.683  0.7680  0.3156 -0.2337
 4433SOL     OW24934   2.423   0.979   3.045  0.2470 -0.4810 -0.3065
 4433SOL    HW124935   2.451   0.904   3.097 -0.4900  0.6605  1.7270
 4433SOL    HW224936   2.334   0.954   3.023  0.3285 -2.0040  1.1580
 4434SOL     OW24937   1.512   2.762   9.825 -0.1764  0.1366 -0.3722
 4434SOL    HW124938   1.601   2.798   9.824 -0.8211  1.8174  3.9622
 4434SOL    HW224939   1.468   2.846   9.815  0.6992  0.5787 -0.5746
 4435SOL     OW24940   2.195   4.664   4.285 -0.1315  0.6788 -0.3726
 4435SOL    HW124941   2.160   0.013   4.259  1.0965  1.4860  0.6239
 4435SOL    HW224942   2.232   4.622   4.207  0.4965  0.7953 -0.1353
 4436SOL     OW24943   3.023   3.268  10.036  0.0172 -0.4070  0.2539
 4436SOL    HW124944   3.014   3.363  10.029  0.9411 -0.3240  0.1546
 4436SOL    HW224945   2.934   3.237  10.055 -0.2791  0.7855  0.8221
 4437SOL     OW24946   2.164   1.549   2.250  0.1811 -0.0442 -0.0092
 4437SOL    HW124947   2.110   1.582   2.322 -1.2351 -0.4024 -0.8916
 4437SOL    HW224948   2.133   1.605   2.178 -2.3610 -2.0153 -0.4603
 4438SOL     OW24949   0.238   0.176  16.513 -0.2130  0.2354 -0.2599
 4438SOL    HW124950   0.169   0.228  16.472 -2.7746 -1.4200  1.9532
 4438SOL    HW224951   0.180   0.113  16.557  1.2204 -0.7222  0.2709
 4439SOL     OW24952   4.343   1.783  12.811  0.0363  0.2562 -0.0855
 4439SOL    HW124953   4.413   1.752  12.867  1.1045  0.7092 -1.1637
 4439SOL    HW224954   4.388   1.792  12.727  0.8775 -1.4096  0.1930
 4440SOL     OW24955   1.574   3.915   3.834  0.3449  0.3354  0.1041
 4440SOL    HW124956   1.555   3.994   3.884  1.4997 -0.3205  1.5676
 4440SOL    HW224957   1.504   3.855   3.861  0.3487 -1.2041 -3.2462
 4441SOL     OW24958   4.642   0.857  14.519 -0.0496 -0.7096  0.1430
 4441SOL    HW124959   4.732   0.883  14.539 -0.0814 -1.4126  1.2020
 4441SOL    HW224960   4.607   0.860  14.608 -0.1785 -3.0071  0.1680
 4442SOL     OW24961   3.556   0.843   8.098 -0.0917 -0.3795 -0.0027
 4442SOL    HW124962   3.607   0.886   8.028  1.1904 -2.5363 -0.3933
 4442SOL    HW224963   3.477   0.801   8.064 -0.1857 -0.0689 -0.1743
 4443SOL     OW24964   0.049   0.145  16.874 -0.0988  0.1640  0.8450
 4443SOL    HW124965   0.071   0.159  16.967  2.3035  1.4225  0.0824
 4443SOL    HW224966   4.710   0.205  16.878 -0.0788  0.2442 -0.1568
 4444SOL     OW24967   1.938   2.927   8.248 -0.3811 -0.5004 -0.5399
 4444SOL    HW124968   2.011   2.967   8.294 -2.0583  0.5011  1.2898
 4444SOL    HW224969   1.888   2.884   8.317 -2.1610 -0.4645 -1.7849
 4445SOL     OW24970   2.436   2.211  16.582 -0.1447 -0.1088  0.6310
 4445SOL    HW124971   2.450   2.238  16.491 -2.0113 -2.8599 -0.4622
 4445SOL    HW224972   2.361   2.152  16.576  1.0086 -1.7484  2.4972
 4446SOL     OW24973   3.593   1.218   5.096  0.1930 -1.0971  0.2895
 4446SOL    HW124974   3.645   1.169   5.160  1.0916 -0.7845 -0.2077
 4446SOL    HW224975   3.650   1.293   5.080 -0.9897 -0.3957 -0.6131
 4447SOL     OW24976   2.238   2.454  13.653  0.0924 -0.1481 -0.4600
 4447SOL    HW124977   2.280   2.379  13.695  0.7823 -0.0976 -1.0650
 4447SOL    HW224978   2.159   2.444  13.706  0.9425  0.5622  0.9256
 4448SOL     OW24979   4.323   0.932   1.368  0.5745  0.1776 -0.6494
 4448SOL    HW124980   4.311   0.870   1.296 -1.5612  1.4941 -1.4256
 4448SOL    HW224981   4.236   0.967   1.389  0.1662 -1.8491  0.9781
 4449SOL     OW24982   3.564   3.518   1.060 -0.5264 -0.3956 -0.1753
 4449SOL    HW124983   3.502   3.588   1.042  0.4167  1.4200  3.6751
 4449SOL    HW224984   3.646   3.566   1.073 -1.1052  0.9295 -1.4926
 4450SOL     OW24985   2.628   2.899   1.961  0.2218 -0.5347  0.3083
 4450SOL    HW124986   2.569   2.969   1.931  0.7134 -0.4601 -0.4526
 4450SOL    HW224987   2.672   2.944   2.034  2.9851 -1.5255 -0.7834
 4451SOL     OW24988   4.003   1.718  10.868 -0.4462  0.1080 -0.1361
 4451SOL    HW124989   4.019   1.724  10.962 -1.5717 -0.7862  0.1174
 4451SOL    HW224990   3.979   1.627  10.850  0.4929 -0.5760  2.0674
 4452SOL     OW24991   0.643   1.320   2.805 -0.0737 -0.1328  0.2836
 4452SOL    HW124992   0.565   1.334   2.751 -0.0522 -2.4892 -0.3489
 4452SOL    HW224993   0.628   1.393   2.865  0.3815  1.2850 -1.3027
 4453SOL     OW24994   3.416   2.393   9.369  0.2882  0.4550  0.1017
 4453SOL    HW124995   3.394   2.469   9.422  0.6343 -0.5106  1.6187
 4453SOL    HW224996   3.494   2.362   9.415 -0.3416 -0.2182  0.7349
 4454SOL     OW24997   2.020   1.698   3.375  0.2007 -0.0603 -0.1798
 4454SOL    HW124998   1.933   1.738   3.364 -0.2011 -0.6608  0.8917
 4454SOL    HW224999   2.004   1.653   3.457 -3.2821  2.7571  0.6935
 4455SOL     OW25000   3.857   0.284  13.473  0.3963 -0.1859 -0.6106
 4455SOL    HW125001   3.885   0.258  13.385 -0.3753  1.1191 -1.2280
 4455SOL    HW225002   3.934   0.335  13.499  0.0665 -0.0521  0.1088
 4456SOL     OW25003   2.845   1.541  13.466 -0.2418 -0.4506 -0.1751
 4456SOL    HW125004   2.773   1.572  13.411 -0.1060 -0.4041 -0.3235
 4456SOL    HW225005   2.834   1.594  13.545 -0.3982 -1.4525  0.4788
 4457SOL     OW25006   0.142   3.060   1.921 -0.2376  0.6280 -0.1095
 4457SOL    HW125007   0.075   3.122   1.891 -0.4855  0.2468 -0.3459
 4457SOL    HW225008   0.200   3.120   1.967 -0.7301  0.8663  0.2044
 4458SOL     OW25009   4.727   1.758   7.685 -0.8442 -0.3718 -0.0891
 4458SOL    HW125010   0.067   1.709   7.653  0.2576  1.3815 -0.1964
 4458SOL    HW225011   0.005   1.837   7.633 -1.3012  0.4046  0.9697
 4459SOL     OW25012   3.247   3.967   1.221 -0.4028 -0.4665  0.2050
 4459SOL    HW125013   3.255   4.049   1.269  0.4460 -1.0483  1.0672
 4459SOL    HW225014   3.249   3.903   1.293  1.7686 -0.6940 -0.0775
 4460SOL     OW25015   3.391   1.026   2.467  0.4232 -0.0767 -0.2820
 4460SOL    HW125016   3.435   1.111   2.474 -1.1173  0.7148 -0.2030
 4460SOL    HW225017   3.308   1.042   2.421  0.0557 -1.7712 -0.2351
 4461SOL     OW25018   1.797   2.242  11.323  0.2596  0.3608 -0.5542
 4461SOL    HW125019   1.871   2.297  11.298 -1.1771  1.5738 -2.2300
 4461SOL    HW225020   1.854   2.174  11.357 -2.2153 -1.4206 -0.0362
 4462SOL     OW25021   4.252   0.683   1.235 -0.3836 -0.4571 -0.5607
 4462SOL    HW125022   4.176   0.658   1.289 -1.8216  0.5589 -2.1049
 4462SOL    HW225023   4.210   0.715   1.155 -0.8477  1.2368  0.3698
 4463SOL     OW25024   1.075   1.970   7.166  0.3814 -0.1402  0.4747
 4463SOL    HW125025   1.008   2.022   7.123  1.3069  0.5104 -0.1890
 4463SOL    HW225026   1.133   2.038   7.201 -0.9986  1.2136  0.1218
 4464SOL     OW25027   0.862   2.688   7.571  0.1789  0.5694  0.1770
 4464SOL    HW125028   0.854   2.772   7.526  0.5428  0.5131  0.0096
 4464SOL    HW225029   0.909   2.642   7.502 -1.3867 -1.1020  0.2207
 4465SOL     OW25030   0.663   3.033  10.140  0.5478  0.3328  0.0648
 4465SOL    HW125031   0.711   3.106  10.102  1.5642 -0.4252 -0.1115
 4465SOL    HW225032   0.635   3.074  10.222 -1.1020 -0.4085 -0.1383
 4466SOL     OW25033   4.649   3.041   2.957 -0.1898 -0.0613 -0.2526
 4466SOL    HW125034   4.635   3.019   3.049 -0.8145 -1.4221 -0.6854
 4466SOL    HW225035   4.569   3.087   2.932 -0.3344 -0.9334 -1.3712
 4467SOL     OW25036   3.930   1.268   6.638  0.3782  0.3333  0.4581
 4467SOL    HW125037   4.022   1.247   6.651  0.4628  1.0749  1.0243
 4467SOL    HW225038   3.897   1.238   6.723 -0.9095  0.6576  0.0778
 4468SOL     OW25039   3.814   2.790   2.745 -0.2258 -0.0113  0.7565
 4468SOL    HW125040   3.727   2.815   2.714 -0.5659 -0.2452  1.5195
 4468SOL    HW225041   3.825   2.705   2.701 -2.3429  0.2202 -0.2677
 4469SOL     OW25042   4.096   3.743   2.898 -0.4351  0.4388 -0.4718
 4469SOL    HW125043   4.018   3.696   2.925  1.4107 -1.2301  2.0170
 4469SOL    HW225044   4.154   3.720   2.971 -0.6932  2.0871  0.2650
 4470SOL     OW25045   0.700   0.021   3.087  0.0260 -0.0426  0.4642
 4470SOL    HW125046   0.705   0.038   3.181 -0.3422 -2.2643  0.8852
 4470SOL    HW225047   0.758   4.681   3.083 -0.0464  0.0716 -2.2516
 4471SOL     OW25048   1.428   1.670  17.574  0.3484 -0.2161  0.4221
 4471SOL    HW125049   1.517   1.642  17.597  0.2004  0.3466  1.6883
 4471SOL    HW225050   1.368   1.613  17.622 -0.3086  0.9126  0.9329
 4472SOL     OW25051   0.300   0.404   0.987  0.0843  0.4527 -0.6419
 4472SOL    HW125052   0.207   0.415   0.967  0.0823 -0.2725 -1.0080
 4472SOL    HW225053   0.298   0.329   1.046 -0.7895  0.6855 -0.3736
 4473SOL     OW25054   1.388   3.024   1.858 -0.3627 -0.0750  0.3028
 4473SOL    HW125055   1.359   3.027   1.767  3.8360 -2.5706 -1.1050
 4473SOL    HW225056   1.308   3.000   1.906  0.4812 -0.8098  1.3511
 4474SOL     OW25057   0.753   2.294  11.680  0.2227 -0.1257 -0.8904
 4474SOL    HW125058   0.787   2.325  11.596 -1.5366  0.8589 -1.2401
 4474SOL    HW225059   0.831   2.262  11.725 -1.0746 -0.1554  1.3483
 4475SOL     OW25060   3.992   3.026   5.832 -0.5981  0.1051 -0.3829
 4475SOL    HW125061   3.964   3.081   5.904  1.1335 -1.2016  1.3040
 4475SOL    HW225062   4.081   3.015   5.865 -0.9456 -3.1870 -0.5404
 4476SOL     OW25063   2.207   1.907   5.356  0.3908  0.2169  0.1431
 4476SOL    HW125064   2.113   1.895   5.344  0.2942  1.5259 -0.5308
 4476SOL    HW225065   2.226   2.000   5.373 -1.3876  0.1247  2.6609
 4477SOL     OW25066   3.494   0.359   9.016 -0.4590 -0.5204 -0.1515
 4477SOL    HW125067   3.579   0.399   9.032 -0.7725  1.1196 -2.5343
 4477SOL    HW225068   3.446   0.415   9.077  0.7040 -0.3174  0.5743
 4478SOL     OW25069   3.151   4.390   8.653  0.3880  0.2824 -0.0674
 4478SOL    HW125070   3.174   4.478   8.624  0.2925  0.3618  0.1046
 4478SOL    HW225071   3.176   4.395   8.745 -2.9621  1.5378  0.7662
 4479SOL     OW25072   1.556   4.136   9.255  0.0685 -0.0118 -0.5246
 4479SOL    HW125073   1.533   4.200   9.189 -0.6727 -0.8968 -1.1205
 4479SOL    HW225074   1.474   4.127   9.304  1.2581 -0.2993  1.4197
 4480SOL     OW25075   2.466   3.110   4.520 -0.0346 -0.3851  0.0091
 4480SOL    HW125076   2.390   3.060   4.490 -0.9601  0.6593  0.6156
 4480SOL    HW225077   2.496   3.044   4.582 -0.7998 -0.4418  0.3248
 4481SOL     OW25078   3.927   0.347   8.562  0.1850  0.3516 -0.0530
 4481SOL    HW125079   3.904   0.349   8.469  0.6089 -2.7340 -0.2456
 4481SOL    HW225080   3.836   0.335   8.590  1.2475 -3.2396  1.9123
 4482SOL     OW25081   1.320   0.439   6.363 -0.2457 -0.1385  0.0064
 4482SOL    HW125082   1.386   0.506   6.378 -0.2783  0.2218 -1.5364
 4482SOL    HW225083   1.265   0.484   6.299  0.0649  0.1733 -0.0341
 4483SOL     OW25084   3.005   1.669   7.222  0.4268 -0.1541 -0.0842
 4483SOL    HW125085   2.977   1.594   7.275 -1.7158 -0.3502 -1.5178
 4483SOL    HW225086   3.093   1.681   7.258  0.5822  0.5985 -0.7089
 4484SOL     OW25087   3.050   1.400   5.367 -0.4995 -0.3024  0.3005
 4484SOL    HW125088   2.963   1.437   5.380  0.4335  2.2179 -0.6053
 4484SOL    HW225089   3.040   1.346   5.289 -1.0135  0.6521 -0.2901
 4485SOL     OW25090   1.533   0.541   6.693 -0.2953  0.3800 -0.4389
 4485SOL    HW125091   1.560   0.465   6.641  1.7858  1.3216 -0.7169
 4485SOL    HW225092   1.471   0.507   6.758 -0.8275  2.5726  0.1863
 4486SOL     OW25093   4.141   4.262   6.098  0.5100 -1.0023  0.5780
 4486SOL    HW125094   4.189   4.312   6.163  1.8845 -1.9792  0.3076
 4486SOL    HW225095   4.190   4.184   6.072 -0.6123 -0.8946 -1.8249
 4487SOL     OW25096   3.388   0.252   8.593  0.6667  0.1933  0.4065
 4487SOL    HW125097   3.306   0.301   8.584  0.7093 -0.1104 -1.8660
 4487SOL    HW225098   3.398   0.240   8.687  0.5890  2.2170  0.6654
 4488SOL     OW25099   0.715   3.722   6.462 -0.1060  0.0789  0.4933
 4488SOL    HW125100   0.796   3.751   6.504 -0.1411 -0.4670  0.9416
 4488SOL    HW225101   0.752   3.684   6.382 -0.5951 -0.0385  0.3227
 4489SOL     OW25102   2.956   0.705   2.790  0.0467 -0.0755 -0.8431
 4489SOL    HW125103   2.876   0.726   2.837  0.0044  0.3471 -1.1086
 4489SOL    HW225104   2.979   0.793   2.761  3.7808 -1.0056 -0.6944
 4490SOL     OW25105   2.466   0.229   3.199  0.0384  0.3643 -0.0100
 4490SOL    HW125106   2.532   0.224   3.268 -2.1199  1.4144  2.1407
 4490SOL    HW225107   2.523   0.228   3.122 -0.0446 -3.2386 -0.0653
 4491SOL     OW25108   0.338   3.964   2.476  0.7828 -0.1618  0.5271
 4491SOL    HW125109   0.416   3.965   2.531  1.7148  0.8913 -0.8032
 4491SOL    HW225110   0.377   4.004   2.398 -0.9477 -1.3268 -0.9648
 4492SOL     OW25111   2.162   2.540   3.132 -0.3516 -0.5550  0.4005
 4492SOL    HW125112   2.139   2.631   3.113  0.4187 -0.4872 -0.2366
 4492SOL    HW225113   2.081   2.491   3.138 -0.3123 -0.9187 -1.9237
 4493SOL     OW25114   0.597   3.889   4.519  0.0394 -0.1270 -0.0106
 4493SOL    HW125115   0.689   3.907   4.499 -0.0649  1.0539  0.6157
 4493SOL    HW225116   0.604   3.833   4.597  1.4815 -1.4901 -1.1046
 4494SOL     OW25117   2.737   1.683   7.476 -0.1909  0.9299  0.4355
 4494SOL    HW125118   2.660   1.651   7.524 -0.9034  0.1713 -1.2265
 4494SOL    HW225119   2.717   1.776   7.468 -0.8996  0.8902  1.6649
 4495SOL     OW25120   2.762   4.572  11.754  0.3684  0.0135 -0.2414
 4495SOL    HW125121   2.745   4.656  11.798  2.6051 -0.4085  1.4618
 4495SOL    HW225122   2.677   4.546  11.720 -0.3428 -0.8887  2.1870
 4496SOL     OW25123   2.304   4.271   9.305  0.3424 -0.2725 -0.1903
 4496SOL    HW125124   2.349   4.331   9.245  0.4391  1.1462  1.3113
 4496SOL    HW225125   2.222   4.316   9.322 -0.2442 -1.4811  0.2234
 4497SOL     OW25126   2.032   2.038   7.515 -0.3338  0.1279  0.1381
 4497SOL    HW125127   1.988   1.980   7.453  4.3820 -1.6115 -1.5488
 4497SOL    HW225128   1.953   2.075   7.555  0.0566 -1.5956  2.5381
 4498SOL     OW25129   1.975   1.293  14.908 -0.5823  0.4433  0.7503
 4498SOL    HW125130   1.902   1.348  14.935 -1.4873 -0.3785 -0.0070
 4498SOL    HW225131   1.932   1.258  14.830  1.4734 -0.6300  0.0959
 4499SOL     OW25132   1.656   1.843   3.864 -0.0518 -0.7307 -0.7957
 4499SOL    HW125133   1.702   1.762   3.838 -0.5602 -1.5482  0.8376
 4499SOL    HW225134   1.636   1.884   3.780  0.4586 -0.7728 -0.9388
 4500SOL     OW25135   3.525   1.415   3.693 -0.2250  0.2919 -0.4625
 4500SOL    HW125136   3.531   1.511   3.697 -0.2007  0.1242  3.1096
 4500SOL    HW225137   3.507   1.386   3.782  3.3545 -3.1264 -0.8788
 4501SOL     OW25138   3.516   3.736   4.869 -0.1064 -0.2099 -0.0733
 4501SOL    HW125139   3.517   3.754   4.775 -1.4241 -2.4493 -0.5094
 4501SOL    HW225140   3.533   3.822   4.907 -0.6201  0.6697 -1.8679
 4502SOL     OW25141   2.399   3.704   7.024  0.0696 -0.1911  0.6235
 4502SOL    HW125142   2.454   3.627   7.008 -0.3975 -0.0104 -1.7083
 4502SOL    HW225143   2.457   3.778   7.008 -1.3335  0.8119  0.2637
 4503SOL     OW25144   4.663   2.718   6.068  0.1754  0.8429  0.2993
 4503SOL    HW125145   0.003   2.767   6.036  0.3744 -0.1118 -0.7173
 4503SOL    HW225146   4.610   2.719   5.987 -0.0968  1.6749  0.4842
 4504SOL     OW25147   0.356   0.099  10.828  0.5167  0.2739 -0.3183
 4504SOL    HW125148   0.410   0.042  10.883  1.3367  2.8879  1.5779
 4504SOL    HW225149   0.396   0.074  10.745  0.7848 -0.3595  0.0001
 4505SOL     OW25150   2.766   2.533  16.796  0.8121 -0.4173  0.3458
 4505SOL    HW125151   2.764   2.609  16.855  1.3286 -0.6556  0.6668
 4505SOL    HW225152   2.702   2.564  16.732  0.4783  1.4195  1.5671
 4506SOL     OW25153   0.047   4.468   2.796 -0.1059 -0.0705 -0.3696
 4506SOL    HW125154   4.717   4.411   2.835 -0.5397  0.0698 -0.8886
 4506SOL    HW225155   0.125   4.439   2.843 -1.2940 -1.2055  0.8824
 4507SOL     OW25156   1.534   4.359   9.093 -0.4755 -0.6603  0.3895
 4507SOL    HW125157   1.597   4.332   9.026  2.8229  1.1928  2.7041
 4507SOL    HW225158   1.451   4.353   9.047 -0.0837  2.9431 -0.8162
 4508SOL     OW25159   1.174   3.825   5.448  0.2352  0.0888 -0.5039
 4508SOL    HW125160   1.169   3.883   5.524  0.6012 -0.8877  0.2576
 4508SOL    HW225161   1.197   3.885   5.377  0.8412  0.6622  0.1733
 4509SOL     OW25162   2.811   1.479  12.425 -0.4707 -0.3288  0.2117
 4509SOL    HW125163   2.878   1.483  12.358  0.2885  2.3563  1.1321
 4509SOL    HW225164   2.779   1.389  12.417 -2.4773  0.4274 -0.2780
 4510SOL     OW25165   2.555   2.265  16.805 -0.3180  0.0111 -0.1495
 4510SOL    HW125166   2.474   2.275  16.854 -0.3047 -0.3771 -0.0566
 4510SOL    HW225167   2.517   2.281  16.718  0.0595 -0.5050 -0.4054
 4511SOL     OW25168   1.426   4.479   4.966  0.0168 -0.1702 -0.5203
 4511SOL    HW125169   1.351   4.449   5.017 -0.5473  0.4757 -0.9681
 4511SOL    HW225170   1.434   4.573   4.977 -0.0520 -0.1118 -0.9673
 4512SOL     OW25171   1.541   3.907   4.191  0.0610 -0.3727  0.1444
 4512SOL    HW125172   1.598   3.972   4.150  0.1760  0.8329  2.2064
 4512SOL    HW225173   1.507   3.947   4.271  2.4074 -0.1168  1.0441
 4513SOL     OW25174   1.811   3.633   8.920  0.0617 -0.4114  0.6144
 4513SOL    HW125175   1.737   3.642   8.859  1.2664 -0.5910 -0.8709
 4513SOL    HW225176   1.779   3.698   8.983  0.0267  0.1624  0.0039
 4514SOL     OW25177   4.126   0.228   8.764  0.0136  0.0358  0.0359
 4514SOL    HW125178   4.053   0.257   8.710 -0.1953 -1.5695 -0.5559
 4514SOL    HW225179   4.083   0.169   8.825  0.8248  0.9911  1.5389
 4515SOL     OW25180   3.134   2.113   6.281 -0.1315  0.5270  0.0775
 4515SOL    HW125181   3.206   2.165   6.317 -1.6190  3.2709 -0.8853
 4515SOL    HW225182   3.101   2.184   6.226  1.4163  0.5492 -0.8431
 4516SOL     OW25183   1.473   2.598   3.047  0.5038 -0.3246  0.3457
 4516SOL    HW125184   1.457   2.692   3.052 -0.6212 -0.5901  1.5388
 4516SOL    HW225185   1.463   2.587   2.952  0.3179 -0.1766  0.3475
 4517SOL     OW25186   3.092   2.214   8.394  0.1761 -0.5933  0.1564
 4517SOL    HW125187   3.161   2.256   8.446 -0.4525 -0.5946  0.9748
 4517SOL    HW225188   3.113   2.123   8.412 -1.2853 -1.0389 -0.4071
 4518SOL     OW25189   2.328   0.441   7.022  0.1651 -0.7012 -0.1360
 4518SOL    HW125190   2.350   0.470   6.934 -3.8071  0.2997 -0.7725
 4518SOL    HW225191   2.405   0.384   7.028 -0.3869 -1.3068  1.1705
 4519SOL     OW25192   3.526   1.748   4.136  0.4559  0.4501  0.4684
 4519SOL    HW125193   3.535   1.754   4.231  1.7793  0.1934  0.3655
 4519SOL    HW225194   3.432   1.762   4.123  0.3777  1.2725  1.9073
 4520SOL     OW25195   2.618   3.356   7.606  0.1799  0.4843  0.3294
 4520SOL    HW125196   2.550   3.310   7.556 -2.2988  1.7102  2.5911
 4520SOL    HW225197   2.643   3.282   7.662 -0.2782  0.6448  0.7457
 4521SOL     OW25198   1.048   4.685  13.106  0.3149  0.0345 -0.3625
 4521SOL    HW125199   1.102   4.605  13.110 -0.4400 -0.3785  1.4856
 4521SOL    HW225200   0.960   4.650  13.093  1.2882 -2.2793 -0.7921
 4522SOL     OW25201   1.057   0.975  16.725 -0.2310 -0.2069  0.4682
 4522SOL    HW125202   0.966   1.003  16.728  0.0855  1.0608 -2.4253
 4522SOL    HW225203   1.045   0.898  16.781  0.0842  0.2218  1.1301
 4523SOL     OW25204   2.490   2.785   4.181 -0.3791  0.0702  0.2343
 4523SOL    HW125205   2.422   2.792   4.248 -1.9817  0.8180 -1.4910
 4523SOL    HW225206   2.440   2.824   4.109 -0.5261 -1.3267 -0.4164
 4524SOL     OW25207   1.732   0.770   2.168 -0.3650  0.4114 -0.3241
 4524SOL    HW125208   1.809   0.764   2.225  0.2458  0.0650 -1.1746
 4524SOL    HW225209   1.654   0.766   2.224  0.4035 -2.0612  0.5969
 4525SOL     OW25210   0.876   3.682   9.800  0.1696  0.0461 -0.1909
 4525SOL    HW125211   0.831   3.711   9.720  1.6498 -1.6042 -1.6304
 4525SOL    HW225212   0.802   3.637   9.839  0.2690  1.4189  1.5802
 4526SOL     OW25213   0.815   0.198  13.083  0.1907  0.3945 -0.0087
 4526SOL    HW125214   0.750   0.128  13.087  1.4585 -0.8340 -0.8102
 4526SOL    HW225215   0.861   0.172  13.003  0.3982  2.0638 -0.4315
 4527SOL     OW25216   2.821   2.067  12.805  0.1328 -0.4249  0.3175
 4527SOL    HW125217   2.856   1.980  12.822 -1.4510 -0.8090  1.6513
 4527SOL    HW225218   2.844   2.078  12.713  1.3961 -0.3614  0.6346
 4528SOL     OW25219   3.569   1.205   6.998  0.4536  0.4794 -0.0749
 4528SOL    HW125220   3.505   1.136   7.015  2.3385 -1.3291 -0.4222
 4528SOL    HW225221   3.531   1.259   6.929 -2.0520 -0.8686  0.2351
 4529SOL     OW25222   1.515   4.529  11.388  0.1641  0.0150  0.0240
 4529SOL    HW125223   1.542   4.584  11.314 -1.5620 -1.1950 -1.4951
 4529SOL    HW225224   1.577   4.547  11.459 -0.3018 -1.7226  0.8730
 4530SOL     OW25225   1.774   4.491   9.724  0.2061 -0.3088 -0.1870
 4530SOL    HW125226   1.708   4.488   9.793  1.1492  0.6236  0.7756
 4530SOL    HW225227   1.851   4.515   9.776  0.7287 -0.5361 -0.8600
 4531SOL     OW25228   4.226   2.071  14.233  0.7576 -0.2106 -0.1365
 4531SOL    HW125229   4.247   1.983  14.264  0.1655  0.2238  1.5420
 4531SOL    HW225230   4.309   2.116  14.217  0.1562  1.1824  0.5986
 4532SOL     OW25231   0.184   1.530   7.586 -0.2185  0.0087  0.5075
 4532SOL    HW125232   0.261   1.528   7.643 -2.2910 -2.0023  3.1999
 4532SOL    HW225233   0.229   1.569   7.511 -1.3410  2.4348  1.1014
 4533SOL     OW25234   2.830   2.116  17.310  0.2877  0.4649 -0.1366
 4533SOL    HW125235   2.915   2.095  17.350  0.0197  0.2362  0.3095
 4533SOL    HW225236   2.858   2.190  17.256 -3.3368  1.3303 -0.8060
 4534SOL     OW25237   3.676   1.299  11.158  0.1422 -0.3177  0.4392
 4534SOL    HW125238   3.720   1.382  11.177  1.0157 -0.7640  0.3572
 4534SOL    HW225239   3.679   1.289  11.063 -1.2368  0.5871  0.2997
 4535SOL     OW25240   0.448   1.416   6.038 -0.3536  0.4047 -0.3508
 4535SOL    HW125241   0.482   1.497   6.077  1.2554 -0.4019 -0.0836
 4535SOL    HW225242   0.512   1.348   6.057 -0.2274  0.2454 -1.3259
 4536SOL     OW25243   1.611   3.203   5.121  0.2672 -0.5602 -0.2474
 4536SOL    HW125244   1.579   3.274   5.065  2.0677 -0.9456 -1.7889
 4536SOL    HW225245   1.529   3.178   5.164  0.3384  0.8403  0.7029
 4537SOL     OW25246   1.242   2.169   7.227  0.0359  0.4552  0.0405
 4537SOL    HW125247   1.304   2.126   7.284  0.5427  2.1864  0.8078
 4537SOL    HW225248   1.262   2.260   7.249  1.0456 -0.0759  1.2817
 4538SOL     OW25249   1.842   2.175  14.498  1.0315 -0.7890 -0.5578
 4538SOL    HW125250   1.904   2.109  14.468  0.0756 -1.7082 -0.5168
 4538SOL    HW225251   1.891   2.256  14.481  0.6724 -0.0716  1.7359
 4539SOL     OW25252   1.323   0.791   2.535  0.2270 -0.1569  0.0859
 4539SOL    HW125253   1.265   0.862   2.563  0.2137 -1.0948  2.4185
 4539SOL    HW225254   1.300   0.725   2.601  2.2742  0.1343  1.0683
 4540SOL     OW25255   0.772   2.491   4.823  0.1518 -0.3674 -0.4493
 4540SOL    HW125256   0.716   2.414   4.812  0.1989 -0.3452 -0.8153
 4540SOL    HW225257   0.846   2.466   4.768 -2.3493  1.0302 -4.3703
 4541SOL     OW25258   1.890   3.224  10.658 -0.2035  0.3336 -0.0793
 4541SOL    HW125259   1.818   3.273  10.697 -0.4133  0.2282 -0.3354
 4541SOL    HW225260   1.837   3.149  10.631  0.5091 -0.2656  0.1952
 4542SOL     OW25261   2.215   4.157  13.077  0.3629  1.1133 -0.3589
 4542SOL    HW125262   2.131   4.184  13.114 -0.4046  2.4328 -3.1102
 4542SOL    HW225263   2.286   4.189  13.134  1.0179  0.8088 -1.0093
 4543SOL     OW25264   0.901   0.138  15.288  0.1075  0.1061  0.2225
 4543SOL    HW125265   0.869   0.140  15.378  0.9215  1.0199  0.4803
 4543SOL    HW225266   0.886   0.230  15.267  0.7528  0.3129  0.6956
 4544SOL     OW25267   0.706   4.161   6.824 -0.2116 -0.2709  0.0358
 4544SOL    HW125268   0.697   4.184   6.731  3.1197  0.3381 -0.1295
 4544SOL    HW225269   0.617   4.174   6.856 -0.9830 -1.1026 -1.7531
 4545SOL     OW25270   3.448   2.442   7.368  0.4694 -0.1652 -0.2000
 4545SOL    HW125271   3.519   2.409   7.423 -0.8888  0.9500  2.1924
 4545SOL    HW225272   3.379   2.381   7.396  1.6608 -1.0365  0.8320
 4546SOL     OW25273   3.833   2.597   4.405  0.2946  0.1069 -0.4796
 4546SOL    HW125274   3.797   2.683   4.383 -0.1822 -0.2888 -1.2717
 4546SOL    HW225275   3.786   2.568   4.482 -0.9625 -1.2999 -1.7669
 4547SOL     OW25276   0.478   4.460   5.182  0.3091 -0.4735  0.3157
 4547SOL    HW125277   0.474   4.452   5.087 -2.4341 -3.0258  0.6638
 4547SOL    HW225278   0.389   4.494   5.179  0.9711  1.3126  0.8714
 4548SOL     OW25279   2.002   1.887  15.408  0.0776 -0.3083 -0.4975
 4548SOL    HW125280   2.031   1.940  15.334  2.9844  1.5427  1.9253
 4548SOL    HW225281   2.089   1.860  15.438 -0.6895 -0.6884  1.4203
 4549SOL     OW25282   0.505   0.095   3.798  0.2682 -0.8742 -0.3597
 4549SOL    HW125283   0.433   0.146   3.760  0.3999  0.6871  1.4986
 4549SOL    HW225284   0.567   0.155   3.839  1.4086 -1.2146 -1.5907
 4550SOL     OW25285   2.910   1.347   5.768 -0.0177 -0.2197  0.0548
 4550SOL    HW125286   2.908   1.415   5.701 -0.2072  0.2003  0.4832
 4550SOL    HW225287   2.876   1.391   5.846  1.0962 -1.7500  1.3989
 4551SOL     OW25288   1.610   2.937  10.678  0.6166  0.3228  0.1747
 4551SOL    HW125289   1.642   2.847  10.679  0.5161  0.2931  0.9186
 4551SOL    HW225290   1.568   2.947  10.764  2.0245  0.9741  0.7940
 4552SOL     OW25291   1.556   0.487   6.202 -0.0888 -0.1914 -0.1641
 4552SOL    HW125292   1.546   0.405   6.249  0.0571 -1.4306 -2.3111
 4552SOL    HW225293   1.651   0.486   6.211  0.0129  2.0586 -0.8065
 4553SOL     OW25294   0.150   3.330   9.519 -0.3499  0.4288 -0.2532
 4553SOL    HW125295   0.192   3.260   9.568  0.4366  2.2251  1.6665
 4553SOL    HW225296   0.060   3.300   9.511 -0.6325  0.9861  0.7985
 4554SOL     OW25297   3.808   2.588   8.945  0.1209  0.0478  0.7438
 4554SOL    HW125298   3.760   2.640   8.881  1.7595 -0.8492 -1.2355
 4554SOL    HW225299   3.787   2.498   8.922  2.2656  0.0640 -1.3631
 4555SOL     OW25300   2.248   3.591   8.469 -0.3339 -0.6158  0.5723
 4555SOL    HW125301   2.230   3.559   8.558  1.2404  0.0091  1.1257
 4555SOL    HW225302   2.157   3.589   8.440 -0.0752  2.1769 -0.4093
 4556SOL     OW25303   2.949   2.233   5.017  0.0778 -0.5282  0.3441
 4556SOL    HW125304   2.912   2.155   5.058 -2.0206  1.1731  1.6684
 4556SOL    HW225305   2.888   2.248   4.945  0.4141 -0.4724  0.0732
 4557SOL     OW25306   0.061   0.503  11.465 -0.9038  0.2473 -0.4569
 4557SOL    HW125307   0.070   0.575  11.528 -0.6928  0.4779 -0.7488
 4557SOL    HW225308   0.151   0.505  11.432 -1.1977  4.6239 -0.9709
 4558SOL     OW25309   2.677   2.048   5.652  0.5616 -0.2906  0.0057
 4558SOL    HW125310   2.727   2.060   5.732 -2.1112 -2.8019  2.0228
 4558SOL    HW225311   2.652   1.956   5.647  1.8214 -0.4342 -4.1439
 4559SOL     OW25312   2.237   1.017  15.068  0.2895 -0.0564 -0.0518
 4559SOL    HW125313   2.268   0.930  15.046 -1.9393 -0.3309 -2.0888
 4559SOL    HW225314   2.228   1.026  15.163  2.6875  1.3063  0.0609
 4560SOL     OW25315   4.473   3.476  16.140 -0.3140 -0.6699  0.2610
 4560SOL    HW125316   4.416   3.403  16.165 -0.4464 -0.6812 -0.0613
 4560SOL    HW225317   4.510   3.443  16.057  3.7422 -0.1504  1.8825
 4561SOL     OW25318   0.626   0.643   5.606 -0.6252  0.2024 -0.2911
 4561SOL    HW125319   0.702   0.690   5.572 -0.0616  0.4987  1.4030
 4561SOL    HW225320   0.660   0.604   5.686 -0.8639  0.6811  0.0412
 4562SOL     OW25321   0.022   3.396  16.295  0.6411 -0.3892  0.4393
 4562SOL    HW125322   0.037   3.490  16.288 -0.7634 -0.1813  0.1607
 4562SOL    HW225323   4.713   3.397  16.380  0.9444  0.5836  0.5859
 4563SOL     OW25324   0.432   0.050   2.291  0.6941 -0.5177  0.6446
 4563SOL    HW125325   0.355   0.037   2.346  1.2427 -1.9110  1.0997
 4563SOL    HW225326   0.484   4.705   2.297 -1.8437 -2.2893 -1.2725
 4564SOL     OW25327   4.387   2.966   4.217 -0.8019 -0.1317 -0.8484
 4564SOL    HW125328   4.354   2.882   4.247 -0.9526  0.8579  1.7337
 4564SOL    HW225329   4.308   3.019   4.227 -0.4427  0.0413  0.9637
 4565SOL     OW25330   2.776   0.173   9.446  0.0317 -0.3275  0.1984
 4565SOL    HW125331   2.683   0.181   9.468  0.3402  1.4788  0.8819
 4565SOL    HW225332   2.803   0.101   9.502 -2.0838 -0.1682  1.3995
 4566SOL     OW25333   4.236   3.199   9.249 -0.3133 -0.5805 -0.0373
 4566SOL    HW125334   4.162   3.207   9.189 -0.5450 -4.3065 -0.2289
 4566SOL    HW225335   4.310   3.239   9.203  0.1291 -1.7554 -0.3521
 4567SOL     OW25336   2.058   2.848  13.648 -0.0932 -0.3553  0.3125
 4567SOL    HW125337   2.100   2.798  13.717 -1.5183  0.7656  1.9745
 4567SOL    HW225338   1.974   2.803  13.641  0.2119 -1.0946  1.5032
 4568SOL     OW25339   1.930   2.050  11.452 -0.2395  0.6027  1.0281
 4568SOL    HW125340   1.985   2.077  11.526  3.5570 -0.5307 -1.3906
 4568SOL    HW225341   2.002   2.031  11.392  0.1015  0.8231  1.3678
 4569SOL     OW25342   3.178   1.163  15.231  0.0949  0.7152 -0.0195
 4569SOL    HW125343   3.269   1.143  15.254  0.0910  3.1889  2.0635
 4569SOL    HW225344   3.191   1.239  15.174 -0.9049  1.5676  0.8946
 4570SOL     OW25345   3.937   1.851   3.554 -0.2043  0.1354  0.1219
 4570SOL    HW125346   3.980   1.840   3.469 -0.7924  0.8326 -0.2748
 4570SOL    HW225347   3.855   1.803   3.543 -0.6219  0.4258  1.9495
 4571SOL     OW25348   3.084   2.977  12.210 -0.4798 -0.0443 -0.8784
 4571SOL    HW125349   3.051   2.956  12.297  0.5183  2.2901  0.0737
 4571SOL    HW225350   3.102   3.071  12.215 -3.4920  0.4065  1.1841
 4572SOL     OW25351   4.513   4.057   3.901 -0.4778  0.6644 -0.5805
 4572SOL    HW125352   4.533   4.148   3.882  1.6429  0.7067  1.8034
 4572SOL    HW225353   4.573   4.014   3.841  1.2939  1.2108  0.7941
 4573SOL     OW25354   1.785   1.402   1.665 -0.8187  0.4693 -0.4215
 4573SOL    HW125355   1.721   1.414   1.735  0.4209  2.5997  0.3422
 4573SOL    HW225356   1.791   1.307   1.669  1.8047  0.6238 -1.0251
 4574SOL     OW25357   4.074   3.934   8.232  0.4708 -0.5179 -0.5657
 4574SOL    HW125358   3.986   3.958   8.204  1.0204  0.1682 -1.6911
 4574SOL    HW225359   4.066   3.910   8.325  2.1293 -2.9908 -1.0892
 4575SOL     OW25360   0.913   2.151   7.323 -0.0547  0.5634 -0.3679
 4575SOL    HW125361   0.879   2.075   7.276 -0.6436  1.4629 -1.4076
 4575SOL    HW225362   0.936   2.209   7.250 -0.9451  1.5184  0.0972
 4576SOL     OW25363   3.843   3.247   3.511 -0.0087  0.6774 -0.6459
 4576SOL    HW125364   3.798   3.166   3.486  0.8938 -0.0167 -0.0488
 4576SOL    HW225365   3.814   3.313   3.448  0.0093  1.3548  0.0550
 4577SOL     OW25366   3.553   4.662   1.877 -0.1596 -0.1024  0.0324
 4577SOL    HW125367   3.523   0.007   1.919 -0.6502  0.9488 -2.3751
 4577SOL    HW225368   3.526   4.593   1.938  0.2426 -0.8328 -0.6174
 4578SOL     OW25369   3.386   0.582   2.635 -0.4415 -1.1488 -0.1827
 4578SOL    HW125370   3.358   0.633   2.712 -0.7012 -1.6029  0.0213
 4578SOL    HW225371   3.452   0.638   2.595 -0.8685 -0.5927 -0.1186
 4579SOL     OW25372   0.684   3.937   3.550 -0.3368  0.4472 -0.2099
 4579SOL    HW125373   0.615   3.968   3.608 -0.7949  0.1674 -0.6155
 4579SOL    HW225374   0.673   3.844   3.567  0.5857  0.1749 -1.0420
 4580SOL     OW25375   4.654   2.979   4.313 -0.4291 -0.1646 -0.7965
 4580SOL    HW125376   4.578   2.965   4.256 -0.8123 -1.7504  0.1082
 4580SOL    HW225377   4.633   2.912   4.377  0.7577 -0.9296 -1.2211
 4581SOL     OW25378   3.393   3.901   9.177 -1.1112  0.6163 -0.2059
 4581SOL    HW125379   3.391   3.963   9.250 -0.1923  1.5903 -1.0288
 4581SOL    HW225380   3.302   3.874   9.195 -1.0859  0.8482  0.2820
 4582SOL     OW25381   1.588   2.677   4.387 -0.4666  0.2290 -0.3658
 4582SOL    HW125382   1.523   2.607   4.376  0.5472 -0.7639  0.0225
 4582SOL    HW225383   1.538   2.757   4.370 -0.7770  0.0901 -0.1228
 4583SOL     OW25384   1.136   3.847  16.462  0.6318 -0.2275 -0.3319
 4583SOL    HW125385   1.173   3.799  16.388 -0.7966  0.3324 -1.4014
 4583SOL    HW225386   1.066   3.894  16.416  1.7287  2.3313  0.6223
 4584SOL     OW25387   2.588   2.127   6.407 -0.2966  0.2938  0.3344
 4584SOL    HW125388   2.631   2.144   6.491  2.0315 -2.4106 -0.2963
 4584SOL    HW225389   2.573   2.219   6.382 -1.5187  0.2180  0.7812
 4585SOL     OW25390   2.190   3.730   9.510 -0.2862  0.0696  0.3361
 4585SOL    HW125391   2.107   3.683   9.511 -0.0468 -0.3508  0.8517
 4585SOL    HW225392   2.205   3.744   9.417  2.6830  1.5913  1.0163
 4586SOL     OW25393   1.570   1.539  17.085  0.2496  0.1208  0.5640
 4586SOL    HW125394   1.582   1.626  17.124  1.2615 -0.1512  0.8674
 4586SOL    HW225395   1.506   1.491  17.137  1.3687 -0.1563  1.6932
 4587SOL     OW25396   1.635   0.249   0.974 -0.5661 -0.3342  0.3031
 4587SOL    HW125397   1.693   0.295   1.035  2.1281 -1.2111 -1.5470
 4587SOL    HW225398   1.689   0.197   0.913  0.5695  0.6954  0.4248
 4588SOL     OW25399   1.424   3.315   4.349  0.1652 -0.0093  0.5225
 4588SOL    HW125400   1.362   3.288   4.281 -0.4616  0.9227  0.7277
 4588SOL    HW225401   1.429   3.237   4.403 -0.6218  0.5795  1.4408
 4589SOL     OW25402   1.891   2.407   3.742  0.0376  0.0804 -0.2233
 4589SOL    HW125403   1.822   2.463   3.779  0.0267 -1.0672  1.4408
 4589SOL    HW225404   1.964   2.466   3.762  0.3790 -0.3062 -0.3435
 4590SOL     OW25405   1.020   4.620   2.193 -0.3065 -0.3912  0.1648
 4590SOL    HW125406   0.970   4.593   2.271 -2.9329  1.3751 -0.9039
 4590SOL    HW225407   1.024   4.538   2.145 -0.6991 -1.1386  1.3895
 4591SOL     OW25408   2.028   2.504   5.773  0.9107  0.2882  0.1574
 4591SOL    HW125409   1.949   2.558   5.779  0.0145 -1.0484  0.2105
 4591SOL    HW225410   2.031   2.455   5.855 -2.3130  1.9672  1.2963
 4592SOL     OW25411   2.403   2.223  13.710  0.4267  0.2891  0.1227
 4592SOL    HW125412   2.409   2.129  13.694  1.2039 -0.2110  3.4400
 4592SOL    HW225413   2.454   2.217  13.791 -1.2077  1.0584  1.2027
 4593SOL     OW25414   1.314   1.092   1.523  0.2091 -0.4743 -0.4012
 4593SOL    HW125415   1.308   1.170   1.467 -1.1257 -0.3098 -0.0205
 4593SOL    HW225416   1.343   1.031   1.455  0.3838 -1.1436  0.2737
 4594SOL     OW25417   4.214   3.355  10.706 -0.3301  0.1396  0.1572
 4594SOL    HW125418   4.209   3.264  10.735 -0.2670  0.7438  2.0402
 4594SOL    HW225419   4.132   3.379  10.662  0.0847 -0.0013 -0.7004
 4595SOL     OW25420   0.157   0.007   2.377  0.0475  0.4296 -0.1447
 4595SOL    HW125421   0.126   0.094   2.351 -1.3034 -0.0899 -0.2802
 4595SOL    HW225422   0.105   4.726   2.456 -1.9284  0.7908 -1.3661
 4596SOL     OW25423   0.062   4.698   0.975 -0.4451 -0.7791  0.6689
 4596SOL    HW125424   0.082   4.705   0.881 -1.7108 -1.1453  0.3755
 4596SOL    HW225425   0.113   4.618   0.984 -1.5796 -1.6416 -0.6232
 4597SOL     OW25426   1.322   1.275  13.840 -0.0495 -0.3286 -0.3771
 4597SOL    HW125427   1.414   1.301  13.838  0.1425 -0.8927  1.6585
 4597SOL    HW225428   1.276   1.353  13.870  0.1371 -1.1669  2.0831
 4598SOL     OW25429   0.732   0.897   7.868 -0.1676  0.2268  0.1376
 4598SOL    HW125430   0.677   0.972   7.890  0.8288  0.4225  1.9684
 4598SOL    HW225431   0.757   0.876   7.958 -1.4525  0.7135  0.6084
 4599SOL     OW25432   4.411   2.066   2.297  0.0333 -0.0999 -0.1486
 4599SOL    HW125433   4.322   2.032   2.297  0.2989 -0.8123 -0.7029
 4599SOL    HW225434   4.453   2.064   2.383  0.3121 -1.3746 -0.3162
 4600SOL     OW25435   1.247   4.402   4.151 -0.1761 -0.1805 -0.3266
 4600SOL    HW125436   1.260   4.315   4.111  1.3067  0.1923 -0.6639
 4600SOL    HW225437   1.297   4.390   4.231  0.5037  0.8695 -0.6034
 4601SOL     OW25438   2.713   1.900   6.279 -0.3161  0.4999 -0.1868
 4601SOL    HW125439   2.662   1.975   6.310 -0.1057  0.6321 -0.1623
 4601SOL    HW225440   2.785   1.903   6.342 -2.3629 -4.6460  2.4424
 4602SOL     OW25441   1.357   1.973   7.524  0.5333  0.1021  0.0316
 4602SOL    HW125442   1.429   1.971   7.460  2.2676 -1.0430  1.9936
 4602SOL    HW225443   1.365   1.888   7.568 -0.3645  0.6297  1.1866
 4603SOL     OW25444   1.706   3.993   4.817  0.4463 -0.0920 -0.7906
 4603SOL    HW125445   1.622   3.948   4.813 -0.0841  0.5289  3.5688
 4603SOL    HW225446   1.693   4.067   4.757  0.4816  0.9542  0.4709
 4604SOL     OW25447   3.696   0.177  17.572 -0.4755  0.1200  0.0541
 4604SOL    HW125448   3.756   0.167  17.645 -0.5112 -1.5029 -0.1527
 4604SOL    HW225449   3.722   0.106  17.512  1.7196  0.0287  1.1057
 4605SOL     OW25450   2.343   1.615   9.043 -0.1611  0.5518  0.2665
 4605SOL    HW125451   2.374   1.704   9.032  1.4266 -0.2545 -1.7211
 4605SOL    HW225452   2.249   1.629   9.055  0.3130  1.8008  2.5517
 4606SOL     OW25453   4.383   2.919   7.732  0.3612  0.3569  0.0852
 4606SOL    HW125454   4.410   2.842   7.782 -1.1231 -1.7011 -2.2687
 4606SOL    HW225455   4.340   2.974   7.798  1.3151 -0.8746  1.7456
 4607SOL     OW25456   1.256   3.764  17.477  0.5396 -0.1079 -0.4307
 4607SOL    HW125457   1.300   3.845  17.451  1.3283 -0.7727 -1.1674
 4607SOL    HW225458   1.321   3.699  17.501  0.9787  1.3518  2.3828
 4608SOL     OW25459   4.227   0.868  13.529  0.0678 -0.0213 -0.1381
 4608SOL    HW125460   4.311   0.833  13.561 -1.1212  0.5636  3.6217
 4608SOL    HW225461   4.247   0.954  13.494  1.6703  0.1682  1.2407
 4609SOL     OW25462   1.663   3.601  14.768  0.3173 -0.2420 -0.6227
 4609SOL    HW125463   1.691   3.693  14.765  0.1262 -0.1605  0.1723
 4609SOL    HW225464   1.685   3.581  14.677  1.7435  3.8124 -1.1796
 4610SOL     OW25465   3.063   1.277   4.699 -0.1496  0.2315  0.4476
 4610SOL    HW125466   3.102   1.314   4.778  0.8313 -0.8862  0.4862
 4610SOL    HW225467   3.022   1.195   4.726 -1.6497  1.2243  1.2078
 4611SOL     OW25468   0.113   2.991   6.971 -0.4933 -0.3515 -0.2957
 4611SOL    HW125469   0.047   2.925   6.950  0.5472 -0.7683 -2.2455
 4611SOL    HW225470   0.188   2.942   7.005  0.5033  0.1996 -1.7082
 4612SOL     OW25471   1.809   1.633   3.817 -1.0130 -0.1074 -0.1588
 4612SOL    HW125472   1.899   1.630   3.850 -0.9453  0.6798 -0.2754
 4612SOL    HW225473   1.774   1.544   3.825  0.0200 -0.3236  2.1765
 4613SOL     OW25474   2.943   2.284   8.181  0.7349  0.0239 -0.4633
 4613SOL    HW125475   2.958   2.378   8.188  1.2712 -0.2872  2.4832
 4613SOL    HW225476   2.994   2.255   8.257  0.5383 -0.3035 -0.4545
 4614SOL     OW25477   4.143   0.940   5.015  0.4380  0.2042 -0.2233
 4614SOL    HW125478   4.101   1.017   5.052  0.0895  0.7232 -1.6648
 4614SOL    HW225479   4.180   0.907   5.097 -1.2983 -2.0227 -0.3344
 4615SOL     OW25480   1.719   2.763  11.908  0.4669 -0.5279  0.0428
 4615SOL    HW125481   1.739   2.684  11.860 -0.0012 -1.2129  0.9653
 4615SOL    HW225482   1.765   2.752  11.991 -1.0183  1.9467  1.2219
 4616SOL     OW25483   4.663   0.645   7.423 -0.3223 -0.2522  0.3634
 4616SOL    HW125484   4.698   0.561   7.453  0.6593 -0.9048 -2.5677
 4616SOL    HW225485   4.569   0.635   7.438 -0.4382 -1.1042 -0.9216
 4617SOL     OW25486   2.547   2.601   7.010  0.3626  0.0291  0.2871
 4617SOL    HW125487   2.580   2.681   7.050  1.9812 -0.3433 -0.2767
 4617SOL    HW225488   2.457   2.619   6.983  0.4915  0.6850  0.3118
 4618SOL     OW25489   3.261   3.018   4.080  0.4921 -0.5195 -0.1266
 4618SOL    HW125490   3.308   3.082   4.134  1.0632  0.2416 -1.5238
 4618SOL    HW225491   3.171   3.046   4.097  1.9386  4.8427 -1.2608
 4619SOL     OW25492   2.033   1.420   7.489  0.2294  0.3543 -0.0606
 4619SOL    HW125493   2.043   1.442   7.582 -1.5970 -0.5787  0.3629
 4619SOL    HW225494   1.983   1.338   7.492  0.3790  0.2733  0.2005
 4620SOL     OW25495   0.117   3.509  10.633 -0.6985  0.1174  0.5296
 4620SOL    HW125496   0.095   3.475  10.720 -3.1694  3.2051  1.1197
 4620SOL    HW225497   0.109   3.601  10.657  0.1437  0.3922 -0.2308
 4621SOL     OW25498   3.909   2.593   6.708 -0.4269  0.3444  0.5138
 4621SOL    HW125499   3.913   2.611   6.614 -0.9628  3.1033  1.0019
 4621SOL    HW225500   3.913   2.498   6.718 -1.5151  0.2277 -0.1613
 4622SOL     OW25501   2.821   2.507   7.669 -0.1071  0.2703  0.3577
 4622SOL    HW125502   2.839   2.586   7.719 -1.4814 -0.5892  2.1976
 4622SOL    HW225503   2.788   2.545   7.587 -0.4286 -1.9646 -0.5573
 4623SOL     OW25504   4.232   3.086   1.134  0.4858  0.2831  0.4745
 4623SOL    HW125505   4.218   3.103   1.227  4.2577 -2.3874  1.5127
 4623SOL    HW225506   4.213   3.165   1.083  0.3851  0.7569  1.2440
 4624SOL     OW25507   1.513   1.557   9.249  0.0449  0.2049 -0.5661
 4624SOL    HW125508   1.546   1.634   9.203 -1.0668  0.4381 -0.9798
 4624SOL    HW225509   1.574   1.486   9.230  0.4364 -0.5421  3.4944
 4625SOL     OW25510   3.898   1.554   5.019 -0.2396 -0.7870  0.1982
 4625SOL    HW125511   3.953   1.604   4.958 -2.2251  1.7149  0.4509
 4625SOL    HW225512   3.823   1.545   4.959 -1.3068  0.5452  1.3100
 4626SOL     OW25513   4.382   3.254   3.668  0.1180  0.2859 -0.6242
 4626SOL    HW125514   4.356   3.322   3.729  0.7684 -0.0794  0.0607
 4626SOL    HW225515   4.295   3.237   3.632 -0.0227  0.3958 -0.3363
 4627SOL     OW25516   4.362   3.293   4.156 -0.5022  0.3979  0.5147
 4627SOL    HW125517   4.294   3.361   4.158  0.0946  0.9413  3.0307
 4627SOL    HW225518   4.307   3.224   4.194  0.2450 -0.8720 -0.7466
 4628SOL     OW25519   2.334   1.373   2.795 -0.2726  0.0214  0.8425
 4628SOL    HW125520   2.409   1.313   2.792 -0.1556  0.3418 -2.8446
 4628SOL    HW225521   2.334   1.396   2.887 -0.5453 -2.9590  1.6060
 4629SOL     OW25522   3.099   2.569  13.000 -0.0582 -0.8106 -0.4039
 4629SOL    HW125523   3.048   2.572  12.919 -2.6024 -0.0939  1.2024
 4629SOL    HW225524   3.077   2.481  13.032  1.4534 -0.6905  0.9933
 4630SOL     OW25525   1.007   4.149   7.952 -0.3407  0.9058  0.2256
 4630SOL    HW125526   1.011   4.133   7.858  0.9686 -2.2176  0.8133
 4630SOL    HW225527   0.981   4.063   7.986 -0.6595  1.3528  1.1072
 4631SOL     OW25528   4.575   2.579   1.693 -0.4162 -0.5362 -0.0922
 4631SOL    HW125529   4.503   2.623   1.648  0.9523  0.1110 -1.6736
 4631SOL    HW225530   4.648   2.581   1.631 -0.5008 -0.9802 -0.2104
 4632SOL     OW25531   1.009   1.880   8.410  0.7330  0.2286 -0.3153
 4632SOL    HW125532   1.039   1.912   8.325  3.3247 -0.9089  0.1658
 4632SOL    HW225533   0.918   1.906   8.421 -0.1701 -2.8381 -0.6699
 4633SOL     OW25534   2.427   2.478   7.345 -0.2553  0.1307 -0.2005
 4633SOL    HW125535   2.422   2.566   7.382 -1.0916 -0.1819  0.4251
 4633SOL    HW225536   2.488   2.439   7.407 -0.5556 -0.4675 -0.2881
 4634SOL     OW25537   1.214   1.820   6.497  0.1430 -0.1155 -0.5116
 4634SOL    HW125538   1.122   1.830   6.520  0.5466 -0.1365  1.1170
 4634SOL    HW225539   1.244   1.910   6.512  1.1327 -0.7070  1.1254
 4635SOL     OW25540   0.985   4.592   5.499  0.1213  0.6366 -0.1972
 4635SOL    HW125541   0.966   4.590   5.593 -0.6917  2.8355 -0.2989
 4635SOL    HW225542   0.932   4.519   5.469 -1.2871  0.7619  1.9640
 4636SOL     OW25543   4.405   0.495   7.272  0.3635 -0.0875 -0.4464
 4636SOL    HW125544   4.355   0.420   7.241 -1.3640  0.9922 -0.3034
 4636SOL    HW225545   4.432   0.519   7.182  0.0098 -2.0428 -1.0606
 4637SOL     OW25546   4.247   0.845   6.085 -0.1242  0.1756  0.0138
 4637SOL    HW125547   4.203   0.785   6.146 -0.9503  1.4132  0.6336
 4637SOL    HW225548   4.183   0.915   6.075 -0.5063 -0.4708 -2.0036
 4638SOL     OW25549   4.634   0.073   7.174  0.1210 -0.5570 -0.1264
 4638SOL    HW125550   4.638   0.088   7.269 -1.5010 -1.0092  0.0065
 4638SOL    HW225551   4.726   0.058   7.152 -0.0252 -0.7693 -0.5922
 4639SOL     OW25552   3.470   1.331   3.961 -0.5590 -0.0354  0.8812
 4639SOL    HW125553   3.519   1.249   3.969 -1.7868 -0.9498 -1.1000
 4639SOL    HW225554   3.410   1.324   4.035 -0.7407 -0.4267  0.6964
 4640SOL     OW25555   3.082   2.368   2.128  0.4563  0.4676 -0.6737
 4640SOL    HW125556   3.109   2.369   2.219  0.6724 -2.0089 -0.7159
 4640SOL    HW225557   3.027   2.446   2.119 -0.3722 -0.0760 -0.3631
 4641SOL     OW25558   2.439   3.536  11.911 -0.2106 -0.1217  0.6023
 4641SOL    HW125559   2.477   3.479  11.977 -0.5245  0.1427  1.0112
 4641SOL    HW225560   2.373   3.479  11.871 -0.4023  0.5708 -0.0727
 4642SOL     OW25561   1.705   0.427   4.856 -0.2627 -0.3076  0.0416
 4642SOL    HW125562   1.716   0.407   4.763 -1.5649  0.0868 -0.2057
 4642SOL    HW225563   1.765   0.501   4.867  0.2148 -0.2969 -2.5985
 4643SOL     OW25564   0.796   4.606   9.396  0.0920 -0.0141 -0.1509
 4643SOL    HW125565   0.878   4.562   9.375 -0.0950 -0.1778 -0.5329
 4643SOL    HW225566   0.797   4.571   9.485  3.0918  1.6239  0.4423
 4644SOL     OW25567   0.748   3.401   6.789 -0.5241  0.4652  0.1871
 4644SOL    HW125568   0.823   3.428   6.841 -1.1922  1.4085  0.6690
 4644SOL    HW225569   0.707   3.486   6.770  1.1439  1.2495  0.1431
 4645SOL     OW25570   4.685   3.691   3.221  0.6668 -1.0479  0.1484
 4645SOL    HW125571   4.653   3.606   3.189 -2.1523 -0.0072  0.1877
 4645SOL    HW225572   0.030   3.700   3.170 -1.9868  0.2733 -3.8354
 4646SOL     OW25573   0.176   0.900  10.263 -0.2289  0.2043 -0.0711
 4646SOL    HW125574   0.271   0.916  10.261 -0.0141 -0.8604  1.7534
 4646SOL    HW225575   0.159   0.942  10.179  0.0304 -2.6222 -1.5199
 4647SOL     OW25576   2.270   1.292   8.516  0.3039  0.0537  0.4796
 4647SOL    HW125577   2.258   1.369   8.571  0.3283 -1.2769  2.3541
 4647SOL    HW225578   2.230   1.220   8.566 -1.0561 -0.2165 -0.9918
 4648SOL     OW25579   4.504   2.020   6.835  0.1410  0.6644  0.4196
 4648SOL    HW125580   4.487   2.087   6.769 -1.0595 -0.3670 -0.3337
 4648SOL    HW225581   4.464   2.049   6.916  1.4546 -0.0415  1.3253
 4649SOL     OW25582   4.660   4.562   2.365  0.5293 -0.6150  0.3184
 4649SOL    HW125583   0.006   4.567   2.315  0.4027 -1.8541 -0.0265
 4649SOL    HW225584   4.643   4.468   2.372  3.2299 -1.2387 -1.5188
 4650SOL     OW25585   3.962   4.655   6.570 -0.0692  0.0610 -0.1517
 4650SOL    HW125586   4.027   4.721   6.595 -0.6723 -0.0911  1.8094
 4650SOL    HW225587   4.023   4.602   6.519 -0.9284 -3.2211  2.2422
 4651SOL     OW25588   0.397   3.738   2.849 -0.0620  0.6634  0.1067
 4651SOL    HW125589   0.421   3.823   2.885 -0.5365  0.6357  0.4932
 4651SOL    HW225590   0.347   3.764   2.772 -1.5029 -3.6640 -0.4377
 4652SOL     OW25591   0.193   0.131   6.758  0.0903  0.2770  0.1023
 4652SOL    HW125592   0.231   0.146   6.671 -1.7560  1.1907 -0.5341
 4652SOL    HW225593   0.099   0.142   6.745  0.0156 -1.6898 -1.0326
 4653SOL     OW25594   1.436   3.657   3.602  0.1456 -0.4559 -0.2841
 4653SOL    HW125595   1.438   3.667   3.697 -1.0534  0.1295 -0.3238
 4653SOL    HW225596   1.404   3.568   3.589 -0.1942 -0.1706 -1.3678
 4654SOL     OW25597   1.001   2.680  11.505  0.3740 -0.1124  0.1424
 4654SOL    HW125598   0.996   2.764  11.460 -1.3425 -0.5220 -0.4545
 4654SOL    HW225599   1.085   2.649  11.470  0.8929  1.9558 -0.4322
 4655SOL     OW25600   1.739   0.449   4.570  0.3010  0.0265  0.2216
 4655SOL    HW125601   1.773   0.490   4.491 -1.9521  0.2933 -0.6052
 4655SOL    HW225602   1.717   0.362   4.537 -0.5061 -0.9238  3.3048
 4656SOL     OW25603   2.367   1.343   9.077  0.0107  0.6123 -0.2363
 4656SOL    HW125604   2.459   1.316   9.072 -0.0423 -0.2301  3.4325
 4656SOL    HW225605   2.366   1.439   9.076  0.5999  0.6257  0.2943
 4657SOL     OW25606   0.946   4.359   4.795  0.5811 -0.0539 -0.5411
 4657SOL    HW125607   0.850   4.366   4.791  0.5761  0.1241 -0.1091
 4657SOL    HW225608   0.968   4.343   4.703 -0.2643  0.0201 -0.7566
 4658SOL     OW25609   2.017   2.629   7.185 -0.3417 -0.2347 -0.4377
 4658SOL    HW125610   2.049   2.564   7.248  0.6246 -1.0167 -1.7513
 4658SOL    HW225611   1.974   2.701   7.231  1.3319  0.9084 -0.6841
 4659SOL     OW25612   0.654   3.366   8.744  0.1895 -0.1841 -0.1763
 4659SOL    HW125613   0.698   3.378   8.828 -0.1450 -1.6914  0.2193
 4659SOL    HW225614   0.602   3.286   8.753  0.8303 -0.6848 -0.9127
 4660SOL     OW25615   0.539   3.960   2.637 -0.3894  0.3069  0.0480
 4660SOL    HW125616   0.621   4.008   2.649 -1.4567  1.8712  1.0858
 4660SOL    HW225617   0.551   3.892   2.704  0.1818  2.0133  1.6934
 4661SOL     OW25618   1.194   4.551   7.792 -0.5614  0.2433  0.7514
 4661SOL    HW125619   1.099   4.539   7.802 -0.6150 -1.6153 -1.9102
 4661SOL    HW225620   1.215   4.457   7.797  1.6850  0.7833  1.4998
 4662SOL     OW25621   2.083   1.254  12.020  0.0675  1.1532 -0.0136
 4662SOL    HW125622   2.037   1.176  12.049 -0.2264  0.5361 -2.1376
 4662SOL    HW225623   2.160   1.201  11.998 -0.6483  0.5428 -1.0226
 4663SOL     OW25624   0.833   3.825   1.380 -0.1458  0.1277  0.1404
 4663SOL    HW125625   0.895   3.876   1.431  0.5504 -1.4377  0.8793
 4663SOL    HW225626   0.899   3.769   1.337  0.6755 -0.4153  2.1257
 4664SOL     OW25627   1.783   0.698   2.638  0.2309  0.1171  0.0124
 4664SOL    HW125628   1.778   0.783   2.594  1.3489 -0.3753 -1.0757
 4664SOL    HW225629   1.699   0.696   2.683 -1.2560 -0.0567 -2.8397
 4665SOL     OW25630   1.907   2.423  12.870 -0.3489  0.4777 -0.4597
 4665SOL    HW125631   1.909   2.339  12.916 -0.1809  2.5614  3.4011
 4665SOL    HW225632   1.898   2.391  12.781 -0.2789 -1.0419  0.0823
 4666SOL     OW25633   1.955   2.228   3.545 -0.0371  0.3478  0.1205
 4666SOL    HW125634   1.941   2.163   3.614 -0.1094 -0.3795 -0.5877
 4666SOL    HW225635   1.931   2.304   3.597 -1.0724 -1.6249  2.5342
 4667SOL     OW25636   2.367   2.187   4.593  0.8141 -0.3948 -0.0794
 4667SOL    HW125637   2.284   2.230   4.576  1.8354  1.3565 -0.6351
 4667SOL    HW225638   2.378   2.124   4.521  1.1369  0.7870 -1.0584
 4668SOL     OW25639   3.410   4.476   2.350  0.7582 -0.4705 -0.1719
 4668SOL    HW125640   3.417   4.502   2.441 -1.6095 -1.7598  0.3769
 4668SOL    HW225641   3.453   4.551   2.310 -0.2687 -1.1983 -2.6355
 4669SOL     OW25642   3.412   2.664   5.828 -0.1959 -0.5593  0.8224
 4669SOL    HW125643   3.329   2.667   5.779  0.0002  0.3753  0.5591
 4669SOL    HW225644   3.464   2.608   5.770  1.6426  1.8810  0.1380
 4670SOL     OW25645   4.586   1.710   3.302 -0.1459  0.0910 -0.1561
 4670SOL    HW125646   4.496   1.739   3.293 -0.3231  0.3443  2.3376
 4670SOL    HW225647   4.627   1.776   3.359  0.5344  0.8457 -1.5285
 4671SOL     OW25648   3.738   2.372   7.112 -0.1424 -0.1365 -0.2512
 4671SOL    HW125649   3.826   2.341   7.134 -0.5294 -1.3707 -0.4339
 4671SOL    HW225650   3.677   2.322   7.166 -1.9537  2.8470  0.4312
 4672SOL     OW25651   0.866   3.232  13.678  0.1655  0.0555  0.1927
 4672SOL    HW125652   0.802   3.263  13.614 -0.6760 -2.0965 -0.0062
 4672SOL    HW225653   0.918   3.176  13.621 -1.5133  1.4777 -2.7323
 4673SOL     OW25654   0.404   1.273  17.159 -0.1362 -0.0285  0.6178
 4673SOL    HW125655   0.401   1.356  17.113  0.3823 -0.8260 -0.8640
 4673SOL    HW225656   0.376   1.208  17.094  2.9457 -0.8627  0.1182
 4674SOL     OW25657   1.778   0.859   5.710  1.1866  0.1523 -0.4364
 4674SOL    HW125658   1.747   0.933   5.657 -0.7285  0.5756  1.2902
 4674SOL    HW225659   1.729   0.880   5.789 -0.4276  1.3869 -1.7772
 4675SOL     OW25660   2.563   3.029  13.646  0.7129 -0.3024  0.6583
 4675SOL    HW125661   2.601   2.958  13.593 -0.4148 -1.5281  1.5106
 4675SOL    HW225662   2.583   3.108  13.596 -1.6885  0.4077  0.8499
 4676SOL     OW25663   1.785   1.796   0.525 -0.3434 -0.3340 -0.6307
 4676SOL    HW125664   1.730   1.856   0.475  1.4120  1.8456  0.0505
 4676SOL    HW225665   1.793   1.726   0.460 -1.4199  1.2253 -2.4282
 4677SOL     OW25666   3.458   2.780   4.489  0.2932 -0.5851 -0.0620
 4677SOL    HW125667   3.439   2.773   4.583 -1.2624  0.0509 -0.3352
 4677SOL    HW225668   3.550   2.805   4.503 -0.9779  3.6832  0.4767
 4678SOL     OW25669   2.619   1.778   4.309 -0.5972  0.2959  0.1218
 4678SOL    HW125670   2.712   1.775   4.329 -0.9850 -3.2106  1.4449
 4678SOL    HW225671   2.581   1.745   4.391 -0.2789  3.4371  1.5251
 4679SOL     OW25672   0.029   4.227   8.711  0.2541  0.1951 -0.1096
 4679SOL    HW125673   0.113   4.183   8.724 -0.4955 -1.6376 -1.3144
 4679SOL    HW225674   0.038   4.252   8.619 -2.5220  0.5133 -0.3180
 4680SOL     OW25675   4.715   4.511   6.892 -0.4729 -0.4043  0.5320
 4680SOL    HW125676   4.690   4.535   6.803 -0.1455  1.7446  1.0293
 4680SOL    HW225677   4.637   4.518   6.948 -0.0030  0.4113  1.0853
 4681SOL     OW25678   1.938   4.312   6.878 -0.2514  0.0448  0.0516
 4681SOL    HW125679   2.019   4.310   6.827 -1.4662 -2.2990 -1.7612
 4681SOL    HW225680   1.902   4.400   6.864 -2.5393 -0.8884  0.0310
 4682SOL     OW25681   2.036   1.895   2.415  0.0954  0.2367 -0.2432
 4682SOL    HW125682   2.043   1.809   2.456 -2.8409 -0.7943 -1.9125
 4682SOL    HW225683   2.053   1.858   2.329  0.0631 -2.6231  0.9719
 4683SOL     OW25684   4.553   3.687   9.067 -0.7538 -0.2773  0.6179
 4683SOL    HW125685   4.609   3.733   9.005  1.0789 -1.1769  1.5992
 4683SOL    HW225686   4.615   3.622   9.099  0.1024  0.5044  0.5466
 4684SOL     OW25687   0.252   3.194  14.669  0.1226 -0.3578 -0.1099
 4684SOL    HW125688   0.315   3.126  14.692  1.5290 -0.3262 -3.8765
 4684SOL    HW225689   0.283   3.220  14.582  2.1840  0.2553  0.8015
 4685SOL     OW25690   3.035   3.181   3.822 -0.3931 -0.0255 -0.0455
 4685SOL    HW125691   3.104   3.121   3.792  0.4870  2.1094 -2.3026
 4685SOL    HW225692   2.960   3.124   3.838 -1.3258  1.1110 -0.3129
 4686SOL     OW25693   2.736   3.852   5.552  0.2527  0.0919 -0.2824
 4686SOL    HW125694   2.689   3.912   5.493 -0.8856  1.1148  1.6743
 4686SOL    HW225695   2.807   3.908   5.585 -0.2366 -0.7913  2.2537
 4687SOL     OW25696   2.785   4.641   8.213 -0.5948  0.8967  0.0778
 4687SOL    HW125697   2.772   4.726   8.254  0.3377  1.8817 -1.6535
 4687SOL    HW225698   2.877   4.626   8.236 -0.9287 -0.7367  0.3618
 4688SOL     OW25699   1.433   2.831  15.246  0.2475 -0.1094 -0.7588
 4688SOL    HW125700   1.520   2.794  15.261 -0.2979 -0.9113  0.4385
 4688SOL    HW225701   1.448   2.925  15.257  3.6665 -0.8988  1.5150
 4689SOL     OW25702   1.343   1.190   7.831 -0.3200  0.0102 -0.1106
 4689SOL    HW125703   1.360   1.103   7.866  0.2077  0.3820  0.5555
 4689SOL    HW225704   1.405   1.246   7.876 -0.0659 -0.8790  0.6386
 4690SOL     OW25705   2.584   0.515   4.677  0.1678  0.2065  0.0274
 4690SOL    HW125706   2.645   0.449   4.644  0.8039  0.1602  1.2914
 4690SOL    HW225707   2.643   0.589   4.694 -2.2009  1.9558  0.5476
 4691SOL     OW25708   1.464   1.500  10.619  0.8673  0.5762  0.2730
 4691SOL    HW125709   1.467   1.433  10.688  0.2578  1.0717  0.7787
 4691SOL    HW225710   1.373   1.525  10.631 -0.2138 -2.6420 -1.0548
 4692SOL     OW25711   1.759   0.728   8.717 -0.2850  0.0513  0.6608
 4692SOL    HW125712   1.832   0.688   8.764  0.0206 -1.0162 -0.7418
 4692SOL    HW225713   1.800   0.760   8.637 -0.4042 -1.3825  0.0154
 4693SOL     OW25714   2.210   2.386  15.147 -1.0110 -0.6756  0.5904
 4693SOL    HW125715   2.240   2.388  15.056 -2.4158 -1.6758  0.0977
 4693SOL    HW225716   2.276   2.326  15.182  0.3577  0.7634  0.4642
 4694SOL     OW25717   3.826   1.566   6.895 -0.1560 -0.5870  0.4948
 4694SOL    HW125718   3.823   1.552   6.800  0.0239  0.2817  0.3637
 4694SOL    HW225719   3.738   1.561   6.932 -0.2424  2.1294  0.6393
 4695SOL     OW25720   3.966   1.840   5.202 -0.3092  0.1656 -0.3278
 4695SOL    HW125721   3.960   1.782   5.126 -1.9174  0.0993 -0.1386
 4695SOL    HW225722   4.054   1.817   5.231 -1.3962  0.2563  3.0581
 4696SOL     OW25723   0.307   1.364   3.611  0.1936 -0.3620 -0.4532
 4696SOL    HW125724   0.385   1.410   3.641 -0.9696 -0.3938  2.5963
 4696SOL    HW225725   0.335   1.334   3.524  1.2023 -1.5556  0.2791
 4697SOL     OW25726   1.456   1.598   4.889  0.3977 -0.0561  0.4709
 4697SOL    HW125727   1.423   1.563   4.972 -0.3287 -1.0116 -0.2289
 4697SOL    HW225728   1.381   1.610   4.831  1.3040  0.2493 -0.6163
 4698SOL     OW25729   3.181   2.450   6.911 -0.1143 -0.2903 -0.4841
 4698SOL    HW125730   3.162   2.451   7.005 -1.6813  1.6706 -0.8129
 4698SOL    HW225731   3.253   2.513   6.909 -0.3156 -0.0169  0.8381
 4699SOL     OW25732   0.633   2.273  17.392  0.4257  0.3355 -0.1485
 4699SOL    HW125733   0.587   2.198  17.355  1.3938 -0.7211  0.7985
 4699SOL    HW225734   0.678   2.304  17.314  1.4377 -1.4723 -0.2800
 4700SOL     OW25735   3.003   4.673   6.941  0.5126 -0.3857  0.0851
 4700SOL    HW125736   3.074   4.650   6.881  0.3839  0.5641 -0.4264
 4700SOL    HW225737   2.945   4.597   6.949  0.9035 -0.9472 -2.5010
 4701SOL     OW25738   1.201   0.385   8.108 -0.5185  0.1473  0.0027
 4701SOL    HW125739   1.127   0.353   8.056 -0.9400  0.1333  0.6141
 4701SOL    HW225740   1.225   0.311   8.164 -3.2479 -2.5422 -2.3926
 4702SOL     OW25741   1.599   0.294   6.569  0.0906 -0.1419  0.7652
 4702SOL    HW125742   1.602   0.258   6.480 -1.9621  0.3529  0.5118
 4702SOL    HW225743   1.548   0.224   6.609  0.9966 -0.4150  1.4362
 4703SOL     OW25744   0.528   1.286   6.458 -0.1183  0.1482 -0.2278
 4703SOL    HW125745   0.473   1.337   6.398  1.5346 -0.1540 -2.0059
 4703SOL    HW225746   0.482   1.274   6.541  0.8831 -0.3074  0.2617
 4704SOL     OW25747   1.231   3.248  16.739 -0.3134  0.0428 -1.3796
 4704SOL    HW125748   1.204   3.199  16.662 -0.2247 -1.4632 -0.4520
 4704SOL    HW225749   1.314   3.293  16.727 -0.2503  1.0430  2.6049
 4705SOL     OW25750   4.298   2.969   8.697 -0.3356 -0.4818 -0.1644
 4705SOL    HW125751   4.280   3.041   8.756 -0.0982  0.6418 -1.4614
 4705SOL    HW225752   4.237   2.905   8.732 -2.5392  3.2827  2.8140
 4706SOL     OW25753   3.983   0.003   9.656  0.1539  0.2556 -0.1987
 4706SOL    HW125754   4.021   4.663   9.701 -0.1460  0.3242  0.1697
 4706SOL    HW225755   4.060   0.059   9.642  0.7921 -0.0223  2.2251
 4707SOL     OW25756   4.172   1.169   1.484  0.0237  0.0128  0.2541
 4707SOL    HW125757   4.241   1.202   1.426  1.5536  0.4541  2.3277
 4707SOL    HW225758   4.215   1.177   1.569 -0.3782 -0.0131  0.4607
 4708SOL     OW25759   3.305   4.481   6.243  0.1520  0.0108  0.5590
 4708SOL    HW125760   3.226   4.516   6.282 -1.1644 -0.2670 -1.8606
 4708SOL    HW225761   3.307   4.542   6.169  0.4281  1.5705  1.8348
 4709SOL     OW25762   2.059   4.362   4.030 -0.3832 -0.1847  0.2401
 4709SOL    HW125763   2.134   4.303   4.021 -1.4089 -1.2902 -1.1404
 4709SOL    HW225764   1.993   4.319   3.976 -2.2030  0.7956  1.6907
 4710SOL     OW25765   3.253   2.399  11.691  0.0677 -0.7122 -0.2275
 4710SOL    HW125766   3.211   2.478  11.658  3.1345  1.4884  1.1035
 4710SOL    HW225767   3.245   2.340  11.616  0.9305  0.4274 -1.2128
 4711SOL     OW25768   3.482   2.331   3.085  0.1238  0.1023  0.1876
 4711SOL    HW125769   3.450   2.356   3.172  0.7484 -0.2359  0.5186
 4711SOL    HW225770   3.537   2.257   3.113 -2.4675 -1.9699 -0.2365
 4712SOL     OW25771   0.750   0.717   0.066  0.6269  0.4581  0.1625
 4712SOL    HW125772   0.721   0.718  17.716 -2.1189  0.3882  1.0199
 4712SOL    HW225773   0.845   0.712   0.053  0.4557  0.6833 -1.2049
 4713SOL     OW25774   1.400   1.220  10.028 -0.5683  0.4183  0.3561
 4713SOL    HW125775   1.428   1.309  10.006  0.3648  0.1460  0.4585
 4713SOL    HW225776   1.327   1.214   9.966  0.1337 -1.0191 -0.3340
 4714SOL     OW25777   3.833   4.379   3.236 -0.0682 -0.7134 -0.0543
 4714SOL    HW125778   3.917   4.412   3.205 -0.6344  1.3361  0.5827
 4714SOL    HW225779   3.814   4.318   3.165 -1.2468 -1.7020  1.1071
 4715SOL     OW25780   2.029   3.777  13.850  0.2604  0.5221 -0.3706
 4715SOL    HW125781   2.037   3.709  13.784 -2.8143  0.6135 -0.8154
 4715SOL    HW225782   1.948   3.823  13.829  0.2375  0.5786 -0.1601
 4716SOL     OW25783   2.265   1.944   4.674 -0.0977  0.1358 -0.3612
 4716SOL    HW125784   2.286   2.037   4.671  2.0982 -0.2634  2.4331
 4716SOL    HW225785   2.272   1.927   4.768 -0.4347 -1.0087 -0.5427
 4717SOL     OW25786   0.416   3.515   7.800 -0.0975  0.3796  0.1217
 4717SOL    HW125787   0.350   3.491   7.735 -1.5357  2.7493  0.7313
 4717SOL    HW225788   0.495   3.525   7.747 -0.9590 -1.9474 -1.5851
 4718SOL     OW25789   0.879   1.065   6.787  0.2366 -0.0267 -0.2663
 4718SOL    HW125790   0.850   1.154   6.769 -0.7353 -0.0726  1.0644
 4718SOL    HW225791   0.923   1.047   6.704  2.0085 -0.1093  0.6917
 4719SOL     OW25792   1.129   0.579   6.705 -0.1714  0.4087  0.3560
 4719SOL    HW125793   1.128   0.488   6.674 -3.6724  0.9183 -1.0288
 4719SOL    HW225794   1.194   0.628   6.654 -0.1795  1.3324  1.2378
 4720SOL     OW25795   3.815   1.027   5.948 -0.1400 -0.5169  0.0552
 4720SOL    HW125796   3.781   1.027   6.038 -0.8826 -0.2966 -0.2187
 4720SOL    HW225797   3.796   1.120   5.933 -0.8386 -0.6749 -0.0770
 4721SOL     OW25798   0.210   0.280   1.429 -0.1562 -0.0980 -0.0130
 4721SOL    HW125799   0.266   0.219   1.477 -1.5503 -0.7203  0.8251
 4721SOL    HW225800   0.125   0.237   1.441 -0.4670  0.4246 -0.3538
 4722SOL     OW25801   0.690   3.857   3.181 -0.2690  0.6931 -0.8431
 4722SOL    HW125802   0.739   3.802   3.120  2.1259  1.6744  0.1900
 4722SOL    HW225803   0.761   3.880   3.240 -0.1719 -0.0521 -0.6746
 4723SOL     OW25804   1.918   2.568   9.914 -0.7003 -0.1548  0.4059
 4723SOL    HW125805   2.010   2.561   9.890 -0.3091  1.6504  1.3513
 4723SOL    HW225806   1.908   2.499   9.981  0.7450  0.4760  1.2738
 4724SOL     OW25807   3.767   3.710   4.061 -0.3646 -0.6175  0.5524
 4724SOL    HW125808   3.730   3.623   4.075 -1.0859 -0.4332 -0.2390
 4724SOL    HW225809   3.747   3.754   4.143 -0.5329 -2.2779  1.4001
 4725SOL     OW25810   0.837   2.222   5.830  0.2788 -0.5366  0.0707
 4725SOL    HW125811   0.919   2.259   5.862 -1.4715  2.3191  1.2518
 4725SOL    HW225812   0.864   2.131   5.816  0.3243 -0.6741  1.0278
 4726SOL     OW25813   1.299   0.421  11.142 -0.0292 -1.1264  0.1013
 4726SOL    HW125814   1.305   0.511  11.109 -1.1768 -1.9294 -2.2893
 4726SOL    HW225815   1.220   0.391  11.097 -0.5795  0.2487  0.1626
 4727SOL     OW25816   3.803   0.257   3.993  0.0868  0.6630  0.1681
 4727SOL    HW125817   3.824   0.184   3.935  1.8760  1.4099 -0.1261
 4727SOL    HW225818   3.806   0.332   3.934  0.1892  2.0857  1.9743
 4728SOL     OW25819   0.595   1.750  13.468  0.2479 -0.2730  0.1942
 4728SOL    HW125820   0.524   1.766  13.406  1.2498 -0.9291 -1.1232
 4728SOL    HW225821   0.570   1.671  13.516 -0.5863  0.5684  1.1507
 4729SOL     OW25822   1.690   0.441   5.285 -0.2253 -0.3055 -0.1822
 4729SOL    HW125823   1.753   0.501   5.245  0.2593  0.3492  1.5421
 4729SOL    HW225824   1.754   0.390   5.336 -2.0948 -1.9623  0.4820
 4730SOL     OW25825   2.078   3.374  17.411 -0.2216  0.5050 -0.2195
 4730SOL    HW125826   2.105   3.430  17.484  3.0440  0.4704 -1.4066
 4730SOL    HW225827   1.983   3.389  17.408 -0.1289  0.6638 -2.2181
 4731SOL     OW25828   4.667   3.437   3.019 -0.3084  0.3241  0.1965
 4731SOL    HW125829   4.616   3.461   2.942 -0.7402  0.1790  0.4401
 4731SOL    HW225830   0.020   3.438   2.982  0.2566 -1.2871  1.4950
 4732SOL     OW25831   2.402   2.140  11.556 -0.3300  0.2242 -0.7780
 4732SOL    HW125832   2.482   2.187  11.577 -0.6638  1.1346 -1.5590
 4732SOL    HW225833   2.428   2.048  11.567  0.3163  0.6785  1.5862
 4733SOL     OW25834   2.039   1.711   6.738  0.2162 -0.1997  1.3869
 4733SOL    HW125835   2.076   1.678   6.820  1.2543  0.4975  1.1985
 4733SOL    HW225836   1.959   1.659   6.725  1.4954 -2.2750  1.9660
 4734SOL     OW25837   1.266   1.429  15.467  0.5578 -0.2477  0.4022
 4734SOL    HW125838   1.200   1.456  15.403  1.4711 -0.0285 -0.4552
 4734SOL    HW225839   1.323   1.505  15.473  0.6418 -0.1992 -1.0386
 4735SOL     OW25840   2.959   3.245  17.457 -0.3897 -0.0445  0.1323
 4735SOL    HW125841   2.979   3.307  17.387 -1.7198 -0.5600 -0.6946
 4735SOL    HW225842   3.037   3.245  17.512 -1.1869  0.9917  1.2407
 4736SOL     OW25843   4.271   0.575   1.775  0.5675 -0.0777 -0.2535
 4736SOL    HW125844   4.272   0.538   1.864 -1.3872 -1.3693 -0.7818
 4736SOL    HW225845   4.211   0.517   1.730 -1.5240 -0.1582  2.6341
 4737SOL     OW25846   3.904   3.557   9.018  0.6128 -0.0269 -0.1909
 4737SOL    HW125847   3.988   3.589   9.049  0.0177  0.9986  0.3467
 4737SOL    HW225848   3.851   3.634   8.996  0.9976  1.5123  4.2880
 4738SOL     OW25849   0.705   4.371   2.899 -0.5212  0.2697 -0.7704
 4738SOL    HW125850   0.710   4.457   2.857  1.2081  0.3339 -0.4192
 4738SOL    HW225851   0.698   4.392   2.992  0.8964  1.5352 -0.9534
 4739SOL     OW25852   4.341   3.756   1.098  0.1910 -0.0914 -0.5295
 4739SOL    HW125853   4.321   3.705   1.019  2.3834  1.6356 -2.1880
 4739SOL    HW225854   4.254   3.791   1.118  0.1618 -0.3914 -0.1340
 4740SOL     OW25855   3.668   1.817  10.581 -0.3357 -0.5360 -0.2526
 4740SOL    HW125856   3.690   1.740  10.634  1.6492 -0.6829 -1.2864
 4740SOL    HW225857   3.576   1.793  10.572 -0.8430  0.8588  1.2883
 4741SOL     OW25858   4.327   3.535   9.383  0.2746 -0.0760 -0.0136
 4741SOL    HW125859   4.331   3.568   9.293 -4.0578 -2.2260 -0.9782
 4741SOL    HW225860   4.236   3.556   9.399  0.2115  1.0512 -1.8410
 4742SOL     OW25861   4.016   0.830   9.306 -0.6762 -0.0169 -0.3098
 4742SOL    HW125862   4.043   0.845   9.216  0.6243  0.4515  0.1669
 4742SOL    HW225863   4.016   0.922   9.331  0.9581  0.4291 -1.9183
 4743SOL     OW25864   3.728   0.474   4.639 -0.6315  0.5562  0.6665
 4743SOL    HW125865   3.704   0.386   4.610  0.5585  1.1775 -2.2299
 4743SOL    HW225866   3.786   0.456   4.712 -0.0587 -1.1994 -0.2209
 4744SOL     OW25867   3.395   3.090   9.256  0.6994 -0.1476 -0.1394
 4744SOL    HW125868   3.417   3.005   9.218  2.0046 -0.0237  0.3654
 4744SOL    HW225869   3.392   3.136   9.172 -0.7433 -0.0277 -0.0262
 4745SOL     OW25870   4.695   0.203   5.237 -0.2410  0.3982  0.4852
 4745SOL    HW125871   4.731   0.286   5.268 -1.8041  0.9117  0.9287
 4745SOL    HW225872   4.625   0.237   5.183 -0.2435 -0.3015  0.0493
 4746SOL     OW25873   3.709   1.714   3.490 -0.1767 -0.0832  0.1869
 4746SOL    HW125874   3.706   1.620   3.471  0.7869 -0.1494  0.3508
 4746SOL    HW225875   3.618   1.718   3.519  0.0368 -0.7187  0.9582
 4747SOL     OW25876   2.976   1.137   0.653 -0.2277 -0.3293 -0.3417
 4747SOL    HW125877   3.013   1.076   0.589  1.6659  2.2620 -1.7326
 4747SOL    HW225878   2.948   1.202   0.588  0.7356 -1.4797 -1.8963
 4748SOL     OW25879   2.713   0.447   2.908 -0.6783 -0.0388 -0.0807
 4748SOL    HW125880   2.696   0.541   2.907  0.4620  0.1454 -2.1052
 4748SOL    HW225881   2.661   0.410   2.837  2.5554 -1.8184 -1.5054
 4749SOL     OW25882   4.060   1.069  12.885  0.0173  0.3168 -0.2170
 4749SOL    HW125883   4.059   1.005  12.814 -1.3584 -1.4237  1.3723
 4749SOL    HW225884   4.018   1.144  12.842  0.2856  1.5134  1.6030
 4750SOL     OW25885   0.361   0.489   2.865 -0.0493 -0.5353  0.1477
 4750SOL    HW125886   0.394   0.423   2.927  1.5947  1.3503  1.2735
 4750SOL    HW225887   0.295   0.537   2.913 -0.6955 -1.6372  0.3520
 4751SOL     OW25888   0.860   4.388  10.110 -0.3195 -0.3734  0.2701
 4751SOL    HW125889   0.908   4.411  10.031 -0.9099 -1.7821 -0.5146
 4751SOL    HW225890   0.876   4.466  10.162 -4.5827  0.8855 -0.3017
 4752SOL     OW25891   1.551   4.007   3.033  0.2562 -0.0937 -0.3872
 4752SOL    HW125892   1.573   4.076   3.095 -0.0702  0.4118 -0.8252
 4752SOL    HW225893   1.551   3.935   3.095 -1.7158  0.0305 -0.2197
 4753SOL     OW25894   3.763   1.341   2.713  0.2982 -0.0903 -0.4013
 4753SOL    HW125895   3.853   1.328   2.745  0.0114 -0.3013  0.3213
 4753SOL    HW225896   3.709   1.296   2.778  0.6778 -0.1954 -0.1588
 4754SOL     OW25897   2.447   1.332  12.966  0.7477 -0.3371 -0.3799
 4754SOL    HW125898   2.352   1.321  12.968  1.0789 -2.8869  0.6232
 4754SOL    HW225899   2.464   1.336  12.872  3.6312  1.2101  0.1927
 4755SOL     OW25900   2.410   2.071   0.292 -0.4175  0.1046  0.7196
 4755SOL    HW125901   2.460   1.990   0.299 -1.5318 -0.7985 -1.7790
 4755SOL    HW225902   2.336   2.034   0.340 -0.0848 -2.2216 -0.5587
 4756SOL     OW25903   0.130   4.698   3.463  0.4620 -0.5174  0.3988
 4756SOL    HW125904   0.125   4.638   3.537  4.8231 -0.3718  0.7808
 4756SOL    HW225905   0.136   4.641   3.386 -0.3564  1.0667 -0.8564
 4757SOL     OW25906   4.456   1.348   1.944  0.6515 -0.2732  0.8592
 4757SOL    HW125907   4.540   1.389   1.928 -0.1533  0.1482 -2.1933
 4757SOL    HW225908   4.431   1.401   2.020  0.2367 -0.5065  0.8855
 4758SOL     OW25909   1.255   4.280   5.933  0.2415  0.2967  0.1878
 4758SOL    HW125910   1.277   4.193   5.968 -0.8667 -0.6168 -1.3679
 4758SOL    HW225911   1.195   4.258   5.862  0.0931  1.0010  0.1007
 4759SOL     OW25912   2.973   3.698   4.422 -0.0090 -0.4128 -0.5137
 4759SOL    HW125913   3.021   3.648   4.356  0.8705 -0.3858  0.1056
 4759SOL    HW225914   2.952   3.630   4.485 -2.1052  2.9862  2.4786
 4760SOL     OW25915   0.149   2.019   7.534  0.6141 -0.2078 -0.3447
 4760SOL    HW125916   0.124   2.079   7.464 -1.5285  1.0065  1.4499
 4760SOL    HW225917   0.107   2.051   7.614 -1.2504  0.5354 -1.6234
 4761SOL     OW25918   3.946   0.333   3.429 -0.1668 -0.6621 -0.5236
 4761SOL    HW125919   4.025   0.332   3.375  0.9014  0.2335  1.0346
 4761SOL    HW225920   3.916   0.243   3.419  0.6673 -0.6730 -3.0240
 4762SOL     OW25921   4.716   0.562   3.461 -0.5335 -0.9611  0.3860
 4762SOL    HW125922   0.037   0.539   3.387 -2.1242  3.0528 -2.0792
 4762SOL    HW225923   0.037   0.524   3.528 -0.9987 -2.1089  0.1265
 4763SOL     OW25924   3.021   4.173   3.220 -0.1779  0.0580 -0.3122
 4763SOL    HW125925   3.003   4.267   3.217 -1.2533 -0.0733  2.4342
 4763SOL    HW225926   3.079   4.175   3.143  0.7296  1.2397  0.3949
 4764SOL     OW25927   1.947   2.615  13.965  0.2318 -0.1856  0.5255
 4764SOL    HW125928   1.899   2.688  14.004 -0.0912 -0.6811  1.0451
 4764SOL    HW225929   2.033   2.658  13.961  0.6947 -1.0471  1.3013
 4765SOL     OW25930   4.443   0.310  10.056 -0.3761  0.1160 -0.5673
 4765SOL    HW125931   4.493   0.339  10.132  0.3764 -2.7193  0.0431
 4765SOL    HW225932   4.418   0.392  10.013  0.5269  1.9493  2.4384
 4766SOL     OW25933   1.223   2.091  14.742  0.6044 -0.5587  0.0609
 4766SOL    HW125934   1.291   2.155  14.764 -0.8691  0.9763  0.1920
 4766SOL    HW225935   1.217   2.041  14.823  2.5654 -2.9639 -1.2820
 4767SOL     OW25936   1.284   4.302   7.776  0.5659  0.3371  0.1412
 4767SOL    HW125937   1.330   4.229   7.817 -0.8707  0.1222  1.3820
 4767SOL    HW225938   1.297   4.274   7.686  0.9348  1.0206 -0.0264
 4768SOL     OW25939   4.718   2.409   6.931  0.5758  0.6232 -0.2270
 4768SOL    HW125940   0.026   2.470   6.990  0.7539 -0.1391  0.4179
 4768SOL    HW225941   0.048   2.360   6.882 -1.7464 -2.3905 -0.3644
 4769SOL     OW25942   1.546   2.760  12.477 -0.5688 -0.1741 -0.3467
 4769SOL    HW125943   1.597   2.835  12.506  0.4892 -0.6619 -0.9442
 4769SOL    HW225944   1.454   2.787  12.486 -1.0082 -2.2127  1.4686
 4770SOL     OW25945   0.942   3.379   2.629  0.0091  0.0367 -0.0115
 4770SOL    HW125946   0.944   3.475   2.624 -0.5693  0.2234  3.4259
 4770SOL    HW225947   0.899   3.363   2.713 -0.0114  2.3937  0.4316
 4771SOL     OW25948   0.917   0.272   9.156  0.2154  0.1383  0.4373
 4771SOL    HW125949   0.976   0.251   9.229  1.1400  0.5633 -0.1861
 4771SOL    HW225950   0.888   0.181   9.144  1.9867 -0.4071  0.2548
 4772SOL     OW25951   0.428   3.732   5.514  0.2076 -0.4063  0.6865
 4772SOL    HW125952   0.508   3.686   5.491 -0.3548 -2.3292  2.6004
 4772SOL    HW225953   0.462   3.766   5.597 -1.2187  1.3032  0.5802
 4773SOL     OW25954   0.638   3.569  12.762 -0.1354 -0.2723  0.3796
 4773SOL    HW125955   0.711   3.551  12.821 -0.8137  0.9993  1.6009
 4773SOL    HW225956   0.653   3.496  12.702  1.1152  0.8357 -0.6430
 4774SOL     OW25957   1.744   0.939  10.742  0.1719 -0.0327 -0.2357
 4774SOL    HW125958   1.678   0.950  10.674  0.8697 -2.6084 -1.3228
 4774SOL    HW225959   1.759   1.029  10.772 -0.4054  0.3236 -1.0278
 4775SOL     OW25960   1.286   4.639   8.206 -0.0487 -0.0803  0.1330
 4775SOL    HW125961   1.197   4.613   8.184  0.0646  0.5714 -1.0692
 4775SOL    HW225962   1.344   4.577   8.161 -0.9554 -1.1982  0.5138
 4776SOL     OW25963   3.935   1.040   1.446 -0.6943  0.2396  0.2358
 4776SOL    HW125964   4.022   1.071   1.470  0.2113 -0.2947 -2.2872
 4776SOL    HW225965   3.922   0.964   1.502 -1.3042 -0.3148 -0.6452
 4777SOL     OW25966   1.087   1.151  14.011 -0.2427  0.2407  0.4199
 4777SOL    HW125967   1.163   1.135  13.956 -0.6988 -0.4198 -0.0198
 4777SOL    HW225968   1.112   1.165  14.103  0.6592 -0.5337  0.2870
 4778SOL     OW25969   1.795   3.753   6.222 -0.1531  0.1893 -0.3813
 4778SOL    HW125970   1.723   3.790   6.171 -0.7755  0.3121  0.5884
 4778SOL    HW225971   1.804   3.666   6.184 -0.2292 -1.4279  3.3316
 4779SOL     OW25972   4.342   0.205   9.175 -0.0476  0.1205  0.1415
 4779SOL    HW125973   4.435   0.200   9.197  0.4247  0.3703 -1.7765
 4779SOL    HW225974   4.317   0.120   9.211 -0.0790  0.2211  0.3539
 4780SOL     OW25975   3.340   3.918   7.074 -0.0201  0.2451 -0.2895
 4780SOL    HW125976   3.293   3.871   7.006  0.3125 -1.0214  0.3612
 4780SOL    HW225977   3.274   3.907   7.143  1.4358  2.8380  1.5093
 4781SOL     OW25978   3.332   4.029   9.397  0.3496 -0.1551  0.3745
 4781SOL    HW125979   3.324   3.956   9.459 -3.1766 -0.5003 -0.5099
 4781SOL    HW225980   3.345   4.090   9.469 -1.4644 -0.1104  0.6627
 4782SOL     OW25981   2.219   1.318   1.546  0.1154 -0.0735  0.4163
 4782SOL    HW125982   2.228   1.241   1.601  0.0219 -0.4980 -0.1574
 4782SOL    HW225983   2.143   1.360   1.586 -2.1800 -2.8044 -0.9815
 4783SOL     OW25984   3.487   3.208   6.018 -0.4549  0.7954 -0.7169
 4783SOL    HW125985   3.499   3.120   5.982 -1.7932  1.1543 -2.0399
 4783SOL    HW225986   3.511   3.266   5.945 -0.4473  0.8308 -0.6868
 4784SOL     OW25987   0.955   4.260   7.354 -0.0137 -0.3961  0.0101
 4784SOL    HW125988   1.037   4.214   7.335  0.5941  0.7038 -0.0464
 4784SOL    HW225989   0.899   4.246   7.278 -1.1873  0.9353  0.6367
 4785SOL     OW25990   4.576   0.658   0.783 -0.3868  0.4080 -0.6825
 4785SOL    HW125991   4.605   0.653   0.874  0.2701 -0.0052 -0.9203
 4785SOL    HW225992   4.658   0.684   0.742  0.9812  1.1569  2.5583
 4786SOL     OW25993   0.268   3.913   1.785 -0.6818 -0.3092 -0.0322
 4786SOL    HW125994   0.293   4.004   1.770 -1.2874 -0.2111 -0.4503
 4786SOL    HW225995   0.316   3.867   1.716  0.0733  0.3805  0.0295
 4787SOL     OW25996   0.759   1.850   8.148 -0.1511 -0.1235 -0.1285
 4787SOL    HW125997   0.681   1.878   8.196 -1.0418 -0.6517 -1.2506
 4787SOL    HW225998   0.723   1.831   8.061  0.1658 -0.2877 -0.2219
 4788SOL     OW25999   1.599   2.985   9.583 -0.2156  0.3392 -0.1218
 4788SOL    HW126000   1.592   2.890   9.590 -2.3486  0.4856 -0.1833
 4788SOL    HW226001   1.578   3.025   9.667  2.6494  2.4936 -0.4232
 4789SOL     OW26002   1.781   1.918   6.695  0.2057 -0.0205  0.7283
 4789SOL    HW126003   1.842   1.866   6.747  1.1488 -1.3854 -1.7364
 4789SOL    HW226004   1.707   1.938   6.751 -0.8032 -1.5741 -0.0646
 4790SOL     OW26005   3.032   0.242   9.007 -0.2296  0.2091 -0.9315
 4790SOL    HW126006   2.948   0.196   9.010  0.5611 -1.2041 -0.0968
 4790SOL    HW226007   2.987   0.326   9.008  1.8302  1.2982  0.4410
 4791SOL     OW26008   2.498   2.791   5.610  0.3965 -0.0050  0.1442
 4791SOL    HW126009   2.413   2.753   5.586  1.1425 -0.0924 -2.3914
 4791SOL    HW226010   2.560   2.720   5.625  0.1500 -0.5594 -1.4411
 4792SOL     OW26011   2.838   4.463   7.964 -0.4652  0.2725  0.7532
 4792SOL    HW126012   2.896   4.389   7.983 -0.8771 -0.2061  0.1702
 4792SOL    HW226013   2.893   4.535   7.993 -2.0559  1.4786  0.7709
 4793SOL     OW26014   4.230   4.698  15.343 -0.2022  0.9495  0.4459
 4793SOL    HW126015   4.301   0.024  15.357  2.6372 -1.8386 -1.6378
 4793SOL    HW226016   4.154   0.020  15.355  0.6338  2.0267  0.4696
 4794SOL     OW26017   0.804   2.581   1.440  0.7323 -0.6422  0.5279
 4794SOL    HW126018   0.770   2.611   1.525 -2.3469  1.3211 -1.4088
 4794SOL    HW226019   0.896   2.601   1.456  0.5297 -0.8645  2.0052
 4795SOL     OW26020   3.016   3.825   4.669 -0.5481 -0.8374  0.3110
 4795SOL    HW126021   3.039   3.913   4.638  0.2583 -0.3172  2.4241
 4795SOL    HW226022   2.978   3.796   4.586 -0.1657  1.9903 -0.8714
 4796SOL     OW26023   1.209   3.485   1.672 -0.2732  0.0306 -0.7563
 4796SOL    HW126024   1.223   3.436   1.754  0.3588 -0.0534 -0.9151
 4796SOL    HW226025   1.266   3.435   1.613  3.2566  0.6232  2.1176
 4797SOL     OW26026   0.966   2.488  11.115  0.4334  0.1391  0.3745
 4797SOL    HW126027   1.049   2.529  11.090 -0.7187  1.4458 -1.2426
 4797SOL    HW226028   0.997   2.398  11.106  0.1504  0.0533  0.2657
 4798SOL     OW26029   1.821   3.484  17.045  1.0721 -0.0109 -0.3154
 4798SOL    HW126030   1.823   3.459  17.138 -0.0360 -2.7969 -1.0599
 4798SOL    HW226031   1.826   3.579  17.058  1.2714 -0.0837  0.1451
 4799SOL     OW26032   0.705   0.219   2.915  0.1749 -0.4231 -0.4074
 4799SOL    HW126033   0.674   0.173   2.837  0.1523 -0.7596 -0.2005
 4799SOL    HW226034   0.719   0.149   2.979  2.3799 -0.6174 -1.1215
 4800SOL     OW26035   1.368   0.781   5.888  0.4048  0.3562 -0.2040
 4800SOL    HW126036   1.325   0.700   5.915  0.0877  1.1415  1.6830
 4800SOL    HW226037   1.456   0.766   5.921  0.7302  1.6662 -0.4813
 4801SOL     OW26038   0.834   0.083  13.495  0.3314 -0.1893 -0.2797
 4801SOL    HW126039   0.793   0.144  13.433 -1.7354  0.3039  1.5831
 4801SOL    HW226040   0.917   0.067  13.450 -0.6093 -1.5656 -1.5240
 4802SOL     OW26041   4.087   2.847   1.154  0.1996 -0.4388 -0.0536
 4802SOL    HW126042   4.043   2.877   1.234  2.9125  1.8806  0.5545
 4802SOL    HW226043   4.127   2.929   1.125  0.4898 -0.4125  0.4071
 4803SOL     OW26044   0.483   1.849   1.858  0.4467 -0.4514 -0.1779
 4803SOL    HW126045   0.388   1.848   1.869  0.8073  1.6788  3.0588
 4803SOL    HW226046   0.496   1.859   1.764  0.5078 -0.2860 -0.1520
 4804SOL     OW26047   4.370   3.869   8.178  0.2081 -0.0775 -0.1860
 4804SOL    HW126048   4.280   3.859   8.207  0.0815 -0.0452 -0.5665
 4804SOL    HW226049   4.376   3.798   8.114  4.3451  1.1294 -1.1917
 4805SOL     OW26050   1.554   1.542  16.807 -0.1729  0.0937 -0.2718
 4805SOL    HW126051   1.648   1.531  16.800 -0.1426  0.6706 -0.7780
 4805SOL    HW226052   1.546   1.564  16.900 -0.7920 -1.4078  0.0199
 4806SOL     OW26053   1.803   2.391   6.587  0.5801  0.9430  0.3115
 4806SOL    HW126054   1.736   2.366   6.650  0.5428 -0.1086 -0.1360
 4806SOL    HW226055   1.774   2.479   6.564  2.2193  1.2466 -0.5929
 4807SOL     OW26056   0.213   0.557   1.927 -0.8336  0.6437  0.1972
 4807SOL    HW126057   0.240   0.526   1.840 -0.7129  1.3216 -0.0043
 4807SOL    HW226058   0.174   0.641   1.904  3.5313  2.7890  0.6287
 4808SOL     OW26059   3.077   1.300  10.861 -0.2588 -0.0228  0.3211
 4808SOL    HW126060   3.142   1.363  10.831 -0.0477  0.4411  1.7138
 4808SOL    HW226061   3.065   1.336  10.949  1.5414 -0.8005  0.8942
 4809SOL     OW26062   0.846   4.037   2.525  0.5651  0.0770  0.4385
 4809SOL    HW126063   0.929   4.042   2.479  0.6373 -0.6987  0.4851
 4809SOL    HW226064   0.859   4.096   2.599 -3.5264 -1.3484  2.2876
 4810SOL     OW26065   3.171   3.437  15.314  0.2110 -0.3398 -0.5561
 4810SOL    HW126066   3.265   3.427  15.304  0.2219  0.9849 -1.7182
 4810SOL    HW226067   3.141   3.363  15.366  2.6624  0.1961  1.6225
 4811SOL     OW26068   3.788   2.275  13.077  0.2251  0.1351 -0.4185
 4811SOL    HW126069   3.830   2.298  12.995  0.1617 -0.0950 -0.5160
 4811SOL    HW226070   3.831   2.193  13.102  2.0456  1.7436  1.7753
 4812SOL     OW26071   2.945   0.884   8.305  0.5675  0.2092 -1.0489
 4812SOL    HW126072   2.881   0.813   8.301 -1.3849  2.0879 -2.9989
 4812SOL    HW226073   3.003   0.848   8.372  1.4621  0.8175 -1.4967
 4813SOL     OW26074   2.739   1.465  15.971  0.3208 -0.3521  0.0414
 4813SOL    HW126075   2.742   1.526  15.897 -0.3088 -1.0412 -0.5530
 4813SOL    HW226076   2.648   1.486  15.992  0.9134  0.4244  1.7687
 4814SOL     OW26077   0.065   3.434   6.971  0.2295 -0.1043 -0.1872
 4814SOL    HW126078   4.724   3.467   6.923 -1.2223 -2.8437  0.2585
 4814SOL    HW226079   0.053   3.340   6.960  3.4378 -0.2930 -2.1106
 4815SOL     OW26080   1.703   4.646   6.036 -0.1085  0.0944  0.7086
 4815SOL    HW126081   1.780   4.639   5.980 -0.1693 -0.1702  0.6587
 4815SOL    HW226082   1.639   4.638   5.965  2.1185 -1.6746 -1.0926
 4816SOL     OW26083   1.691   1.125   8.509  0.2271  0.5659  0.3095
 4816SOL    HW126084   1.611   1.087   8.545  0.0868  0.5913  0.0256
 4816SOL    HW226085   1.671   1.214   8.536  0.6935  0.6778  0.2888
 4817SOL     OW26086   2.657   2.464   0.557  0.2390 -0.0106  0.3297
 4817SOL    HW126087   2.596   2.456   0.630  0.0333  0.9821  0.2656
 4817SOL    HW226088   2.744   2.466   0.598  0.3428  1.3039  0.0588
 4818SOL     OW26089   4.706   2.141  17.495 -0.7006  0.0634  0.8432
 4818SOL    HW126090   0.054   2.182  17.473 -1.4740  1.2090  0.0089
 4818SOL    HW226091   4.660   2.153  17.412 -0.4367  1.4685  0.8990
 4819SOL     OW26092   4.714   2.410   5.689  0.0965  0.7821  0.3797
 4819SOL    HW126093   0.071   2.437   5.695  0.6013 -0.2141 -2.9179
 4819SOL    HW226094   4.682   2.491   5.649  0.3387  0.4992 -0.3967
 4820SOL     OW26095   0.318   0.250   8.019  0.2284 -0.5252  0.2282
 4820SOL    HW126096   0.290   0.340   8.002 -0.2184 -0.5966  0.5874
 4820SOL    HW226097   0.254   0.224   8.085 -1.6756 -1.1299 -1.8692
 4821SOL     OW26098   0.788   2.814   3.071 -0.0389 -0.3192 -0.3182
 4821SOL    HW126099   0.811   2.815   3.164 -0.2561 -2.2511 -0.2550
 4821SOL    HW226100   0.767   2.722   3.056  1.0972 -0.9136  1.7772
 4822SOL     OW26101   3.949   2.239   8.107 -0.0533  0.6773  0.3461
 4822SOL    HW126102   3.867   2.201   8.078  0.6645 -1.2135  0.8172
 4822SOL    HW226103   3.931   2.275   8.193  0.4376 -0.3602  0.8750
 4823SOL     OW26104   1.374   0.920  10.018 -0.0048  0.2139  0.1311
 4823SOL    HW126105   1.444   0.900   9.955  1.2547 -1.0082  1.9402
 4823SOL    HW226106   1.368   1.015  10.025 -0.4652  0.2117 -0.2279
 4824SOL     OW26107   1.078   1.475   7.813  0.1630  0.2092 -0.8441
 4824SOL    HW126108   1.013   1.446   7.749 -3.0089  1.3591  1.8458
 4824SOL    HW226109   1.154   1.461   7.756  2.9298  2.7805  2.1953
 4825SOL     OW26110   3.187   4.588  13.038  0.2261  0.5516  0.2467
 4825SOL    HW126111   3.253   4.596  13.108  1.2902  0.8961 -0.7980
 4825SOL    HW226112   3.212   4.669  12.992 -2.7086  1.0267 -0.5042
 4826SOL     OW26113   1.171   1.855   5.052  0.1674 -0.7543  0.5357
 4826SOL    HW126114   1.183   1.929   5.111  1.4711 -1.6957  1.4313
 4826SOL    HW226115   1.206   1.784   5.106  2.7159  0.6561  0.6967
 4827SOL     OW26116   4.167   2.648  11.137  0.3129  0.6075 -1.0808
 4827SOL    HW126117   4.129   2.581  11.194  1.6486 -0.7002 -1.7204
 4827SOL    HW226118   4.203   2.696  11.211  0.4848 -1.9080  0.4551
 4828SOL     OW26119   2.886   3.937   6.250  0.7116  0.5126  0.4277
 4828SOL    HW126120   2.869   3.973   6.337  3.1361  3.4112 -0.3089
 4828SOL    HW226121   2.980   3.952   6.246  1.1040 -2.2489 -0.9110
 4829SOL     OW26122   2.279   0.231   8.133  0.1572  0.4536  0.0263
 4829SOL    HW126123   2.224   0.255   8.058 -0.1011  0.0313  0.0848
 4829SOL    HW226124   2.370   0.247   8.106  0.3416 -2.8372 -1.3680
 4830SOL     OW26125   0.308   1.646  12.220 -0.2942  0.4529 -0.1777
 4830SOL    HW126126   0.262   1.590  12.157 -0.4381 -0.9338  1.1597
 4830SOL    HW226127   0.380   1.586  12.235 -0.7355 -0.1610 -0.5091
 4831SOL     OW26128   1.932   0.556   4.889 -0.5022  0.1402 -0.2958
 4831SOL    HW126129   1.995   0.510   4.945  0.8614  2.0100 -0.2997
 4831SOL    HW226130   1.974   0.642   4.885 -1.7508  0.7343 -0.3856
 4832SOL     OW26131   0.617   1.223  17.347 -0.6776  0.0814 -0.3633
 4832SOL    HW126132   0.574   1.275  17.280 -1.0169 -0.4118 -0.5251
 4832SOL    HW226133   0.607   1.138  17.306  1.3457 -0.8115  0.9906
 4833SOL     OW26134   2.089   3.088   4.664  0.2041 -0.4906  0.0257
 4833SOL    HW126135   2.095   3.129   4.751  0.4281  0.2375 -0.3354
 4833SOL    HW226136   2.133   3.167   4.633  0.5644  0.3842  2.7066
 4834SOL     OW26137   3.245   3.735  12.781 -0.3263 -0.4978 -0.3903
 4834SOL    HW126138   3.186   3.659  12.780 -2.1719  0.9628 -3.9777
 4834SOL    HW226139   3.324   3.691  12.813 -0.4503  0.5326  1.3117
 4835SOL     OW26140   3.223   3.211   7.380  0.1936  0.2757 -0.0287
 4835SOL    HW126141   3.237   3.287   7.436  1.1126 -0.9843  1.4676
 4835SOL    HW226142   3.177   3.242   7.302  0.2844 -0.6891 -0.4727
 4836SOL     OW26143   0.035   0.641  13.063  0.7394 -0.6233  0.4489
 4836SOL    HW126144   4.705   0.627  13.132  0.0187  0.8390  0.0558
 4836SOL    HW226145   0.092   0.564  13.059  0.6217 -0.6164 -1.4306
 4837SOL     OW26146   3.239   1.056  10.885 -0.1954  0.1527 -0.0909
 4837SOL    HW126147   3.301   1.076  10.815 -0.5640  2.0145  0.0997
 4837SOL    HW226148   3.198   1.143  10.895 -0.2452  0.4777 -3.1846
 4838SOL     OW26149   2.944   0.061   7.213  0.2929  0.7611  0.0166
 4838SOL    HW126150   2.862   0.011   7.212  0.3095  0.7750 -1.7173
 4838SOL    HW226151   2.991   0.016   7.143 -0.7630  0.4724 -0.5181
 4839SOL     OW26152   0.634   2.313  15.369 -0.3188  0.3767 -0.3756
 4839SOL    HW126153   0.622   2.380  15.437 -0.1847 -0.4439  0.4529
 4839SOL    HW226154   0.607   2.237  15.421 -1.8187  0.1872 -1.4397
 4840SOL     OW26155   1.383   4.085   6.443  0.4532 -0.0503 -0.1292
 4840SOL    HW126156   1.393   4.067   6.537  1.6011  2.7309  0.2883
 4840SOL    HW226157   1.436   4.160   6.417  0.6747 -0.1562  0.0076
 4841SOL     OW26158   3.723   0.900  15.860  1.0539  0.1963 -0.6258
 4841SOL    HW126159   3.769   0.971  15.816  0.5572 -0.7750 -2.6941
 4841SOL    HW226160   3.790   0.861  15.916  0.0907 -1.2533 -0.4779
 4842SOL     OW26161   2.542   4.036   6.490  0.1378  0.0437 -0.5363
 4842SOL    HW126162   2.537   3.953   6.443  0.4764  0.1907 -0.8232
 4842SOL    HW226163   2.497   4.099   6.434 -2.8355 -2.0257 -0.5295
 4843SOL     OW26164   4.032   3.616   6.724  0.6209 -0.3659  0.3490
 4843SOL    HW126165   4.032   3.521   6.712 -0.5390 -0.3314  0.1239
 4843SOL    HW226166   4.017   3.617   6.818 -2.4199  0.0661 -0.1291
 4844SOL     OW26167   2.705   4.626   5.397 -0.4667 -0.3622 -0.3449
 4844SOL    HW126168   2.695   4.707   5.347 -0.8943  2.4349  4.2619
 4844SOL    HW226169   2.766   4.647   5.467 -0.8362  1.3829 -0.5550
 4845SOL     OW26170   0.201   2.761   7.533  0.3841 -0.0572 -0.4395
 4845SOL    HW126171   0.203   2.848   7.573 -0.6090  0.0214 -0.5765
 4845SOL    HW226172   0.141   2.776   7.461 -2.4946 -2.0205  1.5725
 4846SOL     OW26173   1.063   0.278   8.659 -0.2705 -0.2846 -0.5011
 4846SOL    HW126174   1.013   0.203   8.627  0.1452 -0.6319 -0.3341
 4846SOL    HW226175   1.092   0.245   8.744 -4.0494 -1.7771  0.2353
 4847SOL     OW26176   0.872   3.959  17.067  0.2341 -0.0894 -0.2086
 4847SOL    HW126177   0.905   4.047  17.084 -0.3100 -0.4595  2.7643
 4847SOL    HW226178   0.948   3.919  17.024  1.6125  1.0628  1.1289
 4848SOL     OW26179   4.482   3.680   3.744  0.6375 -0.6967 -0.2262
 4848SOL    HW126180   4.511   3.590   3.758  0.8222 -0.8256 -1.3738
 4848SOL    HW226181   4.404   3.675   3.799  0.0058  1.6921 -0.8789
 4849SOL     OW26182   1.302   3.085   2.956 -0.1183 -0.5050  0.1118
 4849SOL    HW126183   1.291   3.094   2.862  2.3036 -0.0230 -0.1177
 4849SOL    HW226184   1.222   3.036   2.977 -0.3562  0.4543  1.5139
 4850SOL     OW26185   2.571   0.340   9.473 -0.1517 -0.1089 -0.4050
 4850SOL    HW126186   2.523   0.352   9.392 -1.6783  0.7829  0.6313
 4850SOL    HW226187   2.609   0.428   9.483 -2.0683  0.2648  3.8834
 4851SOL     OW26188   1.801   3.014   4.650  1.2099 -0.1758  0.4748
 4851SOL    HW126189   1.811   3.010   4.555 -0.2373  0.9498  0.2828
 4851SOL    HW226190   1.867   3.081   4.666 -0.7228  2.0333 -0.9474
 4852SOL     OW26191   0.299   3.715   7.902  0.2788  0.4534 -0.0402
 4852SOL    HW126192   0.228   3.653   7.890  0.4252  0.0521  1.1259
 4852SOL    HW226193   0.368   3.659   7.865 -0.7144 -0.2488 -0.8058
 4853SOL     OW26194   1.071   0.662   4.284 -0.3517 -0.0407 -0.9130
 4853SOL    HW126195   1.026   0.635   4.204  1.8232 -2.3113 -1.3886
 4853SOL    HW226196   1.033   0.747   4.304 -1.1502 -0.6050 -0.0661
 4854SOL     OW26197   1.873   3.032   1.001  0.2549  0.1620 -0.1223
 4854SOL    HW126198   1.919   3.063   0.922  0.1990  1.6532  0.4331
 4854SOL    HW226199   1.895   3.104   1.060 -0.3856  1.0100 -0.8900
 4855SOL     OW26200   0.709   1.587   4.286 -0.0966  0.1033  0.2124
 4855SOL    HW126201   0.695   1.519   4.220  1.8723 -0.8761  0.7997
 4855SOL    HW226202   0.798   1.619   4.270 -0.3773  0.1340 -1.2679
 4856SOL     OW26203   2.148   2.354   4.530 -0.1492 -0.1069  0.3656
 4856SOL    HW126204   2.166   2.431   4.583 -2.0932  0.7910 -0.2459
 4856SOL    HW226205   2.221   2.367   4.470 -1.8577  2.7425 -1.0932
 4857SOL     OW26206   3.403   2.859   1.733 -0.7203  0.2964 -0.0632
 4857SOL    HW126207   3.456   2.852   1.654 -0.9784  1.1289 -0.3086
 4857SOL    HW226208   3.444   2.793   1.789  0.3523 -0.1196 -1.3237
 4858SOL     OW26209   0.344   2.151   1.488 -0.1415 -0.1043  0.0235
 4858SOL    HW126210   0.415   2.158   1.552  0.4032 -0.8172 -0.4972
 4858SOL    HW226211   0.322   2.058   1.501 -3.2936  0.6998  0.5531
 4859SOL     OW26212   3.724   2.674   2.162 -0.1799 -0.2827  0.0547
 4859SOL    HW126213   3.812   2.638   2.152  0.4913  1.3009  0.2632
 4859SOL    HW226214   3.739   2.764   2.134 -0.5928 -0.1228  0.3483
 4860SOL     OW26215   3.271   3.632   6.750 -0.0158  0.0591 -0.3047
 4860SOL    HW126216   3.189   3.598   6.713  0.9537 -1.7332 -0.8294
 4860SOL    HW226217   3.241   3.706   6.802 -0.0556 -0.2240  0.0758
 4861SOL     OW26218   4.553   1.489   7.290  0.1729 -0.1870  0.1551
 4861SOL    HW126219   4.570   1.452   7.376 -0.9548 -1.5164 -0.1964
 4861SOL    HW226220   4.487   1.553   7.315 -0.0795 -0.8406  1.1593
 4862SOL     OW26221   2.654   0.115   4.342  0.4052 -0.6889  0.2472
 4862SOL    HW126222   2.675   0.183   4.406  0.7330 -0.7258  0.1805
 4862SOL    HW226223   2.570   0.077   4.368 -0.2828 -0.7019 -2.0606
 4863SOL     OW26224   2.057   1.798   2.153  0.0437 -0.5532  0.2365
 4863SOL    HW126225   2.096   1.827   2.070  0.5877 -1.9190  0.0240
 4863SOL    HW226226   1.967   1.785   2.124 -0.3111 -0.4961  1.3251
 4864SOL     OW26227   2.468   4.117   7.103 -0.1862 -0.1573  0.3404
 4864SOL    HW126228   2.429   4.084   7.185  0.1918 -1.5640 -0.0363
 4864SOL    HW226229   2.405   4.186   7.085  0.2425 -0.2773 -1.6512
 4865SOL     OW26230   2.078   1.921   4.036 -0.1501  0.1071  0.2873
 4865SOL    HW126231   2.114   1.925   3.947 -0.9888 -2.6166 -0.1738
 4865SOL    HW226232   1.994   1.966   4.033  0.0882  0.6507  1.4874
 4866SOL     OW26233   2.096   1.218   7.255  0.5625 -0.0110 -0.1053
 4866SOL    HW126234   2.078   1.312   7.251  0.6570 -0.0942 -2.6790
 4866SOL    HW226235   2.136   1.209   7.341 -0.2173  3.1043  0.6169
 4867SOL     OW26236   0.788   4.324   4.220 -0.6169  0.0203 -0.1293
 4867SOL    HW126237   0.829   4.378   4.288 -2.7825  1.9978 -0.4037
 4867SOL    HW226238   0.863   4.303   4.164  0.4814  1.0612  0.9234
 4868SOL     OW26239   2.800   3.382  13.206  0.5084 -0.0476  0.0670
 4868SOL    HW126240   2.857   3.457  13.190 -2.4545  1.6634 -2.6565
 4868SOL    HW226241   2.859   3.307  13.197  0.2714  0.1177 -3.0033
 4869SOL     OW26242   3.938   4.155   7.393  0.2394 -0.3521  0.3042
 4869SOL    HW126243   3.990   4.075   7.382 -0.4256 -1.1745  2.9850
 4869SOL    HW226244   3.939   4.189   7.304  0.0052  2.1504  1.2628
 4870SOL     OW26245   4.304   0.188  17.089 -0.0154 -0.4069 -0.0241
 4870SOL    HW126246   4.237   0.166  17.153  0.3057 -0.2037  0.3804
 4870SOL    HW226247   4.256   0.169  17.009  0.1783 -1.7195  0.1685
 4871SOL     OW26248   2.574   3.626   4.064  0.2076  0.0507 -0.2028
 4871SOL    HW126249   2.649   3.684   4.050 -0.3446  0.6765 -0.5856
 4871SOL    HW226250   2.570   3.625   4.159 -1.6476  0.3307 -0.2677
 4872SOL     OW26251   2.527   1.450   8.785  0.3621 -0.5158  0.0567
 4872SOL    HW126252   2.556   1.388   8.852 -2.0231  0.5549  2.0563
 4872SOL    HW226253   2.483   1.512   8.843 -3.1687 -0.9484 -2.1773
 4873SOL     OW26254   2.193   2.872   6.890 -0.0749 -0.0206 -0.3528
 4873SOL    HW126255   2.171   2.921   6.811 -0.4565  2.3959  1.2753
 4873SOL    HW226256   2.112   2.853   6.939  0.7585 -2.1216  0.2191
 4874SOL     OW26257   3.412   1.857   5.253 -0.0901  0.1788 -0.0374
 4874SOL    HW126258   3.505   1.837   5.244  0.1527  1.2463  0.0096
 4874SOL    HW226259   3.372   1.771   5.251  0.3513 -0.0383  0.6901
 4875SOL     OW26260   3.840   3.689   2.985 -0.5657 -0.5596 -0.5506
 4875SOL    HW126261   3.817   3.778   3.012  0.8198 -0.2544 -0.3608
 4875SOL    HW226262   3.754   3.655   2.964 -0.2423 -1.8033  0.1735
 4876SOL     OW26263   2.831   2.333   8.576 -0.7313  0.6320  0.1161
 4876SOL    HW126264   2.841   2.283   8.495 -0.8717  1.1067 -0.1937
 4876SOL    HW226265   2.742   2.302   8.592 -1.5998  2.9023 -0.3004
 4877SOL     OW26266   4.534   4.413   3.245 -0.4703  0.0689 -0.5678
 4877SOL    HW126267   4.506   4.440   3.157  2.0518  0.3911 -1.2706
 4877SOL    HW226268   4.512   4.320   3.230  0.5789 -0.3786  0.7762
 4878SOL     OW26269   1.938   4.476   0.999  0.9232 -0.6879 -0.0533
 4878SOL    HW126270   1.989   4.550   1.033 -1.4380 -0.8199  3.6873
 4878SOL    HW226271   1.856   4.494   1.045  0.2015  0.2081 -1.6535
 4879SOL     OW26272   1.368   3.017   9.223  0.0388 -0.1151 -0.0596
 4879SOL    HW126273   1.419   3.057   9.293 -0.0253 -0.3530  0.1206
 4879SOL    HW226274   1.320   2.946   9.265  0.4333 -0.9433 -1.0179
 4880SOL     OW26275   1.381   1.847  13.104 -0.4715  0.6192  0.4546
 4880SOL    HW126276   1.367   1.868  13.012 -0.2626  2.2692  0.7952
 4880SOL    HW226277   1.348   1.758  13.108  0.5104  0.2255 -0.2703
 4881SOL     OW26278   4.723   2.426  15.884  0.1258 -0.2728  0.3155
 4881SOL    HW126279   0.032   2.359  15.935 -2.1719 -3.3886 -1.7528
 4881SOL    HW226280   0.037   2.438  15.803 -1.8980  1.4853 -0.6674
 4882SOL     OW26281   3.862   2.468  13.594  0.4142  0.5913 -0.1268
 4882SOL    HW126282   3.884   2.375  13.586 -2.0802  0.0910 -0.9241
 4882SOL    HW226283   3.827   2.478  13.505 -1.4365 -0.5659  0.4789
 4883SOL     OW26284   3.202   0.420   5.789 -0.2315 -0.0229 -0.5900
 4883SOL    HW126285   3.214   0.434   5.695  0.9871  0.9092 -0.2994
 4883SOL    HW226286   3.259   0.488   5.826 -0.5703  0.7146 -1.4337
 4884SOL     OW26287   4.247   0.574   2.373  0.4883 -0.8132 -0.2868
 4884SOL    HW126288   4.177   0.604   2.432  1.6363  0.1191  0.6015
 4884SOL    HW226289   4.200   0.576   2.290 -1.0810 -1.6943  0.5680
 4885SOL     OW26290   1.291   0.999   5.370 -0.0465 -0.0030  0.3230
 4885SOL    HW126291   1.343   0.976   5.447  0.5747  1.4117  0.3292
 4885SOL    HW226292   1.240   0.919   5.359 -0.2550  0.3813 -1.5021
 4886SOL     OW26293   2.239   2.319   1.432 -0.2422 -0.1968 -0.4511
 4886SOL    HW126294   2.265   2.283   1.517 -2.6432  0.2090  0.4664
 4886SOL    HW226295   2.149   2.289   1.419 -0.1688 -0.2258 -0.8862
 4887SOL     OW26296   2.029   3.338   2.520 -0.7462 -0.4951  0.1236
 4887SOL    HW126297   2.077   3.414   2.553 -0.2261 -0.1927 -1.3556
 4887SOL    HW226298   1.953   3.377   2.478 -0.3291 -0.4857 -0.6190
 4888SOL     OW26299   2.582   1.730   1.102  0.3172  0.1193 -0.1921
 4888SOL    HW126300   2.564   1.741   1.009  0.8140  1.5145 -0.1209
 4888SOL    HW226301   2.622   1.812   1.133 -0.4225 -0.2417  1.7020
 4889SOL     OW26302   2.085   1.505   7.232 -0.3158 -0.1843 -0.2966
 4889SOL    HW126303   2.050   1.480   7.318  0.9302  0.1509  0.2998
 4889SOL    HW226304   2.135   1.585   7.248 -2.4458  0.7925  1.3717
 4890SOL     OW26305   4.008   3.276   7.907 -0.3941 -0.2652 -0.3724
 4890SOL    HW126306   3.944   3.262   7.837 -0.4038 -2.0388 -0.0163
 4890SOL    HW226307   4.072   3.205   7.899 -0.9322 -0.5722 -1.9382
 4891SOL     OW26308   3.837   1.618   5.603 -0.0138 -0.1716 -0.5457
 4891SOL    HW126309   3.760   1.629   5.657 -0.9057 -1.0351 -1.6536
 4891SOL    HW226310   3.832   1.529   5.567  2.7952 -1.9796  3.4750
 4892SOL     OW26311   2.642   4.555   4.917  0.0822  0.2148  0.9424
 4892SOL    HW126312   2.549   4.562   4.939  0.1353  0.9096  0.9494
 4892SOL    HW226313   2.645   4.593   4.830 -1.7471 -1.5262  0.1372
 4893SOL     OW26314   2.127   1.993  12.494  0.4078  1.0165  0.2931
 4893SOL    HW126315   2.195   1.927  12.486  1.0192  1.7100 -0.2056
 4893SOL    HW226316   2.077   1.971  12.573  0.1822  0.4132 -0.0195
 4894SOL     OW26317   0.269   1.905   4.858 -0.8119 -0.0065  0.3334
 4894SOL    HW126318   0.292   1.917   4.950  2.4187 -0.8758 -0.3533
 4894SOL    HW226319   0.174   1.913   4.866 -0.7794  0.7688 -0.0456
 4895SOL     OW26320   2.576   0.897   8.870  0.0506  0.2910 -0.8554
 4895SOL    HW126321   2.602   0.838   8.940  0.6852  0.6682 -0.7690
 4895SOL    HW226322   2.662   0.926   8.839 -0.1554  1.7764 -0.0185
 4896SOL     OW26323   4.499   3.673   4.727 -0.0758 -0.4119  0.2943
 4896SOL    HW126324   4.553   3.691   4.650  1.2915 -1.3673  1.0175
 4896SOL    HW226325   4.413   3.679   4.685  0.1617 -0.5705 -0.2177
 4897SOL     OW26326   4.215   1.614   0.003  0.3393 -0.2688  0.5282
 4897SOL    HW126327   4.216   1.607   0.098 -2.5083 -0.9150  0.5169
 4897SOL    HW226328   4.127   1.578  17.734 -0.2751  1.9200 -1.8898
 4898SOL     OW26329   1.417   1.053   6.942  0.5348  0.5823 -0.2452
 4898SOL    HW126330   1.500   1.087   6.907  0.1779  2.5336  0.8092
 4898SOL    HW226331   1.435   0.960   6.958 -0.7891  0.4297  0.3522
 4899SOL     OW26332   3.431   0.688   2.189 -0.0982  0.7789  0.6524
 4899SOL    HW126333   3.384   0.653   2.265 -1.8499  1.3545 -0.1663
 4899SOL    HW226334   3.522   0.700   2.216  0.3796 -0.1948 -0.5740
 4900SOL     OW26335   1.682   2.279   5.016 -0.9601 -0.0062  0.2073
 4900SOL    HW126336   1.622   2.205   5.013  0.7732 -1.4152  0.0716
 4900SOL    HW226337   1.623   2.348   4.986  1.2523  1.4380 -0.8045
 4901SOL     OW26338   1.976   1.428   0.557 -0.7688  0.4156 -0.1570
 4901SOL    HW126339   1.912   1.473   0.612  1.1712  1.0780  1.5805
 4901SOL    HW226340   2.001   1.500   0.499 -0.1150 -1.1047 -1.7416
 4902SOL     OW26341   2.962   3.563  11.586  0.2350  0.9543  0.2808
 4902SOL    HW126342   2.936   3.556  11.494 -0.5569  1.0429  0.4932
 4902SOL    HW226343   2.955   3.657  11.603  1.4602  1.1827 -0.4857
 4903SOL     OW26344   0.653   1.935  17.155 -0.2703  0.0840  0.1996
 4903SOL    HW126345   0.603   1.989  17.094  0.0505 -1.5196 -1.4872
 4903SOL    HW226346   0.583   1.874  17.180 -0.8186  0.9986  0.9128
 4904SOL     OW26347   0.928   1.778   0.113  0.4986  0.5492  0.2900
 4904SOL    HW126348   0.876   1.758   0.035 -0.9915 -1.9325  1.8729
 4904SOL    HW226349   0.865   1.821   0.172 -0.2941 -0.9643  0.5814
 4905SOL     OW26350   2.861   3.620   6.420 -0.5285  0.3621 -0.6679
 4905SOL    HW126351   2.856   3.609   6.325 -1.0376 -1.1777 -0.4682
 4905SOL    HW226352   2.945   3.661   6.440 -2.0236  2.6640  0.9410
 4906SOL     OW26353   4.460   0.010   1.888 -0.6070 -0.4683  0.0407
 4906SOL    HW126354   4.545   4.709   1.863 -0.1820  1.9939 -2.1326
 4906SOL    HW226355   4.463   0.018   1.984 -0.6565 -1.8360  0.1506
 4907SOL     OW26356   1.127   3.250   7.336 -0.0098 -0.1083  0.0737
 4907SOL    HW126357   1.171   3.290   7.261 -0.1295  0.1090  0.1200
 4907SOL    HW226358   1.179   3.282   7.409 -0.0119  0.0803 -0.0080
 4908SOL     OW26359   2.624   0.565   9.751  0.1544 -0.3112  0.0024
 4908SOL    HW126360   2.572   0.485   9.744 -0.1655 -0.1700  0.7014
 4908SOL    HW226361   2.657   0.550   9.840  2.7068  0.6956 -0.8052
 4909SOL     OW26362   2.606   1.300   2.266  0.5685  0.2696  0.2896
 4909SOL    HW126363   2.542   1.354   2.313  1.1194  0.8058  0.4244
 4909SOL    HW226364   2.671   1.366   2.242  0.4216  0.0402 -0.7289
 4910SOL     OW26365   1.695   0.142   3.537  0.5067 -0.2514  0.4368
 4910SOL    HW126366   1.741   0.062   3.512  0.6085  0.5425 -1.8745
 4910SOL    HW226367   1.698   0.199   3.461 -1.1894  0.0955  0.6439
 4911SOL     OW26368   0.519   0.287   2.165 -0.1630  0.2852 -0.3562
 4911SOL    HW126369   0.476   0.208   2.200  1.3490 -0.1566  0.5044
 4911SOL    HW226370   0.441   0.340   2.179  0.5396  0.9488  0.9743
 4912SOL     OW26371   1.643   3.764   5.129 -0.0127  0.2424  0.1044
 4912SOL    HW126372   1.619   3.713   5.207  0.8601  0.6590  0.6349
 4912SOL    HW226373   1.738   3.758   5.135 -0.2825 -1.2466  2.8500
 4913SOL     OW26374   2.402   1.734   5.587 -0.2818  0.0432 -0.4174
 4913SOL    HW126375   2.422   1.645   5.557 -3.8252 -1.2725  1.0991
 4913SOL    HW226376   2.335   1.765   5.527  0.0030 -0.2243 -0.8723
 4914SOL     OW26377   2.041   4.010   6.230  0.1695  0.3417  0.3198
 4914SOL    HW126378   2.089   4.092   6.216 -0.3722  0.8457  1.4128
 4914SOL    HW226379   2.010   3.990   6.142 -1.9701  1.3200  0.8207
 4915SOL     OW26380   1.517   2.878   2.785 -0.0571  0.0213  0.2751
 4915SOL    HW126381   1.571   2.868   2.863 -0.7255  0.9929  0.8784
 4915SOL    HW226382   1.509   2.974   2.791  2.3418  0.3655 -2.1394
 4916SOL     OW26383   0.608   3.137   4.917  0.2743 -0.2108  0.0314
 4916SOL    HW126384   0.515   3.129   4.894  0.5597 -0.7498 -0.9397
 4916SOL    HW226385   0.602   3.137   5.012 -1.3904  2.9017 -0.0730
 4917SOL     OW26386   4.675   0.986  15.024  0.2514  0.1720  0.1133
 4917SOL    HW126387   4.641   0.898  15.008 -1.6122  1.1622 -1.3585
 4917SOL    HW226388   4.598   1.025  15.065  1.3413  2.9731 -0.4714
 4918SOL     OW26389   4.518   4.674   6.548 -0.3442  0.9609 -0.1305
 4918SOL    HW126390   4.467   4.719   6.481  0.6638  0.5830 -1.1442
 4918SOL    HW226391   4.481   4.711   6.628 -1.4391 -2.8847  1.1307
 4919SOL     OW26392   0.698   0.084   9.661  0.6291 -0.5199 -0.0989
 4919SOL    HW126393   0.719   0.099   9.569  0.9709 -0.5628 -0.0282
 4919SOL    HW226394   0.788   0.065   9.690  1.6362  0.7226 -2.3974
 4920SOL     OW26395   3.297   1.318   2.251 -0.6693  0.6345  0.0639
 4920SOL    HW126396   3.318   1.409   2.230  0.6860  0.8164  2.1413
 4920SOL    HW226397   3.308   1.275   2.167 -1.2924  0.6018 -0.0031
 4921SOL     OW26398   3.642   3.635   8.254 -0.3786 -0.2377 -0.3157
 4921SOL    HW126399   3.681   3.573   8.192  2.2821  0.0906  1.0242
 4921SOL    HW226400   3.717   3.664   8.306  0.9503  0.7600 -2.7918
 4922SOL     OW26401   1.942   1.712  12.613  0.2757  0.2941  0.3336
 4922SOL    HW126402   1.986   1.671  12.688  0.3732  1.0119  0.6637
 4922SOL    HW226403   1.931   1.799  12.650  1.0910  0.1886  0.8238
 4923SOL     OW26404   2.597   0.590   2.069  0.1266 -0.0242 -0.5224
 4923SOL    HW126405   2.629   0.526   2.132 -1.6371 -1.0595 -0.6775
 4923SOL    HW226406   2.538   0.530   2.023  0.2029 -1.7885  1.6719
 4924SOL     OW26407   0.304   2.623   6.347 -0.9171  0.1728 -0.0406
 4924SOL    HW126408   0.280   2.591   6.260  1.7622 -2.2345  0.0986
 4924SOL    HW226409   0.262   2.707   6.363  2.5429  1.6652  1.2553
 4925SOL     OW26410   4.463   2.760   1.870  0.0435  0.3887  0.1182
 4925SOL    HW126411   4.525   2.829   1.891  0.2220  0.3407 -0.2453
 4925SOL    HW226412   4.511   2.716   1.799 -0.1532  0.0963  0.1666
 4926SOL     OW26413   2.600   3.624   1.018  0.1644  0.3490 -0.0701
 4926SOL    HW126414   2.541   3.573   0.962 -0.7802  0.4572  0.8195
 4926SOL    HW226415   2.678   3.578   0.989 -0.2028  1.1444 -2.3912
 4927SOL     OW26416   2.036   3.787  17.287  0.1517  0.0738  0.1973
 4927SOL    HW126417   2.085   3.860  17.325  1.7907 -1.0471  0.2414
 4927SOL    HW226418   2.071   3.712  17.335  0.6672  0.2184  0.0408
 4928SOL     OW26419   2.287   3.885   9.715 -0.4126 -0.1891  0.2336
 4928SOL    HW126420   2.361   3.841   9.757 -0.5267 -0.1748  0.4493
 4928SOL    HW226421   2.277   3.828   9.639  1.1484 -0.0829 -0.0531
 4929SOL     OW26422   4.249   3.112   2.676 -0.7517  0.4970  0.1446
 4929SOL    HW126423   4.156   3.130   2.664 -0.2689  2.7138 -0.2647
 4929SOL    HW226424   4.248   3.071   2.763 -0.7693 -1.8831 -0.9856
 4930SOL     OW26425   0.264   0.638   8.195 -0.2009 -0.4643 -0.0905
 4930SOL    HW126426   0.315   0.718   8.208  0.8457 -1.4262  1.6857
 4930SOL    HW226427   0.258   0.611   8.286  0.4431 -0.3364 -0.0117
 4931SOL     OW26428   0.450   4.714   1.931  0.1535  0.1551 -0.3286
 4931SOL    HW126429   0.385   0.042   1.960  1.9364  1.5411  0.6223
 4931SOL    HW226430   0.440   4.645   1.997  1.8080 -1.4314 -1.7284
 4932SOL     OW26431   0.987   0.267  10.710  0.4931  0.4857 -0.0679
 4932SOL    HW126432   1.076   0.302  10.714  0.1447  1.2995  0.5064
 4932SOL    HW226433   0.983   0.197  10.775 -1.0935 -0.1970 -0.9015
 4933SOL     OW26434   1.368   2.658   0.831 -0.2503 -0.0698  0.4798
 4933SOL    HW126435   1.348   2.715   0.905 -3.1268  2.2350 -2.1049
 4933SOL    HW226436   1.444   2.710   0.805 -1.2780  0.1344 -2.1235
 4934SOL     OW26437   1.051   0.840   3.987 -0.1972  0.1116 -0.3444
 4934SOL    HW126438   1.135   0.844   4.032  0.5943 -0.1467 -1.8031
 4934SOL    HW226439   1.029   0.747   3.986 -1.4815  0.3964  1.0563
 4935SOL     OW26440   2.932   1.807   2.338 -0.7072 -0.1150  0.3142
 4935SOL    HW126441   3.022   1.826   2.311 -1.4300  0.2072 -1.9211
 4935SOL    HW226442   2.925   1.859   2.418  0.9835 -1.0174  1.0326
 4936SOL     OW26443   2.648   3.050   4.783  0.0148  0.4081  0.2702
 4936SOL    HW126444   2.709   3.018   4.849  0.9508 -2.2009 -1.8707
 4936SOL    HW226445   2.572   2.993   4.795  0.9950 -0.7620  0.8860
 4937SOL     OW26446   2.702   0.383  13.054 -0.1736  0.0255 -0.0979
 4937SOL    HW126447   2.783   0.419  13.090 -0.0680 -0.7512  0.4341
 4937SOL    HW226448   2.689   0.426  12.969  2.5968 -3.7932 -2.4640
 4938SOL     OW26449   3.841   3.106   8.300  0.4680 -1.0251  0.1565
 4938SOL    HW126450   3.881   3.152   8.226 -0.8069  0.7348  0.5472
 4938SOL    HW226451   3.768   3.066   8.253  0.1947 -1.3973  0.9167
 4939SOL     OW26452   2.168   2.516   9.841 -0.2630  0.1687  0.2450
 4939SOL    HW126453   2.199   2.592   9.792 -2.8207  1.3027  0.3493
 4939SOL    HW226454   2.217   2.439   9.812  2.1398  1.0464  2.0566
 4940SOL     OW26455   1.325   1.694   7.610  0.3608  0.2894 -0.3669
 4940SOL    HW126456   1.233   1.687   7.583  0.8589  2.3564 -2.5448
 4940SOL    HW226457   1.338   1.607   7.648 -0.7515  0.2888  0.0161
 4941SOL     OW26458   0.056   1.301   4.698 -0.6290 -0.6912  0.6694
 4941SOL    HW126459   0.076   1.392   4.720 -1.7576  0.2881 -2.3150
 4941SOL    HW226460   0.052   1.312   4.603 -2.6015 -2.1977  0.5551
 4942SOL     OW26461   2.188   2.514   2.856  0.1836 -0.3546 -0.1907
 4942SOL    HW126462   2.092   2.517   2.849  0.1595 -3.0820 -1.2509
 4942SOL    HW226463   2.195   2.503   2.951  2.2850  1.3462 -0.1536
 4943SOL     OW26464   4.217   3.156   4.974  0.5229  0.4623 -0.5657
 4943SOL    HW126465   4.153   3.214   4.933 -1.2643 -0.4265  1.0152
 4943SOL    HW226466   4.263   3.130   4.894  0.0755  0.0143 -0.6741
 4944SOL     OW26467   1.666   3.057   8.577  0.0027 -0.0081 -0.3024
 4944SOL    HW126468   1.595   3.082   8.637 -0.4228  1.8942 -1.5818
 4944SOL    HW226469   1.740   3.047   8.637  0.7186  1.4441 -0.9269
 4945SOL     OW26470   4.045   3.073   7.510  0.5582 -0.3133 -0.1577
 4945SOL    HW126471   3.972   3.048   7.567 -3.4144  3.4853 -3.6000
 4945SOL    HW226472   4.010   3.059   7.422 -0.2909 -3.5081  0.6783
 4946SOL     OW26473   0.695   2.359  10.381 -0.2488 -0.0415  0.6601
 4946SOL    HW126474   0.637   2.358  10.306 -1.6952 -0.2501  1.7747
 4946SOL    HW226475   0.654   2.295  10.440  0.5071 -1.2671 -0.1416
 4947SOL     OW26476   2.045   1.771   9.132  0.4338 -0.0604  0.1054
 4947SOL    HW126477   2.015   1.687   9.097  0.7142 -0.1219  0.0116
 4947SOL    HW226478   2.081   1.750   9.218  2.3644  0.8463 -0.4877
 4948SOL     OW26479   0.683   3.645   7.384 -1.0812  0.5694 -0.2561
 4948SOL    HW126480   0.753   3.581   7.371 -1.2497  0.2625  0.3316
 4948SOL    HW226481   0.663   3.638   7.477  0.2793  3.0016  0.1979
 4949SOL     OW26482   3.875   1.135   3.269 -0.3666  0.5329 -0.3789
 4949SOL    HW126483   3.906   1.107   3.182 -1.4693 -1.0452 -0.2671
 4949SOL    HW226484   3.896   1.059   3.323 -0.9487 -0.8104 -2.0289
 4950SOL     OW26485   3.672   3.190  17.306 -0.2748  0.6164 -0.0525
 4950SOL    HW126486   3.685   3.181  17.212  1.2297  0.5855  0.1618
 4950SOL    HW226487   3.700   3.280  17.319 -0.0198  0.5738 -0.3027
 4951SOL     OW26488   1.180   4.373  13.610  0.4069 -0.4041 -0.6554
 4951SOL    HW126489   1.101   4.367  13.557  0.0094 -0.7576 -0.0304
 4951SOL    HW226490   1.168   4.457  13.654  1.1438 -0.0022 -1.2421
 4952SOL     OW26491   1.533   4.178   7.470 -0.4028  0.0802 -0.8144
 4952SOL    HW126492   1.557   4.093   7.433  1.2311  1.1448 -2.2020
 4952SOL    HW226493   1.550   4.238   7.397 -1.3527  0.2148 -0.9343
 4953SOL     OW26494   1.679   1.599  14.115  0.3199  0.5969 -0.0528
 4953SOL    HW126495   1.706   1.649  14.038 -0.8726 -0.7700 -1.3598
 4953SOL    HW226496   1.734   1.520  14.116 -0.9245 -0.2597  0.1759
 4954SOL     OW26497   1.447   0.451   0.062 -0.2114  0.1088  0.7287
 4954SOL    HW126498   1.477   0.522   0.005  1.7568 -0.5465  0.9525
 4954SOL    HW226499   1.387   0.495   0.123  0.0530  3.5973 -1.4877
 4955SOL     OW26500   4.612   2.899  14.693  0.1496 -0.1513  0.2031
 4955SOL    HW126501   4.580   2.868  14.777 -0.0069 -2.1334 -0.5824
 4955SOL    HW226502   4.631   2.993  14.701  0.0283  0.1096 -2.5920
 4956SOL     OW26503   4.671   2.701   3.234  0.5053  0.4869  0.2919
 4956SOL    HW126504   4.719   2.701   3.317 -0.8177  0.5030  1.0570
 4956SOL    HW226505   4.671   2.796   3.221  3.0450  0.8844  3.1178
 4957SOL     OW26506   4.042   3.940   5.989  0.8127  0.0559  0.5256
 4957SOL    HW126507   4.019   3.847   5.994  1.3172 -0.0854  0.1536
 4957SOL    HW226508   3.958   3.979   6.012  0.2727 -0.0358 -1.3207
 4958SOL     OW26509   1.308   0.861   5.634  0.2944  0.2174  0.2787
 4958SOL    HW126510   1.342   0.943   5.670  1.8167 -0.1532 -0.2912
 4958SOL    HW226511   1.327   0.805   5.710 -1.1856 -0.9116 -0.1944
 4959SOL     OW26512   1.707   2.335   2.438 -0.2116  0.3084 -0.1044
 4959SOL    HW126513   1.672   2.269   2.499  0.0413  0.0397 -0.2550
 4959SOL    HW226514   1.623   2.381   2.431  0.6164  1.5591 -1.7502
 4960SOL     OW26515   3.955   3.595   0.778  0.1409  0.4935  0.2083
 4960SOL    HW126516   3.986   3.611   0.689 -1.4056 -0.9535 -0.6047
 4960SOL    HW226517   3.867   3.631   0.777  0.6497  1.8513  2.8008
 4961SOL     OW26518   0.690   1.650   3.719 -0.4918  0.2590  0.0171
 4961SOL    HW126519   0.785   1.637   3.710 -0.7702 -1.1842 -0.8452
 4961SOL    HW226520   0.681   1.745   3.724  1.2526  0.4192  0.0836
 4962SOL     OW26521   3.797   0.330   9.001  0.3435  0.3873  0.1683
 4962SOL    HW126522   3.862   0.384   9.047 -1.1540  0.1208  2.6241
 4962SOL    HW226523   3.812   0.248   9.048 -2.5023 -0.2419  0.0133
 4963SOL     OW26524   1.556   1.257  16.812 -0.4431 -0.1012  0.0775
 4963SOL    HW126525   1.539   1.350  16.794  1.5235  0.4614  1.0602
 4963SOL    HW226526   1.546   1.250  16.907  0.0869  0.0512  0.1442
 4964SOL     OW26527   0.018   3.861   6.416  0.3233 -0.1404 -0.0460
 4964SOL    HW126528   0.081   3.832   6.350  0.9658  0.0278  0.5015
 4964SOL    HW226529   4.671   3.838   6.372  0.2123  0.9837 -0.4265
 4965SOL     OW26530   0.848   3.485   0.247  0.4151  0.0748  0.2850
 4965SOL    HW126531   0.904   3.511   0.174 -1.1074 -0.9957 -1.2636
 4965SOL    HW226532   0.780   3.551   0.241 -0.0641 -0.4626 -0.1207
 4966SOL     OW26533   3.419   3.156   4.261  0.3036 -0.0781 -0.0517
 4966SOL    HW126534   3.474   3.108   4.322 -0.2727 -1.4306 -0.6044
 4966SOL    HW226535   3.441   3.247   4.283  1.3417 -0.7890  1.8530
 4967SOL     OW26536   3.321   1.190   9.864  0.5880 -0.2760 -0.1884
 4967SOL    HW126537   3.284   1.154   9.783  1.0386 -1.6074  0.2104
 4967SOL    HW226538   3.260   1.147   9.924  0.5583 -0.2164 -0.1752
 4968SOL     OW26539   1.105   2.282  15.913  0.1728 -0.1497 -0.1967
 4968SOL    HW126540   1.064   2.344  15.852  1.8549  3.3243  2.2003
 4968SOL    HW226541   1.036   2.278  15.979  0.2116 -0.8745 -0.2019
 4969SOL     OW26542   1.052   1.708   5.753  0.1325  0.0135 -0.2364
 4969SOL    HW126543   1.129   1.687   5.805 -0.4500  0.7667  0.9259
 4969SOL    HW226544   1.050   1.635   5.690 -1.1851 -0.2408  0.0922
 4970SOL     OW26545   0.517   3.224  17.289  0.0966 -0.3629  0.3598
 4970SOL    HW126546   0.611   3.206  17.294 -0.0878 -2.0189 -2.3890
 4970SOL    HW226547   0.488   3.133  17.299  3.6299 -1.7909 -2.6470
 4971SOL     OW26548   1.873   2.327   4.020 -0.5979  0.3896 -0.1142
 4971SOL    HW126549   1.910   2.338   4.107  1.8107 -1.2858 -0.9404
 4971SOL    HW226550   1.945   2.330   3.957  0.3995  1.4093  1.0779
 4972SOL     OW26551   1.242   1.631   4.741  0.0138 -0.3973 -0.0483
 4972SOL    HW126552   1.186   1.573   4.793  1.6615 -1.9033  0.0466
 4972SOL    HW226553   1.182   1.705   4.745  1.0756  0.4693 -0.1177
 4973SOL     OW26554   4.532   1.957  10.870 -0.0844 -0.0682 -0.2624
 4973SOL    HW126555   4.610   1.916  10.834 -0.2860  0.4973 -1.3446
 4973SOL    HW226556   4.480   1.986  10.794 -1.6611 -1.3967  0.3035
 4974SOL     OW26557   1.204   1.062  13.711 -0.0727 -0.6573 -0.1066
 4974SOL    HW126558   1.203   1.081  13.618  0.5611 -0.8295 -0.1515
 4974SOL    HW226559   1.242   1.135  13.760 -1.8282 -0.2069  0.5800
 4975SOL     OW26560   2.565   3.344   4.552 -0.4276  0.5026 -0.0802
 4975SOL    HW126561   2.652   3.306   4.560 -0.6490  0.8527  3.8889
 4975SOL    HW226562   2.509   3.269   4.534 -0.7824  0.3147  1.8115
 4976SOL     OW26563   2.408   3.335   5.188  0.1946  0.6977 -0.0452
 4976SOL    HW126564   2.418   3.294   5.102  2.7977  0.0268  0.5643
 4976SOL    HW226565   2.449   3.418   5.165  2.6533 -0.7723 -0.9449
 4977SOL     OW26566   2.895   0.419   4.837 -0.0865  0.5800 -0.5633
 4977SOL    HW126567   2.820   0.366   4.864  0.4660 -0.0146 -0.2116
 4977SOL    HW226568   2.920   0.377   4.755  0.5076 -0.7759  0.3163
 4978SOL     OW26569   0.439   4.207   8.441 -0.2796  0.0759 -0.0566
 4978SOL    HW126570   0.394   4.127   8.468 -0.0258  0.5061  1.6069
 4978SOL    HW226571   0.365   4.234   8.386  1.4329 -0.2581 -2.5207
 4979SOL     OW26572   0.864   1.748   9.661 -0.0418 -1.0058  0.3597
 4979SOL    HW126573   0.916   1.808   9.608 -1.2760 -0.8662 -0.6959
 4979SOL    HW226574   0.854   1.674   9.601 -0.0444 -0.0104 -0.8774
 4980SOL     OW26575   2.291   3.208   5.396 -0.5246  0.6879  0.0099
 4980SOL    HW126576   2.372   3.159   5.409  0.1427  1.5969 -0.7106
 4980SOL    HW226577   2.321   3.260   5.322  1.3236 -1.4324 -0.7311
 4981SOL     OW26578   2.479   2.611   2.204  0.8436 -0.4077 -0.0780
 4981SOL    HW126579   2.492   2.524   2.241 -0.2557  0.1594  1.5998
 4981SOL    HW226580   2.384   2.620   2.203  0.8579 -0.2891 -0.5913
 4982SOL     OW26581   1.584   3.921   7.357  0.3581  0.3384 -0.3301
 4982SOL    HW126582   1.617   3.893   7.442  1.1888  2.0049 -0.1262
 4982SOL    HW226583   1.619   3.848   7.305  0.9897  1.2365 -1.1666
 4983SOL     OW26584   4.134   0.004   7.413  0.1781  0.1684  0.0328
 4983SOL    HW126585   4.149   4.721   7.320 -0.5381 -0.1417 -0.0241
 4983SOL    HW226586   4.063   0.069   7.409 -1.6853 -1.7867  1.1986
 4984SOL     OW26587   1.396   0.004   4.697 -0.5019 -1.0115  0.4147
 4984SOL    HW126588   1.339   0.071   4.659  2.3379  1.3001  0.2592
 4984SOL    HW226589   1.431   4.696   4.619  0.6244  0.1530  0.2817
 4985SOL     OW26590   0.833   4.139  14.633  0.2769  0.4125 -0.0462
 4985SOL    HW126591   0.910   4.111  14.682  0.3919 -2.1238 -1.7074
 4985SOL    HW226592   0.875   4.152  14.547 -1.8099  1.7084 -0.8841
 4986SOL     OW26593   3.324   0.903   5.083 -0.3755 -0.0046 -0.1919
 4986SOL    HW126594   3.327   0.993   5.115  2.1068 -0.9652  2.2579
 4986SOL    HW226595   3.297   0.923   4.994  2.6442  2.1652 -0.5958
 4987SOL     OW26596   0.089   3.953  12.432 -0.2422  0.4677  0.4196
 4987SOL    HW126597   0.139   3.993  12.361  0.5623 -2.4958 -0.7050
 4987SOL    HW226598   0.059   3.879  12.379 -0.2942 -0.3517  1.5806
 4988SOL     OW26599   1.903   0.458  11.362  0.7867 -0.4186  0.0846
 4988SOL    HW126600   1.925   0.504  11.443 -1.2820 -0.8870  0.9019
 4988SOL    HW226601   1.904   0.367  11.393  0.9186 -0.4706 -0.0700
 4989SOL     OW26602   2.144   3.775   7.586 -0.4326  0.7002 -0.1151
 4989SOL    HW126603   2.069   3.821   7.548 -0.9724 -0.7543 -0.8183
 4989SOL    HW226604   2.116   3.778   7.678  0.6137 -0.3856  0.2349
 4990SOL     OW26605   4.234   2.050   4.494  0.3588  0.2633 -0.4070
 4990SOL    HW126606   4.193   2.091   4.419  1.2404 -1.1671 -1.6767
 4990SOL    HW226607   4.265   1.965   4.461  0.0117 -0.0692  0.1224
 4991SOL     OW26608   0.853   3.507  12.912  0.0606 -0.5670  0.2438
 4991SOL    HW126609   0.930   3.563  12.916 -0.5677  0.2773  0.3986
 4991SOL    HW226610   0.861   3.447  12.986 -0.2856 -2.1977 -1.0448
 4992SOL     OW26611   0.240   1.764  11.938 -0.2319  0.2140  0.0187
 4992SOL    HW126612   0.147   1.785  11.933 -0.2109 -0.0819 -1.6250
 4992SOL    HW226613   0.248   1.713  11.857 -0.5714  2.0229 -1.1628
 4993SOL     OW26614   4.417   2.472   0.281  0.3841 -0.1680  0.5381
 4993SOL    HW126615   4.450   2.490   0.192  0.4961 -1.3426  0.3485
 4993SOL    HW226616   4.502   2.451   0.320  1.2007  0.7347 -0.7462
 4994SOL     OW26617   3.875   2.264  11.200 -0.1289  0.1677  0.0619
 4994SOL    HW126618   3.945   2.313  11.245 -1.0846  0.9659  0.6813
 4994SOL    HW226619   3.820   2.233  11.271  1.8040 -1.1582  0.9860
 4995SOL     OW26620   2.183   4.210   3.162  0.2245  0.0837 -0.2035
 4995SOL    HW126621   2.170   4.133   3.217  0.7904 -1.0144 -1.5987
 4995SOL    HW226622   2.174   4.289   3.216 -0.6935  1.1761 -1.9468
 4996SOL     OW26623   2.638   3.496   2.919 -0.3555 -0.1109 -0.9487
 4996SOL    HW126624   2.554   3.453   2.907 -0.6282  0.2360 -0.3318
 4996SOL    HW226625   2.668   3.446   2.995  3.1154  0.5199 -1.8630
 4997SOL     OW26626   0.255   1.673   2.854 -0.1272  0.1127 -0.0913
 4997SOL    HW126627   0.240   1.761   2.890 -0.3090 -0.0399  0.2072
 4997SOL    HW226628   0.261   1.700   2.762 -0.8675 -1.3611 -0.5674
 4998SOL     OW26629   2.895   2.992   3.085  0.2099 -0.0177  0.1002
 4998SOL    HW126630   2.869   3.062   3.025  1.2150 -2.5758 -3.3305
 4998SOL    HW226631   2.941   3.040   3.154 -2.0469  2.0674  0.1652
 4999SOL     OW26632   1.519   3.200   2.735 -0.2213  0.2345  0.1003
 4999SOL    HW126633   1.588   3.191   2.669  0.6904  0.3265  1.0373
 4999SOL    HW226634   1.451   3.251   2.691  1.2849  0.8718 -1.5211
 5000SOL     OW26635   1.146   3.691   8.153 -0.9465  0.0053 -0.2966
 5000SOL    HW126636   1.091   3.761   8.118  0.7797  0.5495 -1.8998
 5000SOL    HW226637   1.084   3.646   8.211  0.8143  0.1567  1.6844
 5001SOL     OW26638   1.575   1.007   6.555 -0.1992  0.0122 -0.2155
 5001SOL    HW126639   1.487   1.001   6.517  0.1203 -2.4689 -0.5269
 5001SOL    HW226640   1.591   0.926   6.603  0.1749  1.5053  2.1392
 5002SOL     OW26641   0.881   1.872   0.801  0.3588  0.2618 -0.0575
 5002SOL    HW126642   0.862   1.819   0.723  2.5157 -0.0188 -0.3940
 5002SOL    HW226643   0.833   1.953   0.785  1.9520  1.1183 -0.5678
 5003SOL     OW26644   2.152   2.636   4.414  0.0386  0.1772  0.0071
 5003SOL    HW126645   2.199   2.622   4.496 -0.2566 -2.9522 -0.3748
 5003SOL    HW226646   2.061   2.644   4.444 -0.4683  0.9618 -1.7051
 5004SOL     OW26647   1.903   2.950   2.303 -0.7443 -0.0902 -0.1392
 5004SOL    HW126648   1.832   3.005   2.271 -0.0224  0.8407 -0.1404
 5004SOL    HW226649   1.865   2.862   2.301  0.8632 -0.7510 -1.0006
 5005SOL     OW26650   2.355   3.663   2.587  0.2660 -0.3113  0.0514
 5005SOL    HW126651   2.346   3.569   2.602 -2.3765 -0.2857 -1.3903
 5005SOL    HW226652   2.323   3.699   2.670  0.3647  1.4636 -0.6803
 5006SOL     OW26653   4.528   1.002   7.468  0.3692  0.4240  0.3146
 5006SOL    HW126654   4.483   1.086   7.461  0.3184  0.1858 -1.9932
 5006SOL    HW226655   4.593   1.014   7.538  0.5486 -1.3524  0.4619
 5007SOL     OW26656   3.860   0.460   7.716  0.1978 -0.4390  0.3521
 5007SOL    HW126657   3.857   0.386   7.777  1.3390 -0.3788  0.4963
 5007SOL    HW226658   3.949   0.490   7.738  0.0160  1.5810 -1.6918
 5008SOL     OW26659   3.197   2.376   9.180 -0.0850  0.3143  0.3729
 5008SOL    HW126660   3.261   2.369   9.251 -1.9415 -0.9345  1.8942
 5008SOL    HW226661   3.122   2.413   9.227  1.2602  1.6427  1.4920
 5009SOL     OW26662   2.854   4.575   4.519  0.3093  0.4332 -0.1473
 5009SOL    HW126663   2.863   4.603   4.427 -0.3845  0.2331 -0.2678
 5009SOL    HW226664   2.846   4.481   4.504 -0.1679  0.8026 -2.2339
 5010SOL     OW26665   2.248   3.636  12.828  0.2555  0.0338 -0.2288
 5010SOL    HW126666   2.157   3.622  12.855 -0.1574 -0.0545 -1.7083
 5010SOL    HW226667   2.261   3.727  12.856 -1.0393 -1.0297  3.8916
 5011SOL     OW26668   4.267   1.730   5.689 -0.1134  0.7618  0.6556
 5011SOL    HW126669   4.243   1.787   5.616  1.2897 -0.7026 -0.9113
 5011SOL    HW226670   4.197   1.664   5.697  0.8384 -0.4042 -0.8348
 5012SOL     OW26671   4.101   2.729  14.613 -0.2235  0.1126  1.1700
 5012SOL    HW126672   4.125   2.763  14.526  0.3671  1.4596  1.8533
 5012SOL    HW226673   4.179   2.675  14.624 -0.6659 -0.7107  0.3182
 5013SOL     OW26674   0.042   0.458   4.057  0.5383  0.1080  0.1885
 5013SOL    HW126675   4.698   0.499   4.091  1.0047  0.5319  0.7811
 5013SOL    HW226676   0.110   0.511   4.099  0.0176 -1.0087  2.4621
 5014SOL     OW26677   4.381   1.104   8.155 -0.7064  0.3571 -0.0211
 5014SOL    HW126678   4.335   1.020   8.147 -0.0230 -0.0196  0.0583
 5014SOL    HW226679   4.312   1.163   8.184 -2.8859 -1.1753 -2.0455
 5015SOL     OW26680   3.631   2.005  15.849 -0.1653 -0.3828  0.4392
 5015SOL    HW126681   3.695   2.027  15.917  0.4017  0.4679 -0.3578
 5015SOL    HW226682   3.587   2.090  15.849 -0.0576 -0.3271  0.8869
 5016SOL     OW26683   2.085   4.443   4.880 -0.5341 -0.4207  0.2279
 5016SOL    HW126684   2.062   4.355   4.912  1.0966 -0.5807  0.9797
 5016SOL    HW226685   2.040   4.495   4.946  0.9431  2.7973 -1.3264
 5017SOL     OW26686   0.333   0.262   3.684 -0.1358 -0.3352 -0.0647
 5017SOL    HW126687   0.283   0.255   3.603 -0.7031  1.6897  0.0999
 5017SOL    HW226688   0.318   0.353   3.709 -1.0511 -0.1622 -1.2113
 5018SOL     OW26689   2.521   2.525   5.468 -0.7239 -0.2413 -0.6321
 5018SOL    HW126690   2.552   2.441   5.501 -1.5860  0.1821  1.2318
 5018SOL    HW226691   2.446   2.538   5.525  0.5224 -1.6184  1.3393
 5019SOL     OW26692   2.681   2.064   3.508 -0.2583  0.1602 -0.2745
 5019SOL    HW126693   2.629   2.063   3.588 -2.0933 -2.4648 -1.4680
 5019SOL    HW226694   2.617   2.018   3.452 -2.2759  2.8963 -0.2164
 5020SOL     OW26695   0.229   2.862   4.749  0.1781  0.2912  0.0243
 5020SOL    HW126696   0.288   2.796   4.784  0.1555  0.3008  0.0796
 5020SOL    HW226697   0.148   2.812   4.738  0.6474 -0.6765  0.9971
 5021SOL     OW26698   0.567   2.043   2.025 -0.4093  0.3979  0.6472
 5021SOL    HW126699   0.533   1.977   1.964  1.5478  1.4732 -1.6283
 5021SOL    HW226700   0.541   1.995   2.103 -0.6035  2.6720  1.9614
 5022SOL     OW26701   2.621   2.233   0.082  0.2174 -0.0983 -0.2169
 5022SOL    HW126702   2.605   2.284   0.162  1.0417 -0.2171  0.0215
 5022SOL    HW226703   2.535   2.250   0.044  1.6371  1.1059 -2.9026
 5023SOL     OW26704   2.954   3.349   6.202  0.2289  0.5953  0.1684
 5023SOL    HW126705   2.869   3.370   6.165  0.2864 -0.9732 -0.8188
 5023SOL    HW226706   2.984   3.282   6.140 -2.5447  0.8518 -1.4219
 5024SOL     OW26707   1.830   3.760   8.427  0.4245  0.2954 -0.1313
 5024SOL    HW126708   1.744   3.798   8.411  0.4688  1.4875  2.4359
 5024SOL    HW226709   1.867   3.836   8.471 -0.3663  0.7560 -0.2736
 5025SOL     OW26710   1.595   3.746   2.492 -0.1551  0.2559  0.6419
 5025SOL    HW126711   1.542   3.755   2.412  1.3338 -1.2300 -0.4871
 5025SOL    HW226712   1.680   3.730   2.452  0.2758 -0.3043  1.7645
 5026SOL     OW26713   3.592   2.409   3.940 -0.0662 -0.6165 -0.4406
 5026SOL    HW126714   3.656   2.374   3.878 -0.0302  1.0361 -1.3590
 5026SOL    HW226715   3.620   2.383   4.027  0.5646  2.6231  0.3354
 5027SOL     OW26716   0.029   3.110   1.183 -0.3955 -0.2303 -0.0851
 5027SOL    HW126717   4.713   3.121   1.263  0.1584 -0.3103  0.2834
 5027SOL    HW226718   0.075   3.194   1.189  0.6589 -0.9316  1.6075
 5028SOL     OW26719   3.902   4.257  17.288  0.2919  0.0481 -0.7240
 5028SOL    HW126720   3.938   4.255  17.377 -1.3596 -1.2203 -0.1000
 5028SOL    HW226721   3.962   4.205  17.235 -0.9087 -1.8259 -0.2253
 5029SOL     OW26722   3.696   1.489  16.528  0.4330  0.6646 -0.4503
 5029SOL    HW126723   3.629   1.456  16.588  1.0083 -1.7831 -1.1447
 5029SOL    HW226724   3.658   1.576  16.516 -0.4503  0.2846 -0.4243
 5030SOL     OW26725   4.663   2.931  15.226  0.3036 -1.0399  0.0141
 5030SOL    HW126726   4.627   2.969  15.306 -1.3187  0.2454 -1.3180
 5030SOL    HW226727   0.006   2.893  15.264  0.9955 -0.1530 -0.5423
 5031SOL     OW26728   2.565   1.423   9.462  0.5778 -0.5689 -0.2388
 5031SOL    HW126729   2.610   1.483   9.401 -1.1541 -1.6205 -2.5326
 5031SOL    HW226730   2.630   1.424   9.532 -1.8474 -2.5540  1.9827
 5032SOL     OW26731   4.732   2.161   8.019 -0.6009  0.2077  0.3178
 5032SOL    HW126732   0.042   2.235   8.059  0.1392  0.1717 -0.4427
 5032SOL    HW226733   4.657   2.150   8.076 -1.2823 -2.0543 -0.9918
 5033SOL     OW26734   4.291   2.867  17.725  0.2129 -0.1635  0.1674
 5033SOL    HW126735   4.278   2.835   0.072  0.7444  1.3616  0.8005
 5033SOL    HW226736   4.379   2.905  17.720  1.5081 -3.0092  1.5839
 5034SOL     OW26737   3.032   1.785   6.661 -0.5151  0.3918  0.0235
 5034SOL    HW126738   2.982   1.704   6.652  2.7463 -1.7155  0.8573
 5034SOL    HW226739   3.058   1.796   6.570 -1.4692 -0.6820 -0.3809
 5035SOL     OW26740   1.416   3.110   6.287  0.5149 -0.3759  0.4556
 5035SOL    HW126741   1.323   3.118   6.305  0.9297  1.6381  1.6106
 5035SOL    HW226742   1.423   3.031   6.232  0.9543  0.4376 -0.6501
 5036SOL     OW26743   1.026   2.804  13.386 -0.6143 -0.5393 -0.2733
 5036SOL    HW126744   0.945   2.844  13.356 -0.9514  0.6063  2.1768
 5036SOL    HW226745   1.025   2.715  13.352 -1.0249 -0.3584 -0.7232
 5037SOL     OW26746   3.109   3.305   5.621  0.2064  0.0464  0.1149
 5037SOL    HW126747   3.038   3.366   5.642  1.3664  1.2361  0.5944
 5037SOL    HW226748   3.166   3.319   5.697  0.7994 -0.0687 -0.3019
 5038SOL     OW26749   3.308   3.768   3.639 -0.0804  0.2846 -0.1190
 5038SOL    HW126750   3.228   3.820   3.630 -0.1833  0.1602  0.0684
 5038SOL    HW226751   3.281   3.692   3.691 -2.1208  0.5035 -0.8541
 5039SOL     OW26752   2.777   3.907   3.449  0.1683 -0.0223 -0.8866
 5039SOL    HW126753   2.747   3.861   3.370 -0.8077 -2.4419  0.8848
 5039SOL    HW226754   2.871   3.894   3.448  0.0451 -1.0730  1.3911
 5040SOL     OW26755   4.568   0.475  13.596  0.3884 -0.2857 -0.1622
 5040SOL    HW126756   4.567   0.502  13.688 -0.0536  0.4407 -0.3861
 5040SOL    HW226757   4.567   0.379  13.598 -0.1750 -0.2271  3.0851
 5041SOL     OW26758   1.750   1.120   1.924 -0.8828  0.0623  0.1736
 5041SOL    HW126759   1.722   1.137   1.834 -2.0701  3.4708  1.2063
 5041SOL    HW226760   1.768   1.026   1.921  1.8120  0.6087 -1.1426
 5042SOL     OW26761   1.376   1.896  12.845 -0.1901 -0.5851 -0.0442
 5042SOL    HW126762   1.299   1.878  12.791 -1.0384 -0.4356  1.1135
 5042SOL    HW226763   1.447   1.862  12.790  0.5318 -0.0086  0.5429
 5043SOL     OW26764   3.568   3.107   7.671  0.3635 -0.0820 -0.4222
 5043SOL    HW126765   3.499   3.136   7.732  0.0777 -0.8557 -0.3736
 5043SOL    HW226766   3.523   3.121   7.588 -0.3953  0.6298  0.1017
 5044SOL     OW26767   2.356   3.165   8.251  0.7900  0.2574 -0.1918
 5044SOL    HW126768   2.393   3.250   8.277 -0.1264  0.4508  0.4986
 5044SOL    HW226769   2.267   3.194   8.232  0.4462 -0.3362  0.5264
 5045SOL     OW26770   0.153   3.891   5.216  0.0355  0.2775  0.1742
 5045SOL    HW126771   0.069   3.929   5.188  1.3473  2.9243 -0.2236
 5045SOL    HW226772   0.144   3.802   5.182 -2.1455  0.9459 -1.0493
 5046SOL     OW26773   4.093   3.512   2.508  0.1362 -0.2863  0.0940
 5046SOL    HW126774   4.053   3.471   2.431 -1.9457  1.3544  0.3142
 5046SOL    HW226775   4.028   3.581   2.517  0.7895  0.1223  1.6052
 5047SOL     OW26776   1.887   0.276   2.331 -0.0439  0.1885 -0.3385
 5047SOL    HW126777   1.811   0.219   2.340 -0.0907  0.5322  1.3441
 5047SOL    HW226778   1.919   0.255   2.243  0.5582  1.9590 -0.5365
 5048SOL     OW26779   0.544   3.896   5.699  0.0097  0.2722  0.3547
 5048SOL    HW126780   0.540   3.991   5.684  1.6089  0.2053 -0.5754
 5048SOL    HW226781   0.618   3.876   5.641 -0.7646 -1.8348  0.1048
 5049SOL     OW26782   3.949   2.110   9.553  0.1725  0.0877 -0.4121
 5049SOL    HW126783   3.899   2.042   9.599  1.7328 -0.0328  1.1216
 5049SOL    HW226784   3.961   2.173   9.623 -0.7025  2.0670 -2.0304
 5050SOL     OW26785   4.000   0.270   8.107  0.1685 -0.7127  0.2112
 5050SOL    HW126786   4.061   0.207   8.145 -0.6177 -0.6761  1.5384
 5050SOL    HW226787   3.953   0.314   8.178 -0.4870 -1.1291  0.0387
 5051SOL     OW26788   2.273   0.074   6.847  0.2272 -0.6944 -0.0418
 5051SOL    HW126789   2.332   0.100   6.776  0.3077 -1.2818 -0.1891
 5051SOL    HW226790   2.315   4.725   6.861  1.5607 -0.2985 -1.6033
 5052SOL     OW26791   4.483   4.238   4.376  0.3914 -0.1906  0.1752
 5052SOL    HW126792   4.525   4.154   4.354  1.7319  0.2026  1.2139
 5052SOL    HW226793   4.442   4.257   4.291  1.5638 -0.8311 -0.5401
 5053SOL     OW26794   0.733   4.256   3.762 -0.0403 -0.8698  0.1289
 5053SOL    HW126795   0.766   4.310   3.834 -2.1843  0.2050  0.2816
 5053SOL    HW226796   0.801   4.189   3.760 -0.8596 -1.6373 -1.3137
 5054SOL     OW26797   3.048   4.559   6.328 -0.2398  0.0807  0.0760
 5054SOL    HW126798   3.010   4.610   6.257  0.1462 -1.1688 -1.0413
 5054SOL    HW226799   2.982   4.576   6.395  0.4652  0.5065  0.6599
 5055SOL     OW26800   4.056   1.880   2.943  0.3197  0.1982 -0.0592
 5055SOL    HW126801   3.965   1.880   2.911 -0.8926  1.4094  3.4186
 5055SOL    HW226802   4.041   1.810   3.006 -0.4615  1.7059  1.4343
 5056SOL     OW26803   4.015   3.028   3.754 -0.3311 -0.2851  0.4215
 5056SOL    HW126804   4.082   2.975   3.797  1.2594  0.6592 -0.8915
 5056SOL    HW226805   3.935   2.975   3.760  1.1236 -2.4664  0.4007
 5057SOL     OW26806   1.152   1.559   8.611 -0.4250  0.1533  0.1208
 5057SOL    HW126807   1.117   1.603   8.533  0.8468  1.5337  0.3217
 5057SOL    HW226808   1.102   1.599   8.681  0.5227 -0.2843  1.0468
 5058SOL     OW26809   1.994   2.299   2.501  0.1946 -0.3210  0.2704
 5058SOL    HW126810   1.964   2.299   2.592  0.9178 -0.7715  0.5088
 5058SOL    HW226811   1.911   2.294   2.455 -0.0703 -0.7376  0.7916
 5059SOL     OW26812   1.478   2.949   6.826  0.7261 -0.5963 -0.0704
 5059SOL    HW126813   1.450   3.039   6.811 -0.3233 -0.5806  1.9924
 5059SOL    HW226814   1.552   2.956   6.886 -0.1983 -3.2532  1.4043
 5060SOL     OW26815   3.566   3.356   4.436 -0.2786 -0.1743 -0.6628
 5060SOL    HW126816   3.573   3.320   4.524  0.6839 -1.4198 -1.2549
 5060SOL    HW226817   3.476   3.388   4.440 -0.9048 -1.7101 -2.1041
 5061SOL     OW26818   0.299   0.348   4.585 -0.1148  0.1983  0.0826
 5061SOL    HW126819   0.249   0.327   4.664 -0.6790  1.4841  0.0705
 5061SOL    HW226820   0.232   0.356   4.517  1.5544  1.3612 -1.4321
 5062SOL     OW26821   3.109   3.450  11.768  0.4575 -0.1667  0.0545
 5062SOL    HW126822   3.033   3.460  11.826  0.3077  1.1625 -0.3791
 5062SOL    HW226823   3.086   3.515  11.702 -0.2535 -1.9276 -1.4038
 5063SOL     OW26824   3.743   2.278   3.755 -0.1895 -0.0443 -0.2840
 5063SOL    HW126825   3.765   2.187   3.738 -1.3142 -0.4496  0.4722
 5063SOL    HW226826   3.751   2.316   3.668 -3.5299  0.4960 -0.3573
 5064SOL     OW26827   1.292   3.608   2.189  0.5753 -0.2944 -0.0751
 5064SOL    HW126828   1.205   3.587   2.222  0.1030 -1.6354 -2.2281
 5064SOL    HW226829   1.299   3.555   2.110  2.5357  0.3052 -0.3095
 5065SOL     OW26830   2.019   1.550   7.727  0.0786  0.0544  0.1841
 5065SOL    HW126831   1.991   1.518   7.813 -1.6795 -0.2844 -0.5043
 5065SOL    HW226832   2.023   1.645   7.741 -2.9910  0.0118  1.4447
 5066SOL     OW26833   0.009   1.868   2.810 -0.0843 -0.3908 -0.1265
 5066SOL    HW126834   0.009   1.963   2.807 -0.3400 -0.4265 -1.4321
 5066SOL    HW226835   0.088   1.851   2.759  0.3546  1.2968  0.0064
 5067SOL     OW26836   4.032   4.303  13.036  0.2496  0.1722 -0.1543
 5067SOL    HW126837   3.974   4.237  12.997 -0.4889  1.2133 -0.8053
 5067SOL    HW226838   4.021   4.375  12.974 -0.5250  0.1741 -0.0146
 5068SOL     OW26839   2.221   1.730  14.980 -0.2753 -0.0657 -0.8921
 5068SOL    HW126840   2.134   1.725  14.940 -1.1991  1.3259  0.9340
 5068SOL    HW226841   2.257   1.648  14.947 -1.4087 -0.1266 -1.9755
 5069SOL     OW26842   4.315   3.441   6.509  0.3117  0.4740  0.3390
 5069SOL    HW126843   4.409   3.426   6.520 -0.1270 -0.4029  2.7399
 5069SOL    HW226844   4.277   3.353   6.503  0.0139  0.5947  0.4738
 5070SOL     OW26845   2.499   0.236   6.754 -0.3800 -0.4483 -0.4104
 5070SOL    HW126846   2.501   0.330   6.738  0.3996 -0.3681  0.1570
 5070SOL    HW226847   2.536   0.228   6.842 -1.5154 -0.5181  0.0632
 5071SOL     OW26848   2.156   4.302  15.649  0.0070  0.5255 -0.1207
 5071SOL    HW126849   2.231   4.280  15.706  0.9672 -0.4505 -1.7784
 5071SOL    HW226850   2.151   4.398  15.652  2.1834  0.6680 -0.4806
 5072SOL     OW26851   2.215   2.756   9.737  0.1653  0.4856 -0.2087
 5072SOL    HW126852   2.297   2.802   9.755  0.5906 -0.4246  0.1737
 5072SOL    HW226853   2.153   2.814   9.694  1.2674  0.1755 -2.2380
 5073SOL     OW26854   0.905   4.509   1.946 -0.2400 -0.0919  0.7463
 5073SOL    HW126855   0.904   4.601   1.920  0.9956 -0.8624 -2.0246
 5073SOL    HW226856   0.812   4.493   1.936  0.3208 -2.7018 -0.3114
 5074SOL     OW26857   0.065   1.002   3.591  0.0686 -0.2163 -0.5516
 5074SOL    HW126858   0.055   1.095   3.568 -0.7370 -0.5297 -1.4478
 5074SOL    HW226859   0.088   1.021   3.682 -2.4098 -1.1312  0.2448
 5075SOL     OW26860   3.547   0.342   7.821 -0.1085  0.3843 -0.2247
 5075SOL    HW126861   3.551   0.271   7.884 -0.1389  1.2044  0.6922
 5075SOL    HW226862   3.634   0.336   7.782  0.1552  0.3952  0.3763
 5076SOL     OW26863   1.172   4.089   0.770  0.0144 -0.4441  0.1668
 5076SOL    HW126864   1.130   4.004   0.781  2.6238 -2.0523 -2.4941
 5076SOL    HW226865   1.221   4.084   0.688 -0.1383 -3.7683  0.2613
 5077SOL     OW26866   1.587   2.462  17.061 -0.3341 -0.1082 -0.5776
 5077SOL    HW126867   1.613   2.461  17.153 -3.0519  2.8830  0.2088
 5077SOL    HW226868   1.608   2.551  17.033  0.3859 -0.3276 -0.7333
 5078SOL     OW26869   0.386   3.454   2.682 -0.2552  0.3138  0.6625
 5078SOL    HW126870   0.313   3.515   2.696  1.1169  2.0348  0.3948
 5078SOL    HW226871   0.435   3.466   2.764 -0.9637 -1.4536  1.3197
 5079SOL     OW26872   1.848   1.550   2.050 -0.2319  0.3602 -0.2206
 5079SOL    HW126873   1.902   1.472   2.064  1.1132  1.2754 -0.3526
 5079SOL    HW226874   1.855   1.572   1.957 -2.1737  2.0653  0.0346
 5080SOL     OW26875   3.508   1.199   6.461  0.9056  0.3315  0.5475
 5080SOL    HW126876   3.440   1.137   6.491  1.5527 -1.6612 -2.0916
 5080SOL    HW226877   3.587   1.146   6.469 -0.3238 -1.4909  0.6395
 5081SOL     OW26878   1.835   0.078   7.694  0.0970 -0.0125  0.2736
 5081SOL    HW126879   1.859   0.073   7.787 -1.7557 -0.3099  0.7250
 5081SOL    HW226880   1.803   0.168   7.694  1.0092  0.3053 -0.8637
 5082SOL     OW26881   0.389   1.474   8.833 -0.3374  0.4845  0.4600
 5082SOL    HW126882   0.364   1.532   8.905 -0.3304 -1.2768  1.8974
 5082SOL    HW226883   0.484   1.489   8.835 -0.6600  2.4945  0.8590
 5083SOL     OW26884   4.299   0.087  11.133 -0.8514  0.3216  0.3779
 5083SOL    HW126885   4.266   0.170  11.098 -0.5701  0.2050 -0.1580
 5083SOL    HW226886   4.330   0.116  11.219 -1.1518  2.0039 -0.0782
 5084SOL     OW26887   2.023   1.519  15.611  0.2389 -0.1655 -0.4168
 5084SOL    HW126888   1.945   1.574  15.610 -0.0015 -0.5960 -3.1371
 5084SOL    HW226889   2.031   1.465  15.533 -0.2954 -0.0108 -0.5762
 5085SOL     OW26890   3.976   3.616  16.946 -0.1762 -0.3769  0.3084
 5085SOL    HW126891   4.060   3.586  16.911 -0.1037 -0.5101  0.5943
 5085SOL    HW226892   3.915   3.584  16.879 -1.3775 -0.4948  1.4585
 5086SOL     OW26893   0.878   3.935   3.357  0.5715  0.0515  0.2955
 5086SOL    HW126894   0.955   3.895   3.397 -0.4024 -1.6768  0.4293
 5086SOL    HW226895   0.828   3.942   3.437  1.7384  0.5592  0.9856
 5087SOL     OW26896   3.921   2.253   0.405  0.4115 -0.6537 -0.3209
 5087SOL    HW126897   3.908   2.186   0.337  1.9279  2.6911 -3.8805
 5087SOL    HW226898   4.006   2.289   0.380 -0.0715  0.8116  0.1890
 5088SOL     OW26899   0.692   2.006   9.594 -0.1660 -0.7363  0.6155
 5088SOL    HW126900   0.787   2.003   9.592 -0.1390  1.3380 -1.2563
 5088SOL    HW226901   0.671   1.913   9.608 -0.0847 -0.3735  3.1220
 5089SOL     OW26902   0.745   1.273   4.329  0.3875  0.1604  0.4413
 5089SOL    HW126903   0.715   1.321   4.407  0.2420 -0.2477  0.6399
 5089SOL    HW226904   0.707   1.190   4.358 -0.3944 -0.2992 -1.8632
 5090SOL     OW26905   0.108   3.318   2.583 -0.3693  0.3152  0.0298
 5090SOL    HW126906   0.044   3.282   2.521  2.1459 -3.5301 -0.3178
 5090SOL    HW226907   0.102   3.267   2.664  0.3075 -0.4225 -0.3835
 5091SOL     OW26908   0.413   1.146   5.141 -0.0484 -0.1742 -0.1802
 5091SOL    HW126909   0.335   1.103   5.108 -0.9641  1.3391 -0.0025
 5091SOL    HW226910   0.417   1.223   5.084 -1.9448  0.8756  1.1013
 5092SOL     OW26911   2.075   2.794   1.053  0.1534  0.3666 -0.1631
 5092SOL    HW126912   2.135   2.844   1.109  1.0595  0.6087 -1.3380
 5092SOL    HW226913   2.119   2.709   1.055  0.9298  0.7231 -1.8473
 5093SOL     OW26914   3.400   4.642   3.578 -0.2747 -0.5666  0.4240
 5093SOL    HW126915   3.370   4.710   3.639  0.2903 -0.6231  0.7583
 5093SOL    HW226916   3.332   4.646   3.511  0.6832  0.5639 -0.4748
 5094SOL     OW26917   3.355   4.177   6.932  0.2309 -0.1662  0.1964
 5094SOL    HW126918   3.447   4.172   6.906 -0.1797 -1.2290 -1.0888
 5094SOL    HW226919   3.363   4.108   6.998 -0.5274  1.1302  1.6432
 5095SOL     OW26920   2.290   0.644   6.396  0.3537 -0.5895  0.1713
 5095SOL    HW126921   2.290   0.552   6.369  1.7590 -0.4818 -0.2126
 5095SOL    HW226922   2.287   0.698   6.317  0.7926 -1.7466 -0.6402
 5096SOL     OW26923   2.642   0.252   8.553 -0.1318 -0.2115  0.1897
 5096SOL    HW126924   2.559   0.275   8.510  1.5997  4.2897 -0.7510
 5096SOL    HW226925   2.650   0.329   8.610 -0.2628 -0.3434  0.3883
 5097SOL     OW26926   0.030   0.628   1.673 -0.2085 -0.2842  0.0867
 5097SOL    HW126927   0.093   0.598   1.607 -2.2033  0.2056 -2.0430
 5097SOL    HW226928   4.707   0.553   1.686  0.1431 -0.2560  1.8684
 5098SOL     OW26929   0.676   1.738   5.411 -0.0016  0.1908 -0.7092
 5098SOL    HW126930   0.693   1.749   5.505  0.0783 -0.5915 -0.6280
 5098SOL    HW226931   0.644   1.826   5.390 -0.7778  0.0118 -0.2829
 5099SOL     OW26932   0.232   3.423  10.390  0.1168  0.2784 -0.5904
 5099SOL    HW126933   0.264   3.513  10.400  0.7188  0.2732 -2.4285
 5099SOL    HW226934   0.169   3.424  10.462  0.1647 -0.4707 -0.5432
 5100SOL     OW26935   0.946   2.659   5.951  0.1634  0.1519 -0.1281
 5100SOL    HW126936   1.015   2.725   5.963 -0.5636  0.5298  1.9343
 5100SOL    HW226937   0.902   2.656   6.036  1.4612  1.4177  0.5948
 5101SOL     OW26938   0.072   4.623   4.544 -0.4357  0.3777  0.0365
 5101SOL    HW126939   0.160   4.633   4.581 -0.9334 -0.0543  1.3175
 5101SOL    HW226940   0.057   4.692   4.479 -1.1746  1.0428  0.9077
 5102SOL     OW26941   0.236   4.345  10.550  0.5290 -0.4120  0.4492
 5102SOL    HW126942   0.293   4.268  10.558 -1.8049 -2.2222 -0.3882
 5102SOL    HW226943   0.301   4.408  10.581 -0.7103  1.5965 -1.0155
 5103SOL     OW26944   3.466   2.969   5.849  0.6333 -0.0775  0.2972
 5103SOL    HW126945   3.448   2.881   5.815  0.4372  0.6362 -1.4200
 5103SOL    HW226946   3.536   2.994   5.788 -0.7593  0.9826 -0.8661
 5104SOL     OW26947   3.291   3.705   5.001 -0.4836  0.0656 -0.4003
 5104SOL    HW126948   3.310   3.798   5.017  0.9064 -0.2717 -0.1590
 5104SOL    HW226949   3.371   3.683   4.954 -0.5652 -0.5768 -0.2282
 5105SOL     OW26950   3.162   1.944   7.326 -0.1165 -0.1401 -0.3264
 5105SOL    HW126951   3.102   1.896   7.383 -0.0881  0.6584  0.3748
 5105SOL    HW226952   3.190   1.868   7.275  0.3726  0.0673 -0.3698
 5106SOL     OW26953   0.286   0.392   6.061 -0.2344  0.7002 -0.0873
 5106SOL    HW126954   0.240   0.442   6.127  0.3112 -1.1638  1.7131
 5106SOL    HW226955   0.243   0.306   6.068 -0.7423  1.0242  0.7341
 5107SOL     OW26956   1.480   0.941   1.926 -0.1090  0.2749 -0.6232
 5107SOL    HW126957   1.434   0.888   1.992  0.7040  0.4954  0.1265
 5107SOL    HW226958   1.553   0.880   1.919 -1.7641 -1.4952 -2.4588
 5108SOL     OW26959   2.060   2.602  12.507 -0.0812  0.3594  0.2821
 5108SOL    HW126960   2.037   2.622  12.417  1.9857  0.9954 -0.0992
 5108SOL    HW226961   1.984   2.628  12.559 -1.3938 -2.8289  0.0024
 5109SOL     OW26962   1.605   1.795   0.097 -0.2095  0.4757  0.0562
 5109SOL    HW126963   1.608   1.703   0.070 -0.7436  0.2845  0.6481
 5109SOL    HW226964   1.687   1.820   0.054  0.7395 -1.8736  0.5003
 5110SOL     OW26965   4.144   3.141  13.355  0.6830 -0.2111 -0.6136
 5110SOL    HW126966   4.103   3.056  13.335  0.0441 -0.2846  1.0496
 5110SOL    HW226967   4.229   3.135  13.310  0.7388 -1.1052 -0.4011
 5111SOL     OW26968   3.706   2.265   1.523  0.2681  0.1950 -0.3976
 5111SOL    HW126969   3.675   2.342   1.474 -0.3453  2.6123  3.7902
 5111SOL    HW226970   3.774   2.296   1.583  1.0157 -1.4644 -0.3907
 5112SOL     OW26971   4.015   3.021   5.550  0.0027  0.1037 -0.2727
 5112SOL    HW126972   3.936   3.029   5.496 -0.5185 -2.0122  0.2022
 5112SOL    HW226973   3.992   3.014   5.642  0.3651  0.0275 -0.1866
 5113SOL     OW26974   0.752   1.110   4.719  0.3460  0.6365  0.3834
 5113SOL    HW126975   0.733   1.059   4.798 -1.4467  0.7305  0.0126
 5113SOL    HW226976   0.662   1.112   4.685 -0.0066 -0.5444  1.1986
 5114SOL     OW26977   3.180   1.899   2.264 -0.1618 -0.3431  0.0302
 5114SOL    HW126978   3.245   1.914   2.333 -1.6437  1.4143  1.0437
 5114SOL    HW226979   3.229   1.841   2.206  2.2383  0.2919  1.4281
 5115SOL     OW26980   4.631   0.328  12.036 -0.0778  0.0622 -0.2041
 5115SOL    HW126981   4.679   0.332  12.118 -0.7594  2.2354  0.0764
 5115SOL    HW226982   4.559   0.270  12.062  0.9058 -1.4779 -0.9121
 5116SOL     OW26983   4.193   4.631  10.141 -0.7525  0.1428 -0.1694
 5116SOL    HW126984   4.269   4.644  10.084  0.9440 -4.1579  1.1091
 5116SOL    HW226985   4.237   4.672  10.215  1.3965 -0.3511 -1.1838
 5117SOL     OW26986   0.707   1.414   1.830 -0.1987 -0.1341  0.2025
 5117SOL    HW126987   0.758   1.336   1.853 -0.8798 -0.6081  0.1290
 5117SOL    HW226988   0.755   1.486   1.870 -1.9453 -0.1963  2.4278
 5118SOL     OW26989   0.062   1.056   5.529  0.4799 -0.0740  0.5817
 5118SOL    HW126990   0.077   0.963   5.509 -1.1542 -0.2145  0.0599
 5118SOL    HW226991   0.042   1.046   5.622  3.0932 -0.4765  1.1022
 5119SOL     OW26992   2.399   0.748   5.920 -0.2099 -0.3474  0.7788
 5119SOL    HW126993   2.483   0.791   5.912 -0.1483 -1.1104 -2.6114
 5119SOL    HW226994   2.381   0.754   5.826  1.2202  0.1144  0.5445
 5120SOL     OW26995   4.216   0.410   2.683 -0.1184 -0.1597 -0.5371
 5120SOL    HW126996   4.248   0.372   2.601  0.4662 -2.2099  0.6458
 5120SOL    HW226997   4.162   0.481   2.649  1.6893  1.8515  0.8017
 5121SOL     OW26998   3.758   0.833   8.410  0.1135  0.2378 -0.1167
 5121SOL    HW126999   3.805   0.803   8.488 -0.6494 -1.7637 -0.4308
 5121SOL    HW227000   3.667   0.831   8.441 -1.0230  3.7619 -3.3043
 5122SOL     OW27001   1.283   1.577  14.688 -0.6021  0.0580 -0.0440
 5122SOL    HW127002   1.224   1.611  14.755  0.1036 -2.2832  1.7376
 5122SOL    HW227003   1.269   1.629  14.609  1.7179 -0.1928 -0.6370
 5123SOL     OW27004   2.379   4.153   6.298 -0.0157 -0.8976 -0.0439
 5123SOL    HW127005   2.319   4.099   6.247  2.6055 -0.9019 -3.0857
 5123SOL    HW227006   2.399   4.200   6.217  0.3159 -0.6554  0.1813
 5124SOL     OW27007   3.815   3.952   3.719  0.2942  0.4934 -0.0607
 5124SOL    HW127008   3.884   4.019   3.710  0.5290  0.3682  0.8269
 5124SOL    HW227009   3.746   3.998   3.671  0.2460  1.2114  0.6982
 5125SOL     OW27010   0.641   2.684  12.546 -0.0814 -0.1529 -0.6947
 5125SOL    HW127011   0.593   2.663  12.626 -0.1587  0.6418 -0.5347
 5125SOL    HW227012   0.717   2.726  12.585 -0.3206 -0.2717 -0.0945
 5126SOL     OW27013   0.487   4.706   7.607 -0.1270 -0.0705 -0.3643
 5126SOL    HW127014   0.563   4.659   7.640 -0.0556  0.0908 -0.2994
 5126SOL    HW227015   0.513   0.011   7.525 -1.9136 -0.7538 -1.2814
 5127SOL     OW27016   0.761   2.331   4.412 -0.2368  0.5404  0.4951
 5127SOL    HW127017   0.769   2.257   4.351 -0.1282  0.3102  0.7887
 5127SOL    HW227018   0.751   2.403   4.350 -1.4230 -0.4769 -0.5054
 5128SOL     OW27019   3.684   1.708  14.046  0.0302 -0.6521  0.2240
 5128SOL    HW127020   3.616   1.729  13.981  0.2936  2.0666  0.8339
 5128SOL    HW227021   3.625   1.662  14.105 -0.8972 -0.1431 -0.2913
 5129SOL     OW27022   0.028   1.697   7.219  0.3579  0.1420 -0.4940
 5129SOL    HW127023   4.692   1.635   7.231 -0.1690  0.6030 -1.2381
 5129SOL    HW227024   0.057   1.671   7.132  1.2198 -0.1581 -0.1209
 5130SOL     OW27025   2.352   2.238   7.798  0.2303 -0.4803  0.3294
 5130SOL    HW127026   2.406   2.260   7.722 -0.6906 -0.9189 -0.4532
 5130SOL    HW227027   2.271   2.289   7.791  0.6276  0.2328  0.9627
 5131SOL     OW27028   1.951   0.076  11.866 -0.6224  0.5949 -0.1669
 5131SOL    HW127029   1.878   0.101  11.809  1.5651 -0.0073 -3.2328
 5131SOL    HW227030   1.895   0.041  11.936  1.6120  1.8510  2.2522
 5132SOL     OW27031   1.903   3.879   6.975  0.2610  0.0334 -0.0907
 5132SOL    HW127032   1.910   3.788   6.947 -0.8936 -0.1528  0.2376
 5132SOL    HW227033   1.811   3.894   6.996  0.3209 -0.2275  0.3659
 5133SOL     OW27034   1.592   2.133  17.302 -0.1876  0.3026 -0.2170
 5133SOL    HW127035   1.621   2.224  17.295  3.8449 -1.0010 -0.6278
 5133SOL    HW227036   1.633   2.112  17.218 -1.4943 -0.0219 -0.7767
 5134SOL     OW27037   0.535   1.036   1.408  0.3099  0.7924  0.9394
 5134SOL    HW127038   0.480   0.978   1.460  1.7253 -0.3655  1.1294
 5134SOL    HW227039   0.607   1.064   1.464  0.7247  0.2574  0.6714
 5135SOL     OW27040   2.082   3.773   7.862  0.6237  0.3599 -0.2399
 5135SOL    HW127041   2.010   3.717   7.834  0.8430 -0.8120  1.5822
 5135SOL    HW227042   2.086   3.759   7.957 -1.2971  0.0946 -0.2105
 5136SOL     OW27043   1.185   1.330   4.079  0.1668 -0.1738  0.6749
 5136SOL    HW127044   1.217   1.250   4.120 -1.8783 -0.8933  0.8866
 5136SOL    HW227045   1.176   1.389   4.154 -1.2007 -1.7580  1.7585
 5137SOL     OW27046   1.045   3.466   8.863  0.6288  0.5690 -0.1836
 5137SOL    HW127047   1.070   3.558   8.856  1.7781  0.4185  1.9261
 5137SOL    HW227048   0.963   3.453   8.910  0.4002 -2.7524 -1.4803
 5138SOL     OW27049   0.767   4.297   2.200 -0.5884 -0.5933 -0.1452
 5138SOL    HW127050   0.741   4.389   2.205  2.6161  0.4403 -2.0668
 5138SOL    HW227051   0.851   4.299   2.246 -0.5056  0.4797 -0.3255
 5139SOL     OW27052   4.517   0.239  16.920 -0.5125  0.5110  0.1017
 5139SOL    HW127053   4.477   0.312  16.872 -2.6338 -1.7022 -1.4796
 5139SOL    HW227054   4.443   0.228  16.980  0.5630  0.6100  1.4678
 5140SOL     OW27055   3.929   4.168  15.453 -0.3376 -0.0546  0.0529
 5140SOL    HW127056   4.008   4.208  15.489 -0.0797 -1.8860  1.5347
 5140SOL    HW227057   3.859   4.205  15.507 -1.0547  0.8818 -1.5280
 5141SOL     OW27058   4.532   0.407   4.462  0.4808  0.2831  0.2880
 5141SOL    HW127059   4.535   0.405   4.366 -0.4830 -1.3382  0.2912
 5141SOL    HW227060   4.476   0.330   4.475  2.1630 -0.9682  0.1913
 5142SOL     OW27061   4.582   4.140   4.647 -0.4537  0.0708 -0.2546
 5142SOL    HW127062   4.662   4.102   4.611 -0.5009 -1.0770  0.8430
 5142SOL    HW227063   4.593   4.227   4.608  0.1168 -0.7252 -1.8730
 5143SOL     OW27064   0.952   1.874   6.550 -0.1180 -0.2323  0.5418
 5143SOL    HW127065   0.870   1.916   6.574  0.8013  1.6660  0.4110
 5143SOL    HW227066   0.922   1.810   6.486  1.5793 -0.5583  0.0554
 5144SOL     OW27067   4.568   4.390  12.797 -0.5689 -0.2535 -0.0883
 5144SOL    HW127068   4.635   4.357  12.737  1.3239  4.1142 -0.4081
 5144SOL    HW227069   4.499   4.324  12.798  1.0221 -1.9520 -1.8218
 5145SOL     OW27070   0.012   2.699   8.154  0.1139  0.4034 -0.0024
 5145SOL    HW127071   0.059   2.670   8.076  2.4089  0.6780  1.2738
 5145SOL    HW227072   4.713   2.615   8.185 -1.1251  1.1755  0.7200
 5146SOL     OW27073   3.773   3.814   4.715  0.6333  0.6089  0.1288
 5146SOL    HW127074   3.853   3.852   4.678  1.8127  0.5001  2.5388
 5146SOL    HW227075   3.806   3.811   4.805  1.9742 -0.2911 -0.3899
 5147SOL     OW27076   0.232   4.075   1.022 -0.2470 -0.2894 -0.7755
 5147SOL    HW127077   0.145   4.115   1.027 -0.5883 -1.1932  0.4321
 5147SOL    HW227078   0.242   4.041   1.111  1.7083  1.1288 -0.4490
 5148SOL     OW27079   3.683   0.516   7.006  0.2720 -0.9040 -0.4254
 5148SOL    HW127080   3.597   0.552   7.031  0.8538 -1.7622  2.8704
 5148SOL    HW227081   3.736   0.532   7.084  1.5847  0.0450 -1.5126
 5149SOL     OW27082   2.286   2.447  12.517  0.3417  0.2370 -0.4310
 5149SOL    HW127083   2.239   2.364  12.520  3.3392 -1.3388  1.9824
 5149SOL    HW227084   2.216   2.511  12.500 -1.6304 -1.3947  1.6408
 5150SOL     OW27085   4.148   0.122   6.617  0.1550  0.5227  0.3239
 5150SOL    HW127086   4.146   0.178   6.695 -0.4764  0.3451  0.4372
 5150SOL    HW227087   4.209   0.165   6.558  0.0297  0.6651  0.2984
 5151SOL     OW27088   0.457   2.331   6.230 -0.0252  0.3074 -0.1044
 5151SOL    HW127089   0.525   2.391   6.200 -0.5390  1.1425  0.4187
 5151SOL    HW227090   0.393   2.334   6.159 -0.8322 -1.4923  0.5453
 5152SOL     OW27091   3.393   4.339   6.443 -0.4053  0.4224  0.0229
 5152SOL    HW127092   3.345   4.386   6.375 -1.5263 -1.6403 -0.6053
 5152SOL    HW227093   3.457   4.406   6.467 -0.0741  0.3527 -0.6511
 5153SOL     OW27094   0.522   4.377   6.665  0.6085 -0.5096  0.2117
 5153SOL    HW127095   0.507   4.472   6.656  0.8063 -0.4678  0.3334
 5153SOL    HW227096   0.449   4.351   6.722  1.5702 -0.5217  1.4356
 5154SOL     OW27097   3.774   4.552  15.115 -0.4966 -0.3721  0.1707
 5154SOL    HW127098   3.868   4.567  15.128  0.1464 -2.6483 -1.7331
 5154SOL    HW227099   3.735   4.633  15.145 -1.1700 -0.0482 -1.5652
 5155SOL     OW27100   3.959   2.559   9.627  0.1493 -0.4584  0.6780
 5155SOL    HW127101   3.885   2.619   9.640  1.3528  0.9366  1.1306
 5155SOL    HW227102   4.028   2.625   9.631 -1.1146  0.9673 -0.8108
 5156SOL     OW27103   0.450   1.004  16.805 -0.7198 -0.5095 -0.0977
 5156SOL    HW127104   0.427   0.947  16.732 -0.6656 -1.0457  0.2956
 5156SOL    HW227105   0.527   0.953  16.829  0.8219  0.7770 -2.3204
 5157SOL     OW27106   2.251   4.555   3.109  0.4526  0.1965  0.5934
 5157SOL    HW127107   2.246   4.642   3.150  0.1148  0.1858  0.5744
 5157SOL    HW227108   2.262   4.509   3.193 -0.9234  0.0282  0.6799
 5158SOL     OW27109   3.986   2.411   3.857  0.2446  0.4120  0.3322
 5158SOL    HW127110   3.902   2.370   3.837  0.2001  0.1701  0.9863
 5158SOL    HW227111   3.962   2.503   3.848 -1.8997 -0.0994  0.8785
 5159SOL     OW27112   3.748   4.605   1.180  0.6003  0.6956 -0.0037
 5159SOL    HW127113   3.793   4.602   1.096 -1.2748 -0.8197 -0.9505
 5159SOL    HW227114   3.780   4.681   1.229  2.2192  1.1847 -1.8121
 5160SOL     OW27115   0.997   4.458   6.398  0.0830 -0.0778 -0.9313
 5160SOL    HW127116   1.021   4.544   6.362  1.0267  0.4014  0.8776
 5160SOL    HW227117   1.035   4.401   6.331  0.0167 -0.5512 -0.5616
 5161SOL     OW27118   2.524   3.367   8.591 -0.1839 -0.1658  0.5058
 5161SOL    HW127119   2.485   3.390   8.675 -0.8492  1.4590 -0.2518
 5161SOL    HW227120   2.605   3.415   8.609 -1.0361  1.3224  0.3426
 5162SOL     OW27121   2.600   1.852  17.401 -0.1562 -0.1821  0.1261
 5162SOL    HW127122   2.579   1.789  17.470 -0.9261 -1.0127 -0.8605
 5162SOL    HW227123   2.508   1.858  17.373  0.1042  0.2469 -0.6270
 5163SOL     OW27124   4.725   4.404   4.651  0.2182 -0.4961 -0.0785
 5163SOL    HW127125   0.022   4.489   4.620 -2.6494  0.0939 -1.4717
 5163SOL    HW227126   0.064   4.357   4.613  0.7542 -0.3819  0.8282
 5164SOL     OW27127   1.434   2.629   4.931 -0.6431 -0.2480  0.4597
 5164SOL    HW127128   1.457   2.626   5.024  0.0231  3.5822  0.4219
 5164SOL    HW227129   1.516   2.598   4.891 -1.6147 -2.1982 -0.0300
 5165SOL     OW27130   1.395   4.017  15.197 -0.2230  0.3347  0.1317
 5165SOL    HW127131   1.354   4.042  15.280 -2.0196  0.2656 -0.7313
 5165SOL    HW227132   1.312   4.023  15.150  0.0387 -1.8666 -0.5734
 5166SOL     OW27133   3.947   3.002   1.340  0.1726  0.2388  0.3258
 5166SOL    HW127134   4.009   2.984   1.410  2.0692  0.1786 -1.3818
 5166SOL    HW227135   3.872   3.002   1.400  0.6988 -1.0905  0.9786
 5167SOL     OW27136   2.768   0.443   2.401  0.1168  0.6681 -0.8617
 5167SOL    HW127137   2.750   0.407   2.488 -0.1267 -0.0114 -1.1892
 5167SOL    HW227138   2.858   0.474   2.415  0.9443 -1.1965 -1.9936
 5168SOL     OW27139   2.184   2.797   1.404  0.1737 -0.1593 -0.2002
 5168SOL    HW127140   2.158   2.757   1.487 -1.3582 -1.8764 -1.5211
 5168SOL    HW227141   2.279   2.799   1.406  0.1373  0.8356  0.5470
 5169SOL     OW27142   0.864   0.233   3.921 -0.4227 -0.1767 -0.0282
 5169SOL    HW127143   0.892   0.253   3.832  1.1967 -0.7349  0.3527
 5169SOL    HW227144   0.781   0.281   3.923  0.0158  0.5263  1.7328
 5170SOL     OW27145   3.239   3.224   8.172  0.5182  0.1978  0.9078
 5170SOL    HW127146   3.311   3.286   8.186  0.0192  0.6348  1.5424
 5170SOL    HW227147   3.274   3.155   8.116 -1.9182 -0.8463  0.6789
 5171SOL     OW27148   3.378   1.162   5.489  0.7651 -0.1376 -0.0727
 5171SOL    HW127149   3.467   1.133   5.509  0.8740  0.5929  0.4815
 5171SOL    HW227150   3.387   1.239   5.433  0.9115 -0.5058 -0.5564
 5172SOL     OW27151   1.236   0.498   7.338  0.7731  0.2607  0.2631
 5172SOL    HW127152   1.209   0.590   7.343 -1.0954 -0.1336 -2.2448
 5172SOL    HW227153   1.241   0.475   7.431  1.7311  0.8448  0.3472
 5173SOL     OW27154   0.571   4.312  10.425 -0.5191 -0.3016  0.0988
 5173SOL    HW127155   0.536   4.399  10.406 -0.4301 -0.0031  1.2729
 5173SOL    HW227156   0.522   4.284  10.502 -2.7484 -0.6376 -1.4634
 5174SOL     OW27157   0.853   3.855   5.609 -0.1069 -0.2246 -0.0778
 5174SOL    HW127158   0.897   3.785   5.562  0.3003  0.8651 -1.2957
 5174SOL    HW227159   0.916   3.875   5.678  0.9633  0.9296 -1.4064
 5175SOL     OW27160   3.654   0.527  13.157  0.4759  0.6361 -0.1300
 5175SOL    HW127161   3.663   0.451  13.214  0.9274  1.9083  1.4815
 5175SOL    HW227162   3.725   0.584  13.186  0.8120 -0.5347  1.3216
 5176SOL     OW27163   2.482   0.360  11.124 -0.4945 -0.0682  0.1090
 5176SOL    HW127164   2.560   0.310  11.148  0.7556  1.7777 -0.1802
 5176SOL    HW227165   2.509   0.451  11.126 -0.9005  0.0467  0.3682
 5177SOL     OW27166   3.996   3.347   2.970  0.6352 -0.4169  0.1569
 5177SOL    HW127167   3.947   3.265   2.970 -0.7538  0.4161 -1.6365
 5177SOL    HW227168   3.976   3.374   2.880  2.5785 -2.9762 -1.0127
 5178SOL     OW27169   1.043   0.158   2.487 -0.4271  0.3478 -0.0309
 5178SOL    HW127170   1.093   0.208   2.423 -0.7140  0.7502  0.0636
 5178SOL    HW227171   1.115   0.097   2.505  1.1639  2.7462  1.7225
 5179SOL     OW27172   2.846   2.159  12.554  0.0186  0.4094  0.5718
 5179SOL    HW127173   2.835   2.112  12.472  0.9275 -1.2727  1.4026
 5179SOL    HW227174   2.756   2.182  12.577  0.0614  3.7896 -2.6238
 5180SOL     OW27175   3.002   0.406  16.833 -0.0363  0.2440  0.3672
 5180SOL    HW127176   3.029   0.464  16.762 -0.9164 -1.0402 -1.0147
 5180SOL    HW227177   2.962   0.467  16.896  0.6153  1.8832 -0.8155
 5181SOL     OW27178   3.218   3.458   3.294 -0.1072  0.2974 -0.0915
 5181SOL    HW127179   3.233   3.540   3.343  0.0384 -0.5282  1.2591
 5181SOL    HW227180   3.171   3.485   3.215 -0.6739 -0.6144 -0.0617
 5182SOL     OW27181   2.412   4.601   2.859  0.2904 -0.0423 -0.5552
 5182SOL    HW127182   2.374   4.590   2.946  0.1734 -0.3838 -0.6486
 5182SOL    HW227183   2.442   4.692   2.862 -0.8200  0.3415 -1.2419
 5183SOL     OW27184   0.780   4.042   5.421  0.1511  0.1972 -0.1478
 5183SOL    HW127185   0.826   3.979   5.476  2.3361  0.4377 -1.6943
 5183SOL    HW227186   0.734   4.085   5.493 -0.7062 -0.6784 -0.1702
 5184SOL     OW27187   4.605   1.938   8.308 -0.1213 -0.2802  0.0478
 5184SOL    HW127188   4.610   1.878   8.233  0.8336 -2.5619  1.8974
 5184SOL    HW227189   4.627   1.875   8.377 -2.6259 -1.0233  0.1597
 5185SOL     OW27190   3.895   1.419   3.654  0.1558  0.1547 -0.5217
 5185SOL    HW127191   3.955   1.487   3.685 -2.1560  1.2442  1.5955
 5185SOL    HW227192   3.865   1.372   3.732  1.3195 -0.6550 -0.5567
 5186SOL     OW27193   4.583   3.299   5.896  0.6102 -0.0316 -0.1632
 5186SOL    HW127194   4.521   3.276   5.826  0.1171  1.0723 -0.0890
 5186SOL    HW227195   4.592   3.392   5.875 -1.2525  0.2977  0.5279
 5187SOL     OW27196   1.894   1.246   4.416 -0.1149  0.2884  0.2081
 5187SOL    HW127197   1.859   1.260   4.328  0.3943  0.9351  0.1123
 5187SOL    HW227198   1.987   1.249   4.393  0.7375 -1.0419  3.3796
 5188SOL     OW27199   2.610   1.730  16.944 -0.2073 -0.3364 -0.2114
 5188SOL    HW127200   2.602   1.806  16.887 -0.6126 -0.2935 -0.0975
 5188SOL    HW227201   2.618   1.773  17.029 -0.7321  0.7356 -0.7047
 5189SOL     OW27202   2.872   1.790   9.178  0.3140  0.3803 -0.3408
 5189SOL    HW127203   2.869   1.724   9.110 -1.3704 -0.7259  0.8102
 5189SOL    HW227204   2.778   1.801   9.195  0.7422  2.2307  0.9161
 5190SOL     OW27205   4.596   0.152  12.431  0.1505  0.0993 -0.0748
 5190SOL    HW127206   4.588   0.067  12.387  0.2930  0.1490 -0.1976
 5190SOL    HW227207   4.507   0.161  12.464 -0.0796 -0.6755 -0.4841
 5191SOL     OW27208   4.210   1.164   3.210 -0.1672 -0.3082  0.1806
 5191SOL    HW127209   4.177   1.100   3.147  1.3779 -0.6473 -0.2626
 5191SOL    HW227210   4.228   1.103   3.282  0.5576  1.3775  1.4314
 5192SOL     OW27211   2.753   0.244   0.724 -0.3349  0.8649 -0.0010
 5192SOL    HW127212   2.784   0.267   0.636  0.9171 -1.7409 -0.2372
 5192SOL    HW227213   2.802   0.165   0.747  0.3204  1.3728  0.3641
 5193SOL     OW27214   4.350   1.778   9.446 -0.4101 -0.0457  0.2736
 5193SOL    HW127215   4.349   1.767   9.541 -0.1357  0.3297  0.3160
 5193SOL    HW227216   4.271   1.833   9.446  0.1148  0.7093  0.5750
 5194SOL     OW27217   4.406   2.558   3.329 -0.5046 -0.3058  0.0866
 5194SOL    HW127218   4.417   2.607   3.247  1.4504 -0.1578  0.4310
 5194SOL    HW227219   4.452   2.623   3.382 -3.1687  1.4474  0.2197
 5195SOL     OW27220   3.713   2.095  12.043 -0.1058 -0.0345 -0.1177
 5195SOL    HW127221   3.737   2.073  11.952 -1.0497  0.2622 -0.4425
 5195SOL    HW227222   3.693   2.188  12.034 -0.6654 -0.1531 -0.1251
 5196SOL     OW27223   1.515   4.507   2.309 -0.0687  0.0960 -0.0466
 5196SOL    HW127224   1.581   4.549   2.364 -0.2850 -0.3923  0.5878
 5196SOL    HW227225   1.564   4.434   2.272  0.3430  0.6935 -0.6805
 5197SOL     OW27226   1.805   1.421   4.648  0.1859  0.6805  0.5074
 5197SOL    HW127227   1.852   1.350   4.605 -0.8667 -0.9528  2.0646
 5197SOL    HW227228   1.875   1.486   4.658  1.9236 -1.2511  0.9322
 5198SOL     OW27229   0.939   3.845   8.068 -0.0112  0.0897 -0.3271
 5198SOL    HW127230   0.875   3.827   8.000  0.6484 -3.4144 -0.0332
 5198SOL    HW227231   0.901   3.913   8.124 -0.2606 -2.4323  2.6225
 5199SOL     OW27232   0.044   1.424   5.312 -0.8646  0.3106 -0.2391
 5199SOL    HW127233   4.693   1.389   5.332 -0.9508  0.4490 -0.3755
 5199SOL    HW227234   0.104   1.395   5.381 -0.1141  2.7701  0.1384
 5200SOL     OW27235   2.868   1.053   5.308  0.2697  0.3851 -0.0506
 5200SOL    HW127236   2.844   0.984   5.370  1.7319 -0.4057 -0.3626
 5200SOL    HW227237   2.837   1.126   5.361  1.2088  0.7476 -0.0077
 5201SOL     OW27238   1.288   2.212   0.018 -0.3258 -0.4816 -0.1185
 5201SOL    HW127239   1.300   2.124   0.054  0.7060 -0.4099 -0.2838
 5201SOL    HW227240   1.348   2.212  17.685  0.8818  1.2539  0.8341
 5202SOL     OW27241   1.867   0.625   5.177 -0.2329  0.2870  0.4930
 5202SOL    HW127242   1.841   0.700   5.124  2.2538  0.4219 -0.5087
 5202SOL    HW227243   1.958   0.649   5.194 -0.8667  2.1508  1.3002
 5203SOL     OW27244   0.969   2.372   4.620  0.6543 -0.1032  0.0442
 5203SOL    HW127245   0.932   2.323   4.547  2.6598 -0.1422 -0.9488
 5203SOL    HW227246   0.972   2.462   4.587  2.4797 -0.9691 -2.2129
 5204SOL     OW27247   3.942   3.739   5.371 -0.3232 -0.3071  0.0837
 5204SOL    HW127248   3.977   3.684   5.441  1.1494  1.6347  0.8553
 5204SOL    HW227249   4.011   3.727   5.305  0.2262  2.0183  0.2351
 5205SOL     OW27250   3.191   3.086   9.024 -0.1099 -1.0313 -0.3949
 5205SOL    HW127251   3.133   3.090   8.948 -1.4353 -0.4996  0.6545
 5205SOL    HW227252   3.144   3.149   9.079  0.8130 -0.9278  0.2747
 5206SOL     OW27253   1.763   0.799  15.241 -0.0143 -0.2193 -0.1031
 5206SOL    HW127254   1.712   0.843  15.309  0.8312  0.4291  0.1103
 5206SOL    HW227255   1.736   0.707  15.242  1.4255 -0.6285  1.8103
 5207SOL     OW27256   2.488   3.666   5.099 -0.3900  0.0769  0.5436
 5207SOL    HW127257   2.510   3.665   5.005  1.0165  2.7919  0.8251
 5207SOL    HW227258   2.505   3.757   5.123 -2.1689  0.4501  0.4202
 5208SOL     OW27259   2.894   3.812  11.648  0.4026 -0.5400 -0.2851
 5208SOL    HW127260   2.811   3.843  11.613  0.8101  0.2203 -0.5740
 5208SOL    HW227261   2.920   3.887  11.702  0.7299 -2.2984  2.0019
 5209SOL     OW27262   1.457   0.319  12.371 -0.0734  0.6776 -0.1298
 5209SOL    HW127263   1.423   0.406  12.351 -1.0939  0.7895  2.0641
 5209SOL    HW227264   1.502   0.337  12.454 -2.3713  0.4259  1.1588
 5210SOL     OW27265   1.371   0.087   5.861 -0.0183 -0.5755 -0.2354
 5210SOL    HW127266   1.420   0.023   5.810  1.1958  0.5565 -0.4798
 5210SOL    HW227267   1.292   0.106   5.811  0.1982 -2.7164 -1.3966
 5211SOL     OW27268   1.862   1.613  17.234  0.0266  0.1415  0.0337
 5211SOL    HW127269   1.782   1.655  17.202  0.2119  0.6109  0.1815
 5211SOL    HW227270   1.834   1.547  17.298  0.7854  1.3188  1.5800
 5212SOL     OW27271   0.764   3.018   2.679 -0.3415 -0.4632  0.2532
 5212SOL    HW127272   0.796   2.933   2.650 -0.2684  0.1892 -1.6103
 5212SOL    HW227273   0.672   3.013   2.652 -0.5873 -0.6827  1.1484
 5213SOL     OW27274   0.736   3.626   2.616 -0.3149 -0.5336 -0.2312
 5213SOL    HW127275   0.676   3.565   2.574  2.0850 -3.1162  0.1137
 5213SOL    HW227276   0.729   3.695   2.550  1.4852  0.8620  1.0399
 5214SOL     OW27277   2.422   2.409   1.241 -0.1095  0.0287 -1.0277
 5214SOL    HW127278   2.396   2.379   1.328 -1.6638 -1.3027 -1.9523
 5214SOL    HW227279   2.369   2.354   1.184  1.3092 -0.8108 -1.5470
 5215SOL     OW27280   2.060   3.509   2.753 -0.4843  0.5202 -0.9739
 5215SOL    HW127281   1.967   3.486   2.753 -0.3173 -0.1636 -5.7441
 5215SOL    HW227282   2.057   3.556   2.670 -2.4135  1.0056 -0.6254
 5216SOL     OW27283   3.753   3.196   0.853 -0.2359  0.2257  0.8213
 5216SOL    HW127284   3.734   3.104   0.837  0.2113  0.3572 -0.4454
 5216SOL    HW227285   3.797   3.191   0.938 -1.8198  1.2628  1.6904
 5217SOL     OW27286   4.400   0.048   8.439  0.3581 -0.1390 -0.9118
 5217SOL    HW127287   4.379   0.017   8.527 -2.4933  0.4928 -1.3771
 5217SOL    HW227288   4.400   0.143   8.450 -1.4552  0.0540 -2.6967
 5218SOL     OW27289   3.797   4.421   0.913 -0.1605  0.7888  0.0197
 5218SOL    HW127290   3.876   4.405   0.860  1.2231  2.3388  1.6297
 5218SOL    HW227291   3.739   4.444   0.841  0.9002 -0.8029 -1.3680
 5219SOL     OW27292   0.334   1.881   7.786  0.4116  0.5053  0.2392
 5219SOL    HW127293   0.292   1.966   7.776 -1.4569 -0.1931  2.0006
 5219SOL    HW227294   0.346   1.842   7.700 -0.0186 -1.2259  0.9701
 5220SOL     OW27295   2.121   1.901  15.717  0.2201 -0.6092 -0.8108
 5220SOL    HW127296   2.118   1.995  15.696 -0.9363  0.1948  3.0368
 5220SOL    HW227297   2.163   1.875  15.635  2.9907 -0.5245  0.5917
 5221SOL     OW27298   1.382   0.821  16.331  0.5306  0.4104  0.0259
 5221SOL    HW127299   1.409   0.776  16.412 -1.3334 -2.0991 -0.7397
 5221SOL    HW227300   1.287   0.830  16.339  0.4100 -1.8398  1.1064
 5222SOL     OW27301   3.611   3.843  10.044  0.0588 -0.0889 -0.1166
 5222SOL    HW127302   3.548   3.803  10.104 -1.0923  1.3856 -0.3296
 5222SOL    HW227303   3.617   3.928  10.088 -1.1301 -1.3908  2.5244
 5223SOL     OW27304   4.116   2.590   5.428 -0.0874  0.3978  0.5023
 5223SOL    HW127305   4.061   2.668   5.430 -1.4240 -0.5350 -0.0422
 5223SOL    HW227306   4.046   2.527   5.444  0.1968  0.3922  1.7384
 5224SOL     OW27307   0.697   3.728   4.725  0.0833  0.0471 -0.0851
 5224SOL    HW127308   0.777   3.702   4.679 -0.2894 -0.7638 -0.2781
 5224SOL    HW227309   0.721   3.732   4.817 -2.4493  1.8302  0.5071
 5225SOL     OW27310   1.785   3.177  14.321  0.0177  0.2350  0.0146
 5225SOL    HW127311   1.793   3.216  14.234  2.1303  0.7484  0.4259
 5225SOL    HW227312   1.716   3.111  14.311  0.2591 -0.2684  1.6235
 5226SOL     OW27313   2.446   1.624   6.954 -0.3614  0.6508  0.5602
 5226SOL    HW127314   2.523   1.625   7.010 -0.1637 -2.1708  0.3362
 5226SOL    HW227315   2.492   1.610   6.872  0.0792 -0.0737  0.9344
 5227SOL     OW27316   0.661   4.590   5.349 -0.0452 -0.6187  0.1558
 5227SOL    HW127317   0.716   4.515   5.370 -0.4796 -1.9658 -3.5130
 5227SOL    HW227318   0.618   4.551   5.272  1.1205 -0.3779 -0.6140
 5228SOL     OW27319   2.957   1.834  16.976 -0.4932  0.0631  0.2334
 5228SOL    HW127320   2.959   1.930  16.979 -2.3277  0.0745  1.1965
 5228SOL    HW227321   2.909   1.833  17.059  0.3376  1.4853  0.7232
 5229SOL     OW27322   1.457   2.213   6.417 -0.1033  0.1672  0.3456
 5229SOL    HW127323   1.524   2.173   6.362 -1.6371 -1.1711 -0.5704
 5229SOL    HW227324   1.489   2.185   6.502 -0.1716 -0.6607  0.0978
 5230SOL     OW27325   2.198   1.547   5.755 -0.7235  0.2053  0.0772
 5230SOL    HW127326   2.207   1.632   5.713  2.2769  0.3455  0.9761
 5230SOL    HW227327   2.153   1.500   5.686  4.0779 -4.3702  0.0655
 5231SOL     OW27328   1.632   2.637   2.589  0.2193 -0.4070  0.4210
 5231SOL    HW127329   1.581   2.707   2.630  0.3432 -0.7284  1.1376
 5231SOL    HW227330   1.566   2.572   2.564  1.4764 -1.6581  0.3385
 5232SOL     OW27331   2.291   0.974   6.511 -0.0361  0.2774 -0.1417
 5232SOL    HW127332   2.288   0.939   6.600  0.1657  1.6673  0.3952
 5232SOL    HW227333   2.211   0.936   6.473  0.4679  1.4261 -2.3283
 5233SOL     OW27334   0.597   2.700   4.761  0.3848 -0.0130  0.3125
 5233SOL    HW127335   0.521   2.695   4.819 -0.1976 -0.6614 -0.4867
 5233SOL    HW227336   0.657   2.633   4.793  1.1118 -0.1306 -1.2565
 5234SOL     OW27337   0.771   4.100   1.705  0.3318  0.0961 -0.3280
 5234SOL    HW127338   0.739   4.011   1.690 -0.8347  0.2917  0.9712
 5234SOL    HW227339   0.731   4.112   1.792 -3.5040 -1.1509 -1.9187
 5235SOL     OW27340   0.463   3.367   6.443 -0.3091  0.5795 -0.1592
 5235SOL    HW127341   0.517   3.324   6.510 -0.8310 -0.0073 -0.1153
 5235SOL    HW227342   0.487   3.459   6.449 -0.0738  0.5443 -0.5604
 5236SOL     OW27343   1.523   0.726   4.161 -0.1788  0.4479 -0.1566
 5236SOL    HW127344   1.527   0.654   4.098 -0.7172  1.3677 -1.2543
 5236SOL    HW227345   1.602   0.777   4.140  0.5483 -0.7611 -0.3501
 5237SOL     OW27346   3.493   2.407   5.713 -0.2622  0.6133  0.2224
 5237SOL    HW127347   3.552   2.436   5.643 -0.2389  0.3266  0.1230
 5237SOL    HW227348   3.425   2.350   5.678  1.3554  0.2322 -2.2813
 5238SOL     OW27349   2.471   3.573   1.788 -0.5546  0.1015  0.9983
 5238SOL    HW127350   2.446   3.503   1.728 -0.3590 -0.0505  1.0942
 5238SOL    HW227351   2.409   3.558   1.859 -1.5515 -0.6916 -0.0502
 5239SOL     OW27352   0.509   1.616   1.211 -0.5727  0.4502  0.2289
 5239SOL    HW127353   0.522   1.531   1.252 -2.6950 -0.6478 -1.4156
 5239SOL    HW227354   0.597   1.653   1.213 -0.4898  0.2803 -0.3817
 5240SOL     OW27355   3.924   2.906  13.014 -0.1867 -0.0413  0.2854
 5240SOL    HW127356   3.834   2.885  12.988  0.0153 -2.1153  1.2803
 5240SOL    HW227357   3.974   2.846  12.960 -1.1110  0.5994 -1.2956
 5241SOL     OW27358   3.979   3.700   3.350  0.0329 -0.2820  0.1154
 5241SOL    HW127359   4.067   3.669   3.371 -0.9697 -1.5387  2.5459
 5241SOL    HW227360   3.938   3.718   3.435 -1.1019  0.4277 -0.5832
 5242SOL     OW27361   3.525   0.512   1.148  0.0333 -0.1817  0.3309
 5242SOL    HW127362   3.597   0.547   1.201 -0.0858 -1.8855  1.6135
 5242SOL    HW227363   3.556   0.427   1.115  2.6308  1.4448 -1.4291
 5243SOL     OW27364   4.652   3.721   4.513  0.5517 -0.5638 -0.6408
 5243SOL    HW127365   4.677   3.644   4.462 -1.5420 -2.1495  0.7561
 5243SOL    HW227366   0.004   3.748   4.543 -0.4421  1.2800  0.6296
 5244SOL     OW27367   3.096   1.937   8.432  0.5652 -0.1517 -0.0937
 5244SOL    HW127368   3.011   1.893   8.431  0.7473 -0.5333  2.5040
 5244SOL    HW227369   3.148   1.892   8.365  1.4017  1.5383 -0.5717
 5245SOL     OW27370   1.785   2.154   7.636  0.1194 -0.0469 -0.3929
 5245SOL    HW127371   1.840   2.221   7.677 -0.7380  1.0118 -0.9808
 5245SOL    HW227372   1.702   2.152   7.684 -0.0193 -1.2348 -0.6881
 5246SOL     OW27373   1.972   3.854   6.658 -0.9418  0.3096  0.4311
 5246SOL    HW127374   1.970   3.941   6.618  0.1710  0.6376  1.0790
 5246SOL    HW227375   2.065   3.833   6.663 -0.9264  0.2829  0.0124
 5247SOL     OW27376   2.754   0.377   4.336 -0.3026  0.4081 -0.7999
 5247SOL    HW127377   2.766   0.471   4.349 -0.3302  0.2291  0.5403
 5247SOL    HW227378   2.659   0.369   4.331 -0.4244  0.4788  1.4232
 5248SOL     OW27379   4.545   2.742  14.230 -0.1602 -0.0583 -0.5056
 5248SOL    HW127380   4.637   2.765  14.248  0.0590 -0.8199 -0.6844
 5248SOL    HW227381   4.510   2.773  14.313  0.0974  1.3905 -0.9357
 5249SOL     OW27382   1.919   3.933   1.326  0.4172  0.1955  0.1897
 5249SOL    HW127383   1.939   4.024   1.309 -1.0071  0.5243  0.2997
 5249SOL    HW227384   1.998   3.909   1.375  0.3411 -1.1739 -0.3483
 5250SOL     OW27385   4.002   1.185   8.510 -0.6905  0.0267  0.1953
 5250SOL    HW127386   3.943   1.148   8.575  2.5908  0.3094  3.3175
 5250SOL    HW227387   4.031   1.109   8.459  3.0670  2.6394 -1.6217
 5251SOL     OW27388   1.834   3.153   4.953 -0.0578 -0.0756  0.2005
 5251SOL    HW127389   1.763   3.172   5.015 -0.8566 -2.3060 -0.0285
 5251SOL    HW227390   1.851   3.236   4.909 -3.0476 -0.1923 -1.1558
 5252SOL     OW27391   4.606   2.522   7.897  0.0461 -0.0471  0.2913
 5252SOL    HW127392   4.687   2.483   7.929  0.1320 -0.3606 -0.3060
 5252SOL    HW227393   4.547   2.456   7.933  1.3819 -1.7026 -0.5693
 5253SOL     OW27394   3.713   3.221   4.211  0.4867 -0.0521 -0.1670
 5253SOL    HW127395   3.677   3.159   4.274  3.0814 -0.4744  0.8932
 5253SOL    HW227396   3.804   3.219   4.238  0.8743  1.1900 -1.3506
 5254SOL     OW27397   0.269   4.342  11.307 -0.0200  0.5923  0.5449
 5254SOL    HW127398   0.364   4.331  11.313 -0.3824 -2.1828  1.2539
 5254SOL    HW227399   0.250   4.251  11.282  1.9658  0.0794  0.9037
 5255SOL     OW27400   2.703   3.908   4.457 -0.9118  0.4545  0.5429
 5255SOL    HW127401   2.665   3.888   4.543 -2.7502  0.5361 -0.2571
 5255SOL    HW227402   2.693   3.827   4.407  1.7566  1.3183 -1.3573
 5256SOL     OW27403   1.711   4.006   5.705  0.2770 -0.5220 -0.3119
 5256SOL    HW127404   1.772   3.943   5.743 -0.6033 -0.5998  0.9711
 5256SOL    HW227405   1.759   4.084   5.734 -0.7516  0.3876 -1.0615
 5257SOL     OW27406   3.639   3.430  10.440  0.1331  0.0202 -0.1672
 5257SOL    HW127407   3.696   3.496  10.400 -1.0690 -0.2891 -2.3887
 5257SOL    HW227408   3.570   3.485  10.478 -1.0766 -1.5009 -0.1659
 5258SOL     OW27409   0.640   3.232   4.582  0.4877 -0.3905 -0.6225
 5258SOL    HW127410   0.619   3.298   4.648  0.6835 -1.8984  0.9585
 5258SOL    HW227411   0.684   3.165   4.635 -0.0008 -1.9735 -2.2165
 5259SOL     OW27412   3.313   3.454   1.987  0.1086 -0.3246 -0.2822
 5259SOL    HW127413   3.346   3.515   1.922  1.7733 -1.6627 -0.6700
 5259SOL    HW227414   3.358   3.372   1.966 -0.6348 -0.3729 -1.6627
 5260SOL     OW27415   1.362   2.474  12.530 -0.0594 -0.4677  0.2982
 5260SOL    HW127416   1.327   2.562  12.521 -1.4024 -0.8986  1.2957
 5260SOL    HW227417   1.454   2.484  12.507  0.2146  0.7060  1.8841
 5261SOL     OW27418   3.537   2.043   9.203 -0.1393 -0.0792 -0.3731
 5261SOL    HW127419   3.546   2.021   9.296 -2.0112  0.4672 -0.0714
 5261SOL    HW227420   3.589   1.974   9.162  0.7629  1.4587 -1.7946
 5262SOL     OW27421   3.506   1.091   0.459 -0.6057 -0.3258  0.4979
 5262SOL    HW127422   3.451   1.102   0.537 -0.2444 -1.8075  0.9769
 5262SOL    HW227423   3.583   1.067   0.512  0.2327 -2.8605 -1.8866
 5263SOL     OW27424   2.941   2.271  12.140 -0.3868  0.4167 -0.8892
 5263SOL    HW127425   2.958   2.331  12.067  2.5500 -1.5421 -1.8126
 5263SOL    HW227426   2.929   2.337  12.208  0.4073 -0.3240 -0.0234
 5264SOL     OW27427   3.394   3.768   4.057 -0.0655 -0.5853 -0.3737
 5264SOL    HW127428   3.404   3.835   4.126 -0.1555 -0.0692 -0.8629
 5264SOL    HW227429   3.450   3.803   3.989  1.3901 -2.6373 -0.2221
 5265SOL     OW27430   1.594   0.375  12.632 -0.4613  0.5394  0.3077
 5265SOL    HW127431   1.603   0.335  12.719 -1.4545  0.3554  0.3280
 5265SOL    HW227432   1.581   0.463  12.666  0.5495  1.2236 -1.0940
 5266SOL     OW27433   3.717   1.848  14.791  0.3371 -0.0739  0.1459
 5266SOL    HW127434   3.730   1.842  14.696 -1.2228  2.3381 -0.2094
 5266SOL    HW227435   3.801   1.830  14.833  0.8655  0.4709 -0.6756
 5267SOL     OW27436   3.674   1.936   4.423 -0.4513  0.8453 -0.3072
 5267SOL    HW127437   3.716   1.850   4.414  1.0551  1.6291 -0.8580
 5267SOL    HW227438   3.681   1.971   4.334  1.9809 -1.7236 -1.1382
 5268SOL     OW27439   1.428   1.935   2.684  0.0788 -0.5561 -0.2980
 5268SOL    HW127440   1.446   1.850   2.643  0.4228 -0.4250 -0.4260
 5268SOL    HW227441   1.335   1.936   2.707 -0.5508 -2.1002 -2.8136
 5269SOL     OW27442   2.865   2.337  17.711  0.3348 -0.1702  0.0082
 5269SOL    HW127443   2.782   2.307   0.007  0.8178  0.8388  1.9128
 5269SOL    HW227444   2.914   2.344   0.052 -0.8891  0.6619  0.6605
 5270SOL     OW27445   0.871   2.441  11.467 -0.9728  0.8180  1.1089
 5270SOL    HW127446   0.910   2.526  11.485 -2.2794  1.5191  0.6353
 5270SOL    HW227447   0.817   2.465  11.391  0.3846  1.8018  0.4598
 5271SOL     OW27448   4.584   2.183   9.996  0.6147  0.0174 -0.3135
 5271SOL    HW127449   4.623   2.146   9.917  3.7094  0.6842  0.9313
 5271SOL    HW227450   4.615   2.273   9.990  0.0370  0.0590 -2.7546
 5272SOL     OW27451   0.380   1.192   3.959  0.3499 -0.2162 -0.8018
 5272SOL    HW127452   0.438   1.263   3.935 -0.5128  1.0888  0.9530
 5272SOL    HW227453   0.305   1.232   4.003 -1.5120 -3.1060 -1.3587
 5273SOL     OW27454   2.802   3.011   4.995 -0.4450  0.1669 -0.2176
 5273SOL    HW127455   2.821   3.069   5.068  0.2034  1.8865 -1.7385
 5273SOL    HW227456   2.781   2.930   5.042  0.9624 -2.1802 -3.6207
 5274SOL     OW27457   2.025   4.442   3.622  0.2868  0.1668  0.4123
 5274SOL    HW127458   2.019   4.518   3.679 -1.3967 -0.5599  1.1786
 5274SOL    HW227459   2.103   4.408   3.667 -1.0683 -0.4262  2.2853
 5275SOL     OW27460   0.206   3.694   3.053 -0.2126  0.4850 -0.3454
 5275SOL    HW127461   0.178   3.604   3.064 -0.9442  1.0778  2.8067
 5275SOL    HW227462   0.281   3.695   2.994 -0.8333  0.2971 -1.1265
 5276SOL     OW27463   3.608   2.803  10.124  0.1900  0.2866  0.4858
 5276SOL    HW127464   3.588   2.734  10.188  2.6512  0.3298  1.2796
 5276SOL    HW227465   3.635   2.878  10.177 -0.4683  1.2738 -0.5618
 5277SOL     OW27466   4.064   1.782   4.893  0.4532 -0.5078  1.0292
 5277SOL    HW127467   4.158   1.799   4.886  0.0668  1.7181  1.2461
 5277SOL    HW227468   4.037   1.791   4.802  0.5624  0.3057  1.0836
 5278SOL     OW27469   3.804   3.114   9.152  0.3116 -0.3120  0.6114
 5278SOL    HW127470   3.825   3.061   9.075 -0.7719  0.9155 -0.5358
 5278SOL    HW227471   3.727   3.161   9.118 -1.5221 -1.9201  2.5534
 5279SOL     OW27472   0.427   3.663   2.340 -0.2914 -0.1801 -0.2008
 5279SOL    HW127473   0.491   3.726   2.373 -0.8324  0.2954 -0.0647
 5279SOL    HW227474   0.354   3.724   2.338 -0.0270  0.1282 -0.6608
 5280SOL     OW27475   2.893   2.455   0.891  0.6384  0.0456 -0.0195
 5280SOL    HW127476   2.821   2.436   0.950 -0.2042  1.7248 -0.4887
 5280SOL    HW227477   2.927   2.539   0.924  0.6487 -0.2465  0.7002
 5281SOL     OW27478   1.575   1.866   5.084  0.2518  0.3343 -1.0259
 5281SOL    HW127479   1.628   1.899   5.156 -2.3645 -1.2556  1.6439
 5281SOL    HW227480   1.526   1.942   5.051  0.0932  1.5219  1.8771
 5282SOL     OW27481   2.106   4.704   6.650 -0.2319  0.0086 -0.2110
 5282SOL    HW127482   2.020   4.713   6.689 -0.1120 -1.2571  0.3636
 5282SOL    HW227483   2.166   0.012   6.710  1.5645 -0.6259 -1.5353
 5283SOL     OW27484   2.200   2.028   7.879 -0.9257  0.3987  0.2994
 5283SOL    HW127485   2.134   2.069   7.935 -0.0769  1.6394  0.3967
 5283SOL    HW227486   2.246   2.093   7.827  0.0185 -0.2127  0.3829
 5284SOL     OW27487   4.274   2.662  17.550  0.6606 -0.4328 -0.3197
 5284SOL    HW127488   4.279   2.738  17.608  0.6728 -0.4158 -0.3431
 5284SOL    HW227489   4.198   2.611  17.580  0.2067  0.2356 -0.3169
 5285SOL     OW27490   4.182   3.524  16.796 -0.5345 -0.0020  0.5378
 5285SOL    HW127491   4.256   3.473  16.762  0.3686  0.9695  1.0597
 5285SOL    HW227492   4.127   3.540  16.720  0.5395  1.8534  0.1374
 5286SOL     OW27493   4.283   4.668   5.568 -0.2099  0.2605  0.3686
 5286SOL    HW127494   4.231   4.677   5.488  0.2497 -0.1817  0.0140
 5286SOL    HW227495   4.311   4.577   5.559  2.1809  1.0717 -0.5314
 5287SOL     OW27496   0.078   1.139   6.826  0.1580 -0.3536  0.0778
 5287SOL    HW127497   0.082   1.087   6.906  2.6680  0.6191  0.5838
 5287SOL    HW227498   0.054   1.228   6.853 -0.9482 -0.7700  0.4988
 5288SOL     OW27499   4.607   4.263   7.781 -0.5171  0.3556  0.5905
 5288SOL    HW127500   4.584   4.356   7.791 -2.1563 -0.1635  1.7068
 5288SOL    HW227501   4.702   4.258   7.795 -0.7482  0.6930  2.2760
 5289SOL     OW27502   4.018   4.090   0.231 -0.6672 -0.2645  0.6743
 5289SOL    HW127503   3.970   4.124   0.156 -1.4297  0.4645  1.4760
 5289SOL    HW227504   4.039   4.001   0.204 -2.4936 -0.7714  0.9532
 5290SOL     OW27505   3.515   0.809   2.579 -0.5064 -0.8517 -0.1082
 5290SOL    HW127506   3.562   0.884   2.616  1.0038 -1.2799 -1.1442
 5290SOL    HW227507   3.463   0.866   2.522  0.3430 -0.9022 -0.9369
 5291SOL     OW27508   4.021   4.165   7.785 -0.0370 -0.6381  0.5305
 5291SOL    HW127509   4.092   4.184   7.723 -1.3127  0.4649 -0.5831
 5291SOL    HW227510   4.069   4.139   7.863 -1.4197  1.2820  2.0175
 5292SOL     OW27511   0.796   2.170   2.000  0.2603 -0.1222 -0.2590
 5292SOL    HW127512   0.798   2.198   2.091 -0.4329 -0.5131 -0.1210
 5292SOL    HW227513   0.714   2.121   1.991 -0.5976  0.8306  2.4778
 5293SOL     OW27514   3.238   3.234   6.739  0.3167 -0.6691 -0.2797
 5293SOL    HW127515   3.235   3.186   6.657  3.3582 -1.7201  0.2492
 5293SOL    HW227516   3.173   3.302   6.719 -0.8208 -1.8448 -0.5770
 5294SOL     OW27517   3.220   3.316   5.887  0.0497  0.2153  0.2234
 5294SOL    HW127518   3.310   3.284   5.898  0.1244  0.2359 -0.3110
 5294SOL    HW227519   3.173   3.252   5.939  2.7965 -0.2759  2.1321
 5295SOL     OW27520   3.810   0.400   8.274 -0.3680 -0.3067  0.8071
 5295SOL    HW127521   3.739   0.384   8.336 -1.0198 -1.4840 -0.2368
 5295SOL    HW227522   3.796   0.492   8.250  2.1668  0.2212  1.3115
 5296SOL     OW27523   1.007   3.875  16.694  0.4754 -0.6007 -0.6994
 5296SOL    HW127524   1.044   3.858  16.607 -1.4459 -1.2915 -1.3987
 5296SOL    HW227525   0.920   3.904  16.666  1.1072  0.2136 -1.8309
 5297SOL     OW27526   2.269   4.569  15.622  0.1004  0.3056 -0.2680
 5297SOL    HW127527   2.339   4.588  15.684 -2.0095 -0.7381  2.4199
 5297SOL    HW227528   2.194   4.614  15.661 -0.4827 -3.2832  2.7818
 5298SOL     OW27529   0.601   4.657   4.701  0.4278 -0.4534  0.7157
 5298SOL    HW127530   0.673   4.700   4.655 -0.5747 -1.3020 -1.7159
 5298SOL    HW227531   0.612   4.664   4.795  0.0773  1.2187  0.6160
 5299SOL     OW27532   4.653   2.075  16.254 -0.4921 -0.0934  0.0163
 5299SOL    HW127533   0.003   2.116  16.266  0.5979 -1.8035 -2.0186
 5299SOL    HW227534   4.611   2.152  16.216 -0.2437  1.4865  2.9244
 5300SOL     OW27535   3.716   3.373   8.914  0.0668 -0.2684  0.2350
 5300SOL    HW127536   3.791   3.430   8.931 -1.7612  1.4545  2.5704
 5300SOL    HW227537   3.658   3.387   8.989  0.3584  1.1005  0.2059
 5301SOL     OW27538   2.753   0.232   0.261 -0.0441 -0.0657  0.2582
 5301SOL    HW127539   2.725   0.163   0.321 -0.8579 -0.6439 -0.7889
 5301SOL    HW227540   2.751   0.177   0.183  0.0569  0.5468 -0.1793
 5302SOL     OW27541   0.020   2.730  10.449 -0.0252 -0.0711 -0.1544
 5302SOL    HW127542   0.114   2.723  10.436 -0.3561  0.9261 -3.1792
 5302SOL    HW227543   4.727   2.690  10.532 -0.3810 -1.8959 -1.1638
 5303SOL     OW27544   3.395   0.317   2.814  0.2203 -0.2073 -0.1261
 5303SOL    HW127545   3.484   0.321   2.849  0.5925  1.4223 -1.2619
 5303SOL    HW227546   3.345   0.356   2.886 -1.5512 -0.5881 -1.1629
 5304SOL     OW27547   2.489   1.093  15.232 -0.0937 -0.1783 -0.4224
 5304SOL    HW127548   2.431   1.023  15.261 -0.1591 -0.3444 -0.9544
 5304SOL    HW227549   2.511   1.072  15.141  3.4372  1.2657  0.0799
 5305SOL     OW27550   4.034   3.006   1.970 -0.2401 -0.5345 -0.6764
 5305SOL    HW127551   4.127   3.029   1.979 -0.4786  0.4325 -0.6688
 5305SOL    HW227552   3.996   3.094   1.970  2.4810  0.6683  1.4418
 5306SOL     OW27553   3.010   0.735   7.027  0.3401  0.1008  0.2051
 5306SOL    HW127554   2.941   0.703   7.085 -0.7953  1.2933 -0.4844
 5306SOL    HW227555   2.988   0.700   6.941  0.4231  0.2363  0.1273
 5307SOL     OW27556   0.110   3.716   7.490  0.2123  0.0422 -0.4247
 5307SOL    HW127557   0.073   3.737   7.576 -1.0969 -1.0148 -0.7187
 5307SOL    HW227558   0.089   3.792   7.435 -1.9148  1.1844  1.9649
 5308SOL     OW27559   2.296   3.233   7.940  0.3403 -0.4912  0.1515
 5308SOL    HW127560   2.268   3.143   7.921  1.2920 -0.4546 -1.4562
 5308SOL    HW227561   2.237   3.243   8.013 -2.5478  3.3516 -2.7410
 5309SOL     OW27562   2.737   1.891  11.681 -0.4821 -0.5081 -0.0021
 5309SOL    HW127563   2.819   1.934  11.655 -1.5191  2.1222  1.0175
 5309SOL    HW227564   2.755   1.797  11.681 -1.1335 -0.6334 -0.5058
 5310SOL     OW27565   4.699   4.238   6.265  0.4717 -0.4899  0.0210
 5310SOL    HW127566   0.057   4.256   6.275  0.1894 -0.1312  1.9288
 5310SOL    HW227567   4.689   4.206   6.355 -1.7175  0.5641  0.1402
 5311SOL     OW27568   1.905   2.738   4.478 -0.5133  0.0451  0.3042
 5311SOL    HW127569   1.904   2.805   4.410  0.1851  0.8731  1.1184
 5311SOL    HW227570   1.816   2.703   4.475 -1.6674  3.0079  0.2753
 5312SOL     OW27571   0.266   2.151   0.999 -0.0655 -0.6127  0.3132
 5312SOL    HW127572   0.217   2.218   0.952  1.0861 -0.4312 -0.6360
 5312SOL    HW227573   0.293   2.090   0.930  2.6630 -0.5653  1.3582
 5313SOL     OW27574   1.050   3.747   2.487  0.2786 -0.0203  0.1067
 5313SOL    HW127575   1.008   3.820   2.441  1.6768  0.2928 -0.6873
 5313SOL    HW227576   1.018   3.677   2.431 -0.6561  0.3436  0.1838
 5314SOL     OW27577   2.446   1.092   4.809  0.1190 -0.0700  0.0714
 5314SOL    HW127578   2.402   1.079   4.893  0.1022 -0.2003  0.0424
 5314SOL    HW227579   2.484   1.005   4.799  0.1775 -0.0857  0.4140
 5315SOL     OW27580   2.019   2.140  10.154 -0.2874 -0.1222 -0.9507
 5315SOL    HW127581   2.032   2.224  10.196 -0.3625 -0.4132 -0.3522
 5315SOL    HW227582   2.091   2.093  10.197 -1.2155 -1.2576 -0.6208
 5316SOL     OW27583   4.105   2.941   9.311  0.6143 -0.2836 -0.6532
 5316SOL    HW127584   4.134   2.880   9.243  0.0650  0.8004 -1.8408
 5316SOL    HW227585   4.155   3.022   9.298 -3.0346  1.9182 -0.7587
 5317SOL     OW27586   1.252   1.319   1.354  0.0339 -0.6433  0.0281
 5317SOL    HW127587   1.213   1.290   1.271 -0.4838  1.9514 -0.6436
 5317SOL    HW227588   1.242   1.414   1.355  0.3759 -0.6318  1.2750
 5318SOL     OW27589   0.940   0.961   3.686  0.0611 -0.0806 -0.5513
 5318SOL    HW127590   0.946   1.056   3.696  1.6994 -0.0460 -1.7813
 5318SOL    HW227591   0.914   0.964   3.593 -0.8206 -0.1713 -0.3085
 5319SOL     OW27592   2.506   0.287  10.835 -0.4742 -0.1466  0.4108
 5319SOL    HW127593   2.525   0.345  10.908  0.2067 -0.0807  0.1798
 5319SOL    HW227594   2.412   0.304  10.830 -0.8814 -2.7988 -1.1504
 5320SOL     OW27595   2.975   4.405  12.377  0.2035 -0.1185 -0.4434
 5320SOL    HW127596   2.922   4.333  12.410 -0.0488  1.0290  1.6368
 5320SOL    HW227597   2.941   4.477  12.429 -0.3647 -0.8861  0.2528
 5321SOL     OW27598   4.396   1.108   2.067 -0.1911  0.2093  0.2967
 5321SOL    HW127599   4.446   1.045   2.015  0.5133  0.2627  0.9154
 5321SOL    HW227600   4.432   1.190   2.032  0.4585  0.1751  0.9047
 5322SOL     OW27601   1.378   0.319   4.533  0.1619  0.6492 -0.0156
 5322SOL    HW127602   1.381   0.327   4.628 -2.3811 -2.2312  0.3034
 5322SOL    HW227603   1.310   0.383   4.513  1.0470  1.5942  0.0038
 5323SOL     OW27604   1.465   0.100   2.000  0.3726 -0.2200 -0.9483
 5323SOL    HW127605   1.523   0.024   1.993  1.0917  0.3095 -0.6503
 5323SOL    HW227606   1.464   0.105   2.096 -0.0250  1.9546 -1.0641
 5324SOL     OW27607   0.228   0.624   2.390 -0.0909  0.0455  0.2560
 5324SOL    HW127608   0.147   0.630   2.439 -0.5202  1.3711 -0.6022
 5324SOL    HW227609   0.282   0.581   2.456 -0.2498 -1.7381 -0.7813
 5325SOL     OW27610   0.898   1.402   2.508  0.3432 -0.2158  0.2638
 5325SOL    HW127611   0.991   1.419   2.520  0.2222  0.7513 -0.1298
 5325SOL    HW227612   0.876   1.318   2.548 -0.8586 -1.5283 -3.1601
 5326SOL     OW27613   1.147   2.778   2.722 -0.3018 -0.0685 -0.1915
 5326SOL    HW127614   1.106   2.716   2.782  2.0657 -0.1148  1.3814
 5326SOL    HW227615   1.069   2.814   2.680  0.7315 -0.1944 -2.2628
 5327SOL     OW27616   1.981   1.714  14.079  0.1073  0.8520  0.0220
 5327SOL    HW127617   1.919   1.705  14.006 -0.6985 -2.1172  1.0626
 5327SOL    HW227618   2.001   1.622  14.101  1.9219  0.7432 -2.1041
 5328SOL     OW27619   1.425   4.078   8.827  0.5506 -0.6142 -0.1961
 5328SOL    HW127620   1.453   4.048   8.741 -1.4432 -2.0989 -0.3147
 5328SOL    HW227621   1.358   4.139   8.799 -0.4071 -0.8023  1.6614
 5329SOL     OW27622   2.107   1.514  11.965 -0.3050  0.1385  0.8655
 5329SOL    HW127623   2.122   1.419  11.970  2.3398  0.5154 -0.0276
 5329SOL    HW227624   2.016   1.507  11.995 -0.4898  0.2369  0.3258
 5330SOL     OW27625   3.943   0.516   0.768 -0.4383 -0.1502 -0.4591
 5330SOL    HW127626   3.866   0.568   0.792 -0.1326 -0.8464  2.0445
 5330SOL    HW227627   3.912   0.426   0.766 -0.0135 -0.2489 -2.4331
 5331SOL     OW27628   4.319   1.814   9.708  0.4679  0.0079 -0.7244
 5331SOL    HW127629   4.301   1.740   9.766  2.2234  0.0653 -0.0926
 5331SOL    HW227630   4.251   1.873   9.742 -0.2081 -1.1455 -0.0898
 5332SOL     OW27631   3.974   0.217   9.272 -0.2786 -0.2378  0.4758
 5332SOL    HW127632   4.049   0.217   9.332 -1.1319  1.0483  1.5167
 5332SOL    HW227633   3.940   0.132   9.301 -2.0338  0.0668 -0.7241
 5333SOL     OW27634   0.992   0.685   6.022  0.2741  0.1061 -0.0934
 5333SOL    HW127635   1.016   0.775   6.003 -1.5885  0.7042  0.3970
 5333SOL    HW227636   0.925   0.676   5.955  0.6892  0.5022 -0.5630
 5334SOL     OW27637   3.686   3.735   5.535  0.2581 -0.7570  0.6163
 5334SOL    HW127638   3.774   3.750   5.501 -0.6836  0.3647 -1.3280
 5334SOL    HW227639   3.636   3.768   5.460 -0.7057 -1.7410  0.8188
 5335SOL     OW27640   2.733   3.501   7.397 -0.0262 -0.8343 -0.5319
 5335SOL    HW127641   2.700   3.476   7.484 -2.5913  1.4165 -0.8496
 5335SOL    HW227642   2.710   3.423   7.347 -2.7158 -0.9942  0.9380
 5336SOL     OW27643   4.092   3.282   6.966  0.5007 -0.6716 -0.2007
 5336SOL    HW127644   4.018   3.241   6.921  1.0810 -2.2064  0.2481
 5336SOL    HW227645   4.115   3.201   7.012  2.8780 -0.0844 -0.3488
 5337SOL     OW27646   0.075   0.017   5.430 -0.3601 -0.3711  0.0885
 5337SOL    HW127647   0.028   4.672   5.412 -1.4507  0.5234 -1.1585
 5337SOL    HW227648   0.048   0.064   5.351  0.9861 -0.9421 -0.7142
 5338SOL     OW27649   1.021   0.739   4.925  0.2340  0.4889  0.4094
 5338SOL    HW127650   1.050   0.662   4.974 -0.2783 -0.6980 -1.1302
 5338SOL    HW227651   1.110   0.765   4.902  0.5202 -0.9547 -0.1322
 5339SOL     OW27652   3.848   4.548   3.682 -0.4355  0.6367  0.3047
 5339SOL    HW127653   3.888   4.510   3.604 -1.2619  0.0827  0.1514
 5339SOL    HW227654   3.915   4.521   3.745  0.9854  0.0684 -1.4788
 5340SOL     OW27655   2.032   3.695   8.123  0.7184  0.7940  0.3646
 5340SOL    HW127656   2.056   3.778   8.165  1.4085  0.7513  0.0638
 5340SOL    HW227657   2.101   3.632   8.144  2.1781  2.1477 -0.3607
 5341SOL     OW27658   1.981   2.083   4.461  0.8839 -0.5680  0.6443
 5341SOL    HW127659   1.952   2.163   4.506  1.6862  0.5103 -0.7394
 5341SOL    HW227660   2.009   2.126   4.380  0.0985 -1.9908 -0.3631
 5342SOL     OW27661   0.769   0.864   4.016  0.0666  0.1020  0.7608
 5342SOL    HW127662   0.860   0.846   3.996  0.3125 -0.2220  2.1923
 5342SOL    HW227663   0.734   0.880   3.929  1.5672  1.6072  0.4446
 5343SOL     OW27664   1.835   0.301   7.189 -0.1095  0.1126  0.4917
 5343SOL    HW127665   1.846   0.324   7.281 -0.3531 -0.6456  0.7093
 5343SOL    HW227666   1.915   0.334   7.151 -0.0962 -0.7082 -0.1921
 5344SOL     OW27667   4.441   1.932  14.360  0.0279  0.1650 -0.1097
 5344SOL    HW127668   4.492   1.931  14.442 -2.3742 -0.4339  1.3727
 5344SOL    HW227669   4.439   2.027  14.353 -1.4989  0.2706  1.7111
 5345SOL     OW27670   3.348   1.071   8.981  0.5754  0.3795 -0.3192
 5345SOL    HW127671   3.410   1.138   9.007 -0.6175  1.1933  0.4485
 5345SOL    HW227672   3.382   1.024   8.905  0.9106  0.4477 -0.2077
 5346SOL     OW27673   3.849   0.470   5.939 -0.3860 -0.1376 -0.0397
 5346SOL    HW127674   3.793   0.460   5.862  0.2850  1.7791 -0.7693
 5346SOL    HW227675   3.889   0.383   5.943  0.2888  0.2349  1.3218
 5347SOL     OW27676   4.130   3.884   9.055 -0.6248  0.0395  0.1709
 5347SOL    HW127677   4.092   3.968   9.032  0.9815  0.9004  0.6568
 5347SOL    HW227678   4.069   3.844   9.117 -0.3724 -0.9834 -0.2433
 5348SOL     OW27679   4.235   1.282   1.749  0.6166  0.0110 -0.5339
 5348SOL    HW127680   4.283   1.306   1.828  0.3373 -0.4946 -0.2054
 5348SOL    HW227681   4.151   1.254   1.787  0.3524 -0.3764 -1.4088
 5349SOL     OW27682   4.025   4.518   8.840 -0.1294  0.0891  0.4492
 5349SOL    HW127683   4.098   4.458   8.822  0.8449  1.5229 -0.3589
 5349SOL    HW227684   4.019   4.554   8.752  0.0830  0.6243  0.6523
 5350SOL     OW27685   4.151   1.926   7.488 -0.0607 -0.4036  0.1601
 5350SOL    HW127686   4.070   1.884   7.518  0.6455 -3.5144 -2.2696
 5350SOL    HW227687   4.170   1.868   7.414  1.3740 -0.1045  0.2994
 5351SOL     OW27688   1.865   1.885   4.934 -0.3567 -0.2371  0.4350
 5351SOL    HW127689   1.844   1.964   4.885  1.1214  0.3275  0.7240
 5351SOL    HW227690   1.835   1.821   4.870  0.6310  0.9284 -1.1690
 5352SOL     OW27691   2.307   0.591   7.963 -0.0291 -0.1049 -0.0447
 5352SOL    HW127692   2.308   0.535   7.885 -0.5219  0.1292 -0.2164
 5352SOL    HW227693   2.241   0.548   8.017  0.3841  0.6682  1.0549
 5353SOL     OW27694   3.359   2.338  16.993 -0.1001  0.1321  0.6569
 5353SOL    HW127695   3.276   2.386  16.995 -0.0004  0.3461 -0.1894
 5353SOL    HW227696   3.334   2.270  16.930  0.4424  1.9618 -1.5433
 5354SOL     OW27697   3.491   4.671  13.628 -0.2264  0.4917 -0.0022
 5354SOL    HW127698   3.462   4.636  13.544 -2.0621  0.1764  0.7712
 5354SOL    HW227699   3.465   4.605  13.692 -2.2699  0.0421 -1.3063
 5355SOL     OW27700   1.233   2.082   6.557 -0.2616 -0.6209 -0.4013
 5355SOL    HW127701   1.215   2.173   6.578  2.1651  0.2817 -2.1512
 5355SOL    HW227702   1.298   2.060   6.624 -0.1463  0.2311 -0.2428
 5356SOL     OW27703   2.861   4.634   6.124 -0.4251  0.4677 -0.6160
 5356SOL    HW127704   2.847   4.539   6.126 -2.6816  0.8461  1.3593
 5356SOL    HW227705   2.776   4.655   6.085  0.3518  0.6203 -2.2516
 5357SOL     OW27706   0.167   4.360   7.590 -0.0450  0.1211 -0.0318
 5357SOL    HW127707   0.190   4.279   7.636  1.7123  1.1612  0.8905
 5357SOL    HW227708   0.203   4.425   7.650  1.0354 -0.1718 -0.3620
 5358SOL     OW27709   3.167   0.772  17.231 -0.3318 -0.2622 -0.7320
 5358SOL    HW127710   3.254   0.795  17.263  0.4675 -1.7665 -1.8396
 5358SOL    HW227711   3.156   0.694  17.286 -0.4788  0.8920  0.8681
 5359SOL     OW27712   4.491   2.442  14.782  0.3417  0.1326  0.2316
 5359SOL    HW127713   4.490   2.367  14.723  1.2091  1.5604 -1.5934
 5359SOL    HW227714   4.568   2.416  14.833  0.4429  0.9490  0.4921
 5360SOL     OW27715   0.215   1.025   0.036 -0.0937  0.1140  0.3508
 5360SOL    HW127716   0.246   1.004  17.689 -1.9317 -1.6598  0.1434
 5360SOL    HW227717   0.129   0.983   0.027  0.3008  0.5351 -5.7437
 5361SOL     OW27718   0.831   0.326   6.654 -0.0764 -0.4841  0.1465
 5361SOL    HW127719   0.836   0.332   6.750 -0.9315  1.0396  0.0825
 5361SOL    HW227720   0.780   0.406   6.643  0.1466 -0.0210  2.3317
 5362SOL     OW27721   1.036   1.153   2.706  0.1075 -0.3516 -0.0946
 5362SOL    HW127722   1.029   1.127   2.614  0.3262 -0.3523 -0.1111
 5362SOL    HW227723   1.114   1.102   2.728 -0.3259 -1.1705 -0.4711
 5363SOL     OW27724   1.078   2.573   7.352 -0.0058 -0.1209 -0.1065
 5363SOL    HW127725   1.138   2.647   7.342 -0.1347  0.0151  0.1197
 5363SOL    HW227726   1.071   2.542   7.262 -3.2689  0.9166 -0.2048
 5364SOL     OW27727   0.578   0.160   7.431 -0.1696 -0.4764 -0.2016
 5364SOL    HW127728   0.633   0.132   7.358 -0.4371 -1.8671  0.1328
 5364SOL    HW227729   0.651   0.174   7.492 -0.1232 -0.8542 -0.1699
 5365SOL     OW27730   0.787   1.651   2.558  0.3417  0.0942  0.1013
 5365SOL    HW127731   0.821   1.566   2.528  0.3482 -0.0599  0.5468
 5365SOL    HW227732   0.840   1.670   2.635  0.4515  0.8944 -0.1709
 5366SOL     OW27733   3.744   1.287  10.871 -0.6078 -0.1855  0.0094
 5366SOL    HW127734   3.809   1.346  10.834  0.3359 -0.3199  1.4407
 5366SOL    HW227735   3.792   1.206  10.853  0.9303  0.6424  0.4329
 5367SOL     OW27736   0.732   3.823   1.747 -0.1383  0.7640 -0.5804
 5367SOL    HW127737   0.820   3.810   1.781  0.2430  1.3057 -1.3473
 5367SOL    HW227738   0.690   3.759   1.805  1.0217  0.0986 -0.4742
 5368SOL     OW27739   2.519   3.751   2.987  0.0012 -0.0821 -0.6783
 5368SOL    HW127740   2.580   3.679   2.977  0.2924 -0.4195  3.5616
 5368SOL    HW227741   2.434   3.708   2.988  1.6326 -3.3103 -2.2051
 5369SOL     OW27742   3.744   4.713   9.774  0.0895  0.2067 -0.4487
 5369SOL    HW127743   3.770   4.661   9.850 -0.9238  0.6519  0.2029
 5369SOL    HW227744   3.829   4.711   9.729  0.0638 -0.6638 -0.4432
 5370SOL     OW27745   4.621   1.808   6.019 -0.0523 -0.3892  0.3721
 5370SOL    HW127746   4.565   1.782   5.946 -0.2095 -1.4350  0.8612
 5370SOL    HW227747   4.588   1.896   6.039 -0.0376  0.0506 -1.5518
 5371SOL     OW27748   4.382   4.644   3.375 -0.8415 -0.5401 -0.0013
 5371SOL    HW127749   4.413   4.565   3.331 -1.0693 -1.9298  2.3640
 5371SOL    HW227750   4.425   4.714   3.324  0.8055 -0.5438  1.3895
 5372SOL     OW27751   1.835   2.747  11.567  0.3040 -0.6348 -0.0404
 5372SOL    HW127752   1.839   2.691  11.643  1.6250 -0.0580  0.3259
 5372SOL    HW227753   1.918   2.725  11.523 -0.6019 -1.6714 -1.2375
 5373SOL     OW27754   0.083   2.106   2.525  0.1581 -0.0577 -0.3315
 5373SOL    HW127755   0.060   2.186   2.479  1.5886 -0.5013 -1.7805
 5373SOL    HW227756   0.067   2.041   2.456 -1.3044 -1.2298  1.1014
 5374SOL     OW27757   1.999   1.107   5.975 -0.1586  0.6529 -0.5360
 5374SOL    HW127758   1.950   1.120   6.057  0.4800  0.2644 -0.0979
 5374SOL    HW227759   1.966   1.185   5.929 -0.0903  1.1307  0.2131
 5375SOL     OW27760   2.478   2.291   1.916 -0.1542 -0.0401 -0.2130
 5375SOL    HW127761   2.397   2.259   1.956 -0.4236 -0.2778 -0.9569
 5375SOL    HW227762   2.548   2.282   1.982 -0.7141 -1.7118  0.1549
 5376SOL     OW27763   0.208   4.641  14.596 -0.3888  0.8448  1.1897
 5376SOL    HW127764   0.275   4.574  14.598  0.5964  1.8010 -0.2453
 5376SOL    HW227765   0.249   4.712  14.546 -2.3328  0.7821 -0.4818
 5377SOL     OW27766   0.929   3.610   5.461 -0.2266 -0.3982  0.1092
 5377SOL    HW127767   0.919   3.526   5.506 -0.2375  0.1308  1.1037
 5377SOL    HW227768   0.978   3.586   5.383  2.0363  0.8581  1.1437
 5378SOL     OW27769   0.270   1.057  17.008 -0.6325  0.1724 -0.0311
 5378SOL    HW127770   0.238   0.967  17.001  1.1622 -0.3918 -1.0980
 5378SOL    HW227771   0.334   1.053  16.937  0.1809 -1.6695  0.7825
 5379SOL     OW27772   3.619   3.061   4.428 -0.3745 -0.5944  0.1464
 5379SOL    HW127773   3.652   3.075   4.516  0.5602  0.2522 -0.3341
 5379SOL    HW227774   3.667   2.982   4.403  0.6029  0.3738 -1.0615
 5380SOL     OW27775   3.086   0.270   6.735 -0.1576  0.3295  0.1091
 5380SOL    HW127776   3.144   0.213   6.784  0.3423 -1.5964 -2.7461
 5380SOL    HW227777   3.079   0.219   6.654  0.0961 -0.9220  0.8727
 5381SOL     OW27778   3.616   0.822   7.227 -0.1579  0.5480 -0.2365
 5381SOL    HW127779   3.548   0.783   7.282  1.0009 -0.2432  0.6452
 5381SOL    HW227780   3.588   0.908   7.196  0.4801  0.8458  0.0093
 5382SOL     OW27781   0.509   0.627   5.176 -0.4065  0.0664  0.6783
 5382SOL    HW127782   0.448   0.562   5.209 -0.5303  0.2144  0.7397
 5382SOL    HW227783   0.589   0.605   5.224  0.7575  1.4129 -0.6129
 5383SOL     OW27784   4.707   0.828  13.697 -0.2115  0.0453  0.3678
 5383SOL    HW127785   0.045   0.802  13.642 -1.4366 -1.2192 -0.6808
 5383SOL    HW227786   4.718   0.766  13.769  0.3281 -0.4507 -0.1417
 5384SOL     OW27787   0.894   4.278  16.934 -0.2575  0.5060  0.1068
 5384SOL    HW127788   0.893   4.373  16.950  4.1555  0.7080 -0.6835
 5384SOL    HW227789   0.918   4.245  17.021  0.0942  1.2393  0.2890
 5385SOL     OW27790   3.892   0.123   5.698  0.1747  0.1669  0.7445
 5385SOL    HW127791   3.920   0.172   5.775  2.1125  2.7659 -1.6310
 5385SOL    HW227792   3.931   0.036   5.710 -1.9677 -1.0192 -0.8494
 5386SOL     OW27793   3.424   1.303   1.979  0.1926  0.2236 -0.5098
 5386SOL    HW127794   3.403   1.274   1.891 -1.3872  0.9288 -0.3759
 5386SOL    HW227795   3.403   1.397   1.977 -0.2042  0.0874 -2.9578
 5387SOL     OW27796   2.758   0.661  14.960 -0.3354 -0.4019 -0.1812
 5387SOL    HW127797   2.837   0.634  15.007 -0.6654  1.6881  1.6109
 5387SOL    HW227798   2.764   0.756  14.973  1.1396 -0.6067  0.6299
 5388SOL     OW27799   1.965   2.514   6.945 -0.0269  0.2226  0.0678
 5388SOL    HW127800   1.975   2.550   7.033  0.0405  2.3118 -0.8099
 5388SOL    HW227801   2.025   2.440   6.945 -0.4764 -0.1573 -2.9602
 5389SOL     OW27802   3.076   0.492   4.379  0.2521  0.6953  0.7689
 5389SOL    HW127803   3.125   0.544   4.315  0.4486 -1.7232 -1.0649
 5389SOL    HW227804   3.100   0.402   4.355  0.6133  1.2109 -0.8019
 5390SOL     OW27805   3.912   3.475   9.560 -0.3202  0.1628 -0.2852
 5390SOL    HW127806   3.929   3.388   9.597  1.2424  0.9300  0.8261
 5390SOL    HW227807   3.825   3.494   9.595 -0.9780  0.1893 -1.9479
 5391SOL     OW27808   3.405   4.236   3.275 -0.0854  0.2339  0.0261
 5391SOL    HW127809   3.338   4.250   3.342 -0.6422 -0.9012 -0.3070
 5391SOL    HW227810   3.376   4.289   3.201  0.9660  2.3060  1.0990
 5392SOL     OW27811   1.855   3.621   3.028 -0.5419  0.1389 -0.6106
 5392SOL    HW127812   1.918   3.549   3.020 -3.2823 -2.4556  1.0043
 5392SOL    HW227813   1.872   3.655   3.116 -0.4889 -3.0203  0.6072
 5393SOL     OW27814   3.534   3.511   1.514 -0.5752 -0.1717  0.4049
 5393SOL    HW127815   3.503   3.493   1.426 -0.9006 -1.6374  0.8128
 5393SOL    HW227816   3.519   3.422   1.546  0.6457 -0.9472 -1.1468
 5394SOL     OW27817   4.382   2.645   3.910  0.3106 -0.0543  0.2921
 5394SOL    HW127818   4.477   2.647   3.906  0.3556 -0.2883  1.3188
 5394SOL    HW227819   4.368   2.566   3.962 -3.8019  0.6209  0.2279
 5395SOL     OW27820   2.259   2.539  12.793  0.3316 -0.5110 -0.1560
 5395SOL    HW127821   2.246   2.481  12.718 -2.1959 -1.2254  0.8403
 5395SOL    HW227822   2.350   2.517  12.810  0.6103  0.4122 -0.4315
 5396SOL     OW27823   2.814   0.536  11.143  0.4777  0.2468  0.4326
 5396SOL    HW127824   2.726   0.570  11.129 -0.3512 -1.8364  0.6664
 5396SOL    HW227825   2.794   0.450  11.179  3.0202  0.1392  1.5522
 5397SOL     OW27826   3.308   1.870   4.374 -0.3603 -0.6935 -0.1155
 5397SOL    HW127827   3.246   1.822   4.319 -0.7645 -1.1009  0.7056
 5397SOL    HW227828   3.257   1.908   4.445 -0.3194 -0.0549 -0.4267
 5398SOL     OW27829   2.146   3.985   3.316 -1.0936 -0.3561  0.1269
 5398SOL    HW127830   2.233   3.967   3.351  0.3868  2.4685 -2.0856
 5398SOL    HW227831   2.097   3.955   3.392 -0.3180 -0.3514  0.6332
 5399SOL     OW27832   1.852   2.713  12.152  0.2043 -0.0381 -0.3940
 5399SOL    HW127833   1.948   2.711  12.152  0.2225  0.8283  1.0774
 5399SOL    HW227834   1.835   2.620  12.161 -2.7117  0.2241 -3.1788
 5400SOL     OW27835   0.909   2.666   5.017 -0.1434 -0.3573  0.5036
 5400SOL    HW127836   0.856   2.610   4.961  2.2244 -0.4967 -1.5987
 5400SOL    HW227837   0.997   2.628   5.013  0.3981  0.8808  0.7263
 5401SOL     OW27838   2.503   0.509   8.281  0.1098  0.0109 -0.2991
 5401SOL    HW127839   2.485   0.422   8.319  2.1788 -0.5813 -0.6741
 5401SOL    HW227840   2.412   0.537   8.278  0.3659  0.6541 -1.8545
 5402SOL     OW27841   3.470   3.420  11.764 -0.1181 -0.2254 -0.3750
 5402SOL    HW127842   3.450   3.502  11.719 -0.3325 -0.2558 -0.3341
 5402SOL    HW227843   3.385   3.377  11.769 -0.5143  0.6925  0.7099
 5403SOL     OW27844   2.677   3.578   3.352 -0.7016 -0.0050  0.0457
 5403SOL    HW127845   2.759   3.610   3.314 -0.3156 -1.6210 -0.4840
 5403SOL    HW227846   2.702   3.532   3.432  1.9988  0.2517 -0.6352
 5404SOL     OW27847   3.658   0.854   5.358  0.0018 -0.2308  0.2398
 5404SOL    HW127848   3.680   0.891   5.273  1.3522 -0.1447  0.6166
 5404SOL    HW227849   3.621   0.771   5.328  0.4238  0.1296 -1.2666
 5405SOL     OW27850   4.335   1.102  11.205  0.3196 -1.3437  1.0024
 5405SOL    HW127851   4.302   1.036  11.266 -1.6976 -0.7422  0.5763
 5405SOL    HW227852   4.276   1.170  11.237  0.8106 -0.3575 -0.1576
 5406SOL     OW27853   1.115   2.775  12.261 -0.1803  0.2401  0.1991
 5406SOL    HW127854   1.205   2.805  12.249 -0.7766  1.0813 -2.2796
 5406SOL    HW227855   1.098   2.764  12.167  0.5463 -1.4619  0.2625
 5407SOL     OW27856   1.247   1.682   7.915  0.4344  0.6082  0.5148
 5407SOL    HW127857   1.189   1.612   7.885  0.3388  1.8939 -2.2717
 5407SOL    HW227858   1.235   1.747   7.846 -0.1039 -2.4117 -2.2235
 5408SOL     OW27859   3.729   2.413  17.689 -0.2290  0.0512  0.4586
 5408SOL    HW127860   3.819   2.380  17.687  0.9950  3.2321  2.1826
 5408SOL    HW227861   3.738   2.501  17.726  1.4884 -0.1200  0.4619
 5409SOL     OW27862   0.854   2.737   3.913  0.1753  0.0685  0.2926
 5409SOL    HW127863   0.877   2.676   3.843  0.2803  0.2826  0.1399
 5409SOL    HW227864   0.770   2.697   3.935 -0.7393  0.0127 -3.4030
 5410SOL     OW27865   4.066   2.835   4.069 -0.2007 -0.1091  0.1292
 5410SOL    HW127866   4.081   2.858   3.978 -1.6095 -0.0664 -0.0989
 5410SOL    HW227867   4.004   2.763   4.056  0.1743 -0.4009 -0.0149
 5411SOL     OW27868   3.403   0.060   7.805  0.0594  0.0703  0.0189
 5411SOL    HW127869   3.446   0.025   7.884  0.1579  0.1633  0.0060
 5411SOL    HW227870   3.360   0.136   7.845  1.8586  1.3423 -0.4927
 5412SOL     OW27871   3.642   1.730   2.655  0.4601 -0.3890  0.4327
 5412SOL    HW127872   3.696   1.809   2.658  3.0169 -2.1233 -0.1843
 5412SOL    HW227873   3.557   1.764   2.684 -0.6581 -1.8231 -1.2333
 5413SOL     OW27874   2.756   0.714   8.232 -0.0440 -0.6169 -1.0308
 5413SOL    HW127875   2.760   0.626   8.268  1.5035 -0.5272 -0.9891
 5413SOL    HW227876   2.696   0.699   8.158 -1.5532  1.5232 -0.2459
 5414SOL     OW27877   1.271   1.223   7.162  0.3618 -0.8213  0.4451
 5414SOL    HW127878   1.283   1.172   7.082 -1.2177  0.4100 -0.5805
 5414SOL    HW227879   1.237   1.308   7.135  0.0002 -0.9719  0.4277
 5415SOL     OW27880   0.496   0.847  15.446  0.0205 -0.1374  0.7256
 5415SOL    HW127881   0.562   0.801  15.497 -1.8882 -2.8250  0.7826
 5415SOL    HW227882   0.451   0.773  15.405  0.2427  1.3986 -2.3068
 5416SOL     OW27883   1.833   3.357  12.724  0.4263 -0.2421  0.3783
 5416SOL    HW127884   1.763   3.420  12.743 -0.1764 -0.1587 -2.0608
 5416SOL    HW227885   1.784   3.280  12.753 -0.4348  0.5330  1.0071
 5417SOL     OW27886   1.735   1.440  14.947 -0.1088  0.2572  0.2247
 5417SOL    HW127887   1.662   1.470  14.893 -0.6208  0.4428  1.0130
 5417SOL    HW227888   1.694   1.413  15.029 -1.5304 -1.0814 -0.9320
 5418SOL     OW27889   1.180   1.434   2.895  0.8954 -0.7097 -0.7087
 5418SOL    HW127890   1.088   1.433   2.921  0.3769 -2.9493 -2.5983
 5418SOL    HW227891   1.177   1.437   2.800  0.8343  1.3614 -0.6373
 5419SOL     OW27892   3.653   4.222   7.380 -0.0699 -0.3820  0.1362
 5419SOL    HW127893   3.732   4.170   7.368 -0.6322 -1.4589  1.1475
 5419SOL    HW227894   3.590   4.157   7.346 -1.2362  1.1689 -0.7021
 5420SOL     OW27895   3.353   0.191   5.925  0.0175  0.0942  0.3645
 5420SOL    HW127896   3.309   0.237   5.853  2.0973  0.1591 -0.8623
 5420SOL    HW227897   3.430   0.164   5.876  1.3421  2.2646  1.2552
 5421SOL     OW27898   3.861   0.748   7.116 -0.0658  0.3961 -0.1807
 5421SOL    HW127899   3.793   0.789   7.170 -0.6491  0.7275 -1.1738
 5421SOL    HW227900   3.855   0.663   7.160  2.2398  1.2924  1.8940
 5422SOL     OW27901   0.952   2.526  16.483 -0.1081  0.4077 -0.4214
 5422SOL    HW127902   1.038   2.514  16.525  0.1080  1.2995 -0.6059
 5422SOL    HW227903   0.903   2.513  16.564 -0.7936 -1.1694 -1.0967
 5423SOL     OW27904   0.164   4.206   5.771 -0.5189  0.3887 -0.1775
 5423SOL    HW127905   0.155   4.172   5.860  1.1107 -0.1806 -0.2274
 5423SOL    HW227906   0.183   4.298   5.787 -1.4543  0.6468 -0.5410
 5424SOL     OW27907   4.617   1.886  17.206 -0.1264  0.1561  0.3690
 5424SOL    HW127908   4.585   1.799  17.227 -0.6960  0.4019  0.5259
 5424SOL    HW227909   4.581   1.926  17.285 -0.7933 -1.2846  0.7748
 5425SOL     OW27910   3.790   3.577  10.257 -0.9542 -1.0702 -0.1277
 5425SOL    HW127911   3.742   3.617  10.185 -0.9721  0.8576  0.9513
 5425SOL    HW227912   3.844   3.652  10.280  1.2749 -2.5034 -0.6828
 5426SOL     OW27913   2.663   2.400  11.032 -0.0037  0.1785  0.1881
 5426SOL    HW127914   2.665   2.472  11.096  3.8875 -1.8428  2.3214
 5426SOL    HW227915   2.756   2.384  11.019  0.4646  2.8082  0.3242
 5427SOL     OW27916   1.846   0.288   8.860 -0.2381  0.0200  0.9415
 5427SOL    HW127917   1.900   0.265   8.785 -1.4958 -0.6488  0.2377
 5427SOL    HW227918   1.882   0.369   8.895  1.3665 -1.0777  1.8459
 5428SOL     OW27919   3.130   4.586   7.983  0.1976 -0.3676 -0.2160
 5428SOL    HW127920   3.108   4.499   8.014  1.1093 -0.8925 -1.0615
 5428SOL    HW227921   3.211   4.613   8.025  0.7657 -1.1750 -0.8137
 5429SOL     OW27922   3.199   1.376   8.322 -0.4376 -0.1550  0.1145
 5429SOL    HW127923   3.113   1.411   8.301 -0.2921 -0.0866 -0.3507
 5429SOL    HW227924   3.179   1.323   8.400  2.6292 -0.4451  0.6979
 5430SOL     OW27925   2.603   1.436   7.979  0.6738  0.0881 -0.2142
 5430SOL    HW127926   2.544   1.365   8.004  0.5617  0.0197 -0.6822
 5430SOL    HW227927   2.640   1.474   8.059  2.0843 -0.4942 -0.5942
 5431SOL     OW27928   2.025   4.076   6.496 -0.0773  0.5888  0.0461
 5431SOL    HW127929   2.076   4.156   6.485  1.6278 -0.6988 -1.4637
 5431SOL    HW227930   2.037   4.025   6.416 -0.3681  0.8654 -0.1719
 5432SOL     OW27931   1.255   1.295  14.639  0.6006  0.3706 -0.6127
 5432SOL    HW127932   1.239   1.271  14.731  0.6487  0.2628 -0.6334
 5432SOL    HW227933   1.300   1.378  14.654 -0.8156  1.6820 -3.5216
 5433SOL     OW27934   2.974   3.215   8.164  0.6331 -0.4071  0.1883
 5433SOL    HW127935   3.064   3.216   8.196  0.5533  2.0074  0.3614
 5433SOL    HW227936   2.981   3.223   8.069 -0.2993 -0.5249  0.1058
 5434SOL     OW27937   0.950   4.630  14.537 -0.4929  0.3140 -0.1083
 5434SOL    HW127938   0.886   4.590  14.478 -0.3207  0.7324 -0.5839
 5434SOL    HW227939   1.007   4.556  14.555  1.7585  1.5563 -2.1240
 5435SOL     OW27940   1.608   2.111   4.172  0.5983  0.1939  0.3517
 5435SOL    HW127941   1.612   2.041   4.237  3.5031  2.0036  2.0844
 5435SOL    HW227942   1.634   2.189   4.221  0.3365 -0.3378  1.3321
 5436SOL     OW27943   3.270   2.756  13.055  0.5970 -0.3844 -0.9287
 5436SOL    HW127944   3.351   2.720  13.090  0.3379 -0.7426 -0.6880
 5436SOL    HW227945   3.209   2.683  13.061 -1.2343  1.0819 -1.5270
 5437SOL     OW27946   2.005   3.870   4.153  0.5780 -0.7424 -0.8605
 5437SOL    HW127947   2.090   3.906   4.129  0.1509  2.3980  2.2926
 5437SOL    HW227948   2.013   3.860   4.248  0.6824 -2.5154 -1.0629
 5438SOL     OW27949   0.806   3.065  13.025  0.7908 -0.5124 -0.0521
 5438SOL    HW127950   0.763   3.091  12.943  0.0291 -0.8175  0.2582
 5438SOL    HW227951   0.822   3.150  13.066 -2.9101 -0.2761  0.8543
 5439SOL     OW27952   2.321   4.014   7.303 -0.3245 -0.1700 -0.1632
 5439SOL    HW127953   2.229   4.003   7.278 -1.0941  0.7879  2.2339
 5439SOL    HW227954   2.325   4.065   7.384  0.5823 -2.3905  1.1972
 5440SOL     OW27955   2.315   4.573   8.001  0.1949 -0.3855 -0.5722
 5440SOL    HW127956   2.391   4.625   7.975 -1.6556  1.0469 -3.1198
 5440SOL    HW227957   2.313   4.526   7.918  0.0829 -1.6874  0.1740
 5441SOL     OW27958   3.979   0.440  12.096  0.3177 -0.2568  0.6261
 5441SOL    HW127959   3.933   0.369  12.052 -1.6151  1.5750 -0.2943
 5441SOL    HW227960   3.954   0.422  12.186 -0.2997 -1.7359  0.1477
 5442SOL     OW27961   3.193   4.305   4.501 -0.5898  0.4746 -0.5216
 5442SOL    HW127962   3.214   4.353   4.581  0.3440 -1.4258  0.3619
 5442SOL    HW227963   3.225   4.361   4.430  2.1941 -0.1685  0.2232
 5443SOL     OW27964   0.064   0.837   1.861  0.0216  0.0263 -0.0348
 5443SOL    HW127965   0.055   0.763   1.801 -1.7244  0.7446 -0.6559
 5443SOL    HW227966   0.001   0.897   1.821  2.2389  2.1846 -0.2736
 5444SOL     OW27967   2.568   3.333  16.846 -0.1254 -0.2834  0.0514
 5444SOL    HW127968   2.482   3.360  16.878  0.1926 -0.1273  0.7678
 5444SOL    HW227969   2.556   3.360  16.755  0.1639  0.8842  0.3724
 5445SOL     OW27970   2.915   2.102   3.057  0.7007  0.8774  0.5646
 5445SOL    HW127971   2.862   2.172   3.093  0.5781  0.8377  0.4627
 5445SOL    HW227972   2.893   2.025   3.110  1.8606  0.3359  0.2625
 5446SOL     OW27973   0.398   0.881  16.568 -0.5260  0.2949 -0.0164
 5446SOL    HW127974   0.459   0.818  16.529 -0.8390 -0.7404  1.1661
 5446SOL    HW227975   0.350   0.899  16.487  0.3846 -0.5669 -0.7596
 5447SOL     OW27976   2.007   4.531  13.893  0.5104 -0.2984 -0.6342
 5447SOL    HW127977   1.983   4.565  13.980 -0.6812 -2.3576 -0.1761
 5447SOL    HW227978   2.068   4.459  13.909  2.3704  0.9877 -1.9756
 5448SOL     OW27979   3.605   0.076   8.237  0.4742  0.3652 -0.1534
 5448SOL    HW127980   3.521   0.098   8.278 -1.0535  0.6415 -3.4094
 5448SOL    HW227981   3.659   0.050   8.312  0.4305 -1.3950 -0.7270
 5449SOL     OW27982   3.585   2.278   6.754  0.0586 -0.5835 -0.5921
 5449SOL    HW127983   3.669   2.269   6.709 -0.8331  2.9209 -2.9517
 5449SOL    HW227984   3.529   2.218   6.705 -1.2835  0.6976 -0.6599
 5450SOL     OW27985   2.391   3.203   3.973  0.3916  0.1429 -0.0592
 5450SOL    HW127986   2.483   3.225   3.988  0.1268  0.9355  0.3818
 5450SOL    HW227987   2.351   3.282   3.936  0.5279  0.4175  0.3855
 5451SOL     OW27988   2.165   2.225   6.175 -0.3456 -0.3293  0.1842
 5451SOL    HW127989   2.223   2.157   6.140  0.6572 -0.0055  1.2144
 5451SOL    HW227990   2.165   2.215   6.270 -0.3739 -1.2205  0.0927
 5452SOL     OW27991   2.784   3.770   8.581  0.1047  0.2893 -0.1169
 5452SOL    HW127992   2.702   3.729   8.555 -0.4924  3.5416 -3.1760
 5452SOL    HW227993   2.755   3.851   8.623  0.6839 -0.5161  1.8691
 5453SOL     OW27994   1.847   4.489   4.204  0.2194 -0.1358 -0.0677
 5453SOL    HW127995   1.935   4.461   4.176  0.6366  0.7867  0.3226
 5453SOL    HW227996   1.869   4.579   4.225 -1.8880  0.3279  0.0863
 5454SOL     OW27997   4.689   1.827   5.611  0.2300 -0.4635 -0.4604
 5454SOL    HW127998   4.632   1.893   5.651 -1.1138 -0.9095 -1.6303
 5454SOL    HW227999   0.029   1.884   5.604  0.4914 -0.6257  0.9791
 5455SOL     OW28000   3.752   3.676   1.579 -0.3052  0.3358  0.2522
 5455SOL    HW128001   3.711   3.747   1.629  0.8577  0.2502  1.3199
 5455SOL    HW228002   3.676   3.629   1.544 -0.4801 -0.3121  1.5015
 5456SOL     OW28003   3.481   2.355  13.350 -0.2266  0.2631  0.5612
 5456SOL    HW128004   3.530   2.301  13.412 -1.2310 -0.2523  0.9191
 5456SOL    HW228005   3.451   2.288  13.289  0.2260  1.8732 -1.4054
 5457SOL     OW28006   1.697   1.987   2.406  0.6981  0.4706  0.2693
 5457SOL    HW128007   1.683   1.894   2.421 -0.3890  0.5824 -0.0006
 5457SOL    HW228008   1.728   2.024   2.488  1.7850 -0.6339  0.3517
 5458SOL     OW28009   0.443   1.760   4.622  0.0445 -0.7463 -0.2112
 5458SOL    HW128010   0.400   1.803   4.547 -0.7629  0.9784  1.2361
 5458SOL    HW228011   0.410   1.821   4.689  0.0730 -0.5469 -0.3775
 5459SOL     OW28012   3.374   2.531   9.005 -0.2088 -0.1161 -0.5842
 5459SOL    HW128013   3.430   2.595   9.049 -0.1703 -0.8000  0.3811
 5459SOL    HW228014   3.375   2.458   9.067  2.8944 -0.1089 -0.6132
 5460SOL     OW28015   1.425   4.182   4.842  0.1337  0.2551 -0.7024
 5460SOL    HW128016   1.406   4.242   4.914 -3.5839  2.2848 -3.3772
 5460SOL    HW228017   1.361   4.112   4.857  0.1091  0.6486  0.9690
 5461SOL     OW28018   0.603   3.649  11.946 -0.2102  0.3496 -0.1356
 5461SOL    HW128019   0.625   3.656  11.853  1.5958 -0.4715  0.2339
 5461SOL    HW228020   0.513   3.616  11.945 -0.5209  1.2551 -2.3131
 5462SOL     OW28021   3.534   2.803  13.874 -0.0463  0.4082  0.5441
 5462SOL    HW128022   3.570   2.741  13.811  1.8712  0.8404  1.2032
 5462SOL    HW228023   3.480   2.855  13.815 -1.6829 -0.0227  1.6626
 5463SOL     OW28024   2.458   4.620   6.899  0.0848  0.0756  0.4129
 5463SOL    HW128025   2.471   4.526   6.890 -1.9365  0.0126 -1.9309
 5463SOL    HW228026   2.530   4.661   6.852 -0.1895 -1.1286 -1.0596
 5464SOL     OW28027   2.212   0.039   3.482  0.3691 -0.0049  0.7588
 5464SOL    HW128028   2.202   0.098   3.557  1.1575 -1.4429  2.0083
 5464SOL    HW228029   2.273   4.711   3.519  0.9553 -0.0074 -0.2138
 5465SOL     OW28030   0.450   2.025   2.528  0.4517 -0.2908  0.0536
 5465SOL    HW128031   0.471   1.977   2.448 -1.1539  1.6021 -1.4970
 5465SOL    HW228032   0.508   1.983   2.592  0.9173  0.9540  0.4626
 5466SOL     OW28033   0.121   2.521  14.359 -0.2579  0.2493 -0.1219
 5466SOL    HW128034   0.183   2.484  14.296 -2.4007 -1.6319 -1.1030
 5466SOL    HW228035   0.112   2.607  14.318  1.1259  1.8336  2.9485
 5467SOL     OW28036   3.403   4.650   9.495 -0.2732 -0.3950 -0.0668
 5467SOL    HW128037   3.453   4.598   9.558  1.6284 -2.0965 -2.9602
 5467SOL    HW228038   3.441   4.626   9.410 -0.0838 -2.8770  0.7106
 5468SOL     OW28039   4.278   4.110   9.136  0.5310 -0.0516  0.1273
 5468SOL    HW128040   4.344   4.059   9.090 -0.3388  0.1124 -1.3149
 5468SOL    HW228041   4.238   4.040   9.189 -0.4313  0.0257 -0.4974
 5469SOL     OW28042   3.809   0.927   7.901 -0.3898  0.0579 -0.2190
 5469SOL    HW128043   3.847   0.991   7.961  0.3598  0.1185 -0.7696
 5469SOL    HW228044   3.876   0.908   7.835 -1.9996 -1.1021 -1.5356
 5470SOL     OW28045   0.497   0.170  16.819 -0.0454 -0.0177  0.0803
 5470SOL    HW128046   0.452   0.086  16.819  2.6236 -1.4286 -0.1845
 5470SOL    HW228047   0.426   0.231  16.796 -1.7010 -1.2258  2.0459
 5471SOL     OW28048   2.933   0.659   6.779  0.0961  0.0948  0.3414
 5471SOL    HW128049   3.018   0.618   6.762 -0.2394 -0.3690 -0.2149
 5471SOL    HW228050   2.875   0.583   6.767  1.5085 -0.7295 -1.3167
 5472SOL     OW28051   2.054   4.409   5.730  0.3280  0.3132 -0.4393
 5472SOL    HW128052   2.113   4.338   5.755 -1.0844 -0.3922  0.9405
 5472SOL    HW228053   2.082   4.439   5.644 -1.3597  0.1634 -1.0313
 5473SOL     OW28054   2.284   1.627   2.938  0.5581  0.7802  0.1763
 5473SOL    HW128055   2.222   1.606   3.009  0.8641 -0.1852  0.1633
 5473SOL    HW228056   2.365   1.581   2.962  0.0272 -0.8002 -1.0432
 5474SOL     OW28057   2.098   0.772   4.952 -0.4983 -0.0140 -0.6320
 5474SOL    HW128058   2.173   0.712   4.954  0.3372  1.1034  1.4411
 5474SOL    HW228059   2.140   0.857   4.947 -1.0889  0.4388  2.0774
 5475SOL     OW28060   1.514   0.230   2.874 -0.7658 -0.4694  0.2521
 5475SOL    HW128061   1.541   0.160   2.814  2.1017  0.6174  0.2610
 5475SOL    HW228062   1.542   0.188   2.956 -0.2823 -1.0606 -0.2084
 5476SOL     OW28063   3.549   4.710   2.286 -0.1999  0.0369  0.1649
 5476SOL    HW128064   3.510   0.062   2.287 -2.2940 -0.8591 -2.3916
 5476SOL    HW228065   3.636   4.724   2.251 -0.5326 -0.6318 -0.9041
 5477SOL     OW28066   3.247   3.487   7.166  0.1424 -0.1145 -0.2231
 5477SOL    HW128067   3.189   3.562   7.150  1.9197  1.2777 -0.2102
 5477SOL    HW228068   3.199   3.443   7.237 -2.3452  1.1514 -1.0979
 5478SOL     OW28069   1.923   3.883   7.493 -0.2910 -0.3396 -0.1472
 5478SOL    HW128070   1.844   3.856   7.540  0.8947 -1.2241  1.3224
 5478SOL    HW228071   1.920   3.977   7.477  0.0683 -0.3418 -0.2225
 5479SOL     OW28072   1.870   2.375   2.211 -0.1773 -0.0513 -0.2895
 5479SOL    HW128073   1.889   2.281   2.213  0.8576  0.1906  0.6861
 5479SOL    HW228074   1.806   2.379   2.282  0.2567 -2.4033  0.2438
 5480SOL     OW28075   4.201   1.777   1.207 -0.1726  0.1137  0.3915
 5480SOL    HW128076   4.293   1.798   1.225 -0.1319  0.3129 -0.0595
 5480SOL    HW228077   4.210   1.740   1.119 -0.3027 -0.9763  0.8347
 5481SOL     OW28078   2.526   4.518  10.038 -0.2145  0.2106  0.4587
 5481SOL    HW128079   2.473   4.563  10.103  0.9766  1.6815  0.4124
 5481SOL    HW228080   2.513   4.565   9.956 -1.5385 -0.6692  0.1675
 5482SOL     OW28081   0.906   1.387   2.831 -0.3975 -0.6934  0.2011
 5482SOL    HW128082   0.816   1.366   2.806  0.1232 -1.9317 -0.6764
 5482SOL    HW228083   0.957   1.317   2.788 -0.7006 -1.0736  0.4620
 5483SOL     OW28084   3.746   3.240   8.662 -0.1383  0.9045  0.4515
 5483SOL    HW128085   3.673   3.259   8.603 -0.7755 -0.7397  0.7166
 5483SOL    HW228086   3.732   3.309   8.726 -2.5176 -1.1136  2.0701
 5484SOL     OW28087   4.285   3.733   3.926  0.6580 -0.4177 -0.4790
 5484SOL    HW128088   4.305   3.782   4.006 -2.3204 -0.6449  0.3925
 5484SOL    HW228089   4.229   3.665   3.963  1.1793 -0.5095  0.1407
 5485SOL     OW28090   0.433   0.430  11.743 -0.5698 -0.3900  0.4628
 5485SOL    HW128091   0.440   0.402  11.834  1.5624 -1.0171  0.1134
 5485SOL    HW228092   0.347   0.392  11.727 -1.3536  0.7219  2.1552
 5486SOL     OW28093   4.319   1.394   3.288 -0.5067  0.0809 -0.0171
 5486SOL    HW128094   4.255   1.324   3.274 -0.7782  0.2703  0.2597
 5486SOL    HW228095   4.288   1.452   3.218 -1.5158 -0.1443  0.2331
 5487SOL     OW28096   1.378   0.228   3.889 -0.2169  0.4228  0.2861
 5487SOL    HW128097   1.392   0.218   3.795 -0.6493 -1.3475  0.4264
 5487SOL    HW228098   1.283   0.218   3.893 -0.0103 -1.1559  1.2560
 5488SOL     OW28099   4.099   2.893  13.255  0.0331 -0.1233  0.3378
 5488SOL    HW128100   4.048   2.886  13.174  2.1528  0.4805 -1.0398
 5488SOL    HW228101   4.097   2.808  13.300 -1.0235 -1.1602 -1.6675
 5489SOL     OW28102   4.217   3.186   9.534 -0.1041 -0.0023  0.1667
 5489SOL    HW128103   4.278   3.254   9.561  0.3831 -0.7942  1.0839
 5489SOL    HW228104   4.204   3.213   9.443 -0.6951  1.1062  0.5824
 5490SOL     OW28105   3.583   1.017   5.554 -0.0128 -0.0246  0.6281
 5490SOL    HW128106   3.551   0.947   5.611 -0.2721 -0.7265 -0.3946
 5490SOL    HW228107   3.621   0.960   5.488  0.0066  0.5112  0.1797
 5491SOL     OW28108   4.140   3.535   3.584  0.0768 -0.1840  0.0855
 5491SOL    HW128109   4.115   3.465   3.645 -2.3945  1.9465  1.5119
 5491SOL    HW228110   4.078   3.604   3.605  1.5519  1.6295 -1.5186
 5492SOL     OW28111   0.715   2.356   2.838  0.4240  0.1178  0.0705
 5492SOL    HW128112   0.761   2.277   2.809 -1.8561 -0.8620 -0.8693
 5492SOL    HW228113   0.628   2.315   2.843  0.3841  0.4661  2.1420
 5493SOL     OW28114   4.223   1.740   0.745 -0.4767  0.2780  0.3548
 5493SOL    HW128115   4.264   1.802   0.806 -0.9285  0.7191  0.2179
 5493SOL    HW228116   4.294   1.682   0.718 -0.4710 -0.1030  1.2069
 5494SOL     OW28117   2.528   3.051   3.096 -0.2226 -0.2252 -0.3377
 5494SOL    HW128118   2.504   3.079   3.008 -3.1477  0.8591  0.7769
 5494SOL    HW228119   2.440   3.053   3.135  0.8193  2.1754  1.9268
 5495SOL     OW28120   1.588   3.711   7.913 -0.3086  0.0496 -0.5810
 5495SOL    HW128121   1.547   3.797   7.910  0.3721  0.4378  0.9887
 5495SOL    HW228122   1.642   3.715   7.992  3.0363  0.0862 -2.8554
 5496SOL     OW28123   0.543   2.470   8.990  0.3444  0.3869 -0.1791
 5496SOL    HW128124   0.622   2.417   8.993  0.2095  0.1447 -0.9679
 5496SOL    HW228125   0.527   2.487   8.898 -0.9106  0.0268 -0.0278
 5497SOL     OW28126   2.600   2.360   7.530 -0.0054 -0.0480  0.2037
 5497SOL    HW128127   2.660   2.340   7.602  1.8411 -0.4504 -1.4748
 5497SOL    HW228128   2.638   2.318   7.454 -2.4858  1.4577 -1.8713
 5498SOL     OW28129   0.081   3.545   7.912  0.2186 -0.2406  0.6871
 5498SOL    HW128130   0.034   3.624   7.883  1.0406 -0.0055 -0.0343
 5498SOL    HW228131   0.058   3.490   7.837 -0.1141 -0.2305  0.7813
 5499SOL     OW28132   3.417   4.095   1.763  0.4490  0.2264  0.4339
 5499SOL    HW128133   3.393   4.126   1.676 -0.9322  0.7727  1.0122
 5499SOL    HW228134   3.480   4.161   1.792 -0.6041  1.3545  0.1523
 5500SOL     OW28135   2.964   3.331  13.527 -0.0167  0.1781  0.5423
 5500SOL    HW128136   2.920   3.415  13.540 -1.1987 -0.4226  0.3513
 5500SOL    HW228137   3.041   3.362  13.480 -0.1668  0.7547  0.6801
 5501SOL     OW28138   0.081   0.504   5.573  0.1835  0.4894  0.1244
 5501SOL    HW128139   4.730   0.470   5.598  0.0008 -0.2841 -1.5477
 5501SOL    HW228140   0.114   0.523   5.660 -1.4612 -0.5486  0.9790
 5502SOL     OW28141   3.803   3.447   9.261  0.1085  0.5191 -0.5556
 5502SOL    HW128142   3.854   3.454   9.180  1.6429 -0.6872  0.3116
 5502SOL    HW228143   3.862   3.397   9.318  0.1414  1.8040  0.5328
 5503SOL     OW28144   3.548   0.835   3.261  0.3533  0.0948 -0.1357
 5503SOL    HW128145   3.509   0.863   3.345 -1.0936 -0.8105 -0.5139
 5503SOL    HW228146   3.625   0.892   3.266 -0.3663  1.3905 -3.7557
 5504SOL     OW28147   1.233   3.009   3.485 -0.5293  0.0287  0.4703
 5504SOL    HW128148   1.276   2.927   3.461 -0.1062  0.0834  1.0483
 5504SOL    HW228149   1.245   2.994   3.579  0.1331  0.5242  0.4573
 5505SOL     OW28150   4.041   4.495  11.162 -0.3175  0.2498 -0.4837
 5505SOL    HW128151   4.102   4.428  11.194 -0.4416  1.2189  1.8265
 5505SOL    HW228152   4.010   4.543  11.239  0.4594 -2.4774  1.5193
 5506SOL     OW28153   2.478   0.797   9.508  0.0195 -0.0630 -0.2428
 5506SOL    HW128154   2.450   0.846   9.431  1.7543 -2.4399 -2.3651
 5506SOL    HW228155   2.395   0.783   9.553 -0.6471 -1.0644 -1.8073
 5507SOL     OW28156   2.043   2.057   5.136 -0.8214  0.4703 -0.1136
 5507SOL    HW128157   2.051   2.110   5.057 -0.1500 -1.3432 -1.2805
 5507SOL    HW228158   1.977   1.991   5.113 -0.3197 -0.1185  0.1125
 5508SOL     OW28159   1.967   4.709  17.299  0.1993  0.2935 -0.1812
 5508SOL    HW128160   2.059   0.001  17.298  0.0343  0.8311 -0.1644
 5508SOL    HW228161   1.969   4.624  17.256  0.3901  0.3835 -0.3497
 5509SOL     OW28162   4.716   1.009   4.453 -0.2171 -0.0933  0.3820
 5509SOL    HW128163   4.621   0.995   4.448  0.1910 -3.2686  1.4125
 5509SOL    HW228164   0.001   0.985   4.543 -0.3461 -0.4203  0.3238
 5510SOL     OW28165   3.574   4.662   4.786 -0.2874 -0.0175 -0.0148
 5510SOL    HW128166   3.516   4.646   4.860  0.8626 -1.6896  0.5360
 5510SOL    HW228167   3.523   4.650   4.706 -0.8770  1.6361  0.1201
 5511SOL     OW28168   0.897   4.217   3.138  0.2848 -0.0933 -0.1839
 5511SOL    HW128169   0.819   4.271   3.124 -0.1536 -0.3105  1.4376
 5511SOL    HW228170   0.865   4.128   3.154  1.6280 -0.1787  1.9932
 5512SOL     OW28171   3.894   1.527  13.948 -0.1786 -0.5264  0.7082
 5512SOL    HW128172   3.830   1.521  13.877  0.4713  1.2314 -0.0098
 5512SOL    HW228173   3.831   1.557  14.013 -0.2022  1.0212 -0.0481
 5513SOL     OW28174   2.169   3.564  17.593  0.5087 -0.2407 -0.5968
 5513SOL    HW128175   2.094   3.572  17.652  0.1519  0.9343 -1.2019
 5513SOL    HW228176   2.244   3.590  17.647 -0.8794  1.0529  0.7212
 5514SOL     OW28177   1.580   4.182   8.573  0.5425  0.0098  0.0685
 5514SOL    HW128178   1.590   4.209   8.482  0.3360  1.7322  0.5541
 5514SOL    HW228179   1.601   4.261   8.622  0.1798 -0.4381  0.9373
 5515SOL     OW28180   4.007   0.722   3.191  0.2456 -0.6794  0.2022
 5515SOL    HW128181   3.961   0.640   3.208 -0.4515 -0.3406 -0.0602
 5515SOL    HW228182   3.970   0.779   3.258 -0.8228  0.8441 -1.6581
 5516SOL     OW28183   1.814   2.793   7.293 -0.1954  0.3303  0.4653
 5516SOL    HW128184   1.831   2.884   7.318 -0.2095  1.2814 -2.9169
 5516SOL    HW228185   1.785   2.752   7.374 -0.8503 -1.2795 -0.5745
 5517SOL     OW28186   1.062   0.083   3.324 -1.0175  0.4561  0.0967
 5517SOL    HW128187   1.150   0.109   3.353 -0.4600  0.2141 -1.4097
 5517SOL    HW228188   1.043   0.167   3.283  1.7735  1.6198  1.1661
 5518SOL     OW28189   3.626   2.028   6.192  0.5858  0.2169 -0.3745
 5518SOL    HW128190   3.605   2.117   6.221 -2.7375  0.0116 -2.1923
 5518SOL    HW228191   3.722   2.027   6.183  0.4797 -1.9505 -1.3323
 5519SOL     OW28192   4.132   3.312   7.627 -0.0359  0.2368  0.2101
 5519SOL    HW128193   4.075   3.372   7.580  0.5829 -0.2240 -1.1410
 5519SOL    HW228194   4.112   3.232   7.577 -2.9859  1.6439 -0.8377
 5520SOL     OW28195   2.499   3.964   8.627 -0.2680 -0.4880  0.5281
 5520SOL    HW128196   2.458   3.974   8.713  1.8333 -1.6474  1.6700
 5520SOL    HW228197   2.565   4.034   8.623 -0.9786  0.0381 -2.1638
 5521SOL     OW28198   2.720   4.625  17.273  0.2387  0.2372  0.0050
 5521SOL    HW128199   2.758   4.711  17.254  0.9366  0.2668  1.5071
 5521SOL    HW228200   2.790   4.567  17.243  0.2682 -1.0713  2.6191
 5522SOL     OW28201   0.202   1.182   8.122  0.5372  0.3657 -0.2274
 5522SOL    HW128202   0.297   1.184   8.108  0.1986 -1.7623 -2.8730
 5522SOL    HW228203   0.190   1.096   8.081 -1.9228  0.7350 -0.2398
 5523SOL     OW28204   2.333   3.115   9.885 -0.1645 -0.3279 -0.1289
 5523SOL    HW128205   2.412   3.166   9.864 -1.0682  0.9260 -0.4931
 5523SOL    HW228206   2.353   3.026   9.857  1.6143 -0.1494  0.5646
 5524SOL     OW28207   4.105   1.299   1.157 -0.4769 -0.0480 -0.5376
 5524SOL    HW128208   4.045   1.335   1.091 -0.6269 -0.2940 -0.5361
 5524SOL    HW228209   4.094   1.355   1.234  2.4120 -1.2331  0.7072
 5525SOL     OW28210   1.243   1.634   1.846 -0.0630  0.4732 -0.3410
 5525SOL    HW128211   1.171   1.583   1.809  0.4077  0.7925 -1.7244
 5525SOL    HW228212   1.217   1.662   1.934 -0.3892 -0.6052 -0.0990
 5526SOL     OW28213   0.882   0.297  11.848  0.0317  0.2238  0.0298
 5526SOL    HW128214   0.910   0.370  11.793  2.0144 -0.0226  0.6810
 5526SOL    HW228215   0.812   0.272  11.789  1.6078 -1.4083 -1.1671
 5527SOL     OW28216   0.235   1.936   1.207 -0.1695  0.1399  0.5771
 5527SOL    HW128217   0.279   2.007   1.161 -0.9181  0.5483  0.4794
 5527SOL    HW228218   0.307   1.920   1.268 -1.1134 -2.1793  1.0613
 5528SOL     OW28219   1.311   3.921   2.719  0.3878  0.1416 -0.2847
 5528SOL    HW128220   1.361   3.852   2.763 -0.8067 -0.7075 -0.2428
 5528SOL    HW228221   1.380   3.978   2.686  0.0618  0.8952  0.3319
 5529SOL     OW28222   2.083   2.000   2.653  0.6707 -0.1845 -0.2983
 5529SOL    HW128223   2.048   1.953   2.577  0.5481 -2.9206  1.4192
 5529SOL    HW228224   2.135   2.064   2.604  1.4202  1.8536  3.1760
 5530SOL     OW28225   1.030   2.824   2.301 -0.0496  0.0150 -0.6861
 5530SOL    HW128226   1.089   2.868   2.240  0.8071 -0.0248  0.1101
 5530SOL    HW228227   0.959   2.889   2.303 -1.4339 -1.5758  1.4346
 5531SOL     OW28228   0.716   3.803   2.435  0.1784  0.0740 -0.6272
 5531SOL    HW128229   0.740   3.889   2.468  1.2217 -0.6266  0.4261
 5531SOL    HW228230   0.760   3.802   2.350  0.9048 -0.2634 -0.2488
 5532SOL     OW28231   1.241   1.116   5.823 -0.1821 -0.5931  0.4222
 5532SOL    HW128232   1.327   1.138   5.788 -1.0767  2.2728  0.0604
 5532SOL    HW228233   1.204   1.201   5.843 -0.1616 -0.8628  1.5939
 5533SOL     OW28234   1.274   4.582   5.498 -0.2726 -0.1010 -0.1153
 5533SOL    HW128235   1.261   4.488   5.489  2.5620 -0.3574 -1.5313
 5533SOL    HW228236   1.251   4.594   5.590  1.4951  0.8626  0.2095
 5534SOL     OW28237   4.718   3.806   2.907 -0.1657  0.4144  0.2369
 5534SOL    HW128238   0.076   3.817   2.924 -0.1455 -3.2212  2.5717
 5534SOL    HW228239   4.709   3.787   2.814  0.1698 -1.8406  0.6792
 5535SOL     OW28240   1.775   1.741  14.611  0.1545 -0.1443  0.0342
 5535SOL    HW128241   1.784   1.743  14.516 -2.0277 -0.0022 -0.1831
 5535SOL    HW228242   1.684   1.772  14.615 -0.0689 -0.7620 -0.2223
 5536SOL     OW28243   4.372   4.171  12.761 -0.0280 -0.2236 -0.2983
 5536SOL    HW128244   4.281   4.158  12.735 -0.2540  0.2655  0.2512
 5536SOL    HW228245   4.415   4.119  12.693 -1.6189 -1.8224 -0.1000
 5537SOL     OW28246   3.934   0.924   5.411 -0.1428  0.1005  0.0687
 5537SOL    HW128247   3.851   0.875   5.409 -0.3923  0.6156 -1.8911
 5537SOL    HW228248   3.989   0.856   5.450  1.3562  1.1823 -0.1703
 5538SOL     OW28249   3.872   2.391  11.877  0.5442  0.1689 -0.1704
 5538SOL    HW128250   3.954   2.429  11.847  0.8692 -0.6846 -0.3587
 5538SOL    HW228251   3.890   2.380  11.970 -0.3367 -0.8871 -0.1231
 5539SOL     OW28252   0.241   3.653   8.502 -0.0369  0.4170  0.0850
 5539SOL    HW128253   0.305   3.721   8.522  0.9426 -0.7682  0.9452
 5539SOL    HW228254   0.284   3.616   8.425 -1.0910  2.1142 -1.3452
 5540SOL     OW28255   1.198   4.679   2.003 -0.5522  0.5051 -0.4319
 5540SOL    HW128256   1.285   4.690   2.040  0.6266  1.9841 -3.6627
 5540SOL    HW228257   1.138   4.663   2.076  0.6936  1.2034  0.7473
 5541SOL     OW28258   2.643   1.076  14.878 -0.2162  0.1820  0.2266
 5541SOL    HW128259   2.621   0.986  14.853  0.4687 -0.4501  1.8748
 5541SOL    HW228260   2.706   1.060  14.948 -0.7050 -0.6852  0.4639
 5542SOL     OW28261   1.646   0.682  17.355 -0.8854 -0.4456  0.2543
 5542SOL    HW128262   1.643   0.776  17.337  0.4879 -0.4610 -0.1148
 5542SOL    HW228263   1.642   0.650  17.265 -1.4777 -1.2145  0.5566
 5543SOL     OW28264   0.210   3.199   7.554 -0.1560  0.3684  0.2868
 5543SOL    HW128265   0.150   3.243   7.614  0.9662  0.4985  1.3402
 5543SOL    HW228266   0.223   3.117   7.603  0.5429 -0.2258 -0.8987
 5544SOL     OW28267   0.233   1.722   5.853 -0.2816  0.5398  0.2325
 5544SOL    HW128268   0.271   1.653   5.799 -1.1690 -0.4072  0.8017
 5544SOL    HW228269   0.161   1.749   5.797 -1.6567  1.0367  2.2373
 5545SOL     OW28270   4.368   3.085   4.741 -0.3696  0.5773 -0.2701
 5545SOL    HW128271   4.441   3.086   4.679  0.7836 -2.9975  1.0530
 5545SOL    HW228272   4.305   3.024   4.702  0.2026  0.9834 -1.8478
 5546SOL     OW28273   0.979   4.380   6.094 -0.0957  0.2609 -0.0487
 5546SOL    HW128274   0.900   4.430   6.115 -0.4737 -1.2489  2.1123
 5546SOL    HW228275   1.031   4.439   6.039  1.4147  0.5038  1.6639
 5547SOL     OW28276   2.576   1.969   3.919 -0.3997 -0.2103 -0.7902
 5547SOL    HW128277   2.670   1.953   3.917 -0.6439 -1.6276 -0.8551
 5547SOL    HW228278   2.556   1.939   3.831 -1.4284  0.0294 -0.6406
 5548SOL     OW28279   3.256   3.590   5.958  0.5295  0.7265 -0.0687
 5548SOL    HW128280   3.253   3.497   5.937  1.3115  0.4000  1.2263
 5548SOL    HW228281   3.317   3.593   6.032 -0.0098 -1.5395  0.4669
 5549SOL     OW28282   2.927   1.974  11.993 -0.2797  0.1288 -0.5315
 5549SOL    HW128283   2.962   2.061  11.972  0.2893  0.3109  1.1831
 5549SOL    HW228284   2.941   1.931  11.909 -0.6448 -0.6014 -0.2173
 5550SOL     OW28285   2.112   4.058   7.867  0.0262  0.0217  0.0360
 5550SOL    HW128286   2.172   4.086   7.936  0.8050 -0.1552 -0.5730
 5550SOL    HW228287   2.141   3.969   7.847 -0.3493  0.6884 -3.4840
 5551SOL     OW28288   0.115   1.510   8.743 -0.2992  0.1005 -0.4352
 5551SOL    HW128289   0.197   1.497   8.790 -0.7404  1.3200  0.6708
 5551SOL    HW228290   0.150   1.521   8.654  0.9620 -2.6964 -0.3001
 5552SOL     OW28291   1.395   2.577  16.859  0.6657 -0.9796 -0.1414
 5552SOL    HW128292   1.327   2.636  16.827  2.0298 -1.0121 -3.1085
 5552SOL    HW228293   1.462   2.624  16.809 -0.7660 -0.3477 -1.4586
 5553SOL     OW28294   2.871   1.136   7.669 -0.1733 -0.1997 -0.1525
 5553SOL    HW128295   2.962   1.104   7.673 -0.4651 -1.0656 -0.4748
 5553SOL    HW228296   2.896   1.219   7.627  0.2110 -0.2589 -0.0428
 5554SOL     OW28297   1.740   0.857   7.481 -0.0690  0.7535  0.1009
 5554SOL    HW128298   1.732   0.873   7.387 -0.3028  0.9393  0.1525
 5554SOL    HW228299   1.650   0.841   7.509  0.9832 -2.8179  1.4877
 5555SOL     OW28300   3.345   0.389   3.305  0.3542 -0.0770 -0.5015
 5555SOL    HW128301   3.310   0.332   3.373 -1.5003  0.3112 -1.1056
 5555SOL    HW228302   3.327   0.469   3.354  1.6599 -0.9473  1.3757
 5556SOL     OW28303   2.140   3.056   3.613  0.3270 -0.5811 -0.7336
 5556SOL    HW128304   2.214   2.996   3.610  0.8982 -0.0471  2.9904
 5556SOL    HW228305   2.114   3.048   3.705  1.4037  1.6373 -0.2323
 5557SOL     OW28306   3.082   1.057   9.037 -0.4960 -0.0191  0.0062
 5557SOL    HW128307   3.156   1.085   8.983  0.2316 -0.2716  0.8793
 5557SOL    HW228308   3.135   1.030   9.111  0.3584  2.0259  0.1606
 5558SOL     OW28309   4.692   2.600   2.617 -0.2537 -0.1343  0.2304
 5558SOL    HW128310   4.604   2.585   2.653  0.4471 -1.6472  1.3197
 5558SOL    HW228311   4.686   2.682   2.568 -0.1936  0.2045  0.7794
 5559SOL     OW28312   2.044   2.369   8.243  0.0866  0.7212 -0.0972
 5559SOL    HW128313   2.130   2.383   8.281  1.6051 -3.2132 -2.1723
 5559SOL    HW228314   2.029   2.454   8.200 -1.7200 -0.4039 -1.7086
 5560SOL     OW28315   2.277   3.100  12.981  0.2837  0.4224  0.6536
 5560SOL    HW128316   2.367   3.082  13.009  0.1049 -1.3300  0.1549
 5560SOL    HW228317   2.236   3.013  12.981  2.3479 -0.5698  0.2786
 5561SOL     OW28318   4.218   2.734  14.882  0.0401  0.4623  0.3175
 5561SOL    HW128319   4.187   2.817  14.918  0.1523  1.1684 -1.2276
 5561SOL    HW228320   4.185   2.744  14.793 -0.8709 -0.2023  0.5812
 5562SOL     OW28321   1.826   2.137   5.891  0.7830  0.0301 -0.2353
 5562SOL    HW128322   1.866   2.209   5.843  2.0527  1.7045  3.3010
 5562SOL    HW228323   1.753   2.190   5.922  0.9206  1.1621 -1.8460
 5563SOL     OW28324   3.382   2.697   2.790 -0.1706 -0.0475  0.1512
 5563SOL    HW128325   3.391   2.608   2.755  1.1699 -0.0341  0.4718
 5563SOL    HW228326   3.395   2.664   2.879  2.4726 -0.2224 -0.2945
 5564SOL     OW28327   2.583   4.422   2.194  0.0499  0.2931  0.1517
 5564SOL    HW128328   2.516   4.463   2.138 -0.4685 -0.6939  0.0443
 5564SOL    HW228329   2.526   4.421   2.271  0.5274 -1.0715  0.4840
 5565SOL     OW28330   0.457   0.917  15.696  0.5955  0.7583 -0.0523
 5565SOL    HW128331   0.440   0.912  15.602 -2.6320  0.4217  0.5384
 5565SOL    HW228332   0.499   0.833  15.714 -1.2270  0.3875  2.4060
 5566SOL     OW28333   2.805   4.125   3.042  0.3686 -0.7054 -0.3497
 5566SOL    HW128334   2.832   4.194   2.981 -0.7161  1.5665  1.7279
 5566SOL    HW228335   2.850   4.144   3.124 -1.4400  2.0844  0.0172
 5567SOL     OW28336   1.579   1.113   4.168 -0.1484 -0.4631 -0.5324
 5567SOL    HW128337   1.622   1.195   4.193 -1.0937 -0.2991  0.5808
 5567SOL    HW228338   1.485   1.134   4.168  0.4412  2.1832  2.2670
 5568SOL     OW28339   1.627   4.733   5.225 -0.3309 -0.7436 -0.0203
 5568SOL    HW128340   1.614   4.640   5.208 -2.6901 -0.2598 -0.8124
 5568SOL    HW228341   1.600   0.039   5.143  2.2881  1.0414 -0.0033
 5569SOL     OW28342   0.189   3.342   3.580  0.1141  0.3578  0.4941
 5569SOL    HW128343   0.225   3.308   3.498 -0.0379  1.1257  0.1079
 5569SOL    HW228344   0.210   3.270   3.639  0.2149  1.2237  1.5046
 5570SOL     OW28345   1.644   2.506  12.463  0.7258 -0.0088 -0.1228
 5570SOL    HW128346   1.668   2.478  12.375 -1.7387 -1.2787 -0.4055
 5570SOL    HW228347   1.655   2.601  12.459 -2.7747  0.3547 -1.4101
 5571SOL     OW28348   4.462   2.673  11.577 -0.2641 -0.1088  0.2404
 5571SOL    HW128349   4.399   2.613  11.538 -0.8123  0.6004  0.0345
 5571SOL    HW228350   4.526   2.685  11.507 -2.6472 -2.1212 -2.2906
 5572SOL     OW28351   1.464   3.039   9.811 -0.0154  0.3885  0.4956
 5572SOL    HW128352   1.372   3.036   9.837  0.5246  0.8128  2.4187
 5572SOL    HW228353   1.495   3.102   9.875 -2.4991  2.2845 -0.1801
 5573SOL     OW28354   2.223   1.281  15.036 -0.2977  0.4301  0.3180
 5573SOL    HW128355   2.142   1.294  14.987 -1.4868  0.1340  2.1938
 5573SOL    HW228356   2.221   1.186  15.052  1.4515  0.5227  1.0964
 5574SOL     OW28357   2.328   2.930   1.977  0.7968  0.2371 -0.2106
 5574SOL    HW128358   2.273   2.929   2.055 -0.0167  1.1820 -0.7662
 5574SOL    HW228359   2.400   2.868   1.988  1.0542  0.4494 -0.6972
 5575SOL     OW28360   0.311   1.561   7.337 -0.1538 -0.0064  0.3418
 5575SOL    HW128361   0.241   1.617   7.301 -1.7851 -1.8836  0.6058
 5575SOL    HW228362   0.356   1.524   7.262  1.1817  2.8529 -0.2769
 5576SOL     OW28363   1.006   4.486   9.052 -0.8080  1.1610 -0.7765
 5576SOL    HW128364   1.010   4.536   8.970 -0.2877  0.3297 -1.2613
 5576SOL    HW228365   0.912   4.476   9.068 -0.5767  1.9134  1.0159
 5577SOL     OW28366   0.047   2.370   2.437 -0.1690  0.0456 -0.0187
 5577SOL    HW128367   4.711   2.427   2.464  0.0846  0.1734  0.3850
 5577SOL    HW228368   0.031   2.341   2.347  0.7943  0.2725 -0.2652
 5578SOL     OW28369   0.375   2.014   9.686  0.3400 -0.0186 -0.3189
 5578SOL    HW128370   0.437   1.942   9.669  0.6585  0.0195  0.6820
 5578SOL    HW228371   0.424   2.083   9.641  0.5395  0.1144  0.1053
 5579SOL     OW28372   1.436   1.398  12.737 -0.7571  0.3210  0.0471
 5579SOL    HW128373   1.364   1.363  12.790 -1.8912 -0.0684 -1.7518
 5579SOL    HW228374   1.479   1.460  12.796  0.3508  0.7675 -1.2515
 5580SOL     OW28375   4.529   0.047  10.261 -0.2451 -0.3249 -0.5705
 5580SOL    HW128376   4.565   0.136  10.264 -3.3555  0.9241  0.3653
 5580SOL    HW228377   4.597   4.721  10.234  1.1043  0.5714  0.7849
 5581SOL     OW28378   2.055   0.455   8.056 -0.4361  0.3249  0.8789
 5581SOL    HW128379   2.019   0.392   7.994  0.5445 -0.6083  1.2444
 5581SOL    HW228380   2.000   0.532   8.045  1.1538  1.0622 -1.9382
 5582SOL     OW28381   3.130   0.992   3.930 -0.6663 -0.5381  0.0794
 5582SOL    HW128382   3.072   0.947   3.992  2.0207 -0.6956  2.4736
 5582SOL    HW228383   3.217   0.962   3.957 -0.4714 -1.2694 -1.3693
 5583SOL     OW28384   2.980   0.901   7.950  0.7655  0.5391 -0.5819
 5583SOL    HW128385   2.910   0.954   7.988  0.0198 -0.1485 -1.0214
 5583SOL    HW228386   2.933   0.824   7.920  2.1587 -0.6231  0.2138
 5584SOL     OW28387   2.569   0.674  15.805 -0.1691  0.6065  0.7047
 5584SOL    HW128388   2.578   0.755  15.856  0.9562  1.9031 -1.5531
 5584SOL    HW228389   2.512   0.708  15.736  2.1345  1.1538 -0.9322
 5585SOL     OW28390   1.303   1.590   1.359  0.4609  0.1705 -0.1537
 5585SOL    HW128391   1.373   1.643   1.397  1.2648 -1.6504  0.9198
 5585SOL    HW228392   1.298   1.617   1.267  1.8871  0.2304 -0.2131
 5586SOL     OW28393   1.143   2.400  10.042  0.1616 -0.7532 -1.0428
 5586SOL    HW128394   1.097   2.345  10.106  0.3753  0.3414  0.0532
 5586SOL    HW228395   1.235   2.393  10.068 -0.5397 -2.9436  0.8760
 5587SOL     OW28396   3.676   0.501   2.995 -0.0974  0.2970 -0.8546
 5587SOL    HW128397   3.616   0.444   3.043  0.2394  0.9657  0.3301
 5587SOL    HW228398   3.749   0.510   3.056 -0.0939  0.3599 -0.8685
 5588SOL     OW28399   0.773   2.027  11.873 -0.2545  0.0647  0.5252
 5588SOL    HW128400   0.678   2.029  11.866 -0.2183 -0.9678 -0.3433
 5588SOL    HW228401   0.798   2.090  11.806  1.1035 -0.1526  0.8244
 5589SOL     OW28402   4.185   0.586   0.837  0.2151 -0.2874 -0.5397
 5589SOL    HW128403   4.161   0.648   0.906  1.1481 -2.3873  1.6390
 5589SOL    HW228404   4.101   0.558   0.800  0.6025  1.2053 -2.5333
 5590SOL     OW28405   1.950   2.165   9.370  0.1184 -0.1506  0.7058
 5590SOL    HW128406   1.897   2.086   9.357  1.2433 -0.6248 -1.0378
 5590SOL    HW228407   1.941   2.174   9.465  0.3494  0.3685  0.6783
 5591SOL     OW28408   0.190   1.700  15.287  0.1780  0.3516 -0.1160
 5591SOL    HW128409   0.111   1.708  15.340  0.8697 -1.3943  1.1951
 5591SOL    HW228410   0.219   1.610  15.300  0.6865  0.9405  3.0174
 5592SOL     OW28411   3.724   0.042  13.611 -0.3436 -0.4912  0.6397
 5592SOL    HW128412   3.723   0.046  13.706  0.4554  1.4774  0.5751
 5592SOL    HW228413   3.635   0.011  13.600  0.7675 -2.6660 -2.2588
 5593SOL     OW28414   2.828   3.022   3.514  0.0942  0.3281  0.1354
 5593SOL    HW128415   2.811   2.943   3.565  0.7382  0.3891  0.4427
 5593SOL    HW228416   2.784   2.995   3.433 -2.2190  2.0177  0.8188
 5594SOL     OW28417   1.548   1.169   9.571  0.5936 -0.1184 -0.4364
 5594SOL    HW128418   1.553   1.236   9.640 -0.9576 -0.7800  0.3057
 5594SOL    HW228419   1.469   1.204   9.530  1.5353  3.3108  0.6219
 5595SOL     OW28420   1.999   2.404  13.788 -0.0071  0.6115 -0.7589
 5595SOL    HW128421   1.912   2.368  13.768  0.2908  0.0518 -1.0395
 5595SOL    HW228422   1.973   2.468  13.855 -1.1467  0.4061 -1.0076
 5596SOL     OW28423   1.569   0.544   2.158 -0.2062  0.0283  0.0324
 5596SOL    HW128424   1.586   0.493   2.238 -0.7358 -0.3772 -0.1197
 5596SOL    HW228425   1.656   0.577   2.134 -0.0596 -0.2843  0.1300
 5597SOL     OW28426   0.345   2.289   3.919 -0.3261  0.4545  0.7160
 5597SOL    HW128427   0.258   2.281   3.958  0.9999 -1.0460  3.4022
 5597SOL    HW228428   0.358   2.382   3.902 -1.0835  0.6111  0.9826
 5598SOL     OW28429   4.193   3.654   1.588 -0.0681 -0.0969 -0.2680
 5598SOL    HW128430   4.134   3.699   1.528  0.2854  0.4119 -0.2365
 5598SOL    HW228431   4.203   3.565   1.554 -2.4251 -0.5296  0.2028
 5599SOL     OW28432   3.569   1.466  12.574 -0.1280 -0.0862 -0.3777
 5599SOL    HW128433   3.534   1.515  12.649  1.3167  1.3196 -0.6284
 5599SOL    HW228434   3.578   1.374  12.598 -0.7000  0.5456  2.3136
 5600SOL     OW28435   3.664   1.860  11.039 -0.2993  0.8285 -0.0918
 5600SOL    HW128436   3.708   1.933  10.996 -3.1089  2.6272  0.1073
 5600SOL    HW228437   3.626   1.898  11.117 -0.9672  0.0404 -0.0320
 5601SOL     OW28438   1.333   3.398   6.182  0.2229 -0.1307 -0.3699
 5601SOL    HW128439   1.246   3.367   6.208 -0.1945 -0.3376 -1.9589
 5601SOL    HW228440   1.345   3.467   6.246  1.2595  0.0412 -0.7477
 5602SOL     OW28441   0.355   2.571   6.780 -0.3492  0.4083  0.1224
 5602SOL    HW128442   0.352   2.512   6.704  1.3275 -1.6044  1.6556
 5602SOL    HW228443   0.339   2.513   6.854  0.6304  1.6956  1.3210
 5603SOL     OW28444   0.613   1.830   0.497 -0.3220  0.3354  0.8627
 5603SOL    HW128445   0.585   1.798   0.582  0.9685 -0.8092  0.8513
 5603SOL    HW228446   0.624   1.743   0.459 -1.0969 -0.1506  1.7579
 5604SOL     OW28447   3.612   1.023   7.755  0.1789 -0.2441  0.0479
 5604SOL    HW128448   3.554   0.948   7.751  0.1333 -0.2711  1.0634
 5604SOL    HW228449   3.684   0.987   7.807 -0.4046  0.3149  1.2600
 5605SOL     OW28450   1.036   1.069   4.890  0.2291 -0.3267 -0.1761
 5605SOL    HW128451   0.968   1.137   4.890  2.4423  1.8380  1.4904
 5605SOL    HW228452   1.107   1.117   4.931 -0.4110  0.0914  0.4473
 5606SOL     OW28453   4.671   3.189  13.840 -0.3251 -0.2859 -0.1235
 5606SOL    HW128454   4.639   3.272  13.876 -1.5196  0.6254 -3.2904
 5606SOL    HW228455   4.665   3.129  13.914 -0.3770 -1.2955 -0.9519
 5607SOL     OW28456   0.635   0.123   6.229  0.2223 -0.2467  0.5230
 5607SOL    HW128457   0.546   0.097   6.207  0.3855 -1.0715  0.8399
 5607SOL    HW228458   0.619   0.179   6.305 -0.8623  1.1218 -0.7075
 5608SOL     OW28459   3.833   1.683   6.024  0.0613 -0.5610  0.6351
 5608SOL    HW128460   3.790   1.690   6.110  0.5769  3.7101  0.5416
 5608SOL    HW228461   3.764   1.693   5.958 -0.4944  0.8593  1.4148
 5609SOL     OW28462   2.431   0.072   4.809 -0.5934  0.1657  0.4226
 5609SOL    HW128463   2.351   0.117   4.837 -0.6659  0.1267  0.2769
 5609SOL    HW228464   2.397   4.719   4.802 -0.1891 -0.0447  1.0486
 5610SOL     OW28465   3.020   4.253  10.534 -0.1415  0.4753 -0.2147
 5610SOL    HW128466   3.068   4.202  10.600 -0.6144  2.4437  1.6621
 5610SOL    HW228467   2.951   4.290  10.590 -0.1024 -0.1128  0.2257
 5611SOL     OW28468   4.144   1.118   3.876 -0.1924  0.8059 -0.2655
 5611SOL    HW128469   4.191   1.039   3.904  0.1052  1.5214  1.2316
 5611SOL    HW228470   4.115   1.156   3.958  0.2209 -4.1453  2.1888
 5612SOL     OW28471   3.309   0.292   7.987  0.1190 -0.0746  0.1051
 5612SOL    HW128472   3.390   0.325   8.026 -0.5460  0.5556  0.9344
 5612SOL    HW228473   3.262   0.259   8.063 -0.8621 -1.5778 -1.1496
 5613SOL     OW28474   4.696   2.787   0.439  0.1523  0.1729 -0.5769
 5613SOL    HW128475   4.716   2.747   0.355  0.0216  0.5286 -0.7735
 5613SOL    HW228476   4.610   2.819   0.412  0.4524 -0.0990 -1.8505
 5614SOL     OW28477   1.110   1.605   0.536 -0.1489  0.6383 -0.1042
 5614SOL    HW128478   1.163   1.677   0.503  1.1785 -0.6509 -0.7793
 5614SOL    HW228479   1.056   1.650   0.601  0.6863  1.0100  0.3355
 5615SOL     OW28480   1.377   1.910   9.584 -0.6245  1.0158  0.3767
 5615SOL    HW128481   1.322   1.981   9.618 -1.9516 -0.7650  1.8747
 5615SOL    HW228482   1.459   1.947   9.617 -0.2331 -0.9387  1.6022
 5616SOL     OW28483   4.367   0.727   8.534  0.0839  0.1761 -0.2565
 5616SOL    HW128484   4.371   0.662   8.605 -0.8469  0.7772  0.3606
 5616SOL    HW228485   4.408   0.677   8.464  1.3044  0.6596  0.1235
 5617SOL     OW28486   0.754   4.059  13.976 -0.2363 -0.4878 -0.3678
 5617SOL    HW128487   0.662   4.037  13.994 -0.4776  1.2553  0.5371
 5617SOL    HW228488   0.790   3.979  14.013  0.4787  0.6042  1.3261
 5618SOL     OW28489   1.550   1.550  14.747  0.7426  0.1599 -0.0825
 5618SOL    HW128490   1.457   1.551  14.724  0.7745  0.7038 -0.1799
 5618SOL    HW228491   1.584   1.631  14.711  0.7720  0.5293  0.7782
 5619SOL     OW28492   1.996   4.209   2.945 -0.1906  0.2273 -0.2861
 5619SOL    HW128493   1.946   4.140   2.990  0.0481  0.9465  1.0645
 5619SOL    HW228494   2.066   4.227   3.007 -2.1145 -0.2404  2.0468
 5620SOL     OW28495   4.691   2.304   6.082  0.3167  0.1692 -0.8444
 5620SOL    HW128496   0.044   2.340   6.089 -0.3665  1.4391  1.4314
 5620SOL    HW228497   4.656   2.299   6.171  0.4319 -0.3465 -0.8298
 5621SOL     OW28498   3.535   2.160  11.828  0.2064 -0.9354  0.2305
 5621SOL    HW128499   3.459   2.110  11.857  0.1161 -0.9025  0.0480
 5621SOL    HW228500   3.522   2.251  11.855 -1.3354 -1.7987  2.4079
 5622SOL     OW28501   4.632   4.158   5.328  0.1957 -0.4098 -0.6708
 5622SOL    HW128502   4.666   4.104   5.256  1.5791  0.5521 -0.7505
 5622SOL    HW228503   4.689   4.232   5.306 -0.5322  0.0965 -0.8481
 5623SOL     OW28504   3.004   0.647  12.685 -0.4103  0.0785 -0.4791
 5623SOL    HW128505   2.949   0.724  12.702  0.5851  0.7463 -0.2679
 5623SOL    HW228506   2.973   0.597  12.760 -1.4742 -0.5066 -1.3211
 5624SOL     OW28507   3.249   4.026   8.742  0.4017 -0.2836 -0.6956
 5624SOL    HW128508   3.303   3.978   8.804 -1.3608 -1.3402  0.0271
 5624SOL    HW228509   3.172   4.031   8.799  0.8261 -2.6582  0.0722
 5625SOL     OW28510   0.297   2.358   9.682 -0.6129  0.2888  0.5686
 5625SOL    HW128511   0.372   2.332   9.629  1.0498  0.9622  2.5806
 5625SOL    HW228512   0.221   2.351   9.624 -1.2320  0.9748  1.2917
 5626SOL     OW28513   2.579   2.439   0.278 -0.4269  0.0886  0.1185
 5626SOL    HW128514   2.498   2.487   0.264 -0.7397 -0.8752 -1.4022
 5626SOL    HW228515   2.578   2.438   0.374 -0.9050  1.3452  0.1204
 5627SOL     OW28516   3.091   1.503  12.562 -0.1913 -0.1596 -0.0924
 5627SOL    HW128517   3.023   1.533  12.622 -0.1447  1.4265 -0.7990
 5627SOL    HW228518   3.081   1.553  12.480  2.3251  1.9455  0.8962
 5628SOL     OW28519   3.309   2.821   6.375 -0.6490  0.3685 -1.0139
 5628SOL    HW128520   3.397   2.849   6.353 -0.9395  1.1775 -1.1529
 5628SOL    HW228521   3.281   2.755   6.312  0.6360 -2.4437  1.3328
 5629SOL     OW28522   0.122   0.264  17.113  0.2383 -0.1547 -0.1933
 5629SOL    HW128523   0.201   0.227  17.153  0.5600  1.4013  0.6186
 5629SOL    HW228524   0.098   0.329  17.179  0.8977 -0.8297  0.7134
 5630SOL     OW28525   2.968   1.874   5.539  0.4843  0.7524  0.3481
 5630SOL    HW128526   2.978   1.944   5.604 -2.9893  2.7842 -1.2775
 5630SOL    HW228527   3.051   1.827   5.537 -0.9118 -1.7291  1.0118
 5631SOL     OW28528   2.424   2.038   3.612 -0.1998  0.1770  0.2533
 5631SOL    HW128529   2.424   2.115   3.555 -1.5058 -0.0518 -0.0454
 5631SOL    HW228530   2.350   1.989   3.577  0.4779 -0.6557 -0.0182
 5632SOL     OW28531   2.027   0.534   4.339 -0.7265  0.0943  0.5790
 5632SOL    HW128532   1.951   0.592   4.339 -0.2359  0.7443 -1.6113
 5632SOL    HW228533   1.990   0.447   4.320  1.7213 -0.7333 -0.4154
 5633SOL     OW28534   3.451   1.523   8.348  0.3893 -0.7124 -0.7797
 5633SOL    HW128535   3.497   1.440   8.355 -2.2227 -2.2420 -1.7486
 5633SOL    HW228536   3.365   1.489   8.324 -0.9889  1.8738  0.4021
 5634SOL     OW28537   2.023   3.297   6.084 -0.1837 -0.0593  0.1885
 5634SOL    HW128538   2.114   3.295   6.053 -0.4417  1.0570 -0.6164
 5634SOL    HW228539   2.034   3.297   6.180 -1.6363 -1.3855  0.3562
 5635SOL     OW28540   2.165   2.374   2.296  0.1084 -0.4776 -0.0050
 5635SOL    HW128541   2.102   2.445   2.307  0.7064  0.1746 -0.8233
 5635SOL    HW228542   2.110   2.312   2.344  1.2798 -1.0849  0.5525
 5636SOL     OW28543   2.225   0.552   8.240  0.1202  0.0474  0.1556
 5636SOL    HW128544   2.178   0.631   8.267  2.4175  1.0520  1.2013
 5636SOL    HW228545   2.158   0.498   8.198  0.3799  0.9831 -1.4561
 5637SOL     OW28546   1.364   3.677   9.476  0.6178 -0.0275 -0.0132
 5637SOL    HW128547   1.360   3.680   9.572  0.3665 -0.1278 -0.0221
 5637SOL    HW228548   1.444   3.625   9.469  0.2273 -0.4345 -1.3979
 5638SOL     OW28549   2.503   4.368   6.865  0.5761 -0.4747 -0.1630
 5638SOL    HW128550   2.531   4.299   6.804  1.5368  0.3145 -0.6060
 5638SOL    HW228551   2.419   4.325   6.885  0.7740 -0.8890 -0.2235
 5639SOL     OW28552   3.535   2.094   4.859 -0.5105  0.8156 -0.4853
 5639SOL    HW128553   3.454   2.088   4.910  0.8414  1.8749  1.7488
 5639SOL    HW228554   3.504   2.061   4.774 -3.2909  0.7819  0.5617
 5640SOL     OW28555   2.093   0.753   8.768  0.1395  0.6580 -0.1462
 5640SOL    HW128556   2.146   0.768   8.846 -0.6315 -0.2981  0.5657
 5640SOL    HW228557   2.049   0.837   8.772  0.5907  0.8266  1.1523
 5641SOL     OW28558   1.062   4.623   5.990 -0.1810 -0.1934  0.4463
 5641SOL    HW128559   0.990   4.621   6.053 -0.0817 -1.0304  0.5350
 5641SOL    HW228560   1.096   4.711   6.005 -1.4011  0.9446 -3.4014
 5642SOL     OW28561   0.422   3.769   7.527  0.0841  0.8152 -0.7183
 5642SOL    HW128562   0.468   3.741   7.447  0.1946  0.7333 -0.6260
 5642SOL    HW228563   0.364   3.696   7.548  2.5598 -0.9128  0.1401
 5643SOL     OW28564   2.432   3.850   3.892 -0.0977 -0.0526 -0.1091
 5643SOL    HW128565   2.464   3.814   3.809  1.9632  1.1338  0.1986
 5643SOL    HW228566   2.491   3.813   3.958  1.3799  2.0469 -0.2592
 5644SOL     OW28567   3.119   2.281  13.050  0.1977  0.1271  0.3163
 5644SOL    HW128568   3.200   2.315  13.010  0.1198  1.7523  1.5609
 5644SOL    HW228569   3.122   2.186  13.038  1.0636  0.6176 -3.6816
 5645SOL     OW28570   4.255   4.460   6.253  0.4585 -0.2591  0.0209
 5645SOL    HW128571   4.221   4.547   6.275  0.4614 -0.9131  2.5361
 5645SOL    HW228572   4.344   4.494   6.243  1.4907 -3.8187 -2.8522
 5646SOL     OW28573   1.979   0.214  11.470  0.4268  0.1622 -0.2192
 5646SOL    HW128574   2.070   0.219  11.441 -0.0893  3.8837 -1.1627
 5646SOL    HW228575   1.976   0.119  11.482  0.3635  0.1390 -0.4213
 5647SOL     OW28576   1.472   2.663   6.835 -0.1526  0.0854  0.4468
 5647SOL    HW128577   1.554   2.617   6.853  0.2330 -0.1316 -1.8577
 5647SOL    HW228578   1.507   2.752   6.837  0.0103  0.0579 -0.9513
 5648SOL     OW28579   0.294   1.299   1.589  0.2188  0.1450  0.1387
 5648SOL    HW128580   0.364   1.236   1.570  0.4719  0.0746  1.3121
 5648SOL    HW228581   0.291   1.339   1.503 -1.9029  0.4639  0.3539
 5649SOL     OW28582   4.166   1.939   2.289 -0.0372  0.1865 -0.3481
 5649SOL    HW128583   4.119   1.877   2.234 -1.8484 -0.2645  1.6951
 5649SOL    HW228584   4.109   2.016   2.298  1.9982  1.8619 -1.9248
 5650SOL     OW28585   2.353   1.120  16.222 -0.0109  0.1613  0.0206
 5650SOL    HW128586   2.356   1.029  16.192  1.8455  0.0206  0.6265
 5650SOL    HW228587   2.273   1.124  16.274 -1.5556  1.7434 -2.4894
 5651SOL     OW28588   4.710   0.020   4.878 -0.5891 -0.3916  0.3597
 5651SOL    HW128589   0.043   4.690   4.886 -0.4684 -0.1215  1.6248
 5651SOL    HW228590   4.637   4.715   4.926 -2.3429  0.5398 -1.5223
 5652SOL     OW28591   3.014   3.044   4.179 -0.3571 -0.1077  0.1638
 5652SOL    HW128592   2.921   3.027   4.163 -0.4569  0.5384  0.0365
 5652SOL    HW228593   3.043   2.954   4.188 -3.7586 -1.2754 -0.3983
 5653SOL     OW28594   1.664   1.075  14.954  0.1676  0.1552 -0.6762
 5653SOL    HW128595   1.727   1.066  15.025  0.9288 -0.4451 -1.4269
 5653SOL    HW228596   1.648   0.983  14.933 -2.8514  0.5015  0.1243
 5654SOL     OW28597   0.823   3.828  14.087 -0.2060  0.5775  0.0731
 5654SOL    HW128598   0.743   3.803  14.135  0.7687 -1.7427  0.4550
 5654SOL    HW228599   0.854   3.743  14.057  2.6036  1.5692  0.2307
 5655SOL     OW28600   0.522   3.535   2.122 -0.0776 -0.2998 -0.4174
 5655SOL    HW128601   0.481   3.557   2.206  1.4209 -1.7405  0.6766
 5655SOL    HW228602   0.468   3.591   2.065  0.1736 -0.4788 -0.8329
 5656SOL     OW28603   4.036   3.516   1.132 -0.4314  0.1241  0.5088
 5656SOL    HW128604   3.960   3.460   1.148  0.1877 -0.4540  1.4443
 5656SOL    HW228605   3.988   3.598   1.123 -2.5365 -1.3862 -1.8231
 5657SOL     OW28606   3.442   1.757   2.410 -0.0201  0.1807 -0.7431
 5657SOL    HW128607   3.534   1.782   2.402  0.5971 -1.8575  0.1165
 5657SOL    HW228608   3.409   1.832   2.459 -0.7835 -1.9854  2.0260
 5658SOL     OW28609   3.897   4.395   6.398  0.3642 -0.5000 -0.0237
 5658SOL    HW128610   3.984   4.359   6.413  0.2757 -0.8655 -0.3933
 5658SOL    HW228611   3.878   4.337   6.325 -0.3313  0.9794 -1.0069
 5659SOL     OW28612   0.930   1.726   1.681  0.0104  0.2576  0.1343
 5659SOL    HW128613   0.963   1.696   1.596 -1.9539  1.1638 -0.9629
 5659SOL    HW228614   0.962   1.657   1.738  1.1295  0.9614  0.3380
 5660SOL     OW28615   1.581   3.482   2.498  0.4154  0.0934 -0.6500
 5660SOL    HW128616   1.492   3.458   2.523  0.4892  0.1172 -0.3691
 5660SOL    HW228617   1.562   3.576   2.491  1.2991  0.3907  1.1238
 5661SOL     OW28618   4.277   0.262   7.238 -0.4555  0.9637 -0.3644
 5661SOL    HW128619   4.192   0.271   7.196 -0.2676  0.1271 -0.9233
 5661SOL    HW228620   4.298   0.178   7.197 -0.3473  0.1921  1.2788
 5662SOL     OW28621   1.003   0.222   4.554  0.5166 -0.4386 -0.0978
 5662SOL    HW128622   1.030   0.304   4.595  1.6267 -0.3950 -0.8815
 5662SOL    HW228623   1.074   0.212   4.490 -1.4351  0.4062 -2.3723
 5663SOL     OW28624   3.223   2.030   8.038  0.4809 -0.1444  0.1761
 5663SOL    HW128625   3.312   2.044   8.071  1.3588 -4.3646 -0.3855
 5663SOL    HW228626   3.220   1.938   8.015 -0.9918  0.2663 -1.2160
 5664SOL     OW28627   4.444   3.668   6.004 -0.1302 -0.1486  0.2772
 5664SOL    HW128628   4.449   3.641   6.096  1.7158 -1.0398 -0.0846
 5664SOL    HW228629   4.535   3.657   5.977 -1.0901  0.2403 -3.1507
 5665SOL     OW28630   1.490   3.461  12.850 -0.7364 -0.2809 -0.2643
 5665SOL    HW128631   1.442   3.509  12.917  1.0129  0.3937  0.5222
 5665SOL    HW228632   1.509   3.535  12.792  0.6186  0.1332  0.7040
 5666SOL     OW28633   2.221   4.154   5.401 -0.3482 -0.5332  0.0211
 5666SOL    HW128634   2.231   4.067   5.439 -0.1528  0.5786  2.5288
 5666SOL    HW228635   2.130   4.175   5.419 -0.0760 -0.2556  1.0826
 5667SOL     OW28636   0.423   4.161  10.610  0.5691  0.4317 -0.0929
 5667SOL    HW128637   0.496   4.142  10.670 -1.2954 -2.1521  1.3850
 5667SOL    HW228638   0.357   4.113  10.661  3.2210 -1.0331  2.0036
 5668SOL     OW28639   0.404   3.352  12.136  0.8825 -0.2044  0.3590
 5668SOL    HW128640   0.326   3.298  12.152  0.1201  0.8400  0.1978
 5668SOL    HW228641   0.370   3.436  12.107 -0.1323 -0.6545  0.2288
 5669SOL     OW28642   3.871   4.230   6.150 -0.2345 -0.2131 -0.3982
 5669SOL    HW128643   3.865   4.153   6.094  0.5446  0.0410 -0.8326
 5669SOL    HW228644   3.967   4.233   6.158 -0.1427 -0.8597 -1.2550
 5670SOL     OW28645   4.561   3.632   8.337  0.0389  0.1013  0.0193
 5670SOL    HW128646   4.618   3.597   8.269  1.2247  0.8052  0.6526
 5670SOL    HW228647   4.482   3.639   8.283  0.8220 -0.0130 -1.1457
 5671SOL     OW28648   2.424   4.582   1.976  0.6039 -0.1346  0.2451
 5671SOL    HW128649   2.478   4.573   1.898 -0.5105  1.3977 -0.6919
 5671SOL    HW228650   2.340   4.551   1.942  0.3929  0.0923  0.5655
 5672SOL     OW28651   1.948   2.418   1.792 -0.1378  0.9096  0.2065
 5672SOL    HW128652   1.871   2.443   1.843 -0.4873  1.8973 -0.7775
 5672SOL    HW228653   2.006   2.477   1.840  1.6891 -0.5565 -0.2482
 5673SOL     OW28654   3.239   2.962   1.950 -0.4314 -0.7125 -0.1379
 5673SOL    HW128655   3.155   2.926   1.922 -1.6715  2.5580 -0.6318
 5673SOL    HW228656   3.303   2.959   1.878  2.2393 -1.7216  2.2522
 5674SOL     OW28657   2.578   0.612   8.031 -0.3687  0.3146 -0.5522
 5674SOL    HW128658   2.488   0.618   7.999 -0.3169  2.5080 -0.2500
 5674SOL    HW228659   2.559   0.570   8.115  2.4408 -1.8505 -0.9619
 5675SOL     OW28660   2.701   2.256   9.049 -0.1721 -0.1165  0.2537
 5675SOL    HW128661   2.761   2.214   9.110  1.6673 -0.8717 -2.0670
 5675SOL    HW228662   2.763   2.283   8.981  0.8183  0.9592  1.5901
 5676SOL     OW28663   0.988   3.733   4.211 -0.7745 -0.1889  0.3710
 5676SOL    HW128664   0.978   3.828   4.218 -0.7358  0.0410 -2.5622
 5676SOL    HW228665   0.928   3.727   4.137 -2.9278  0.9228  2.0072
 5677SOL     OW28666   1.257   3.030   2.628  0.4030 -0.2614  0.5389
 5677SOL    HW128667   1.241   2.937   2.646  0.2725 -0.4806 -0.6931
 5677SOL    HW228668   1.171   3.070   2.637  0.2389  0.2327 -3.2571
 5678SOL     OW28669   4.083   1.936   2.642  0.1613  0.0744  0.2839
 5678SOL    HW128670   4.077   1.906   2.733 -0.5429 -1.7210 -0.3651
 5678SOL    HW228671   4.053   1.854   2.603 -0.0112  0.7328 -0.9477
 5679SOL     OW28672   3.004   3.842  16.060 -0.3559  0.4093 -0.1020
 5679SOL    HW128673   2.932   3.800  16.013 -1.1616  0.1892  1.3237
 5679SOL    HW228674   3.067   3.770  16.054 -0.1152  0.4877  1.4145
 5680SOL     OW28675   2.942   2.075  16.406 -0.0221 -0.2564  0.0148
 5680SOL    HW128676   2.937   1.998  16.349 -2.5065  0.7840 -1.1830
 5680SOL    HW228677   2.873   2.045  16.465  2.5083 -1.7717  2.1571
 5681SOL     OW28678   3.984   3.939   2.718 -0.5026  0.7656  0.5189
 5681SOL    HW128679   3.897   3.931   2.757 -0.3621  1.1313  0.9015
 5681SOL    HW228680   4.040   3.888   2.776 -0.9923  1.5380  1.6754
 5682SOL     OW28681   3.113   2.682   6.544 -0.1349 -0.3380 -0.7465
 5682SOL    HW128682   3.184   2.724   6.495  1.4213 -1.7357  0.3095
 5682SOL    HW228683   3.152   2.604   6.585  1.8930  1.5857  1.0173
 5683SOL     OW28684   2.923   2.642   9.979  0.3785  0.1440 -0.2675
 5683SOL    HW128685   2.876   2.581   9.922  1.7584 -2.9327  1.8905
 5683SOL    HW228686   3.009   2.606   9.997  0.7668  0.7095 -0.9820
 5684SOL     OW28687   1.271   2.623  11.436 -0.6030  0.1657  0.1486
 5684SOL    HW128688   1.344   2.602  11.494 -0.1357  0.1169 -0.4471
 5684SOL    HW228689   1.308   2.600  11.350 -0.6621  0.3119  0.0843
 5685SOL     OW28690   2.121   0.889  13.636  0.0888 -0.6291  0.1094
 5685SOL    HW128691   2.063   0.958  13.606 -0.0332 -0.6694  0.2528
 5685SOL    HW228692   2.066   0.815  13.610  0.3489 -1.5791  2.2012
 5686SOL     OW28693   4.168   1.118   7.410  0.1565  0.4362 -0.0046
 5686SOL    HW128694   4.228   1.155   7.475  0.7310 -1.8948  0.7933
 5686SOL    HW228695   4.091   1.125   7.466  0.3438  1.0525  0.1728
 5687SOL     OW28696   2.760   1.105   3.463 -0.0906 -0.1639 -0.0692
 5687SOL    HW128697   2.760   1.013   3.489  0.5373 -0.6723 -1.8351
 5687SOL    HW228698   2.764   1.139   3.552  0.0700 -0.9471  0.2276
 5688SOL     OW28699   0.978   2.315   0.073  0.1060 -0.2156  0.4059
 5688SOL    HW128700   1.069   2.301   0.049  0.2069 -0.3694  0.8816
 5688SOL    HW228701   0.940   2.322  17.727  2.0205  1.2647 -0.2920
 5689SOL     OW28702   2.822   3.731  17.091 -0.2257 -0.0227  0.1112
 5689SOL    HW128703   2.760   3.659  17.103  0.7323 -0.8520  0.1113
 5689SOL    HW228704   2.895   3.684  17.050 -2.6662 -2.3962 -1.4499
 5690SOL     OW28705   0.503   0.929   8.162  0.0791 -0.1602  0.2302
 5690SOL    HW128706   0.443   0.930   8.237 -0.5786  3.3139 -0.3213
 5690SOL    HW228707   0.524   1.022   8.159  0.1141 -0.1228  1.7095
 5691SOL     OW28708   1.351   3.595   6.377  0.6876  0.2149  0.2234
 5691SOL    HW128709   1.365   3.626   6.467  0.6057  1.4091 -0.1798
 5691SOL    HW228710   1.346   3.680   6.333  0.9237  0.7279  1.1785
 5692SOL     OW28711   3.068   2.896   9.844 -0.4318 -0.8410 -0.5777
 5692SOL    HW128712   3.034   2.825   9.900 -2.1111  0.6104  0.2597
 5692SOL    HW228713   3.108   2.948   9.914 -0.8815  1.5648 -2.1372
 5693SOL     OW28714   3.170   1.472   5.882 -0.0290 -0.1886  0.0275
 5693SOL    HW128715   3.185   1.511   5.968 -0.9069  2.1343 -0.8431
 5693SOL    HW228716   3.208   1.387   5.901  0.4281 -0.0424 -0.2377
 5694SOL     OW28717   2.674   1.592   9.282  0.1243  0.1587  0.5430
 5694SOL    HW128718   2.635   1.678   9.267 -0.1682 -0.0542  0.0692
 5694SOL    HW228719   2.712   1.575   9.195 -2.8278  0.6046 -0.8324
 5695SOL     OW28720   4.400   3.355   1.302 -0.2748  0.0456 -0.0167
 5695SOL    HW128721   4.392   3.433   1.357 -0.3365 -0.7028  1.0413
 5695SOL    HW228722   4.311   3.322   1.311  0.3286 -1.0455  1.9076
 5696SOL     OW28723   0.710   0.817   7.298 -0.0059  0.1762 -0.0467
 5696SOL    HW128724   0.705   0.847   7.388  1.9599  0.1923  0.0549
 5696SOL    HW228725   0.676   0.728   7.309  0.2565 -0.2129 -2.4091
 5697SOL     OW28726   1.705   0.801  13.299  0.4807  0.0533  0.2367
 5697SOL    HW128727   1.786   0.753  13.314 -1.6029 -3.2328  0.9290
 5697SOL    HW228728   1.651   0.741  13.249  2.6209 -2.5597  1.0982
 5698SOL     OW28729   2.355   2.815   6.567 -0.2063  0.4763 -0.3975
 5698SOL    HW128730   2.387   2.735   6.609  3.1119  2.9634  1.8042
 5698SOL    HW228731   2.428   2.834   6.508  1.0727 -0.7507  0.7881
 5699SOL     OW28732   0.521   1.082   3.577  0.3858 -0.3689  0.0421
 5699SOL    HW128733   0.488   1.148   3.515  1.6904  2.1984  2.0738
 5699SOL    HW228734   0.478   1.110   3.658 -0.1792  1.6790 -0.9476
 5700SOL     OW28735   0.055   2.023   4.243 -0.4847  0.1010  0.3391
 5700SOL    HW128736   0.041   1.996   4.152  0.2292 -1.9090  0.8112
 5700SOL    HW228737   4.723   1.964   4.277  1.4837 -2.4546 -0.1536
 5701SOL     OW28738   3.217   0.470  16.367 -0.0724  0.1846  0.0881
 5701SOL    HW128739   3.263   0.550  16.341  0.9950  0.6475  3.3423
 5701SOL    HW228740   3.123   0.485  16.375 -0.6198 -2.1109 -1.8853
 5702SOL     OW28741   0.487   1.089   2.402 -0.1623 -0.3264 -0.3978
 5702SOL    HW128742   0.452   1.076   2.491 -0.2312 -0.2792 -0.4175
 5702SOL    HW228743   0.429   1.023   2.363 -0.4886  0.2589 -0.8932
 5703SOL     OW28744   0.787   1.730   4.918 -0.1371 -0.2687 -0.1555
 5703SOL    HW128745   0.828   1.756   5.001 -1.3713  0.3776  0.2613
 5703SOL    HW228746   0.700   1.707   4.953  1.1379 -1.4949  2.2300
 5704SOL     OW28747   3.196   2.178  12.461 -0.5072 -0.0689  0.2662
 5704SOL    HW128748   3.282   2.164  12.502 -0.2689  0.2185 -0.1342
 5704SOL    HW228749   3.131   2.155  12.528  0.1912  1.7763  1.5819
 5705SOL     OW28750   4.437   2.327   1.750  0.1157  0.1152 -0.2540
 5705SOL    HW128751   4.344   2.352   1.754 -0.2728 -1.5602  1.7374
 5705SOL    HW228752   4.481   2.409   1.731 -2.7707  1.9174  0.8163
 5706SOL     OW28753   2.814   0.232   2.591  0.5108 -0.2308 -0.4123
 5706SOL    HW128754   2.838   0.155   2.641 -0.5207 -0.5981 -0.4871
 5706SOL    HW228755   2.897   0.272   2.565  0.2312  0.3858 -0.3533
 5707SOL     OW28756   0.272   3.989   8.485  0.3283 -0.2850  0.0581
 5707SOL    HW128757   0.189   3.967   8.443 -0.1687 -2.9901  2.4617
 5707SOL    HW228758   0.332   3.929   8.441  0.6173  0.8786 -1.1234
 5708SOL     OW28759   1.525   0.038   9.779  0.5317  0.7972 -0.2379
 5708SOL    HW128760   1.580   0.109   9.811 -0.0049  1.2310 -0.2664
 5708SOL    HW228761   1.598   4.726   9.740  0.3724  0.3712 -0.0164
 5709SOL     OW28762   1.880   3.082   2.955  0.2326 -0.2479 -0.3106
 5709SOL    HW128763   1.821   3.141   3.001  0.0815 -0.5798 -0.0726
 5709SOL    HW228764   1.859   3.111   2.867  0.6625 -0.2705 -0.4206
 5710SOL     OW28765   1.891   2.095   2.829  0.5623 -0.4372  0.2998
 5710SOL    HW128766   1.948   2.050   2.767 -0.8197 -0.5192 -0.9172
 5710SOL    HW228767   1.818   2.108   2.768 -1.0743 -1.3273  2.0694
 5711SOL     OW28768   2.346   0.119   7.233  0.2574  0.1380  0.2056
 5711SOL    HW128769   2.325   0.026   7.232 -1.2130  0.4574  1.7107
 5711SOL    HW228770   2.274   0.142   7.174  0.7556  1.8605  0.2676
 5712SOL     OW28771   1.592   1.770   8.711  0.3103 -0.4324 -0.2408
 5712SOL    HW128772   1.532   1.844   8.719  0.3494 -0.3477 -0.7382
 5712SOL    HW228773   1.576   1.734   8.624 -1.6846  1.2431 -0.5799
 5713SOL     OW28774   0.722   3.696   6.922 -0.0345 -0.8932 -0.1392
 5713SOL    HW128775   0.640   3.716   6.877  0.9229 -0.3520 -1.6165
 5713SOL    HW228776   0.727   3.600   6.919 -0.8483 -0.9163 -0.5592
 5714SOL     OW28777   1.418   3.476  11.161  0.0830 -0.2394 -0.6356
 5714SOL    HW128778   1.328   3.447  11.146  0.1980 -0.1231 -1.5277
 5714SOL    HW228779   1.417   3.497  11.255 -1.3303  0.9535 -0.9062
 5715SOL     OW28780   0.184   2.721  15.800  0.0185  0.2926  0.6741
 5715SOL    HW128781   0.206   2.643  15.748  1.9978  1.1584  0.2186
 5715SOL    HW228782   0.209   2.704  15.890  1.6418  0.8708  0.3278
 5716SOL     OW28783   4.101   2.117   6.575  0.0391 -0.2013 -1.2103
 5716SOL    HW128784   4.071   2.082   6.660 -3.0764  0.2636 -2.1338
 5716SOL    HW228785   4.086   2.038   6.523 -1.0763  0.9670 -2.6587
 5717SOL     OW28786   2.762   0.961   4.598 -0.0110 -0.1530  0.2170
 5717SOL    HW128787   2.683   0.922   4.559  0.6120 -1.9414  0.7676
 5717SOL    HW228788   2.724   1.034   4.647 -1.2575 -0.7994  0.2125
 5718SOL     OW28789   3.150   1.978   4.749 -0.1562 -0.7244 -0.5229
 5718SOL    HW128790   3.207   1.913   4.791  2.4969  0.8514 -1.6688
 5718SOL    HW228791   3.065   1.952   4.783 -0.8261  1.1361 -0.7994
 5719SOL     OW28792   2.212   3.296   4.498  0.0606 -0.6778  0.4656
 5719SOL    HW128793   2.192   3.351   4.422 -0.3619  1.1070  1.8603
 5719SOL    HW228794   2.297   3.337   4.510 -0.8286  0.7484  1.9617
 5720SOL     OW28795   3.240   1.152   3.254  0.2587 -0.7254 -0.1775
 5720SOL    HW128796   3.218   1.241   3.282  0.8155 -0.2364 -1.2799
 5720SOL    HW228797   3.168   1.110   3.300  0.9572  1.5411  3.0312
 5721SOL     OW28798   2.127   0.965   2.120  0.0576 -0.1611  0.0666
 5721SOL    HW128799   2.066   0.995   2.187  0.7127  2.2510 -0.3869
 5721SOL    HW228800   2.142   1.046   2.070  1.8643 -0.0331  0.7918
 5722SOL     OW28801   0.974   0.657  17.658  0.8038 -0.1080  0.0585
 5722SOL    HW128802   1.019   0.582  17.618  2.8914  1.9323 -1.3819
 5722SOL    HW228803   1.048   0.716  17.662  3.4633 -3.1452 -3.5944
 5723SOL     OW28804   2.908   2.808   9.593  0.5378  0.2742  0.0443
 5723SOL    HW128805   2.972   2.878   9.600 -0.3888  1.2182 -1.0460
 5723SOL    HW228806   2.965   2.732   9.606  0.8361  0.9271  2.6315
 5724SOL     OW28807   0.288   0.441   2.196  0.2564 -0.3098  0.1897
 5724SOL    HW128808   0.272   0.520   2.248 -1.4010  0.0641 -0.9108
 5724SOL    HW228809   0.263   0.476   2.111  2.9147  0.3435 -0.3098
 5725SOL     OW28810   4.086   1.233   3.541  0.0930 -0.6621  0.0346
 5725SOL    HW128811   4.010   1.281   3.574  0.5426  1.1349 -1.5354
 5725SOL    HW228812   4.056   1.211   3.453 -0.0079 -0.6764  0.0723
 5726SOL     OW28813   1.554   3.329   3.771 -0.0283  0.2810 -0.0727
 5726SOL    HW128814   1.488   3.309   3.838 -0.7140  1.4334 -0.4051
 5726SOL    HW228815   1.609   3.391   3.818 -1.6929 -0.5831  3.0841
 5727SOL     OW28816   3.822   3.080  10.275  0.3743 -0.0856 -0.3868
 5727SOL    HW128817   3.872   3.157  10.246  0.9249 -0.3465 -0.1245
 5727SOL    HW228818   3.736   3.116  10.294  0.2625 -0.8592  0.5869
 5728SOL     OW28819   3.910   0.710   4.020 -0.0504  0.1542  0.5557
 5728SOL    HW128820   3.969   0.657   3.966 -1.8067  0.1864 -1.3567
 5728SOL    HW228821   3.978   0.740   4.081  0.1481 -0.8826  0.8441
 5729SOL     OW28822   4.186   1.263   6.745  0.0323  0.4580  0.1674
 5729SOL    HW128823   4.255   1.237   6.806 -2.1002  2.1332  3.2942
 5729SOL    HW228824   4.233   1.259   6.662 -1.6171 -2.8370 -0.6252
 5730SOL     OW28825   2.886   1.016   2.977 -0.1603  0.7924  0.0841
 5730SOL    HW128826   2.849   1.103   2.962  1.5307  1.4870 -0.0736
 5730SOL    HW228827   2.975   1.047   2.994  0.1829  0.6726 -1.4661
 5731SOL     OW28828   1.874   1.427   7.918 -0.3406  0.5466 -0.1876
 5731SOL    HW128829   1.871   1.434   8.014  1.3783  0.6480 -0.1454
 5731SOL    HW228830   1.828   1.345   7.899  0.4208  0.3459 -1.1756
 5732SOL     OW28831   3.494   4.239   8.813 -0.1893 -0.1285  0.3754
 5732SOL    HW128832   3.414   4.230   8.761  0.7506 -2.4022 -0.6671
 5732SOL    HW228833   3.534   4.308   8.759 -1.2777  1.6216  1.7904
 5733SOL     OW28834   0.567   1.682   0.931 -0.2409 -0.6390  0.3408
 5733SOL    HW128835   0.509   1.659   1.004 -1.1951  0.5423 -0.0540
 5733SOL    HW228836   0.648   1.702   0.978 -0.5294  2.9639 -0.6895
 5734SOL     OW28837   1.594   1.887   1.673  0.4284  0.8850  0.4791
 5734SOL    HW128838   1.557   1.804   1.642  2.3724 -0.1397  0.9254
 5734SOL    HW228839   1.560   1.948   1.607 -1.0714  1.8660  2.1551
 5735SOL     OW28840   1.126   3.473   7.638  0.3394 -0.6184  0.1160
 5735SOL    HW128841   1.058   3.540   7.637  1.2118  0.2760  0.4021
 5735SOL    HW228842   1.204   3.528   7.645 -0.5383  0.6548 -0.1039
 5736SOL     OW28843   2.460   2.316   2.285  0.4671 -0.0640  0.4636
 5736SOL    HW128844   2.461   2.221   2.299  0.1794 -0.0633  0.4808
 5736SOL    HW228845   2.366   2.327   2.271 -0.0818 -1.6296  2.8731
 5737SOL     OW28846   2.229   0.028   9.434 -0.1383  0.0941 -0.5830
 5737SOL    HW128847   2.205   0.015   9.343 -1.0550 -0.2785 -0.2827
 5737SOL    HW228848   2.141   0.021   9.470 -0.7327  2.8610 -1.4763
 5738SOL     OW28849   1.169   1.109   6.916  0.4583  0.6662  0.2930
 5738SOL    HW128850   1.146   1.065   6.835  0.3461  0.9972  0.1450
 5738SOL    HW228851   1.259   1.079   6.925  0.0368 -0.5900  0.3027
 5739SOL     OW28852   0.407   0.844   6.090  0.2309 -0.5874  1.1692
 5739SOL    HW128853   0.395   0.903   6.017 -0.1177 -1.7567  0.2831
 5739SOL    HW228854   0.460   0.905   6.141  1.2149  1.6148 -2.5144
 5740SOL     OW28855   4.346   2.611  14.604 -0.7067  0.0532 -0.3911
 5740SOL    HW128856   4.354   2.558  14.684 -0.0826  1.2191  0.3175
 5740SOL    HW228857   4.409   2.560  14.553 -0.9878 -0.6341 -0.0494
 5741SOL     OW28858   0.014   3.326   8.322  0.5414  0.2178  0.0506
 5741SOL    HW128859   0.049   3.390   8.260 -1.5508  1.0898 -0.2076
 5741SOL    HW228860   0.015   3.389   8.394 -0.7306  1.0662 -0.6687
 5742SOL     OW28861   2.646   0.460   8.768  0.2601  0.0213  0.2452
 5742SOL    HW128862   2.611   0.511   8.695 -1.1284 -2.0199 -0.5097
 5742SOL    HW228863   2.571   0.418   8.810 -0.7701  0.4411 -1.1777
 5743SOL     OW28864   1.162   1.857  12.631 -0.3810 -0.2306 -0.1902
 5743SOL    HW128865   1.119   1.778  12.664  0.9625 -0.2922  1.4327
 5743SOL    HW228866   1.088   1.881  12.575 -0.0522  0.7135 -0.2157
 5744SOL     OW28867   2.785   3.574  14.482  0.2717  0.3360  0.0000
 5744SOL    HW128868   2.700   3.618  14.490  0.6205  0.8463  0.8292
 5744SOL    HW228869   2.808   3.595  14.392  5.6520  0.5739  1.4417
 5745SOL     OW28870   2.458   4.239   6.061  0.0098  0.1951 -0.0534
 5745SOL    HW128871   2.526   4.298   6.027 -0.5510  0.3541 -0.9179
 5745SOL    HW228872   2.512   4.160   6.053 -0.2855 -0.0774  0.6369
 5746SOL     OW28873   0.850   1.747   7.819 -0.0025  0.1886  0.3009
 5746SOL    HW128874   0.865   1.840   7.805 -1.2196  0.1351 -1.4675
 5746SOL    HW228875   0.931   1.712   7.781  1.0461 -0.1581  2.8439
 5747SOL     OW28876   0.255   1.913   8.340  0.4922 -0.1869  0.2367
 5747SOL    HW128877   0.271   1.870   8.424  0.1771  0.3141  0.5521
 5747SOL    HW228878   0.205   1.987   8.375  1.6082  0.2035  1.0243
 5748SOL     OW28879   2.211   4.355  13.931 -0.8991 -0.3391  0.2584
 5748SOL    HW128880   2.232   4.265  13.906  1.0587  0.2327 -0.1239
 5748SOL    HW228881   2.282   4.372  13.992 -1.2124 -0.0863  0.5532
 5749SOL     OW28882   3.884   2.849   2.452  0.0879  0.3317  0.9991
 5749SOL    HW128883   3.831   2.770   2.439 -0.6133  0.5813  2.2995
 5749SOL    HW228884   3.832   2.923   2.423  0.9082 -0.0042 -1.2623
 5750SOL     OW28885   3.639   1.552   3.983  0.1254  0.7490 -0.0509
 5750SOL    HW128886   3.571   1.484   3.983  0.2814  0.5914  0.3649
 5750SOL    HW228887   3.616   1.611   4.054 -1.1028  0.6435 -0.3474
 5751SOL     OW28888   1.658   1.916   0.331 -0.3889 -0.1819 -0.2076
 5751SOL    HW128889   1.656   1.867   0.248  2.0728 -0.3096 -0.1812
 5751SOL    HW228890   1.565   1.920   0.354 -0.1009  2.4451  0.4543
 5752SOL     OW28891   2.763   2.689   4.237  0.1738 -0.1865 -0.2447
 5752SOL    HW128892   2.670   2.684   4.215 -0.0925 -0.5433  0.9707
 5752SOL    HW228893   2.761   2.619   4.302 -2.3452 -0.2764 -0.4192
 5753SOL     OW28894   4.312   2.789   2.863  0.5019 -0.6137  0.0107
 5753SOL    HW128895   4.218   2.802   2.863  0.3067 -1.9654  0.1151
 5753SOL    HW228896   4.319   2.780   2.958  0.5412 -2.5536 -0.1630
 5754SOL     OW28897   0.787   0.308  10.547  0.3272  0.2240 -0.0136
 5754SOL    HW128898   0.783   0.400  10.521 -4.2063 -0.5025 -1.7958
 5754SOL    HW228899   0.859   0.326  10.607  0.0331  1.1206  0.0760
 5755SOL     OW28900   0.112   4.696  15.932  0.4439  0.9936  0.3245
 5755SOL    HW128901   0.078   0.041  15.893  0.4131  0.6633 -0.3359
 5755SOL    HW228902   0.082   4.714  16.021 -0.9805  2.4138 -0.4405
 5756SOL     OW28903   1.394   2.932   8.162  0.3327 -0.0579  0.3310
 5756SOL    HW128904   1.405   2.838   8.148 -1.1709  0.0092 -1.3706
 5756SOL    HW228905   1.459   2.953   8.229 -1.0102  0.5966  1.4229
 5757SOL     OW28906   2.096   3.921   8.263  0.3130 -0.1643 -0.5187
 5757SOL    HW128907   2.078   4.015   8.264 -0.6050 -0.3373 -0.5703
 5757SOL    HW228908   2.067   3.896   8.351 -2.5500  1.5715 -0.9614
 5758SOL     OW28909   0.558   4.283   8.201 -0.0990  0.3430 -0.4559
 5758SOL    HW128910   0.511   4.292   8.284 -2.4647 -0.6188 -1.6967
 5758SOL    HW228911   0.620   4.356   8.202  0.5542 -0.1933 -1.7459
 5759SOL     OW28912   3.269   2.676   6.168 -0.0903 -0.1509  0.2442
 5759SOL    HW128913   3.356   2.699   6.136  0.0741  0.7052  1.3039
 5759SOL    HW228914   3.273   2.581   6.179  1.5504 -0.1113 -0.0132
 5760SOL     OW28915   4.579   2.615   5.116  0.4961 -0.3032 -0.4778
 5760SOL    HW128916   4.514   2.558   5.157  1.7993 -1.2524  0.2733
 5760SOL    HW228917   4.609   2.572   5.037  2.3904 -1.3168  0.7933
 5761SOL     OW28918   2.817   3.685  16.291  0.5822 -0.1544 -0.4430
 5761SOL    HW128919   2.778   3.620  16.349 -1.2622  0.9340 -0.4486
 5761SOL    HW228920   2.774   3.660  16.210 -1.4195 -0.4751  0.7272
 5762SOL     OW28921   2.857   2.061   1.510 -0.4975 -0.1463 -0.0194
 5762SOL    HW128922   2.936   2.083   1.460 -1.5404 -0.2840 -1.7322
 5762SOL    HW228923   2.905   2.013   1.577 -0.7357  0.4168  0.5551
 5763SOL     OW28924   0.418   3.096   2.725  0.4670  0.2190  0.4536
 5763SOL    HW128925   0.453   3.081   2.638 -2.0367 -0.4233 -0.4162
 5763SOL    HW228926   0.336   3.144   2.716  0.0788 -0.4269  0.5931
 5764SOL     OW28927   0.262   1.354  17.442  0.2679  0.0283  0.2863
 5764SOL    HW128928   0.281   1.326  17.353  0.0563  2.0845 -0.4000
 5764SOL    HW228929   0.342   1.384  17.486  0.2847  0.9193 -0.3469
 5765SOL     OW28930   0.749   0.438   1.192  0.2973 -0.2531  0.2813
 5765SOL    HW128931   0.799   0.478   1.264 -0.1094 -3.9552  2.6177
 5765SOL    HW228932   0.783   0.479   1.113 -0.0603 -0.8768 -0.2041
 5766SOL     OW28933   4.649   1.546   6.114 -0.4001 -0.4463 -0.0345
 5766SOL    HW128934   4.697   1.555   6.031  1.8398  4.1924  1.8294
 5766SOL    HW228935   4.614   1.634   6.119  1.4622  0.3682 -1.2838
 5767SOL     OW28936   0.631   2.200   5.644  0.2598  0.1192  0.0332
 5767SOL    HW128937   0.705   2.215   5.702  0.5111  1.8707 -0.7153
 5767SOL    HW228938   0.658   2.239   5.560  1.4157 -1.0071 -0.1208
 5768SOL     OW28939   3.823   4.075   4.493  0.3543 -0.4211  0.2452
 5768SOL    HW128940   3.728   4.067   4.487  0.1245  2.9940 -1.0945
 5768SOL    HW228941   3.834   4.131   4.570  1.3822  0.4097 -0.5145
 5769SOL     OW28942   3.732   1.611  10.995  0.2702  0.3108 -0.0554
 5769SOL    HW128943   3.776   1.577  11.073 -0.4571 -0.1985  0.1288
 5769SOL    HW228944   3.726   1.705  11.012  2.5646  0.3687  0.5191
 5770SOL     OW28945   1.892   3.351   8.579 -0.2355 -0.2664 -0.0799
 5770SOL    HW128946   1.809   3.383   8.616  0.2026 -0.6397  1.2407
 5770SOL    HW228947   1.930   3.423   8.529  0.8518 -0.7163  0.1009
 5771SOL     OW28948   3.265   3.216  15.769 -0.4306 -0.1549  0.1929
 5771SOL    HW128949   3.255   3.132  15.814  1.6730  0.2798  1.4924
 5771SOL    HW228950   3.329   3.193  15.702 -1.0682 -1.0068 -0.1158
 5772SOL     OW28951   4.191   2.262  11.047 -0.3226  0.0523  0.3944
 5772SOL    HW128952   4.235   2.333  11.001  1.1577 -0.8725  0.3816
 5772SOL    HW228953   4.109   2.253  10.998 -1.2946 -1.3436  2.2849
 5773SOL     OW28954   0.869   0.504   8.580 -0.5142 -0.6564  0.1327
 5773SOL    HW128955   0.937   0.437   8.592  0.7018  0.4673 -0.4109
 5773SOL    HW228956   0.904   0.574   8.635 -0.1376 -1.2873  0.6933
 5774SOL     OW28957   2.416   3.798   7.580  0.1853  0.3591 -0.5010
 5774SOL    HW128958   2.434   3.720   7.632  1.9334  0.3342 -1.1676
 5774SOL    HW228959   2.323   3.779   7.564  0.3913 -0.4356 -0.7580
 5775SOL     OW28960   0.713   1.192   1.594 -0.2488  0.0298 -0.1019
 5775SOL    HW128961   0.697   1.286   1.588  0.8412  0.1240 -1.4097
 5775SOL    HW228962   0.713   1.159   1.684 -0.4418 -1.1669 -0.5451
 5776SOL     OW28963   4.252   1.616   4.648 -0.1882  0.0246 -0.1638
 5776SOL    HW128964   4.239   1.561   4.726 -0.6120  0.5180  0.1152
 5776SOL    HW228965   4.340   1.588   4.624  0.0804 -0.3710  1.2410
 5777SOL     OW28966   0.588   3.047   7.840  0.5140 -0.3920 -0.2349
 5777SOL    HW128967   0.621   2.992   7.910 -0.5410  0.5400  1.0014
 5777SOL    HW228968   0.528   3.108   7.883  0.3952 -0.1118 -0.7946
 5778SOL     OW28969   2.656   2.692   6.589  0.2269 -0.4822  0.4654
 5778SOL    HW128970   2.707   2.727   6.662  0.5627  1.3729 -0.6470
 5778SOL    HW228971   2.652   2.761   6.521 -0.1211 -0.0814  0.8891
 5779SOL     OW28972   3.599   3.100  16.006 -0.0724  0.8049 -0.0744
 5779SOL    HW128973   3.626   3.072  15.919  3.2953  1.0935  0.8812
 5779SOL    HW228974   3.644   3.184  16.015 -0.3695  1.1376 -1.8511
 5780SOL     OW28975   2.767   0.426  11.452  0.6199  0.1759  0.6298
 5780SOL    HW128976   2.798   0.510  11.420 -0.5053 -0.9313 -3.4206
 5780SOL    HW228977   2.846   0.378  11.426  0.2280  0.1798 -0.5773
 5781SOL     OW28978   0.352   3.963   3.929 -0.6238  0.1421  0.0486
 5781SOL    HW128979   0.336   4.041   3.982  1.0477 -0.3005  1.2132
 5781SOL    HW228980   0.377   3.893   3.989 -1.0172 -0.1956 -0.1818
 5782SOL     OW28981   1.365   2.046   3.760  0.3927 -0.1531 -0.0479
 5782SOL    HW128982   1.404   1.993   3.690  0.4585  0.0111 -0.1369
 5782SOL    HW228983   1.434   2.110   3.778  1.0036 -0.8563  0.1051
 5783SOL     OW28984   3.956   2.535   8.463 -0.0732  0.0244  0.6380
 5783SOL    HW128985   3.928   2.616   8.506 -0.2605  1.0494 -1.4230
 5783SOL    HW228986   4.006   2.496   8.534  2.3300  3.0256  0.6330
 5784SOL     OW28987   0.112   0.176   5.919  0.0502  0.5930 -0.4474
 5784SOL    HW128988   0.134   0.087   5.891 -2.5770 -0.0625 -0.4215
 5784SOL    HW228989   0.029   0.193   5.876  0.2054  0.8762 -0.6357
 5785SOL     OW28990   2.519   4.575   4.344  0.2911 -0.9812 -0.0309
 5785SOL    HW128991   2.441   4.520   4.354 -0.2299 -0.2110  0.0759
 5785SOL    HW228992   2.584   4.505   4.346  1.2568 -0.0261  1.3353
 5786SOL     OW28993   1.315   3.642   2.544  0.6213  0.4516  0.0996
 5786SOL    HW128994   1.237   3.695   2.529  0.1678  0.4438  2.4979
 5786SOL    HW228995   1.375   3.703   2.587  1.2667 -1.3741  1.7959
 5787SOL     OW28996   4.170   4.050   7.995 -0.4145  0.3348  0.1403
 5787SOL    HW128997   4.149   4.004   8.076 -2.3208 -0.0673 -0.5840
 5787SOL    HW228998   4.227   3.993   7.943 -1.1261 -0.6971  0.4980
 5788SOL     OW28999   0.565   2.933   2.468 -0.1067  0.5950 -0.5543
 5788SOL    HW129000   0.501   2.933   2.397  0.1718  0.7674 -0.8061
 5788SOL    HW229001   0.531   2.864   2.525  1.4057  0.8056  0.6041
 5789SOL     OW29002   2.394   3.277   5.735 -0.0248 -0.0232  0.0492
 5789SOL    HW129003   2.438   3.197   5.763  0.6001  0.1993 -0.3006
 5789SOL    HW229004   2.475   3.323   5.715  0.5916 -2.1867 -2.3681
 5790SOL     OW29005   3.035   0.064   3.040 -0.3277 -0.6478 -0.0245
 5790SOL    HW129006   3.091   0.053   3.116 -1.6873 -0.7024  0.9685
 5790SOL    HW229007   2.968   0.125   3.071  0.0875  0.2961 -0.9931
 5791SOL     OW29008   1.385   0.676  17.602  0.6151  0.2826 -0.4317
 5791SOL    HW129009   1.303   0.651  17.644 -0.2711  1.0433 -1.7079
 5791SOL    HW229010   1.343   0.722  17.530  3.2588  3.3311 -0.0252
 5792SOL     OW29011   0.990   3.980   5.846 -0.0908 -0.2767 -0.2086
 5792SOL    HW129012   0.968   3.889   5.868  1.2069 -0.5229  0.1141
 5792SOL    HW229013   0.974   4.020   5.932  0.6794  1.9588 -1.1138
 5793SOL     OW29014   2.230   2.050   3.219 -0.0831  0.3552  0.4419
 5793SOL    HW129015   2.172   2.027   3.147 -1.1913  0.7257  1.2198
 5793SOL    HW229016   2.187   2.116   3.272 -2.8431 -1.9459  1.0431
 5794SOL     OW29017   2.295   2.736   5.414 -0.0579 -0.4285  0.3042
 5794SOL    HW129018   2.291   2.674   5.341  0.0882 -1.9918  1.6340
 5794SOL    HW229019   2.279   2.680   5.490  0.3076 -1.0123 -0.0485
 5795SOL     OW29020   3.560   3.399   3.140  0.2964  0.1486 -0.3284
 5795SOL    HW129021   3.579   3.470   3.079  0.6811 -0.0576 -0.4525
 5795SOL    HW229022   3.498   3.354   3.083 -0.9773  1.6246 -0.1042
 5796SOL     OW29023   3.704   0.981   4.648  0.7044  0.3994  0.2891
 5796SOL    HW129024   3.773   0.936   4.696  1.3955  0.9646 -0.1746
 5796SOL    HW229025   3.679   0.898   4.608  0.6797  0.0088  1.1085
 5797SOL     OW29026   1.773   1.423  11.722  0.2147 -0.1775  0.3292
 5797SOL    HW129027   1.770   1.518  11.718  2.3169 -0.1699 -0.8896
 5797SOL    HW229028   1.706   1.408  11.789 -0.8199  3.2090  0.0446
 5798SOL     OW29029   0.528   2.479   1.717  0.4540  0.3333  0.2594
 5798SOL    HW129030   0.542   2.386   1.699 -0.5241 -0.0036  1.2241
 5798SOL    HW229031   0.472   2.476   1.795  0.3590 -2.6385  0.0937
 5799SOL     OW29032   4.554   3.307  14.959  0.0721  0.4665 -0.0220
 5799SOL    HW129033   4.553   3.251  15.037 -1.6194  0.9818  0.3217
 5799SOL    HW229034   4.516   3.387  14.995 -1.7310 -0.3522 -0.1100
 5800SOL     OW29035   0.277   2.378   2.942  0.1652  0.2776  0.0798
 5800SOL    HW129036   0.205   2.425   2.985 -0.3137 -0.4771  0.1109
 5800SOL    HW229037   0.255   2.408   2.854  1.3414  0.2067 -0.2309
 5801SOL     OW29038   0.408   4.066   4.392  0.1070 -0.1742  0.0840
 5801SOL    HW129039   0.476   4.026   4.447  0.4200  1.8000  1.1324
 5801SOL    HW229040   0.389   3.986   4.343  1.1361  0.1699 -0.8817
 5802SOL     OW29041   4.663   3.721  10.950 -1.0529 -0.1660  0.5447
 5802SOL    HW129042   4.572   3.745  10.971 -0.7275 -0.2850  2.1181
 5802SOL    HW229043   4.667   3.632  10.984  0.4552 -0.2933  0.0020
 5803SOL     OW29044   4.143   2.000   0.220  0.3963  0.6287 -0.0358
 5803SOL    HW129045   4.173   2.077   0.171  0.1507  0.3286 -0.6698
 5803SOL    HW229046   4.054   2.012   0.252  1.1936 -0.9946  2.8095
 5804SOL     OW29047   2.318   3.626   6.555  0.8909  0.1743 -0.0953
 5804SOL    HW129048   2.301   3.708   6.600  1.2058  1.0562 -1.5943
 5804SOL    HW229049   2.411   3.611   6.566  0.2842 -3.5051  0.2243
 5805SOL     OW29050   3.308   0.545   1.334  0.7145  0.1701 -0.2902
 5805SOL    HW129051   3.383   0.538   1.275  1.0344  0.4372  0.0905
 5805SOL    HW229052   3.271   0.622   1.293 -0.5562 -1.2497 -1.8196
 5806SOL     OW29053   1.870   1.349  16.545 -0.0607  0.3148  0.2285
 5806SOL    HW129054   1.894   1.440  16.530 -3.3663  1.1889  0.2078
 5806SOL    HW229055   1.830   1.342  16.458 -2.0738 -2.4160  1.3527
 5807SOL     OW29056   1.449   3.190   2.115  0.0913 -0.6029  0.1359
 5807SOL    HW129057   1.410   3.181   2.202  0.3774  0.5327  0.3739
 5807SOL    HW229058   1.420   3.267   2.065  0.6768  0.9710  2.2452
 5808SOL     OW29059   1.345   4.057   3.591 -0.1707 -0.1128  0.0376
 5808SOL    HW129060   1.335   4.122   3.522  1.8218 -0.1307 -0.2855
 5808SOL    HW229061   1.410   4.101   3.647 -1.2693 -1.2021  2.1737
 5809SOL     OW29062   1.598   3.461   7.232 -0.2646 -0.2446  0.0417
 5809SOL    HW129063   1.645   3.544   7.238 -2.4987  1.0677 -0.7353
 5809SOL    HW229064   1.518   3.485   7.278  0.2810  3.2039 -0.8764
 5810SOL     OW29065   4.093   2.036   3.803 -0.4410 -0.8814  0.1668
 5810SOL    HW129066   4.052   1.964   3.755 -2.1375 -1.5119  2.5938
 5810SOL    HW229067   4.132   2.088   3.732  0.7561 -3.1612 -0.8602
 5811SOL     OW29068   1.060   2.259   8.068  0.3613  0.2146 -0.2624
 5811SOL    HW129069   1.107   2.274   8.151 -0.4827  1.6817 -0.0480
 5811SOL    HW229070   1.134   2.284   8.013 -0.7237  0.3074 -1.6614
 5812SOL     OW29071   0.823   1.285   5.776  0.2103 -0.3000  0.4714
 5812SOL    HW129072   0.831   1.213   5.839  0.2090 -1.5509 -0.9469
 5812SOL    HW229073   0.755   1.342   5.810 -2.4356 -0.8156 -4.0311
 5813SOL     OW29074   4.270   4.224   4.743 -0.2804  0.2185  0.0229
 5813SOL    HW129075   4.305   4.150   4.694  0.8676 -0.5808  2.0324
 5813SOL    HW229076   4.353   4.267   4.767 -1.2676  1.4875  1.1574
 5814SOL     OW29077   3.172   2.158   7.788  0.3743 -0.6497 -0.3163
 5814SOL    HW129078   3.111   2.097   7.748 -2.6498  1.0212  1.7981
 5814SOL    HW229079   3.183   2.129   7.879 -1.5748 -1.5060 -0.3614
 5815SOL     OW29080   0.226   2.801   3.790  0.0065  0.7419  0.0129
 5815SOL    HW129081   0.173   2.874   3.822 -0.7176  0.7258 -1.1667
 5815SOL    HW229082   0.293   2.859   3.754 -1.9616  3.0896  0.1200
 5816SOL     OW29083   1.769   4.443   9.197  0.7003  0.2959 -0.3217
 5816SOL    HW129084   1.755   4.434   9.291  1.1068  0.0812 -0.2849
 5816SOL    HW229085   1.680   4.460   9.166 -0.2235 -0.6728  1.7736
 5817SOL     OW29086   1.550   1.180   9.128 -0.0460  0.0358 -0.6416
 5817SOL    HW129087   1.477   1.236   9.101 -0.2658 -0.3745 -0.8991
 5817SOL    HW229088   1.546   1.109   9.064 -2.1359 -1.0943  0.7505
 5818SOL     OW29089   2.055   2.021   3.733  0.0845  0.5523 -0.3838
 5818SOL    HW129090   1.975   1.975   3.706 -1.0230  2.0060  0.3840
 5818SOL    HW229091   2.121   1.991   3.670  0.2108 -1.0416  0.5297
 5819SOL     OW29092   2.831   0.377   7.102  0.0455 -0.3683 -0.3984
 5819SOL    HW129093   2.821   0.469   7.127 -2.6295 -0.7885  0.1210
 5819SOL    HW229094   2.898   0.350   7.165 -0.2304  2.1049  0.9757
 5820SOL     OW29095   3.308   3.656   7.415  0.0586 -0.4700 -0.0830
 5820SOL    HW129096   3.316   3.745   7.379 -1.5407 -1.8597 -3.8871
 5820SOL    HW229097   3.274   3.611   7.338 -1.1486  0.4877 -0.1081
 5821SOL     OW29098   3.849   0.962   3.924 -0.0100 -0.4164 -0.0166
 5821SOL    HW129099   3.867   0.870   3.942 -0.0721 -0.4992 -0.3764
 5821SOL    HW229100   3.838   0.989   4.015  5.3712 -3.8540  1.6707
 5822SOL     OW29101   2.365   2.684   6.249 -0.5379 -0.4438 -0.2599
 5822SOL    HW129102   2.289   2.629   6.264 -0.6951 -1.0626 -3.3450
 5822SOL    HW229103   2.376   2.696   6.155  1.3350  1.5061  0.1785
 5823SOL     OW29104   1.708   1.979  14.180  0.2949  0.6128  0.0909
 5823SOL    HW129105   1.629   2.026  14.207 -1.1055 -2.2877  1.0178
 5823SOL    HW229106   1.683   1.971  14.088  1.9742  0.1837 -0.3285
 5824SOL     OW29107   3.151   1.803  16.085  0.1962  0.1507  0.3671
 5824SOL    HW129108   3.116   1.859  16.155 -1.4510 -0.9253  0.4003
 5824SOL    HW229109   3.172   1.722  16.131  0.2792  1.1259  2.0559
 5825SOL     OW29110   1.919   0.361  13.245 -0.1994  0.3471  0.1692
 5825SOL    HW129111   1.846   0.324  13.294 -0.8094  1.5428  0.1448
 5825SOL    HW229112   1.989   0.301  13.272 -1.1111 -0.8872 -0.2038
 5826SOL     OW29113   1.231   3.760  14.800  0.7196  0.3637 -0.2004
 5826SOL    HW129114   1.276   3.806  14.730 -1.1308  0.4739 -1.3281
 5826SOL    HW229115   1.209   3.670  14.774  2.8446 -0.4185  0.7116
 5827SOL     OW29116   0.559   3.138   8.342 -0.2090 -0.1398  0.3776
 5827SOL    HW129117   0.508   3.057   8.331 -1.9322  0.9726  0.2486
 5827SOL    HW229118   0.485   3.198   8.346  0.5239  0.8327 -0.9275
 5828SOL     OW29119   0.160   2.343  17.456  0.3100  0.3482 -0.5362
 5828SOL    HW129120   0.249   2.370  17.480  0.8262  0.4667 -2.6133
 5828SOL    HW229121   0.110   2.424  17.470  0.4103  0.2030  0.6894
 5829SOL     OW29122   2.951   1.584   8.803 -0.2250  0.0196 -0.1125
 5829SOL    HW129123   3.027   1.638   8.825  0.7220 -1.0608 -0.7270
 5829SOL    HW229124   2.970   1.565   8.711  1.2345 -0.1209  0.2155
 5830SOL     OW29125   4.604   0.807   5.843  0.3964 -0.0393  0.2042
 5830SOL    HW129126   4.612   0.712   5.855 -0.1919 -0.1737 -0.4297
 5830SOL    HW229127   4.665   0.858   5.897  0.3376  0.3185 -0.0715
 5831SOL     OW29128   4.303   1.838   1.890  0.1019 -0.3639  0.5506
 5831SOL    HW129129   4.266   1.773   1.831  0.6712  1.0492 -1.3857
 5831SOL    HW229130   4.225   1.881   1.923 -0.2512 -1.0426  0.5958
 5832SOL     OW29131   3.101   0.563   4.944  0.2846 -0.2822  0.0415
 5832SOL    HW129132   3.042   0.503   4.899  1.8058 -1.3337 -0.5420
 5832SOL    HW229133   3.180   0.509   4.956 -0.7609 -1.5105  1.3767
 5833SOL     OW29134   3.124   2.165  16.606  0.5463 -0.3479  0.2033
 5833SOL    HW129135   3.067   2.238  16.628  3.6521  2.3604 -0.8223
 5833SOL    HW229136   3.097   2.134  16.519 -1.3435 -0.6467  0.8924
 5834SOL     OW29137   1.743   2.753   7.548  0.0040  0.3161  0.6034
 5834SOL    HW129138   1.663   2.804   7.535 -1.1479 -0.8188  3.2244
 5834SOL    HW229139   1.708   2.669   7.578  0.2157  0.6858  1.8916
 5835SOL     OW29140   1.632   3.376   6.312  0.3593 -0.7791  0.1138
 5835SOL    HW129141   1.618   3.446   6.376 -1.3156  1.1730 -2.3855
 5835SOL    HW229142   1.580   3.300   6.336  0.3654 -0.7397  0.2564
 5836SOL     OW29143   0.016   0.640   7.831 -0.0216 -0.0793 -0.1100
 5836SOL    HW129144   4.668   0.598   7.811 -0.0669 -0.2039  0.3542
 5836SOL    HW229145   4.725   0.730   7.811  1.1603  0.3414  0.1893
 5837SOL     OW29146   3.392   0.527  13.086 -0.0685  0.2178  0.3169
 5837SOL    HW129147   3.485   0.515  13.070 -0.5224  3.2246 -4.4156
 5837SOL    HW229148   3.406   0.566  13.173  1.7380  0.3788 -0.0597
 5838SOL     OW29149   1.697   0.705   3.207 -0.2371  0.2189 -0.4116
 5838SOL    HW129150   1.681   0.615   3.180 -1.2446  0.4281 -0.4973
 5838SOL    HW229151   1.701   0.694   3.302 -1.5770  1.5915 -0.2072
 5839SOL     OW29152   4.575   3.249   4.892 -0.1583  0.0040 -0.4404
 5839SOL    HW129153   4.626   3.183   4.846 -0.4148 -0.3911 -0.1588
 5839SOL    HW229154   4.503   3.265   4.830 -0.5954 -0.9547 -0.1740
 5840SOL     OW29155   2.744   3.445  11.873  0.3577  0.1848  0.2306
 5840SOL    HW129156   2.808   3.512  11.896 -1.2372  1.1323  1.8680
 5840SOL    HW229157   2.693   3.432  11.953  0.1205 -0.1989  0.0197
 5841SOL     OW29158   3.789   1.075   6.503  0.2152 -0.3566  0.5929
 5841SOL    HW129159   3.868   1.039   6.463  0.0343  0.5716 -0.6095
 5841SOL    HW229160   3.835   1.152   6.536  2.3856 -0.8109 -1.3572
 5842SOL     OW29161   0.177   0.107   7.114 -0.3419  0.4308  0.3848
 5842SOL    HW129162   0.265   0.142   7.123  0.9355 -2.0935 -2.1005
 5842SOL    HW229163   0.200   0.042   7.048  1.2586 -1.1354  2.4792
 5843SOL     OW29164   1.914   1.024   4.564 -0.5169 -0.0188 -0.4237
 5843SOL    HW129165   1.920   1.101   4.508  1.6271 -1.6677 -2.4361
 5843SOL    HW229166   1.828   0.995   4.532 -0.8849  1.0127 -0.3544
 5844SOL     OW29167   3.500   4.688   1.597  0.5022 -0.1760  0.4212
 5844SOL    HW129168   3.499   4.604   1.551 -0.8709  0.4220 -0.6408
 5844SOL    HW229169   3.502   4.660   1.689  2.0660 -0.2635  0.3532
 5845SOL     OW29170   1.021   2.943   4.999  0.2528  0.0176 -0.0706
 5845SOL    HW129171   0.959   2.876   5.027  1.2628 -1.0415 -0.4083
 5845SOL    HW229172   1.083   2.949   5.072  0.4605 -0.0157 -0.2467
 5846SOL     OW29173   2.901   2.751   5.582  0.4685 -0.1791 -0.6410
 5846SOL    HW129174   2.964   2.706   5.639  0.5330  0.9895  0.2301
 5846SOL    HW229175   2.962   2.811   5.537 -1.5917  0.9569 -1.9002
 5847SOL     OW29176   0.776   0.784  14.774 -0.2687  0.5440  0.0380
 5847SOL    HW129177   0.857   0.832  14.790 -0.6102  1.0467  0.2382
 5847SOL    HW229178   0.747   0.764  14.863 -2.8442  0.4672 -0.8371
 5848SOL     OW29179   1.803   2.736   1.725  0.2287  0.1308 -0.7295
 5848SOL    HW129180   1.853   2.770   1.799 -1.3029  0.2136  0.2664
 5848SOL    HW229181   1.865   2.714   1.655  2.9400 -0.7290  1.9294
 5849SOL     OW29182   4.576   0.064   4.665  0.0234  0.0841  0.1095
 5849SOL    HW129183   4.622   0.006   4.605  0.3759 -1.0388  1.4748
 5849SOL    HW229184   4.633   0.050   4.740 -0.2908  0.9087  0.5035
 5850SOL     OW29185   1.081   2.544  16.132  0.6843  0.1120  0.0409
 5850SOL    HW129186   0.988   2.522  16.134  0.8157 -0.5366 -0.8778
 5850SOL    HW229187   1.082   2.614  16.197  0.5534 -0.0185  0.1832
 5851SOL     OW29188   3.011   4.569   0.445 -0.1987 -0.2660  0.1310
 5851SOL    HW129189   2.972   4.612   0.368 -0.4819  0.9507  0.9500
 5851SOL    HW229190   2.943   4.510   0.477 -1.2135  0.2129 -1.1196
 5852SOL     OW29191   4.052   2.365   6.436 -0.1775  0.4825 -0.3288
 5852SOL    HW129192   4.125   2.380   6.495  0.1654 -1.8177 -0.1367
 5852SOL    HW229193   4.030   2.276   6.464 -0.4893  1.1888  1.6419
 5853SOL     OW29194   0.827   2.997   2.382 -0.5294  0.6037  0.0627
 5853SOL    HW129195   0.736   3.023   2.399 -0.9886 -1.0614  0.0884
 5853SOL    HW229196   0.876   3.052   2.443  0.7342  0.8829 -1.1881
 5854SOL     OW29197   4.103   1.559   3.967 -0.1764 -0.8352  0.4040
 5854SOL    HW129198   4.178   1.618   3.980 -1.6144  0.9553  0.6188
 5854SOL    HW229199   4.136   1.495   3.905 -0.4059  0.0669 -0.6537
 5855SOL     OW29200   1.907   0.421   9.194 -0.4638  0.0423  0.2700
 5855SOL    HW129201   1.882   0.332   9.169 -0.7698  0.4443 -0.8619
 5855SOL    HW229202   1.838   0.445   9.256 -2.1794 -1.6303 -0.9792
 5856SOL     OW29203   3.716   0.231   4.450 -0.0800  0.7585 -0.1100
 5856SOL    HW129204   3.684   0.262   4.365  1.8141  0.0385 -1.1096
 5856SOL    HW229205   3.712   0.136   4.453  1.6957  0.6490 -1.1737
 5857SOL     OW29206   2.336   2.582   5.936 -0.2303  0.0847 -0.3981
 5857SOL    HW129207   2.424   2.615   5.915  0.9042 -1.2376  2.3362
 5857SOL    HW229208   2.361   2.493   5.963  0.0912 -0.1052 -1.3025
 5858SOL     OW29209   2.832   4.156   5.206 -0.0478 -0.4482 -0.0886
 5858SOL    HW129210   2.816   4.062   5.216  1.2586 -0.6647 -0.0206
 5858SOL    HW229211   2.782   4.174   5.126 -0.4237 -0.1691  0.2087
 5859SOL     OW29212   1.514   0.156   0.727 -0.4210 -0.1790 -0.1033
 5859SOL    HW129213   1.530   0.246   0.757 -2.0687 -0.7305  2.3296
 5859SOL    HW229214   1.437   0.137   0.780 -0.0459 -0.0798  0.4754
 5860SOL     OW29215   1.588   2.595   5.169  0.1937 -0.9513  0.1400
 5860SOL    HW129216   1.615   2.686   5.157  0.2727 -0.8111  1.4514
 5860SOL    HW229217   1.669   2.544   5.174 -0.5039 -2.0409  0.3289
 5861SOL     OW29218   4.421   4.084   7.814  0.2839  0.2963  0.1730
 5861SOL    HW129219   4.454   4.060   7.901  1.9390  2.6037  0.2073
 5861SOL    HW229220   4.493   4.144   7.792  1.1113 -1.5516 -2.1616
 5862SOL     OW29221   3.499   2.240   8.543 -0.9779  0.2520  0.5387
 5862SOL    HW129222   3.457   2.154   8.545 -2.4541  0.9752  0.2996
 5862SOL    HW229223   3.460   2.275   8.463 -0.2223  0.9495  0.4718
 5863SOL     OW29224   4.510   1.455   5.154 -0.2802 -0.0076 -0.4013
 5863SOL    HW129225   4.463   1.451   5.237  0.7484  0.2444  0.1969
 5863SOL    HW229226   4.603   1.460   5.174 -0.1664 -1.3841 -0.6042
 5864SOL     OW29227   0.989   0.533   1.768 -0.5379  0.1776  0.6072
 5864SOL    HW129228   1.003   0.465   1.701 -0.8174 -1.5647  2.3190
 5864SOL    HW229229   0.920   0.479   1.805 -0.0095 -0.1339  1.1312
 5865SOL     OW29230   1.657   0.206  12.846  0.2534  0.5642  0.3477
 5865SOL    HW129231   1.680   0.281  12.900 -2.3479  1.2954  0.4131
 5865SOL    HW229232   1.742   0.163  12.835  0.7050  1.8211 -1.0535
 5866SOL     OW29233   0.623   4.405  16.588 -0.2443  0.1514  0.0021
 5866SOL    HW129234   0.535   4.435  16.567 -0.5165 -0.1966  0.6568
 5866SOL    HW229235   0.671   4.487  16.581 -0.2879  0.2020  0.3195
 5867SOL     OW29236   2.144   1.549   5.038  0.5629  0.0260 -0.8848
 5867SOL    HW129237   2.055   1.528   5.011  1.2060 -2.2050 -1.2723
 5867SOL    HW229238   2.176   1.469   5.079 -0.2711 -0.0153 -0.3273
 5868SOL     OW29239   2.275   3.573   3.689 -0.4404  0.0663 -0.2973
 5868SOL    HW129240   2.204   3.593   3.628  0.1155  0.0102 -0.9708
 5868SOL    HW229241   2.352   3.590   3.634 -0.1191  0.2795  0.2239
 5869SOL     OW29242   4.363   0.710   2.651 -0.3707 -0.2565 -0.0630
 5869SOL    HW129243   4.272   0.693   2.626 -0.5417 -2.2702  1.8771
 5869SOL    HW229244   4.353   0.786   2.708  0.2803  0.6457 -1.1676
 5870SOL     OW29245   4.182   2.198   9.684 -0.2597 -0.3757 -0.5000
 5870SOL    HW129246   4.191   2.103   9.677  0.0032 -0.3261 -0.8801
 5870SOL    HW229247   4.208   2.205   9.776  0.1142  0.9050 -0.7018
 5871SOL     OW29248   3.179   1.235   7.863  0.5836 -0.2781  0.3145
 5871SOL    HW129249   3.100   1.246   7.916  0.2086 -1.4043 -0.0176
 5871SOL    HW229250   3.239   1.209   7.933 -1.2945  0.2060  2.1131
 5872SOL     OW29251   2.204   3.327   3.756 -0.0572  0.6073 -0.4633
 5872SOL    HW129252   2.225   3.415   3.727 -1.1042  1.0806  0.1911
 5872SOL    HW229253   2.277   3.278   3.719  0.7839 -1.4989  3.9407
 5873SOL     OW29254   1.522   1.739  12.614 -0.1736  0.1983 -0.0888
 5873SOL    HW129255   1.579   1.681  12.562  0.4173 -1.1430  2.0462
 5873SOL    HW229256   1.436   1.718  12.577  0.8138 -3.2694 -0.4596
 5874SOL     OW29257   3.385   4.440   2.677  0.3908 -0.3100 -0.0554
 5874SOL    HW129258   3.351   4.493   2.748  0.4473 -0.7339  0.2846
 5874SOL    HW229259   3.309   4.388   2.650  0.7831 -1.4941  1.1318
 5875SOL     OW29260   0.221   1.480   3.046  0.0564 -0.2000 -0.6761
 5875SOL    HW129261   0.224   1.552   2.983 -0.3978 -1.2791 -1.9443
 5875SOL    HW229262   0.174   1.523   3.118  0.7439 -0.3883 -0.1162
 5876SOL     OW29263   1.618   2.268   6.018  0.0564  0.6504 -0.0141
 5876SOL    HW129264   1.606   2.284   6.111  0.7694 -0.1833  0.2156
 5876SOL    HW229265   1.607   2.349   5.968 -0.8385  1.3022  1.2441
 5877SOL     OW29266   2.601   0.354   2.680 -0.3350  0.0180 -0.0492
 5877SOL    HW129267   2.666   0.300   2.634  3.1123  2.6458  1.7573
 5877SOL    HW229268   2.518   0.313   2.652 -0.2940 -0.2921  0.2815
 5878SOL     OW29269   2.950   2.054  12.330 -0.1355  0.3613  0.1548
 5878SOL    HW129270   2.937   2.083  12.240  0.6754 -2.0227 -0.7228
 5878SOL    HW229271   3.026   2.104  12.358 -0.0329 -0.1402  0.7668
 5879SOL     OW29272   0.235   2.113   6.206 -0.7000  0.3786 -0.5984
 5879SOL    HW129273   0.189   2.031   6.185  1.3775 -0.3566 -2.2624
 5879SOL    HW229274   0.173   2.180   6.177 -0.3558 -0.2701 -2.7824
 5880SOL     OW29275   0.807   2.048   2.362  0.0153  0.4080 -0.1161
 5880SOL    HW129276   0.776   2.138   2.352  1.3813  0.7191 -1.6177
 5880SOL    HW229277   0.755   1.987   2.310  2.0529 -2.3317  1.0912
 5881SOL     OW29278   4.385   3.490   3.217  0.6450  0.1395 -0.2880
 5881SOL    HW129279   4.337   3.432   3.158 -0.3494 -0.0965  0.7341
 5881SOL    HW229280   4.430   3.428   3.273  1.9264  0.7389 -0.6601
 5882SOL     OW29281   2.142   4.217   4.608 -0.2987  0.8627 -0.6384
 5882SOL    HW129282   2.092   4.297   4.591 -1.0621  1.0385  2.4085
 5882SOL    HW229283   2.205   4.225   4.536  1.1442 -0.4784  0.4941
 5883SOL     OW29284   4.555   0.471  14.427  0.5371 -0.0333 -0.0487
 5883SOL    HW129285   4.491   0.494  14.495  0.6310 -2.0969  0.7318
 5883SOL    HW229286   4.563   0.378  14.446  0.0403 -0.2193 -0.7342
 5884SOL     OW29287   0.378   1.162  10.047 -0.1194  0.2016 -0.2711
 5884SOL    HW129288   0.403   1.251  10.070  2.0076 -0.0409 -1.6054
 5884SOL    HW229289   0.285   1.184  10.044  0.0088  0.7632 -0.1831
 5885SOL     OW29290   4.455   0.495   5.605 -0.4181  0.0155 -0.0685
 5885SOL    HW129291   4.466   0.404   5.633 -1.0449 -0.0835 -0.1544
 5885SOL    HW229292   4.365   0.500   5.574 -0.4237 -0.6582 -0.1614
 5886SOL     OW29293   1.982   3.361   3.565  0.2899 -0.2708 -0.2807
 5886SOL    HW129294   2.052   3.301   3.589  0.0746 -0.7805 -0.9276
 5886SOL    HW229295   2.009   3.445   3.601  0.4739  0.9730 -3.3470
 5887SOL     OW29296   2.270   0.879  14.465 -0.2706 -0.0876 -0.2597
 5887SOL    HW129297   2.365   0.880  14.449 -0.4125  0.2501 -1.1163
 5887SOL    HW229298   2.257   0.968  14.496 -0.6518 -0.1165 -0.3414
 5888SOL     OW29299   1.631   4.661  12.948  0.0586  0.2486  0.1195
 5888SOL    HW129300   1.611   0.017  12.927 -0.7446 -0.6925 -3.1907
 5888SOL    HW229301   1.614   4.648  13.042  1.2826  0.8049  0.4122
 5889SOL     OW29302   1.857   4.259   5.289 -0.3609  0.0446 -0.5127
 5889SOL    HW129303   1.809   4.181   5.260 -0.1360 -1.0527  2.1511
 5889SOL    HW229304   1.931   4.251   5.228 -0.0262  1.8095 -0.3276
 5890SOL     OW29305   4.189   0.055   5.977  0.2537  0.6055 -0.5990
 5890SOL    HW129306   4.197   0.076   6.070 -0.2699 -0.8659 -0.2157
 5890SOL    HW229307   4.261   4.730   5.962  1.2851  2.1040 -1.6042
 5891SOL     OW29308   1.480   0.291   9.096 -0.3999  0.6380 -0.1954
 5891SOL    HW129309   1.542   0.316   9.165  1.5564 -1.4980 -1.1682
 5891SOL    HW229310   1.514   0.342   9.022  0.0671 -1.4468 -1.4231
 5892SOL     OW29311   0.904   0.051  12.663  1.2469 -0.3341 -0.1240
 5892SOL    HW129312   0.855   0.041  12.582 -0.9366 -1.0793  1.3119
 5892SOL    HW229313   0.909   4.694  12.687  1.6135 -0.4113 -0.4948
 5893SOL     OW29314   2.348   0.787  15.051 -0.1900  0.3074 -0.1224
 5893SOL    HW129315   2.407   0.711  15.050  1.5030  1.6361 -0.8122
 5893SOL    HW229316   2.290   0.760  14.979  0.0192 -0.3727 -0.0437
 5894SOL     OW29317   1.197   4.353  11.442  0.0011  0.0192  0.3999
 5894SOL    HW129318   1.289   4.329  11.437  0.3156  1.3685 -0.2031
 5894SOL    HW229319   1.179   4.355  11.348  0.1725 -2.9928  0.2897
 5895SOL     OW29320   2.669   2.632  11.164 -0.2294  0.0082  0.1080
 5895SOL    HW129321   2.753   2.660  11.129 -0.7507  0.4526 -0.7881
 5895SOL    HW229322   2.615   2.711  11.167 -0.6759 -0.3297  0.8769
 5896SOL     OW29323   2.492   2.040   7.611  0.0132  0.3640 -0.4723
 5896SOL    HW129324   2.404   2.072   7.592 -0.6000 -1.8638 -1.4479
 5896SOL    HW229325   2.470   1.964   7.665 -0.7883  0.4201 -0.7237
 5897SOL     OW29326   3.412   4.263   1.479  0.2712 -0.4304  0.0172
 5897SOL    HW129327   3.406   4.314   1.398 -0.1201 -0.1499  0.2207
 5897SOL    HW229328   3.470   4.319   1.531 -0.3976 -1.4052  1.8301
 5898SOL     OW29329   0.665   2.280   4.657 -0.0671 -0.6633 -0.3479
 5898SOL    HW129330   0.661   2.185   4.652  0.3192 -0.7727  1.5160
 5898SOL    HW229331   0.705   2.305   4.574  1.2252  0.2314  0.5328
 5899SOL     OW29332   2.418   4.548   8.942 -0.0813 -0.1580  0.3226
 5899SOL    HW129333   2.433   4.643   8.942  0.9561 -0.3200 -0.5830
 5899SOL    HW229334   2.344   4.548   8.881 -1.1795  1.5378  1.6582
 5900SOL     OW29335   2.320   3.216   9.527  0.3374 -0.8614  0.1355
 5900SOL    HW129336   2.245   3.253   9.481  0.9110 -0.6860 -0.6436
 5900SOL    HW229337   2.342   3.289   9.585 -0.0391 -0.1987 -0.5541
 5901SOL     OW29338   2.790   3.000   9.091  0.5278 -0.5050 -0.2077
 5901SOL    HW129339   2.697   3.011   9.110  0.2995 -0.9743 -1.0769
 5901SOL    HW229340   2.819   2.971   9.178  0.2219 -0.4348 -0.0816
 5902SOL     OW29341   3.096   0.279   8.209  0.3808  0.6135  0.5164
 5902SOL    HW129342   3.043   0.344   8.256  1.0548 -0.8819  3.3352
 5902SOL    HW229343   3.063   0.280   8.119 -0.7465 -0.9099  0.9105
 5903SOL     OW29344   2.617   0.878   5.814  1.2899  0.6020  0.3528
 5903SOL    HW129345   2.668   0.863   5.734 -0.7362  1.4175 -1.0894
 5903SOL    HW229346   2.669   0.940   5.865 -0.0404  1.1694  0.9925
 5904SOL     OW29347   2.252   2.258   1.062  0.2998 -0.4553 -0.2129
 5904SOL    HW129348   2.315   2.196   1.024  0.5408  0.2280 -0.9227
 5904SOL    HW229349   2.190   2.200   1.106 -1.6405  2.8986  1.4060
 5905SOL     OW29350   0.417   0.224   7.191  0.3548 -0.0821  0.5261
 5905SOL    HW129351   0.453   0.223   7.280  2.0052  1.8331 -0.1109
 5905SOL    HW229352   0.490   0.254   7.136 -1.6175 -0.6318 -2.3720
 5906SOL     OW29353   3.315   1.599   1.123  0.5770  0.3812  0.1955
 5906SOL    HW129354   3.364   1.521   1.097  1.4820  1.7241 -2.1407
 5906SOL    HW229355   3.251   1.559   1.182  4.0261 -2.4525  1.9843
 5907SOL     OW29356   4.365   2.710   1.524  0.0558 -0.0706  0.3069
 5907SOL    HW129357   4.387   2.797   1.491 -2.3649  0.5279  0.2700
 5907SOL    HW229358   4.370   2.658   1.444  2.8407  1.0646 -0.2800
 5908SOL     OW29359   2.174   2.922   2.202  0.1589  0.1945 -0.0484
 5908SOL    HW129360   2.189   2.999   2.258  1.6723  1.6652 -2.4819
 5908SOL    HW229361   2.079   2.933   2.195 -0.0356 -0.4234  1.6250
 5909SOL     OW29362   1.316   2.386   0.238 -0.7305 -0.2738 -0.2912
 5909SOL    HW129363   1.295   2.314   0.297 -2.1723 -0.8808 -1.5500
 5909SOL    HW229364   1.295   2.344   0.154 -1.1045  0.2370 -0.4593
 5910SOL     OW29365   1.841   1.702   4.141  0.1541  0.0705 -0.5766
 5910SOL    HW129366   1.774   1.720   4.207  0.0236 -3.6742  0.3452
 5910SOL    HW229367   1.824   1.774   4.081 -1.1992  0.1244 -0.1480
 5911SOL     OW29368   2.538   0.082   2.931  0.4871 -0.1932  0.3085
 5911SOL    HW129369   2.589   0.160   2.908 -0.5687  1.3912  3.2125
 5911SOL    HW229370   2.586   0.034   2.998  1.1948 -1.8121 -1.3553
 5912SOL     OW29371   4.286   1.138   5.352  0.2650 -0.4215 -0.0512
 5912SOL    HW129372   4.279   1.233   5.362 -0.1929 -0.3547 -1.0223
 5912SOL    HW229373   4.377   1.112   5.364 -0.1482 -1.5044  0.6783
 5913SOL     OW29374   4.659   0.111   9.988  0.7229  0.2420  0.2534
 5913SOL    HW129375   0.013   0.144   9.994 -0.1282  3.0257 -2.5190
 5913SOL    HW229376   4.614   0.195   9.992 -0.7899 -0.6561  2.2762
 5914SOL     OW29377   0.653   0.895   6.730 -0.0584  0.1573 -0.3496
 5914SOL    HW129378   0.702   0.977   6.735  0.5663 -0.2079 -0.3469
 5914SOL    HW229379   0.636   0.875   6.822 -0.4016  2.2631  0.0403
 5915SOL     OW29380   1.653   2.211   7.408  0.2071  0.0084  0.1063
 5915SOL    HW129381   1.704   2.180   7.483  1.0642  1.5381  0.1641
 5915SOL    HW229382   1.707   2.172   7.339  0.9151 -0.3939  0.8860
 5916SOL     OW29383   0.514   4.290  11.374 -0.2721 -0.3129  0.0062
 5916SOL    HW129384   0.587   4.255  11.323  0.4464  0.0550  0.7886
 5916SOL    HW229385   0.573   4.333  11.436  0.7287 -2.5261  0.5946
 5917SOL     OW29386   2.012   3.124  14.758 -0.0630  0.3331 -0.4938
 5917SOL    HW129387   1.976   3.211  14.741  0.1464  0.4968 -0.1092
 5917SOL    HW229388   1.974   3.078  14.684 -2.4960  0.9885  0.3401
 5918SOL     OW29389   2.785   3.029   2.141 -0.2905 -0.2070  0.3303
 5918SOL    HW129390   2.821   3.117   2.149 -2.9080  0.8196  0.9236
 5918SOL    HW229391   2.787   3.008   2.234 -0.6047 -0.7234  0.2204
 5919SOL     OW29392   1.008   2.948  17.581  0.1667 -0.0863  0.6855
 5919SOL    HW129393   1.034   3.035  17.551  0.9066 -1.1131 -1.6250
 5919SOL    HW229394   0.983   2.972  17.670  1.2450  1.8218  0.4677
 5920SOL     OW29395   3.614   2.412   8.101 -0.6140  0.2667 -0.0758
 5920SOL    HW129396   3.626   2.501   8.134  0.3090 -0.2794  1.0758
 5920SOL    HW229397   3.546   2.431   8.036  1.0484 -0.7803 -2.1195
 5921SOL     OW29398   2.031   2.981   6.162 -0.0672  0.3090  0.1325
 5921SOL    HW129399   2.076   2.925   6.099  2.4499  1.2214  1.1149
 5921SOL    HW229400   2.008   3.055   6.106 -2.1084 -0.6345 -0.2605
 5922SOL     OW29401   4.517   1.861   3.009 -0.7156 -0.1629 -0.6539
 5922SOL    HW129402   4.447   1.909   2.965 -1.4864  0.3300  1.1202
 5922SOL    HW229403   4.600   1.890   2.971 -0.0433 -0.6472  0.4450
 5923SOL     OW29404   1.532   3.515   2.880 -0.2660  0.4237 -0.1924
 5923SOL    HW129405   1.510   3.598   2.838  1.4135  0.6697 -0.5890
 5923SOL    HW229406   1.444   3.496   2.912 -0.3519 -0.8185 -1.1652
 5924SOL     OW29407   1.328   3.853   6.291  0.0839  0.5404 -0.3321
 5924SOL    HW129408   1.235   3.871   6.306 -0.1252  0.0281 -1.0144
 5924SOL    HW229409   1.371   3.924   6.338 -0.6029  0.5476  0.2921
 5925SOL     OW29410   0.707   0.759   0.598 -0.2573 -0.1605 -0.1471
 5925SOL    HW129411   0.682   0.790   0.511  0.5321 -0.2630 -0.4099
 5925SOL    HW229412   0.802   0.763   0.594 -0.2878  1.6822  0.8478
 5926SOL     OW29413   3.644   0.047  14.629 -0.1358 -0.0458  0.1481
 5926SOL    HW129414   3.671   4.691  14.622 -1.0374 -0.2634 -0.3959
 5926SOL    HW229415   3.632   0.060  14.535 -0.7611  0.9536  0.3729
 5927SOL     OW29416   4.384   2.991   3.936  0.2343  0.4055 -0.7917
 5927SOL    HW129417   4.357   2.982   4.027  1.6869  0.2462 -0.3636
 5927SOL    HW229418   4.323   2.929   3.897 -2.2285  3.9472 -2.5638
 5928SOL     OW29419   4.251   1.391   4.800  0.5177 -0.0969  0.0031
 5928SOL    HW129420   4.207   1.398   4.885 -1.3233  2.4309 -1.1508
 5928SOL    HW229421   4.330   1.350   4.834  0.1633 -0.0060  0.9579
 5929SOL     OW29422   0.011   1.002   4.733 -0.3153  0.4806  0.0984
 5929SOL    HW129423   4.700   0.996   4.817  0.3115 -0.5428  0.3774
 5929SOL    HW229424   0.021   1.097   4.729  0.2987  0.3834 -0.5383
 5930SOL     OW29425   4.507   3.961   0.943 -0.1121 -0.0518 -0.1251
 5930SOL    HW129426   4.455   3.899   0.994 -0.5185  0.1997 -0.2247
 5930SOL    HW229427   4.485   3.934   0.854 -0.1882  0.6067 -0.3041
 5931SOL     OW29428   1.620   3.184   7.327 -0.5475  0.6174  0.4135
 5931SOL    HW129429   1.690   3.157   7.387 -0.8365 -1.0241  0.0014
 5931SOL    HW229430   1.655   3.270   7.303  2.6513 -0.8368 -0.1094
 5932SOL     OW29431   2.234   2.274  14.455  0.0098 -0.0545 -0.6310
 5932SOL    HW129432   2.174   2.327  14.402 -1.5534 -1.8747 -0.7159
 5932SOL    HW229433   2.240   2.201  14.393  2.1281  0.0546 -0.5555
 5933SOL     OW29434   4.365   0.905   7.038 -0.0843 -0.3470 -0.2131
 5933SOL    HW129435   4.294   0.875   7.095 -0.5619  0.5085 -0.3544
 5933SOL    HW229436   4.433   0.901   7.105  0.6569 -2.3908 -1.0716
 5934SOL     OW29437   0.839   4.281   6.529  0.0578  0.0359 -0.9762
 5934SOL    HW129438   0.877   4.363   6.498 -0.2305  0.6483  0.2911
 5934SOL    HW229439   0.748   4.289   6.499  0.2828  0.4818 -1.5385
 5935SOL     OW29440   1.465   4.346   9.529 -0.1363  0.3645  0.3388
 5935SOL    HW129441   1.381   4.375   9.564 -1.0928 -1.6600 -0.2681
 5935SOL    HW229442   1.455   4.251   9.531  0.3673  0.3346  1.0776
 5936SOL     OW29443   0.440   4.577   3.812 -0.1553  0.1728  0.8889
 5936SOL    HW129444   0.450   4.552   3.721  0.8131  2.3116  0.3869
 5936SOL    HW229445   0.478   4.665   3.807  0.5232 -0.2438 -1.0737
 5937SOL     OW29446   2.829   4.149   4.064 -0.6224 -0.0291 -0.0339
 5937SOL    HW129447   2.824   4.074   4.124 -1.1194  0.8597  1.0387
 5937SOL    HW229448   2.887   4.214   4.103  0.9120 -1.4149 -0.0099
 5938SOL     OW29449   4.303   0.548  14.527  0.1858 -0.1678 -0.3195
 5938SOL    HW129450   4.335   0.637  14.513  1.9799 -0.7445  0.1944
 5938SOL    HW229451   4.290   0.510  14.440 -1.4221  2.4028 -1.1838
 5939SOL     OW29452   4.565   1.337   5.646  0.3494 -0.0666  0.3531
 5939SOL    HW129453   4.484   1.299   5.682 -0.6794  0.4224 -1.4270
 5939SOL    HW229454   4.597   1.269   5.586  1.5440  0.5411  0.3227
 5940SOL     OW29455   4.196   0.555   5.078  0.2248  0.1229  0.2585
 5940SOL    HW129456   4.216   0.633   5.026  0.2788 -0.8884 -1.2151
 5940SOL    HW229457   4.114   0.587   5.117 -0.2963  1.1030 -1.6249
 5941SOL     OW29458   3.118   4.091  12.531  0.0374  0.1593 -0.0328
 5941SOL    HW129459   3.195   4.137  12.498  0.3784  0.7535  1.5779
 5941SOL    HW229460   3.154   4.061  12.614 -0.7717  1.0603  0.6503
 5942SOL     OW29461   1.692   4.103   6.085 -0.2192  0.6633  0.2424
 5942SOL    HW129462   1.697   4.009   6.105  0.7088  0.6978  0.1741
 5942SOL    HW229463   1.754   4.112   6.013 -0.9677  1.8187 -0.2489
 5943SOL     OW29464   4.597   1.927   7.232 -0.0290 -0.0375 -0.2207
 5943SOL    HW129465   4.682   1.882   7.228 -0.6844 -1.1132 -2.5253
 5943SOL    HW229466   4.549   1.899   7.154  1.8834 -0.4736 -1.2504
 5944SOL     OW29467   2.063   0.420   6.908 -0.9646 -0.1272 -0.2878
 5944SOL    HW129468   2.009   0.486   6.866 -0.2846 -0.4198 -1.6393
 5944SOL    HW229469   2.150   0.457   6.926  0.3025 -1.8682 -2.8016
 5945SOL     OW29470   3.087   4.352  11.215 -0.9398  0.1389  0.0447
 5945SOL    HW129471   3.153   4.392  11.271  0.5934 -1.1839 -0.7862
 5945SOL    HW229472   3.003   4.341  11.259 -0.3899  0.7679  1.2375
 5946SOL     OW29473   2.729   1.204   3.734  0.1405  0.5649  0.4042
 5946SOL    HW129474   2.665   1.272   3.712  0.4194  0.3824 -0.9638
 5946SOL    HW229475   2.731   1.217   3.828  0.5213 -0.1511  0.4935
 5947SOL     OW29476   1.336   0.456   1.128  0.1643 -0.3981  0.0936
 5947SOL    HW129477   1.264   0.437   1.188 -0.7248 -0.0383 -0.8378
 5947SOL    HW229478   1.405   0.400   1.163  2.1396  0.6975 -2.0559
 5948SOL     OW29479   1.357   4.428   6.154 -0.0022 -0.0030 -0.3599
 5948SOL    HW129480   1.316   4.418   6.068 -1.5216 -1.7667  0.5740
 5948SOL    HW229481   1.402   4.344   6.161 -0.0292  0.1210  1.3690
 5949SOL     OW29482   1.513   2.726   8.936  0.0686 -0.7441  0.4726
 5949SOL    HW129483   1.554   2.807   8.967 -1.2965  0.1835 -0.1117
 5949SOL    HW229484   1.421   2.749   8.952 -0.1027  0.2770 -1.8917
 5950SOL     OW29485   1.106   2.071   7.558 -0.0389  0.0132 -0.1189
 5950SOL    HW129486   1.047   2.103   7.489  0.6788  1.8789  0.1447
 5950SOL    HW229487   1.182   2.036   7.512 -0.2875 -0.8688  0.1382
 5951SOL     OW29488   3.514   4.457   7.225  0.5450  0.0060 -0.0036
 5951SOL    HW129489   3.581   4.524   7.240 -1.7188  2.4836 -1.1112
 5951SOL    HW229490   3.537   4.391   7.291 -1.2037  0.2635  0.8443
 5952SOL     OW29491   1.991   0.532   2.330  0.5028 -0.9915  0.0082
 5952SOL    HW129492   1.932   0.457   2.325  0.3152 -0.8619  0.2629
 5952SOL    HW229493   2.034   0.532   2.245 -1.5613 -0.0322 -1.0355
 5953SOL     OW29494   4.218   4.118   4.324  0.3912  0.1282 -0.1090
 5953SOL    HW129495   4.253   4.063   4.254  1.8830 -0.5302  1.1824
 5953SOL    HW229496   4.279   4.089   4.391 -0.5679 -0.6643  0.4216
 5954SOL     OW29497   4.461   4.684   5.000 -0.5296  0.0417  0.1406
 5954SOL    HW129498   4.472   0.031   5.046 -1.2375 -0.3126  0.9368
 5954SOL    HW229499   4.451   4.630   5.078 -3.4194 -0.0739 -0.3270
 5955SOL     OW29500   1.124   3.785   0.432  0.5057  0.0719  0.7304
 5955SOL    HW129501   1.036   3.808   0.463 -0.1282 -0.9871 -0.2739
 5955SOL    HW229502   1.143   3.708   0.486  1.1423 -0.4132 -0.2016
 5956SOL     OW29503   2.562   1.001  10.121 -0.0630 -0.4096  0.3847
 5956SOL    HW129504   2.565   0.953  10.204  1.7343 -0.6643  0.1651
 5956SOL    HW229505   2.647   1.045  10.120 -0.2359 -0.0940 -0.6720
 5957SOL     OW29506   1.405   0.764   2.135  0.1732  0.1086  0.1275
 5957SOL    HW129507   1.426   0.773   2.228 -1.6738 -5.2778  1.0292
 5957SOL    HW229508   1.444   0.678   2.121  0.7029  0.2127  0.9473
 5958SOL     OW29509   2.989   1.289   2.102 -0.2327 -0.5177  0.2521
 5958SOL    HW129510   2.942   1.219   2.056 -0.6141  0.9623 -1.6065
 5958SOL    HW229511   2.945   1.282   2.187 -1.3558  3.0564 -0.0259
 5959SOL     OW29512   2.785   4.074   1.858  0.5212 -0.5651 -0.3071
 5959SOL    HW129513   2.693   4.048   1.860  0.3157  0.1914 -0.0606
 5959SOL    HW229514   2.789   4.162   1.895 -0.7336 -0.2883 -0.8256
 5960SOL     OW29515   3.020   0.229   4.355 -0.0336  0.0281  0.2229
 5960SOL    HW129516   2.925   0.238   4.348 -0.2226 -2.5137 -0.7035
 5960SOL    HW229517   3.036   0.135   4.356  2.4756  0.4631 -0.3627
 5961SOL     OW29518   0.435   0.525   3.231 -0.1645 -0.0031 -0.2601
 5961SOL    HW129519   0.460   0.454   3.172  2.3054 -0.8190  1.7446
 5961SOL    HW229520   0.392   0.586   3.171 -0.7434  1.7344  1.9298
 5962SOL     OW29521   0.091   1.290   8.359  0.3344  0.3980  0.1756
 5962SOL    HW129522   0.128   1.260   8.276  1.5167  2.1309  0.0915
 5962SOL    HW229523   0.008   1.242   8.363  0.2677  0.3847 -1.1617
 5963SOL     OW29524   3.858   2.397   0.645  0.5633 -0.3485 -0.1939
 5963SOL    HW129525   3.804   2.332   0.689  2.3417 -0.7682  1.3753
 5963SOL    HW229526   3.874   2.343   0.567 -3.3826 -0.0849 -1.1883
 5964SOL     OW29527   1.566   4.333   1.904  0.6686  1.0253 -0.0595
 5964SOL    HW129528   1.625   4.352   1.977  0.8944  0.1599 -0.0160
 5964SOL    HW229529   1.507   4.269   1.943 -0.5899  0.8086 -2.2882
 5965SOL     OW29530   3.639   4.232   6.865  0.1181  0.1296 -0.1034
 5965SOL    HW129531   3.634   4.322   6.897  0.0488 -0.2649  0.9950
 5965SOL    HW229532   3.710   4.238   6.801  0.8255 -0.7078  0.5938
 5966SOL     OW29533   1.021   4.251   4.077  0.2742 -0.2209  0.6520
 5966SOL    HW129534   1.040   4.267   3.985 -0.4429 -2.6379  0.0812
 5966SOL    HW229535   1.069   4.331   4.100 -0.9490  0.6765  0.1386
 5967SOL     OW29536   1.596   2.861   5.102  0.3051  0.1104 -0.5221
 5967SOL    HW129537   1.546   2.942   5.097  1.7350  0.9786 -0.7603
 5967SOL    HW229538   1.668   2.876   5.040 -0.9246 -1.1155 -2.2666
 5968SOL     OW29539   2.146   3.604   7.035  0.9811 -0.6859  0.2305
 5968SOL    HW129540   2.233   3.636   7.012 -0.0182  0.8909 -1.4810
 5968SOL    HW229541   2.149   3.617   7.129 -1.0452  0.4659  0.1615
 5969SOL     OW29542   3.592   3.792   3.343  0.8619  0.0723  0.3374
 5969SOL    HW129543   3.582   3.849   3.419 -0.5818 -1.1383  1.0481
 5969SOL    HW229544   3.644   3.852   3.289  1.0704 -0.2786  0.1455
 5970SOL     OW29545   0.155   4.645   7.974 -0.2109  0.0163  0.0777
 5970SOL    HW129546   0.119   4.732   7.991  0.6805  0.8436 -2.2947
 5970SOL    HW229547   0.096   4.615   7.905  0.9263  0.3134 -1.0223
 5971SOL     OW29548   1.089   1.937   8.668 -0.5356 -0.0326  0.3839
 5971SOL    HW129549   1.044   1.910   8.588  2.6963 -1.8364 -0.8576
 5971SOL    HW229550   1.147   2.004   8.631  1.0585 -0.7329  1.5792
 5972SOL     OW29551   2.292   3.238   1.913  0.3302  0.1789  0.0701
 5972SOL    HW129552   2.345   3.265   1.838 -0.5590 -2.5342 -1.5286
 5972SOL    HW229553   2.362   3.216   1.975  1.1919 -0.4639 -1.1335
 5973SOL     OW29554   2.849   1.950  15.613 -0.2471 -0.3150 -0.4916
 5973SOL    HW129555   2.930   1.958  15.664  0.1246  1.0612 -1.3195
 5973SOL    HW229556   2.831   2.039  15.585  2.7895  0.4446 -0.0426
 5974SOL     OW29557   3.837   3.189   6.039 -0.0861 -0.5513 -0.4276
 5974SOL    HW129558   3.797   3.137   6.109 -0.0313 -1.2238 -0.8961
 5974SOL    HW229559   3.802   3.275   6.064 -0.7524 -0.9474  0.0291
 5975SOL     OW29560   3.155   3.843   6.891 -0.6512 -0.1435 -0.3909
 5975SOL    HW129561   3.064   3.836   6.920 -0.2336 -1.1359  0.6708
 5975SOL    HW229562   3.142   3.926   6.843 -1.1045 -0.4213 -0.7510
 5976SOL     OW29563   0.267   4.224   8.245  0.1941  0.0836 -0.5783
 5976SOL    HW129564   0.229   4.303   8.207  1.7324  1.8270  1.4679
 5976SOL    HW229565   0.221   4.150   8.207 -0.5691 -0.0670  0.6316
 5977SOL     OW29566   2.066   2.464   8.758  0.5616  0.3232  0.3810
 5977SOL    HW129567   2.040   2.372   8.769  0.3951  0.2792 -0.3447
 5977SOL    HW229568   2.022   2.499   8.680 -2.4121 -1.1982  1.3811
 5978SOL     OW29569   1.602   0.730   0.017 -0.4038 -0.7244 -0.6200
 5978SOL    HW129570   1.666   0.689  17.700 -0.8392 -1.5505 -0.5109
 5978SOL    HW229571   1.527   0.740  17.699  0.5978  0.2215 -1.7324
 5979SOL     OW29572   2.734   2.533   4.451  0.2224  0.1240  0.3825
 5979SOL    HW129573   2.763   2.594   4.519 -1.3598  0.3255  0.8795
 5979SOL    HW229574   2.683   2.464   4.493 -1.1413  1.2077  0.5133
 5980SOL     OW29575   2.322   0.999   3.399  0.5265 -0.0092  0.0608
 5980SOL    HW129576   2.347   0.980   3.309 -0.0956  0.7649 -0.2793
 5980SOL    HW229577   2.342   0.913   3.435 -1.4835 -0.5880 -0.2144
 5981SOL     OW29578   0.976   4.510  11.548 -0.3271 -0.0187  0.2543
 5981SOL    HW129579   1.057   4.461  11.536 -1.3007 -1.2787 -1.1803
 5981SOL    HW229580   1.014   4.595  11.571 -0.7624 -0.1774  1.5459
 5982SOL     OW29581   2.633   0.691   0.340  0.2132 -0.6392 -0.7566
 5982SOL    HW129582   2.659   0.607   0.378 -2.6415 -1.4356 -0.5418
 5982SOL    HW229583   2.652   0.752   0.412 -1.4480  0.5350 -1.2990
 5983SOL     OW29584   1.230   0.390   5.232 -0.2695  0.0125 -0.1890
 5983SOL    HW129585   1.235   0.294   5.222 -1.4558 -0.1068  0.3368
 5983SOL    HW229586   1.303   0.424   5.181 -0.8566 -0.3872 -1.2944
 5984SOL     OW29587   1.683   0.828   5.338  0.2383  0.7237 -0.0829
 5984SOL    HW129588   1.613   0.789   5.286  1.9657 -2.3851 -0.1088
 5984SOL    HW229589   1.758   0.772   5.317  0.0500  0.5353 -0.2624
 5985SOL     OW29590   2.242   2.949   7.954  0.4572 -0.0169 -0.4561
 5985SOL    HW129591   2.296   2.914   7.884  0.2436 -0.9341 -0.1599
 5985SOL    HW229592   2.303   2.941   8.027 -0.3744  0.3915  0.2848
 5986SOL     OW29593   1.031   2.244   4.239  0.0887 -0.0233  0.3897
 5986SOL    HW129594   1.100   2.191   4.277  0.2670 -0.1957 -0.1655
 5986SOL    HW229595   0.966   2.176   4.224  1.5743 -0.8728 -2.1963
 5987SOL     OW29596   1.426   1.464  14.318  0.5318 -0.6065  0.4892
 5987SOL    HW129597   1.331   1.460  14.304  0.2018  0.1869  2.5342
 5987SOL    HW229598   1.450   1.376  14.287 -2.6791 -1.6897  1.0131
 5988SOL     OW29599   2.885   3.602   2.891 -0.6200  0.0031 -0.2571
 5988SOL    HW129600   2.929   3.581   2.808  0.0899  1.8243 -0.3367
 5988SOL    HW229601   2.790   3.590   2.884 -0.8526  1.0528  1.1855
 5989SOL     OW29602   2.823   1.960  16.654  0.6842  0.4896 -0.1595
 5989SOL    HW129603   2.838   1.874  16.616  2.0940  0.7802 -0.2569
 5989SOL    HW229604   2.741   1.942  16.701  0.0491  1.3592 -0.9286
 5990SOL     OW29605   4.277   4.277   3.915 -0.0133 -0.0029  0.4910
 5990SOL    HW129606   4.366   4.290   3.948 -0.3706 -0.1448  1.5258
 5990SOL    HW229607   4.297   4.243   3.828 -0.6365 -0.5254  0.5510
 5991SOL     OW29608   4.413   1.408   0.283  0.0504  0.2825 -0.0970
 5991SOL    HW129609   4.358   1.362   0.220 -0.8593  3.6444 -1.7705
 5991SOL    HW229610   4.371   1.494   0.288 -0.4435  0.0979 -1.1225
 5992SOL     OW29611   3.951   3.823   9.674  0.6791  0.4840  0.4827
 5992SOL    HW129612   3.936   3.797   9.764  3.1425 -2.7229 -0.0393
 5992SOL    HW229613   3.865   3.856   9.648  0.4875  0.1816  0.7471
 5993SOL     OW29614   1.822   0.346  11.099  0.1916  0.5537 -0.0316
 5993SOL    HW129615   1.767   0.424  11.110 -1.1865 -0.8721  3.0777
 5993SOL    HW229616   1.893   0.380  11.154  0.5209 -1.4494  0.7883
 5994SOL     OW29617   4.575   3.622   2.447 -0.4052  0.3031  0.0337
 5994SOL    HW129618   4.584   3.714   2.472 -0.0999  0.4857 -0.7364
 5994SOL    HW229619   4.482   3.603   2.450 -0.4657  0.7964  1.1535
 5995SOL     OW29620   0.528   0.831   6.495 -0.1267 -0.1833 -0.5729
 5995SOL    HW129621   0.588   0.763   6.464  1.9361  0.5740  1.8365
 5995SOL    HW229622   0.571   0.853   6.577  0.9435 -0.6798 -1.0058
 5996SOL     OW29623   4.284   1.908  11.220 -0.0253 -0.4138  0.0833
 5996SOL    HW129624   4.367   1.877  11.183 -0.9290  0.5640 -2.6683
 5996SOL    HW229625   4.223   1.847  11.179  0.0965 -1.1216  0.9222
 5997SOL     OW29626   4.556   2.265  16.086  0.5632  0.0337  0.5196
 5997SOL    HW129627   4.599   2.348  16.107 -0.0192  0.5950 -0.4602
 5997SOL    HW229628   4.540   2.271  15.991  0.5303 -0.2268  0.5097
 5998SOL     OW29629   2.978   0.707  10.384 -0.3350  0.3461  0.5477
 5998SOL    HW129630   3.001   0.708  10.478 -1.5750  0.1551  0.8436
 5998SOL    HW229631   3.000   0.797  10.358  2.7343 -0.9104 -1.2054
 5999SOL     OW29632   3.155   3.778   9.218  0.2356  0.4051  0.1710
 5999SOL    HW129633   3.151   3.722   9.295  2.5120 -0.9148 -0.6887
 5999SOL    HW229634   3.079   3.738   9.175  1.8902 -1.5901 -0.8638
 6000SOL     OW29635   2.746   2.217  14.497 -0.2983  0.4449 -0.3584
 6000SOL    HW129636   2.811   2.237  14.564  0.4648 -1.1946 -0.6222
 6000SOL    HW229637   2.661   2.212  14.540 -0.2693 -0.9841 -0.4621
 6001SOL     OW29638   2.852   4.141   1.234 -0.2527 -0.5396  0.4785
 6001SOL    HW129639   2.865   4.202   1.306 -0.4881 -0.3471  0.3535
 6001SOL    HW229640   2.769   4.103   1.263 -1.8474  2.1987 -0.5219
 6002SOL     OW29641   3.775   3.832   0.826  0.4108  0.4223  0.0640
 6002SOL    HW129642   3.690   3.858   0.790 -0.3642 -3.6513 -1.0580
 6002SOL    HW229643   3.822   3.916   0.825  1.6782 -0.2903 -1.0347
 6003SOL     OW29644   2.220   0.125  11.336  0.2600  0.5535 -0.2002
 6003SOL    HW129645   2.220   0.035  11.303 -1.7932  0.2663  0.5752
 6003SOL    HW229646   2.311   0.124  11.367  0.3612  1.5861 -0.4611
 6004SOL     OW29647   1.481   3.816   5.508 -0.0991 -0.1461 -0.4967
 6004SOL    HW129648   1.448   3.754   5.573  0.7119 -1.2272 -1.1192
 6004SOL    HW229649   1.432   3.895   5.531 -0.7579 -0.4867 -0.7274
 6005SOL     OW29650   3.565   1.965  14.961  0.4621 -0.6889 -0.3194
 6005SOL    HW129651   3.620   1.933  14.890 -0.1333 -0.5234 -0.8521
 6005SOL    HW229652   3.613   1.937  15.039  0.2364  1.9548  0.8040
 6006SOL     OW29653   1.111   1.078   1.722 -0.3732 -0.3129 -0.5359
 6006SOL    HW129654   1.178   1.091   1.656 -1.4512  0.0332 -1.5679
 6006SOL    HW229655   1.175   1.036   1.780  0.4419  0.3096 -0.9910
 6007SOL     OW29656   1.603   3.660  10.368 -0.4904  0.1269  0.0787
 6007SOL    HW129657   1.576   3.739  10.414  0.0891  1.1786 -1.4089
 6007SOL    HW229658   1.669   3.629  10.430  0.5917 -2.2545 -2.2670
 6008SOL     OW29659   0.952   2.971  10.126  1.0059  0.1845  0.1092
 6008SOL    HW129660   0.986   2.883  10.110  2.6485  0.6172  1.1672
 6008SOL    HW229661   0.857   2.969  10.125  0.9773  1.8982 -0.6540
 6009SOL     OW29662   1.026   1.319   7.304  0.1092  0.1230  0.2856
 6009SOL    HW129663   0.998   1.272   7.226 -2.8590  1.2610  0.6646
 6009SOL    HW229664   0.993   1.405   7.278 -0.8092  0.3445  2.1132
 6010SOL     OW29665   2.028   0.236   8.652  0.0504 -0.6416 -0.1674
 6010SOL    HW129666   2.086   0.162   8.669  2.8042  1.3468 -0.9431
 6010SOL    HW229667   2.088   0.302   8.616  1.7990 -1.2792  1.5849
 6011SOL     OW29668   3.362   1.020   7.050  0.4417 -0.0603 -0.0050
 6011SOL    HW129669   3.276   1.046   7.018  1.6464  1.1716 -2.1846
 6011SOL    HW229670   3.349   0.959   7.123  0.5384 -1.6542 -1.3111
 6012SOL     OW29671   3.318   4.415   3.814 -0.1627 -0.6947  0.5089
 6012SOL    HW129672   3.320   4.321   3.795  1.8714 -0.4022 -0.7681
 6012SOL    HW229673   3.379   4.453   3.750 -3.5868  0.4373 -2.0623
 6013SOL     OW29674   2.343   0.870  16.130  0.2464  0.1234  0.1050
 6013SOL    HW129675   2.389   0.873  16.046  0.3294 -1.3639  0.0932
 6013SOL    HW229676   2.397   0.800  16.167  1.5586  0.7626 -0.5521
 6014SOL     OW29677   3.222   3.065   6.223  0.1129 -0.4392  0.0914
 6014SOL    HW129678   3.176   3.046   6.305  0.1128 -0.7080  0.0265
 6014SOL    HW229679   3.315   3.049   6.239  0.2882 -2.3344 -2.9689
 6015SOL     OW29680   0.639   2.514   7.656 -0.0665 -0.2300  0.4881
 6015SOL    HW129681   0.600   2.591   7.699 -1.5397  0.0792 -1.3619
 6015SOL    HW229682   0.715   2.556   7.617 -1.1694  0.3033 -1.0929
 6016SOL     OW29683   0.513   0.479  15.352 -0.7783 -0.1721  0.0906
 6016SOL    HW129684   0.579   0.535  15.312 -0.0137 -0.2819  1.2078
 6016SOL    HW229685   0.443   0.544  15.353  1.3855  2.1279  1.8468
 6017SOL     OW29686   3.009   2.161   2.619 -0.1871  0.4051 -0.0443
 6017SOL    HW129687   2.953   2.237   2.600 -0.1235 -0.5760 -4.1803
 6017SOL    HW229688   3.023   2.172   2.713 -0.7089 -2.5288  0.3600
 6018SOL     OW29689   3.811   2.576   2.554 -0.2911  0.0528 -0.3519
 6018SOL    HW129690   3.768   2.541   2.476 -0.7924  0.9272 -0.4650
 6018SOL    HW229691   3.893   2.528   2.562 -0.3982 -0.1275 -0.3454
 6019SOL     OW29692   3.596   0.393   7.380 -0.7738 -0.1186  0.2183
 6019SOL    HW129693   3.515   0.374   7.429 -1.2287 -1.0454 -0.8849
 6019SOL    HW229694   3.555   0.435   7.305 -1.3848 -0.9082  0.1050
 6020SOL     OW29695   0.644   4.141   5.983  0.8489  0.8123 -0.3407
 6020SOL    HW129696   0.662   4.219   5.931  1.3412 -0.7397 -2.4969
 6020SOL    HW229697   0.727   4.114   6.021  1.6794  2.5669 -0.9107
 6021SOL     OW29698   1.574   2.644  12.764  0.2543 -0.3053 -0.3343
 6021SOL    HW129699   1.520   2.577  12.722 -0.4590  0.2297 -0.2613
 6021SOL    HW229700   1.652   2.646  12.709  0.5740  1.4433  0.1917
 6022SOL     OW29701   0.890   0.682   9.873 -0.0294 -0.6906  0.8017
 6022SOL    HW129702   0.978   0.698   9.907  0.4724  1.2474 -1.3986
 6022SOL    HW229703   0.904   0.719   9.786  2.3951 -3.2457  0.1065
 6023SOL     OW29704   1.019   4.358   2.586 -0.6908 -0.2440 -0.1907
 6023SOL    HW129705   0.983   4.405   2.511 -2.7360  0.2795  1.1363
 6023SOL    HW229706   1.110   4.344   2.560 -0.8660 -1.1959 -0.2812
 6024SOL     OW29707   1.223   2.854  17.440  0.2025  0.3846 -0.5105
 6024SOL    HW129708   1.236   2.772  17.487 -0.7030 -0.2273 -1.3592
 6024SOL    HW229709   1.145   2.886  17.486 -0.3107 -2.6859  0.7437
 6025SOL     OW29710   2.370   1.241   6.584  0.3694 -0.6168 -0.1337
 6025SOL    HW129711   2.385   1.157   6.540 -1.9093 -0.6846 -0.7854
 6025SOL    HW229712   2.275   1.235   6.594  0.5846 -0.7808  1.7130
 6026SOL     OW29713   1.538   1.136  12.268 -0.2423  0.2186 -0.1927
 6026SOL    HW129714   1.585   1.139  12.185 -0.7215 -0.6961 -0.4943
 6026SOL    HW229715   1.522   1.231  12.269 -1.6560 -0.0143 -0.3416
 6027SOL     OW29716   4.151   2.404   7.483  1.0203  0.0289 -0.1175
 6027SOL    HW129717   4.104   2.471   7.433  0.4480  0.5477  1.1409
 6027SOL    HW229718   4.235   2.450   7.491  0.0675  1.5198  1.1390
 6028SOL     OW29719   2.861   1.841   4.441 -0.1363 -0.0242  0.1471
 6028SOL    HW129720   2.805   1.843   4.519  2.0587 -3.5123  1.8157
 6028SOL    HW229721   2.918   1.917   4.434 -0.1706 -0.0216 -0.0814
 6029SOL     OW29722   0.462   4.085  16.844  0.4879 -0.6967 -0.2016
 6029SOL    HW129723   0.407   4.119  16.914 -0.6521 -3.1127  0.1026
 6029SOL    HW229724   0.533   4.148  16.856  0.8544 -1.3780  1.1711
 6030SOL     OW29725   1.544   2.090   7.805 -0.8724  1.1524  0.0272
 6030SOL    HW129726   1.476   2.034   7.842  0.9583 -2.0132 -1.3928
 6030SOL    HW229727   1.559   2.146   7.880 -2.1950  0.8891  0.4887
 6031SOL     OW29728   2.259   0.242   7.808 -0.0765 -0.3867 -0.2795
 6031SOL    HW129729   2.271   0.260   7.715  2.0603 -3.6072 -0.6312
 6031SOL    HW229730   2.312   0.162   7.807 -0.1578 -0.4396 -0.4247
 6032SOL     OW29731   1.506   1.160  10.290 -0.2212  0.6347  0.1851
 6032SOL    HW129732   1.443   1.184  10.222  0.3758  1.3228 -0.1271
 6032SOL    HW229733   1.569   1.103  10.245 -2.7933 -0.3382 -2.1576
 6033SOL     OW29734   0.792   3.048   9.168  0.3242 -1.6123 -0.1249
 6033SOL    HW129735   0.855   3.071   9.237 -1.1446 -2.1694  1.4152
 6033SOL    HW229736   0.830   3.099   9.097  0.5630 -1.0515  0.4036
 6034SOL     OW29737   3.267   1.469   9.970  0.1748 -0.1166  0.5395
 6034SOL    HW129738   3.339   1.407   9.982  0.2630  0.0454  0.8585
 6034SOL    HW229739   3.301   1.503   9.887  0.7931 -0.0424  0.8184
 6035SOL     OW29740   3.054   3.063  11.309  0.4791  0.3456  0.6997
 6035SOL    HW129741   3.054   3.156  11.332  1.2376 -0.1700  2.8342
 6035SOL    HW229742   3.051   3.056  11.214 -1.5825 -0.4478  0.8247
 6036SOL     OW29743   2.258   1.079  14.804  0.2243  0.0584 -0.3584
 6036SOL    HW129744   2.192   1.071  14.873  0.0561 -1.2391 -0.6641
 6036SOL    HW229745   2.201   1.090  14.728  0.3060 -2.0090 -0.7157
 6037SOL     OW29746   1.851   1.341   6.854  0.3059  0.2324 -0.3120
 6037SOL    HW129747   1.910   1.310   6.923 -0.1835 -1.2625 -0.5740
 6037SOL    HW229748   1.789   1.268   6.852 -2.3590  2.4336  1.3763
 6038SOL     OW29749   4.109   3.525   4.910  0.0973 -0.1802  0.0668
 6038SOL    HW129750   4.166   3.499   4.838  0.1542 -0.0685  0.0719
 6038SOL    HW229751   4.066   3.446   4.942 -0.4384 -1.1080 -3.0089
 6039SOL     OW29752   2.077   2.273  12.471  0.1335 -0.3377  0.1623
 6039SOL    HW129753   2.009   2.311  12.528 -0.2028 -1.6398  0.6341
 6039SOL    HW229754   2.071   2.178  12.483  2.2307 -0.5265 -0.3119
 6040SOL     OW29755   3.086   0.509   2.938 -0.3339 -0.0634 -0.1837
 6040SOL    HW129756   3.024   0.571   2.900 -1.9049 -1.0387  0.7778
 6040SOL    HW229757   3.032   0.477   3.010 -0.1078  0.5236  0.2445
 6041SOL     OW29758   0.550   0.134   1.729  0.0655  0.3474 -0.3378
 6041SOL    HW129759   0.511   0.069   1.788 -1.8524  1.2091 -0.6642
 6041SOL    HW229760   0.539   0.210   1.785  0.6986  1.2502 -1.4584
 6042SOL     OW29761   1.792   4.728   7.310  0.0134  0.1398  0.1531
 6042SOL    HW129762   1.887   4.718   7.306  0.1381  1.0820  0.7654
 6042SOL    HW229763   1.775   0.035   7.226 -0.2660 -0.8084 -0.2819
 6043SOL     OW29764   1.745   4.254   7.636 -0.6824  0.0760 -0.2436
 6043SOL    HW129765   1.726   4.197   7.710  0.7284 -0.8627 -0.6003
 6043SOL    HW229766   1.661   4.250   7.590 -0.6026 -0.7462 -0.3198
 6044SOL     OW29767   4.233   3.696   6.553 -0.1294 -0.0794  0.1565
 6044SOL    HW129768   4.150   3.675   6.596 -1.4361  0.7573 -1.9615
 6044SOL    HW229769   4.265   3.609   6.529 -1.2870 -1.0684  2.2370
 6045SOL     OW29770   3.154   1.361   6.896  0.4621  0.7165  0.2355
 6045SOL    HW129771   3.165   1.328   6.807  1.3263 -0.6695  0.8388
 6045SOL    HW229772   3.116   1.448   6.887 -1.0967 -0.0193 -0.2362
 6046SOL     OW29773   2.853   1.011  10.244 -0.2006  0.5510  0.0970
 6046SOL    HW129774   2.925   0.952  10.266 -0.8429 -0.4189 -0.4161
 6046SOL    HW229775   2.835   1.038  10.334 -2.4982  0.8650 -0.4486
 6047SOL     OW29776   3.836   1.507   7.304  0.1071 -0.1826  0.2862
 6047SOL    HW129777   3.786   1.428   7.283  0.1135  0.0581 -0.6223
 6047SOL    HW229778   3.860   1.472   7.390  0.8810  1.0726  0.5822
 6048SOL     OW29779   3.978   4.140   9.913  0.0595 -0.1820 -0.3956
 6048SOL    HW129780   3.925   4.089   9.974  1.4257 -1.4598 -0.2681
 6048SOL    HW229781   3.910   4.202   9.886 -1.6919 -2.2400 -0.7171
 6049SOL     OW29782   2.437   4.481  15.086 -0.1840 -0.1887  0.0840
 6049SOL    HW129783   2.509   4.420  15.104  0.7767  0.4568 -1.5814
 6049SOL    HW229784   2.405   4.487  15.176 -4.0370 -0.7563 -1.2723
 6050SOL     OW29785   3.850   1.028   7.410 -0.7250 -0.3444  0.4390
 6050SOL    HW129786   3.757   1.040   7.427 -0.7162  1.3168 -0.7712
 6050SOL    HW229787   3.894   1.065   7.487 -0.6969  2.4726 -0.9328
 6051SOL     OW29788   3.188   0.644   4.195  0.7263 -0.2425 -0.3309
 6051SOL    HW129789   3.248   0.636   4.121  1.2297  2.9319 -0.2748
 6051SOL    HW229790   3.180   0.740   4.198  0.4115 -0.2319 -1.8698
 6052SOL     OW29791   0.889   1.387   8.813 -0.2814 -0.3846 -0.7841
 6052SOL    HW129792   0.945   1.453   8.854 -1.6941  0.0017  0.5190
 6052SOL    HW229793   0.953   1.315   8.813 -1.2134 -1.2085 -1.5173
 6053SOL     OW29794   0.604   2.544   8.243  0.5998 -0.1091 -0.4352
 6053SOL    HW129795   0.652   2.467   8.213 -2.5879 -1.2656 -2.6076
 6053SOL    HW229796   0.556   2.546   8.160  1.0117  1.9470 -0.6352
 6054SOL     OW29797   2.635   4.315  17.540 -0.0354  0.0401 -0.5134
 6054SOL    HW129798   2.630   4.351  17.628  0.4099  4.5003 -2.3188
 6054SOL    HW229799   2.562   4.362  17.500 -0.6959 -1.0367 -0.5695
 6055SOL     OW29800   0.651   2.686   5.787 -0.0412 -0.2202  0.3309
 6055SOL    HW129801   0.559   2.711   5.786 -0.1882 -0.8014 -0.7248
 6055SOL    HW229802   0.668   2.715   5.877 -0.5604 -0.0193  0.3612
 6056SOL     OW29803   4.244   1.563   2.054  0.4389  0.4988  0.5206
 6056SOL    HW129804   4.165   1.542   2.003  0.7175  0.3240  0.1640
 6056SOL    HW229805   4.278   1.639   2.007 -1.1898  1.2343  0.5237
 6057SOL     OW29806   2.997   2.133   7.056 -0.3860 -0.0154  0.0513
 6057SOL    HW129807   3.018   2.189   7.131 -0.4891 -0.4805  0.4258
 6057SOL    HW229808   2.906   2.114   7.075  0.5079 -1.8478  2.4340
 6058SOL     OW29809   0.798   3.296   1.401 -0.0087 -0.0441  0.0867
 6058SOL    HW129810   0.781   3.366   1.338  0.4713 -0.8658 -0.9611
 6058SOL    HW229811   0.873   3.332   1.447 -0.5555  1.7332 -0.4319
 6059SOL     OW29812   0.748   0.877  15.275  0.0884 -0.0453 -0.3193
 6059SOL    HW129813   0.822   0.918  15.231  0.9384  1.0485  2.1351
 6059SOL    HW229814   0.727   0.937  15.346 -0.0814  1.6385 -1.7746
 6060SOL     OW29815   3.524   3.244   6.518  0.2575  0.1687  0.4710
 6060SOL    HW129816   3.487   3.197   6.444  0.9700 -0.9338  0.8235
 6060SOL    HW229817   3.486   3.208   6.599  1.4395 -0.8616  0.5548
 6061SOL     OW29818   3.707   1.855   2.386  0.6788 -0.1527  0.2932
 6061SOL    HW129819   3.711   1.911   2.463 -1.4047 -0.2711  0.4815
 6061SOL    HW229820   3.792   1.812   2.389  0.2361 -1.0727 -0.0902
 6062SOL     OW29821   3.757   0.355   2.773 -0.3208  0.4454  0.2267
 6062SOL    HW129822   3.843   0.331   2.807 -0.5709 -0.4629  0.2072
 6062SOL    HW229823   3.731   0.418   2.840 -1.8185  0.5938 -0.4986
 6063SOL     OW29824   4.192   1.146   2.264 -0.1250  0.3044  0.5458
 6063SOL    HW129825   4.271   1.104   2.230 -0.8820 -1.2514  0.6791
 6063SOL    HW229826   4.217   1.238   2.265  0.7372  0.0706  0.2290
 6064SOL     OW29827   1.160   3.726   9.667  0.3101  0.7757 -0.0916
 6064SOL    HW129828   1.169   3.754   9.576  2.9931  0.0756 -0.0478
 6064SOL    HW229829   1.066   3.738   9.678  0.5745  2.6745  0.0089
 6065SOL     OW29830   4.597   0.985   3.882  0.1063 -0.0729  0.2658
 6065SOL    HW129831   4.616   1.078   3.866  2.1246 -0.3363  1.1748
 6065SOL    HW229832   4.504   0.977   3.860 -0.6536  1.1404  2.9792
 6066SOL     OW29833   4.633   3.314  12.470  0.2052  0.5251 -0.4244
 6066SOL    HW129834   4.554   3.278  12.509  0.0962  0.4549 -0.7075
 6066SOL    HW229835   4.696   3.242  12.464 -0.2469  0.3905 -3.7368
 6067SOL     OW29836   1.740   2.639   6.109  0.7243  0.5184  0.2604
 6067SOL    HW129837   1.832   2.664   6.105  0.7096  0.5705  0.2494
 6067SOL    HW229838   1.700   2.721   6.078  3.0182  0.2737 -3.3170
 6068SOL     OW29839   4.478   2.652  13.987  0.4498 -0.2227 -0.1324
 6068SOL    HW129840   4.491   2.686  14.076 -0.0214 -1.7668  0.5235
 6068SOL    HW229841   4.411   2.711  13.952 -0.8514 -1.7712 -0.2768
 6069SOL     OW29842   1.990   1.362   6.159  0.6391  0.2623 -0.2022
 6069SOL    HW129843   1.984   1.269   6.184  2.1042  0.2487  0.1114
 6069SOL    HW229844   1.921   1.401   6.212 -0.5465 -2.4338  0.2613
 6070SOL     OW29845   1.773   4.602   3.490  0.1439  0.4080  0.1800
 6070SOL    HW129846   1.825   4.535   3.533 -0.7295  0.1735  0.8740
 6070SOL    HW229847   1.831   4.633   3.420  0.1785 -0.8994 -0.3577
 6071SOL     OW29848   4.119   0.597   6.238 -0.7082 -0.0453 -0.3101
 6071SOL    HW129849   4.118   0.633   6.326  0.7222  1.2484 -0.8207
 6071SOL    HW229850   4.089   0.507   6.253  1.3529 -0.7891 -0.6334
 6072SOL     OW29851   3.783   0.607  16.433  0.5404  0.6313  0.7500
 6072SOL    HW129852   3.736   0.664  16.494  0.3184 -0.0864  1.2596
 6072SOL    HW229853   3.758   0.655  16.354  0.7133 -0.3427  0.1025
 6073SOL     OW29854   2.766   2.513   1.725  0.1540 -0.4541 -0.0852
 6073SOL    HW129855   2.792   2.428   1.759 -0.1719 -0.3121  0.5241
 6073SOL    HW229856   2.736   2.555   1.806 -0.4365 -1.1673  0.0693
 6074SOL     OW29857   3.345   3.678   3.400 -0.3058  0.7644 -0.1054
 6074SOL    HW129858   3.337   3.714   3.488  0.0265  1.7752 -0.4876
 6074SOL    HW229859   3.431   3.711   3.374  0.5618 -4.0975 -3.3916
 6075SOL     OW29860   3.454   1.673   3.296 -0.1807 -0.0550  0.4145
 6075SOL    HW129861   3.519   1.701   3.232  0.1068 -1.0438  0.2799
 6075SOL    HW229862   3.478   1.725   3.373 -0.2717  2.4263 -1.2312
 6076SOL     OW29863   0.882   1.787  12.736  0.9555  0.0647  0.4462
 6076SOL    HW129864   0.851   1.871  12.701  0.4851 -0.2589  0.0787
 6076SOL    HW229865   0.915   1.731  12.666 -0.1775  1.9824 -1.6250
 6077SOL     OW29866   3.729   1.243  15.752 -0.7828 -0.4079  0.0270
 6077SOL    HW129867   3.801   1.188  15.784  0.1039 -0.0659 -1.3548
 6077SOL    HW229868   3.777   1.300  15.692 -0.5756  0.5885  1.1373
 6078SOL     OW29869   1.018   2.143   3.105 -0.1896  0.3569  0.0741
 6078SOL    HW129870   1.019   2.102   3.018  1.7486  0.3178  0.1060
 6078SOL    HW229871   0.925   2.156   3.126 -0.0949  2.3652 -0.7945
 6079SOL     OW29872   4.637   2.484   7.638  0.1629 -0.0361  0.0053
 6079SOL    HW129873   4.597   2.398   7.647  0.4941 -0.0501  1.2802
 6079SOL    HW229874   4.631   2.513   7.729 -0.4980  0.3717 -0.1664
 6080SOL     OW29875   0.354   0.653  15.938 -0.1591  0.4953 -0.7071
 6080SOL    HW129876   0.301   0.588  15.985 -0.1171  1.7117  1.0079
 6080SOL    HW229877   0.425   0.675  15.999  0.0028  2.5100 -1.6325
 6081SOL     OW29878   2.117   4.280   6.178  0.6588 -0.3410 -0.5264
 6081SOL    HW129879   2.025   4.301   6.162  0.7370  1.2141  1.1530
 6081SOL    HW229880   2.158   4.366   6.169 -0.2288  0.3894  2.6504
 6082SOL     OW29881   1.458   4.504  12.735 -0.4019 -0.0296  0.0474
 6082SOL    HW129882   1.532   4.564  12.725 -0.0705 -0.2692  1.0722
 6082SOL    HW229883   1.379   4.556  12.721 -1.3646 -1.6238 -0.4873
 6083SOL     OW29884   4.330   0.320   8.925 -0.0182 -0.2288  0.0549
 6083SOL    HW129885   4.330   0.262   9.001  2.3797  0.1514  0.3546
 6083SOL    HW229886   4.256   0.294   8.870 -0.6001  2.2716 -0.3506
 6084SOL     OW29887   0.955   1.010   2.045  0.4213  0.7094 -0.3770
 6084SOL    HW129888   0.915   0.972   2.124  2.5020 -1.4923 -0.3876
 6084SOL    HW229889   0.964   0.934   1.988  1.7313  0.4331  0.1896
 6085SOL     OW29890   1.715   0.957   9.459  0.7886 -0.2450  0.4868
 6085SOL    HW129891   1.664   1.038   9.457  0.0838 -0.7005 -0.0166
 6085SOL    HW229892   1.797   0.984   9.500  0.6789  1.6763 -0.5772
 6086SOL     OW29893   4.562   3.399  10.041  0.1748  0.4930  0.1049
 6086SOL    HW129894   4.610   3.389   9.958 -0.2599 -1.0427  0.0472
 6086SOL    HW229895   4.542   3.306  10.047  0.0443  0.2694 -3.8885
 6087SOL     OW29896   3.615   0.068  16.416 -0.6352 -0.3511  0.6979
 6087SOL    HW129897   3.553   0.136  16.444  0.0532  0.7006 -0.3453
 6087SOL    HW229898   3.609   0.056  16.322 -0.1576 -1.8416  0.8639
 6088SOL     OW29899   2.975   0.256  11.376 -0.0816  0.3071 -0.0017
 6088SOL    HW129900   3.023   0.291  11.301 -4.1065  0.9562 -2.2782
 6088SOL    HW229901   3.018   0.171  11.385  2.1512  1.4298 -0.2636
 6089SOL     OW29902   2.771   0.783   7.439  0.5344  0.1390 -0.1575
 6089SOL    HW129903   2.714   0.859   7.455  0.5347  0.5657 -2.2331
 6089SOL    HW229904   2.844   0.839   7.411  2.0424 -1.4230  0.6458
 6090SOL     OW29905   1.132   2.888   1.881  0.0868 -0.2236 -0.0897
 6090SOL    HW129906   1.037   2.880   1.882  0.2202 -1.8677 -0.4038
 6090SOL    HW229907   1.170   2.809   1.842  1.2854  0.0910  0.4488
 6091SOL     OW29908   1.397   1.429   8.105  0.6085  0.0214  0.2838
 6091SOL    HW129909   1.347   1.459   8.180  1.4127 -2.0063  1.6421
 6091SOL    HW229910   1.397   1.334   8.119 -0.5334  0.0552  0.5045
 6092SOL     OW29911   0.968   1.621   3.644 -0.0148  0.2153  0.6004
 6092SOL    HW129912   1.030   1.616   3.717 -0.3583  0.8471  0.9266
 6092SOL    HW229913   1.031   1.592   3.578 -0.1571 -1.0303  1.0131
 6093SOL     OW29914   3.433   2.551   4.330  0.7686  0.1194 -0.3499
 6093SOL    HW129915   3.442   2.637   4.371  0.0583  0.5111 -0.9934
 6093SOL    HW229916   3.523   2.519   4.331  1.5935  2.5325  2.3839
 6094SOL     OW29917   0.020   1.778   1.590 -0.5307 -0.8070 -0.2074
 6094SOL    HW129918   0.033   1.683   1.595  0.8434 -0.7167 -1.8827
 6094SOL    HW229919   4.688   1.773   1.523 -0.9900  0.2587  0.1861
 6095SOL     OW29920   1.479   1.674   8.212  0.2022  0.1558  0.5237
 6095SOL    HW129921   1.473   1.598   8.154  1.5208  0.6050 -0.2033
 6095SOL    HW229922   1.385   1.682   8.224  0.0835 -0.2255 -0.1678
 6096SOL     OW29923   0.569   3.072  14.113  0.2738 -0.2542  0.0472
 6096SOL    HW129924   0.639   3.115  14.063 -1.5581  2.8681  0.1774
 6096SOL    HW229925   0.545   3.154  14.156 -0.3336 -0.8627  0.8566
 6097SOL     OW29926   3.829   2.019   8.350 -0.1223 -0.1877  0.2960
 6097SOL    HW129927   3.920   2.045   8.358  0.1051 -0.8934 -0.0451
 6097SOL    HW229928   3.773   2.097   8.353 -0.1499 -0.1440 -1.0293
 6098SOL     OW29929   1.193   2.459   8.219 -0.0447  0.0467 -0.3093
 6098SOL    HW129930   1.194   2.481   8.312  0.6970  0.5818 -0.4476
 6098SOL    HW229931   1.209   2.544   8.178  1.8429 -0.3309 -0.3542
 6099SOL     OW29932   1.617   1.410   2.710 -0.4033 -0.1662 -0.2091
 6099SOL    HW129933   1.540   1.447   2.755 -1.5540 -1.9011 -0.7811
 6099SOL    HW229934   1.680   1.450   2.770  0.5781 -1.9483 -0.0580
 6100SOL     OW29935   3.577   2.241   0.148  0.7158  0.2632  0.2199
 6100SOL    HW129936   3.660   2.237   0.101  1.2267  0.6800  1.0786
 6100SOL    HW229937   3.546   2.323   0.110  1.9504 -0.1656 -1.6653
 6101SOL     OW29938   1.499   0.186   3.282  0.8902 -0.3390 -0.0068
 6101SOL    HW129939   1.573   0.217   3.334  1.4671  0.8246 -1.5189
 6101SOL    HW229940   1.554   0.139   3.220  0.5260 -2.2847  1.1486
 6102SOL     OW29941   1.468   0.721   6.332 -0.4582 -0.1247  0.3900
 6102SOL    HW129942   1.528   0.662   6.287  0.7258  0.0119  1.7989
 6102SOL    HW229943   1.464   0.799   6.277  1.0945 -0.9254 -0.8379
 6103SOL     OW29944   4.722   1.909   1.813 -0.6930 -0.0803 -0.5850
 6103SOL    HW129945   4.695   1.997   1.787  0.3723  0.2172 -0.7057
 6103SOL    HW229946   4.734   1.863   1.730 -0.8061  0.5186 -0.9344
 6104SOL     OW29947   3.140   1.733   6.394 -0.7748  0.1184 -0.0271
 6104SOL    HW129948   3.158   1.648   6.434 -1.6798  1.5185  3.3470
 6104SOL    HW229949   3.230   1.753   6.368 -0.8252 -0.0326 -0.3145
 6105SOL     OW29950   0.059   1.257   3.523 -0.4018 -0.2045 -0.5260
 6105SOL    HW129951   0.131   1.302   3.567 -1.4255 -0.7430  1.6546
 6105SOL    HW229952   0.004   1.334   3.510 -0.5820 -0.1122  0.8149
 6106SOL     OW29953   0.818   1.020   3.452 -0.4168 -0.2365  0.0034
 6106SOL    HW129954   0.780   1.104   3.478  1.3384  0.7486 -0.6001
 6106SOL    HW229955   0.757   0.989   3.385 -1.6525  0.1582  0.9500
 6107SOL     OW29956   2.693   0.263  10.091  0.2803  0.3562  0.1270
 6107SOL    HW129957   2.731   0.331  10.035 -1.9610  1.5732  0.1137
 6107SOL    HW229958   2.769   0.223  10.134  0.1501 -0.3684 -0.2990
 6108SOL     OW29959   0.130   4.660   0.462 -0.6353  0.0022  0.1186
 6108SOL    HW129960   0.138   0.019   0.451 -0.2140 -0.1481 -0.8607
 6108SOL    HW229961   0.037   4.645   0.450 -1.1029  1.9924  1.2331
 6109SOL     OW29962   4.633   2.727   4.149  0.1452 -0.2024  1.0754
 6109SOL    HW129963   4.728   2.736   4.154  0.1426 -0.5014  1.5848
 6109SOL    HW229964   4.612   2.663   4.216  2.1903 -1.8862  0.1257
 6110SOL     OW29965   3.731   2.998   1.496 -0.2944  0.4313  0.1945
 6110SOL    HW129966   3.766   2.985   1.584 -1.2072  0.8596  0.6212
 6110SOL    HW229967   3.680   2.917   1.487  1.3913 -0.6759  0.7442
 6111SOL     OW29968   0.793   3.506  12.464  0.2091  0.8151 -0.3585
 6111SOL    HW129969   0.875   3.555  12.460  0.8354 -0.2629 -0.7033
 6111SOL    HW229970   0.803   3.456  12.383  0.6279  2.4251 -1.3078
 6112SOL     OW29971   1.854   1.982   8.152  0.3338  1.1045 -0.4798
 6112SOL    HW129972   1.766   1.968   8.187 -0.1564 -1.6589 -2.7267
 6112SOL    HW229973   1.855   1.927   8.073 -0.0205 -0.4926  0.6174
 6113SOL     OW29974   1.246   1.084   7.364 -0.2095  0.1540  0.1595
 6113SOL    HW129975   1.251   1.157   7.303 -1.7916 -0.7122 -0.9782
 6113SOL    HW229976   1.156   1.054   7.355  0.0125 -0.2588 -0.5744
 6114SOL     OW29977   2.561   3.924   1.913 -0.2240 -0.0435  0.2678
 6114SOL    HW129978   2.467   3.930   1.895 -0.3470  3.2737  2.0343
 6114SOL    HW229979   2.594   3.860   1.849 -2.2502 -0.8856  0.0596
 6115SOL     OW29980   4.098   2.991   8.491 -0.7536  0.1789 -0.2890
 6115SOL    HW129981   4.154   2.946   8.553 -0.0381  0.9817 -0.3540
 6115SOL    HW229982   4.129   3.078   8.515 -2.1776  0.6754 -0.2380
 6116SOL     OW29983   1.951   1.229  15.191  0.2184  0.3889  0.7639
 6116SOL    HW129984   1.967   1.242  15.097 -0.4280  1.9555  0.8705
 6116SOL    HW229985   1.863   1.267  15.191 -0.5049 -1.1817 -4.1309
 6117SOL     OW29986   4.647   1.456   7.536 -0.3274 -0.5331  0.4938
 6117SOL    HW129987   4.637   1.497   7.622  1.0584 -1.2274  0.9797
 6117SOL    HW229988   0.007   1.457   7.525 -0.3983 -2.8537 -0.1654
 6118SOL     OW29989   3.485   0.263   4.097 -0.5662 -0.4074 -0.4925
 6118SOL    HW129990   3.533   0.341   4.125 -0.2200 -1.2383  1.2247
 6118SOL    HW229991   3.547   0.197   4.128 -0.0178 -0.1528 -1.0363
 6119SOL     OW29992   1.281   4.333   2.400  0.7519  0.6407  0.5463
 6119SOL    HW129993   1.340   4.395   2.357 -0.2132  0.6918 -0.6986
 6119SOL    HW229994   1.317   4.251   2.367  2.3747  0.8672  1.7853
 6120SOL     OW29995   0.367   4.212   1.739 -0.4818 -0.2073 -0.2143
 6120SOL    HW129996   0.293   4.215   1.677 -1.6272 -1.4579  1.0858
 6120SOL    HW229997   0.425   4.278   1.702  0.0421  0.0939  1.1534
 6121SOL     OW29998   4.217   1.881   4.053 -0.5048  0.2164 -0.1629
 6121SOL    HW129999   4.126   1.910   4.046 -0.2404  1.6154  2.1770
 6121SOL    HW230000   4.215   1.861   4.146  0.8713  1.4353  0.1151
 6122SOL     OW30001   1.585   0.037   8.076  0.0620 -0.1832  0.0690
 6122SOL    HW130002   1.531   0.008   8.003 -1.4657  0.4588  0.9489
 6122SOL    HW230003   1.646   4.700   8.063  0.0805  0.2386 -2.1863
 6123SOL     OW30004   2.653   2.075   4.484  0.4328 -0.8029  0.4635
 6123SOL    HW130005   2.598   2.031   4.549  0.2202 -1.5510 -0.2238
 6123SOL    HW230006   2.643   2.006   4.418 -1.3001 -0.6402  0.5394
 6124SOL     OW30007   1.431   2.326  11.375 -0.5612 -0.0917 -0.7258
 6124SOL    HW130008   1.448   2.232  11.365 -1.9421 -0.1086 -2.9096
 6124SOL    HW230009   1.340   2.329  11.406 -0.5643 -1.1850 -0.6434
 6125SOL     OW30010   2.189   1.331  16.644 -0.5194  0.6168 -0.0647
 6125SOL    HW130011   2.266   1.311  16.697 -1.2270 -0.7429  0.4660
 6125SOL    HW230012   2.144   1.398  16.695 -1.3533 -0.3728  0.5151
 6126SOL     OW30013   0.336   2.262  15.680  0.3864 -0.2958 -0.2602
 6126SOL    HW130014   0.304   2.172  15.688  1.4896 -0.6629  0.0149
 6126SOL    HW230015   0.346   2.295  15.769  0.4095 -0.0918 -0.3374
 6127SOL     OW30016   4.626   2.513   3.932 -0.1491 -0.2784 -0.2503
 6127SOL    HW130017   4.635   2.496   4.025 -1.4323 -1.8465 -0.4074
 6127SOL    HW230018   4.583   2.437   3.893 -0.6857 -0.0176 -0.1786
 6128SOL     OW30019   0.849   0.348   3.421 -0.1858 -0.2600  0.0725
 6128SOL    HW130020   0.798   0.403   3.361 -1.5641 -0.6583  0.8813
 6128SOL    HW230021   0.900   0.290   3.364 -0.1415 -1.1567  1.0313
 6129SOL     OW30022   4.447   4.391   4.933  0.4387 -0.6185  0.3395
 6129SOL    HW130023   4.439   4.347   5.018 -1.1037 -1.2310 -0.1095
 6129SOL    HW230024   4.539   4.377   4.912  0.1514 -4.0453  1.3447
 6130SOL     OW30025   3.693   4.440   4.983  0.1005 -0.0362  0.1002
 6130SOL    HW130026   3.672   4.390   4.904  1.3934  1.2649 -1.0594
 6130SOL    HW230027   3.744   4.381   5.039 -0.4591  0.6424  1.3246
 6131SOL     OW30028   0.446   2.358   5.808 -0.6139  0.1720  0.0778
 6131SOL    HW130029   0.518   2.317   5.760 -0.5618 -2.2470  2.2149
 6131SOL    HW230030   0.491   2.384   5.889 -0.4289 -1.9117  0.6570
 6132SOL     OW30031   0.240   3.201   7.262 -0.2974  0.1827  0.1535
 6132SOL    HW130032   0.261   3.124   7.209 -0.4423  1.0164 -1.1064
 6132SOL    HW230033   0.210   3.169   7.347 -0.1186  1.0119  0.5258
 6133SOL     OW30034   2.616   1.964   0.030  0.2769  0.2512  0.7833
 6133SOL    HW130035   2.708   1.941   0.045 -0.0782 -0.2436  2.1408
 6133SOL    HW230036   2.635   2.058   0.037  1.0034  0.1449  0.2952
 6134SOL     OW30037   0.361   4.125   2.011 -0.5901  0.0753  0.0616
 6134SOL    HW130038   0.358   4.161   1.922  1.0416 -1.2685 -0.5343
 6134SOL    HW230039   0.309   4.045   2.002 -1.7586  0.7983  0.3805
 6135SOL     OW30040   0.599   1.134   3.066 -0.0685 -0.4323  0.2799
 6135SOL    HW130041   0.672   1.160   3.010 -0.7614 -0.4939 -0.6466
 6135SOL    HW230042   0.561   1.220   3.080  1.2499  0.4477 -1.5084
 6136SOL     OW30043   1.451   2.281   2.088 -0.5298  0.0390 -0.0952
 6136SOL    HW130044   1.395   2.247   2.019 -2.5967  0.0874  1.5796
 6136SOL    HW230045   1.384   2.300   2.153 -1.3099  0.0366 -0.9154
 6137SOL     OW30046   3.449   1.413   6.307  0.1550  0.0010 -0.4374
 6137SOL    HW130047   3.423   1.485   6.364 -0.6706 -1.1369  0.6317
 6137SOL    HW230048   3.463   1.341   6.369 -0.0899  1.8781  1.7564
 6138SOL     OW30049   0.445   0.615  16.242  1.0428 -0.1598 -1.0614
 6138SOL    HW130050   0.368   0.622  16.298 -0.6850 -0.6355 -3.3659
 6138SOL    HW230051   0.440   0.521  16.225 -3.4583 -0.0656 -0.3383
 6139SOL     OW30052   3.790   3.275   1.703 -0.5784 -0.0856  0.1889
 6139SOL    HW130053   3.862   3.215   1.685 -0.9161 -0.2499 -0.5938
 6139SOL    HW230054   3.807   3.334   1.629  0.1678  0.2079  0.5912
 6140SOL     OW30055   0.565   2.278   6.644  0.1300 -0.4902 -0.0012
 6140SOL    HW130056   0.503   2.322   6.586  0.5553  2.3173  1.6843
 6140SOL    HW230057   0.507   2.209   6.675  0.2827 -0.8034 -0.4059
 6141SOL     OW30058   1.704   2.425   1.934  0.0963  0.2380  0.3317
 6141SOL    HW130059   1.725   2.378   2.015  1.1458 -0.3490 -0.2787
 6141SOL    HW230060   1.689   2.514   1.966 -2.7418 -0.2889  0.4585
 6142SOL     OW30061   2.959   1.582   4.669 -0.8120  0.2791 -0.2870
 6142SOL    HW130062   2.972   1.493   4.703  2.6794  0.3605 -1.3630
 6142SOL    HW230063   2.864   1.588   4.678 -0.6477  2.4513 -0.0029
 6143SOL     OW30064   2.574   2.606   4.792  0.2354 -0.3919 -0.1936
 6143SOL    HW130065   2.502   2.593   4.854  0.1004  2.2010  0.2068
 6143SOL    HW230066   2.530   2.666   4.732  2.3850  1.1828 -0.2028
 6144SOL     OW30067   0.417   1.685   0.689  0.3788 -0.0294 -0.6255
 6144SOL    HW130068   0.339   1.677   0.743 -0.5621  2.7893 -1.5453
 6144SOL    HW230069   0.491   1.667   0.747 -1.0115  3.0417  2.1203
 6145SOL     OW30070   1.850   4.059   8.742  0.1512  0.0101 -0.0671
 6145SOL    HW130071   1.832   4.047   8.835 -0.4956  1.9493  0.0654
 6145SOL    HW230072   1.783   4.123   8.718 -1.1541 -1.0270  0.8789
 6146SOL     OW30073   0.565   1.407   7.505  0.4590  0.6654  0.7816
 6146SOL    HW130074   0.504   1.437   7.437  0.3512  0.4010  0.7586
 6146SOL    HW230075   0.521   1.412   7.590  2.0733 -0.5747  1.6854
 6147SOL     OW30076   2.323   3.476   4.077  0.2718  0.0193 -0.0849
 6147SOL    HW130077   2.409   3.515   4.091  0.8276 -0.8850 -0.9755
 6147SOL    HW230078   2.299   3.453   4.167 -1.0953 -3.1359 -1.2513
 6148SOL     OW30079   0.928   1.681  14.483  0.0259 -0.7899  0.2626
 6148SOL    HW130080   0.941   1.710  14.574 -0.8529 -2.4985  0.9408
 6148SOL    HW230081   0.940   1.766  14.441 -1.3772 -1.0907 -0.7504
 6149SOL     OW30082   1.060   2.734   8.340 -0.8419 -0.4970  0.7387
 6149SOL    HW130083   0.970   2.721   8.311 -0.1975 -1.4566 -0.8223
 6149SOL    HW230084   1.095   2.765   8.257 -1.7732  0.0718  0.5606
 6150SOL     OW30085   1.209   1.557   8.292  0.7981 -0.5442  0.0878
 6150SOL    HW130086   1.133   1.500   8.282  0.1724  0.2528  0.2689
 6150SOL    HW230087   1.183   1.626   8.231 -0.3853 -0.7160  0.3876
 6151SOL     OW30088   2.221   0.686   3.690 -0.3609 -0.2790  0.2287
 6151SOL    HW130089   2.316   0.692   3.693 -0.4691  0.4108  2.3157
 6151SOL    HW230090   2.197   0.703   3.781  0.1313 -2.4638  0.7730
 6152SOL     OW30091   3.822   0.007   2.235 -0.7386 -0.3318 -0.1761
 6152SOL    HW130092   3.890   4.676   2.232 -1.9303 -1.5771  0.6704
 6152SOL    HW230093   3.870   0.082   2.270 -0.2577 -0.4411 -0.5987
 6153SOL     OW30094   2.393   0.190   4.117  0.0610 -0.2693  0.1064
 6153SOL    HW130095   2.301   0.209   4.135  0.1497 -0.7525  1.0797
 6153SOL    HW230096   2.419   0.221   4.204 -2.3970  1.8870  0.0857
 6154SOL     OW30097   4.389   0.583   0.012  0.2987  0.2058 -0.5721
 6154SOL    HW130098   4.463   0.523   0.006  2.2414  2.5697 -0.4987
 6154SOL    HW230099   4.446   0.655   0.041 -1.8457  2.8834 -3.0155
 6155SOL     OW30100   4.016   1.540   7.658 -0.1721  0.1785 -0.0915
 6155SOL    HW130101   4.063   1.505   7.734 -0.3939 -2.1812 -1.0469
 6155SOL    HW230102   3.940   1.482   7.664  0.4020 -0.5736 -0.2057
 6156SOL     OW30103   0.652   1.730   7.505 -0.1258  0.2935  0.4582
 6156SOL    HW130104   0.672   1.637   7.513  1.1552  0.6396  1.1851
 6156SOL    HW230105   0.729   1.779   7.533  0.8172 -0.8334 -0.2225
 6157SOL     OW30106   2.674   1.560   6.779 -0.4078 -0.2342 -0.7888
 6157SOL    HW130107   2.741   1.564   6.711  1.0077  2.3878  0.7640
 6157SOL    HW230108   2.715   1.544   6.864 -0.2761 -2.2835 -1.2547
 6158SOL     OW30109   4.411   3.684   5.300 -0.7064 -0.5513 -0.5028
 6158SOL    HW130110   4.498   3.670   5.263 -0.6842 -0.4937 -0.4735
 6158SOL    HW230111   4.402   3.618   5.368 -1.1177  0.1166  0.0907
 6159SOL     OW30112   2.369   2.076   4.348 -0.4187  0.0070  0.6281
 6159SOL    HW130113   2.299   2.135   4.321  0.3723  0.7887  0.2959
 6159SOL    HW230114   2.394   2.044   4.262  1.3548  0.6912  0.8853
 6160SOL     OW30115   3.448   0.643  12.569  0.6174 -0.1330 -0.4932
 6160SOL    HW130116   3.405   0.559  12.585 -0.0113 -0.3706 -3.4242
 6160SOL    HW230117   3.471   0.668  12.659  0.2411 -0.7240 -0.2282
 6161SOL     OW30118   0.152   2.656   1.202 -0.3796  0.1017 -0.6154
 6161SOL    HW130119   0.066   2.669   1.161 -0.4109  0.1999 -0.5185
 6161SOL    HW230120   0.157   2.564   1.175 -0.1153  0.1151 -0.6080
 6162SOL     OW30121   1.423   3.034  17.456  0.7484 -0.1969 -0.3618
 6162SOL    HW130122   1.357   2.965  17.463  1.2809 -0.5915  0.7576
 6162SOL    HW230123   1.362   3.108  17.451 -0.9840 -1.6787 -1.1884
 6163SOL     OW30124   2.124   2.952   3.889  0.5697 -0.5449 -0.1481
 6163SOL    HW130125   2.098   3.016   3.955  1.4045 -0.4237  0.0533
 6163SOL    HW230126   2.041   2.904   3.884  0.2726  0.1052 -1.7523
 6164SOL     OW30127   2.508   0.025   7.969  0.4454  0.2612 -0.3123
 6164SOL    HW130128   2.589   4.722   7.936 -0.3269 -0.6670 -1.1067
 6164SOL    HW230129   2.544   0.107   8.004  0.8323  0.7804 -1.9398
 6165SOL     OW30130   3.018   1.963   7.680 -0.2733  0.0338 -0.3996
 6165SOL    HW130131   2.934   1.940   7.719 -0.0387 -1.3710 -0.7215
 6165SOL    HW230132   3.044   1.878   7.642  1.3424  0.8006 -1.0013
 6166SOL     OW30133   4.207   1.266   0.153 -0.0443 -0.2065 -0.0663
 6166SOL    HW130134   4.122   1.301   0.179  0.5515 -1.1272  3.0898
 6166SOL    HW230135   4.202   1.183   0.200 -0.1100  0.3548  0.9194
 6167SOL     OW30136   1.853   0.577   8.979 -0.1006 -0.2483 -0.2095
 6167SOL    HW130137   1.858   0.511   9.048 -1.1204 -0.2931 -0.1801
 6167SOL    HW230138   1.795   0.645   9.013 -1.1951 -0.6343 -1.3118
 6168SOL     OW30139   1.906   0.050   3.039 -0.1940 -0.2031  0.5520
 6168SOL    HW130140   1.949   0.107   2.975  2.2204 -2.0828  0.4828
 6168SOL    HW230141   1.940   4.698   3.019  0.4498  0.4517 -1.1851
 6169SOL     OW30142   4.183   1.716   3.671 -0.2100  0.3874  0.0269
 6169SOL    HW130143   4.202   1.633   3.628 -0.6975  1.1000 -1.5618
 6169SOL    HW230144   4.113   1.762   3.625 -1.6322 -0.4635  1.3675
 6170SOL     OW30145   3.159   0.532   6.723  0.0254  0.0241  0.1665
 6170SOL    HW130146   3.125   0.448   6.753  1.9702 -1.2881 -1.2565
 6170SOL    HW230147   3.249   0.503   6.710 -0.5740 -1.6706 -0.1529
 6171SOL     OW30148   1.140   0.118  16.303 -0.1668  0.3646  0.3372
 6171SOL    HW130149   1.135   0.024  16.321  2.8898  0.1722  0.0390
 6171SOL    HW230150   1.222   0.107  16.256 -0.1075 -0.0791  0.5453
 6172SOL     OW30151   3.545   1.392  10.736 -0.2174  0.5045  0.0349
 6172SOL    HW130152   3.600   1.471  10.734 -0.5047  0.6760 -0.8302
 6172SOL    HW230153   3.605   1.345  10.795 -2.5769 -1.5209  0.8187
 6173SOL     OW30154   4.451   4.030   2.349  0.1601 -0.6039 -0.2009
 6173SOL    HW130155   4.422   4.110   2.305 -0.8255 -1.2686 -0.7425
 6173SOL    HW230156   4.372   4.013   2.401  1.7806 -1.7303  1.8685
 6174SOL     OW30157   1.471   0.215   9.436 -0.1760 -0.2643 -0.2951
 6174SOL    HW130158   1.426   0.299   9.445 -0.0355 -0.4296  1.9792
 6174SOL    HW230159   1.459   0.179   9.524  0.6027  1.9255  0.7142
 6175SOL     OW30160   3.420   4.495  12.736  0.1511  0.1926 -0.1540
 6175SOL    HW130161   3.399   4.472  12.646  1.9076  0.5940 -0.6736
 6175SOL    HW230162   3.379   4.581  12.743 -0.9925 -0.2574 -1.4570
 6176SOL     OW30163   0.434   4.026   6.115 -0.2395 -0.2284 -0.5157
 6176SOL    HW130164   0.496   4.076   6.063 -0.3735 -0.8596 -1.2703
 6176SOL    HW230165   0.366   4.091   6.135  0.4206  0.6054 -0.9782
 6177SOL     OW30166   0.199   3.816   0.412 -0.3016 -0.3963  0.4179
 6177SOL    HW130167   0.247   3.898   0.425  1.7122 -1.2032 -1.9335
 6177SOL    HW230168   0.247   3.762   0.475 -0.3135  1.1962  1.7917
 6178SOL     OW30169   1.052   1.973   1.664  0.0121  0.4552  0.0374
 6178SOL    HW130170   0.988   1.906   1.688  0.4702 -0.3685 -1.0627
 6178SOL    HW230171   1.127   1.916   1.677  1.5299  2.5306  0.4363
 6179SOL     OW30172   2.580   2.868   6.361  0.3176  0.3877  0.5435
 6179SOL    HW130173   2.605   2.929   6.291 -2.0903 -0.3716 -0.9609
 6179SOL    HW230174   2.507   2.836   6.308  0.2581  1.1190  0.1795
 6180SOL     OW30175   0.174   1.250  11.158  0.3722 -0.1637  0.3784
 6180SOL    HW130176   0.211   1.190  11.222 -0.1909  0.5810  1.4022
 6180SOL    HW230177   0.126   1.305  11.219  1.6889  2.4732 -0.9284
 6181SOL     OW30178   3.447   1.435   7.225 -0.1083  0.1410  0.2862
 6181SOL    HW130179   3.519   1.372   7.237 -0.8300 -1.1009 -1.7279
 6181SOL    HW230180   3.482   1.489   7.154  1.4397  0.1682  1.0650
 6182SOL     OW30181   0.096   2.883   5.935 -0.1401 -0.4222  0.1711
 6182SOL    HW130182   0.125   2.865   5.845  0.2542 -0.9680  0.4103
 6182SOL    HW230183   0.097   2.979   5.932  0.9262 -0.4875 -1.6009
 6183SOL     OW30184   0.038   4.037   3.389 -0.5137 -0.5254 -0.1995
 6183SOL    HW130185   0.093   3.959   3.383 -0.5164 -0.4412 -1.2562
 6183SOL    HW230186   0.039   4.056   3.296  0.0794  2.1687  0.3665
 6184SOL     OW30187   0.854   1.517   7.214 -0.1967 -0.4085  0.0567
 6184SOL    HW130188   0.841   1.579   7.142  0.7248  0.4465  0.6347
 6184SOL    HW230189   0.893   1.576   7.278 -1.3965  2.4326 -1.8430
 6185SOL     OW30190   4.335   0.582   8.015  0.2194 -0.3206 -0.4117
 6185SOL    HW130191   4.356   0.491   7.995  1.7881 -0.0401 -0.0462
 6185SOL    HW230192   4.305   0.579   8.106 -1.4170  1.4868 -0.8946
 6186SOL     OW30193   1.770   0.118   5.759 -0.1517  0.3253  0.2083
 6186SOL    HW130194   1.731   0.116   5.671  1.3867 -0.9782 -0.4455
 6186SOL    HW230195   1.853   0.166   5.754 -0.2010  0.2858 -1.2545
 6187SOL     OW30196   4.640   4.331  15.922 -0.0559 -0.6006  0.4298
 6187SOL    HW130197   4.696   4.332  16.000 -0.2142 -0.7679  0.5436
 6187SOL    HW230198   4.559   4.368  15.957 -1.1112 -2.4912 -0.0154
 6188SOL     OW30199   2.293   0.059  15.341  0.6618 -0.2183  0.0212
 6188SOL    HW130200   2.357   0.075  15.272 -2.3865  3.0338 -2.0092
 6188SOL    HW230201   2.287   4.699  15.351 -0.0181  0.0871  2.5103
 6189SOL     OW30202   3.682   0.068  15.136  0.2507 -0.3419 -0.0206
 6189SOL    HW130203   3.740   0.086  15.062  2.1423  0.2380  1.6238
 6189SOL    HW230204   3.589   0.077  15.114  0.3677  1.2562  0.1395
 6190SOL     OW30205   1.929   2.930   1.906  0.0230  0.5877 -0.0517
 6190SOL    HW130206   1.847   2.940   1.954  0.1432  0.1009  0.2579
 6190SOL    HW230207   1.969   3.015   1.920 -0.1906  0.4096  1.6430
 6191SOL     OW30208   4.709   2.874   1.497 -0.0987 -0.2675  0.0841
 6191SOL    HW130209   0.011   2.871   1.586  0.8208 -0.3661 -0.3090
 6191SOL    HW230210   0.038   2.851   1.431  1.0503  0.0277  1.0837
 6192SOL     OW30211   0.925   0.617   3.521 -0.2918  0.0133 -0.0521
 6192SOL    HW130212   0.912   0.523   3.507  0.7135 -0.0669 -0.4257
 6192SOL    HW230213   0.915   0.635   3.615  2.7457 -1.7258  0.6013
 6193SOL     OW30214   1.104   2.441   5.277 -0.5850  0.0094  0.1845
 6193SOL    HW130215   1.178   2.501   5.265 -2.2673  1.8150 -1.1914
 6193SOL    HW230216   1.144   2.381   5.339 -0.9790 -0.2206  0.2140
 6194SOL     OW30217   0.792   2.726   7.056  0.0844 -0.1702 -0.2814
 6194SOL    HW130218   0.774   2.785   6.983  1.2764 -1.0764 -1.3166
 6194SOL    HW230219   0.843   2.781   7.115  1.0526 -2.8777  1.3932
 6195SOL     OW30220   3.066   4.722   4.623  0.6027  0.4114 -0.0280
 6195SOL    HW130221   3.084   4.650   4.684  1.8881 -1.0169 -2.0737
 6195SOL    HW230222   2.997   4.674   4.579  0.1451 -0.8636  2.0657
 6196SOL     OW30223   4.564   3.133   8.949 -0.7356  0.2601 -0.2026
 6196SOL    HW130224   4.506   3.057   8.957 -0.6256  0.2323  0.3491
 6196SOL    HW230225   4.565   3.167   9.038  3.8316 -0.1311 -0.1246
 6197SOL     OW30226   2.245   0.332  10.723  0.5882 -0.0224 -0.3831
 6197SOL    HW130227   2.219   0.361  10.636 -2.1229  0.0259  0.4605
 6197SOL    HW230228   2.182   0.262  10.739  1.2641 -1.0804 -2.4073
 6198SOL     OW30229   3.742   2.879  14.009 -0.6322 -0.1730 -0.3931
 6198SOL    HW130230   3.683   2.864  13.935  0.6932  0.1936 -1.5436
 6198SOL    HW230231   3.831   2.885  13.973  0.5165 -1.0661  2.2548
 6199SOL     OW30232   3.424   1.120  15.314  0.0632  0.6222 -0.2345
 6199SOL    HW130233   3.504   1.173  15.311 -1.4827  3.0105  0.3877
 6199SOL    HW230234   3.444   1.057  15.384 -0.1189  1.7795  0.8674
 6200SOL     OW30235   1.262   4.108   4.089 -0.8426 -0.3258 -0.0173
 6200SOL    HW130236   1.167   4.098   4.082 -0.7492  1.0140 -3.2347
 6200SOL    HW230237   1.275   4.017   4.117 -1.8231  0.0646  1.6825
 6201SOL     OW30238   0.623   0.424   0.702  0.1604 -0.3789  0.0491
 6201SOL    HW130239   0.594   0.461   0.619  2.0233  0.3015 -0.3051
 6201SOL    HW230240   0.665   0.341   0.683 -0.1928 -0.3079 -1.0273
 6202SOL     OW30241   0.557   2.017   7.484 -0.9916  0.0246  0.2012
 6202SOL    HW130242   0.497   2.082   7.448  0.2686  0.3814 -1.2868
 6202SOL    HW230243   0.512   1.951   7.536 -0.3841 -0.1055  0.5671
 6203SOL     OW30244   4.698   0.484   4.765 -0.5151  0.0725 -0.0898
 6203SOL    HW130245   4.641   0.527   4.830 -1.7378  0.2812 -1.3093
 6203SOL    HW230246   0.022   0.559   4.758  0.1987 -0.7078 -2.1243
 6204SOL     OW30247   1.201   0.312   2.954 -0.2285 -0.5289  0.4555
 6204SOL    HW130248   1.288   0.346   2.972 -0.0438 -1.2265  0.8742
 6204SOL    HW230249   1.223   0.222   2.930  0.7391 -0.3199  0.5710
 6205SOL     OW30250   2.678   1.550   3.430 -0.1267 -0.3102  0.3416
 6205SOL    HW130251   2.704   1.642   3.440  2.4503 -0.8147 -1.5676
 6205SOL    HW230252   2.717   1.531   3.344  0.7034 -0.5056  0.7632
 6206SOL     OW30253   0.681   4.727  15.171  0.2988 -0.1145  0.3199
 6206SOL    HW130254   0.765   0.014  15.210  0.7654 -0.0542 -0.7534
 6206SOL    HW230255   0.642   0.078  15.184 -0.9622 -0.5393 -0.6117
 6207SOL     OW30256   1.605   2.021   5.522 -0.1237 -0.7040 -0.2167
 6207SOL    HW130257   1.627   2.018   5.615  0.8282  0.6100 -0.3955
 6207SOL    HW230258   1.516   1.987   5.522 -0.8148  1.0825 -0.4022
 6208SOL     OW30259   3.554   0.039   2.855 -0.3990  0.1852 -0.6456
 6208SOL    HW130260   3.533   0.007   2.768 -0.8392 -0.2680 -0.3730
 6208SOL    HW230261   3.492   0.110   2.868 -1.4181 -1.0033  0.9695
 6209SOL     OW30262   3.906   3.794   9.932 -0.3386  0.7608 -0.2786
 6209SOL    HW130263   3.816   3.819   9.951 -1.0604 -2.3709  0.4708
 6209SOL    HW230264   3.953   3.866   9.974  0.8308 -0.7071  0.9564
 6210SOL     OW30265   4.275   2.539   4.881 -0.3150 -0.3161  0.0588
 6210SOL    HW130266   4.221   2.489   4.820  1.5962 -2.2797 -0.0422
 6210SOL    HW230267   4.233   2.532   4.966 -1.2635 -2.0016 -0.5347
 6211SOL     OW30268   0.978   3.085  13.488 -0.4626  0.1822  0.6423
 6211SOL    HW130269   1.045   3.017  13.484  1.4034  2.0558  0.1433
 6211SOL    HW230270   0.914   3.039  13.432  1.3673  0.4823 -1.6799
 6212SOL     OW30271   4.257   1.595   8.346 -0.6245 -0.9014 -0.2915
 6212SOL    HW130272   4.249   1.537   8.422 -0.7385  0.1318  0.4842
 6212SOL    HW230273   4.297   1.674   8.384 -0.9185 -1.1240  0.4820
 6213SOL     OW30274   0.878   3.832   4.478  0.3328  0.4424  0.3001
 6213SOL    HW130275   0.935   3.823   4.555 -0.1497  0.4352  0.6572
 6213SOL    HW230276   0.894   3.750   4.432  2.2219  0.9621  0.0389
 6214SOL     OW30277   3.091   2.623   3.016 -0.5528  0.0630 -1.0425
 6214SOL    HW130278   3.087   2.566   3.092 -0.0916  0.7561 -0.4933
 6214SOL    HW230279   3.000   2.653   3.016 -0.7511 -0.5733  2.4334
 6215SOL     OW30280   3.065   0.452   8.637  0.0656 -0.2303  0.1418
 6215SOL    HW130281   3.004   0.519   8.669 -1.4942 -1.9174  0.7032
 6215SOL    HW230282   3.149   0.492   8.661  0.0048 -0.6621  1.0822
 6216SOL     OW30283   0.313   0.958  11.237 -0.2187  0.3012 -0.5480
 6216SOL    HW130284   0.405   0.932  11.235 -0.2367  0.2478 -0.6419
 6216SOL    HW230285   0.286   0.933  11.326 -1.8159 -0.6492 -1.3087
 6217SOL     OW30286   2.807   1.079   4.347 -0.5894 -0.2531  0.0958
 6217SOL    HW130287   2.826   1.168   4.377  0.9123 -0.7068  0.4733
 6217SOL    HW230288   2.837   1.018   4.414 -1.0272 -0.4416  0.1238
 6218SOL     OW30289   4.514   2.349   0.922 -0.3929 -0.5793 -0.1103
 6218SOL    HW130290   4.466   2.394   0.852 -0.8222 -0.3815  0.3097
 6218SOL    HW230291   4.525   2.418   0.988 -2.9577 -2.4667  2.3308
 6219SOL     OW30292   2.885   0.470   8.988 -0.3917  0.6384  0.8965
 6219SOL    HW130293   2.906   0.505   8.901 -1.2290 -0.2195  0.3515
 6219SOL    HW230294   2.796   0.504   8.997 -1.1444 -0.7274 -1.3106
 6220SOL     OW30295   3.887   2.025   6.186  0.3135  0.1225  0.2421
 6220SOL    HW130296   3.916   2.117   6.191  1.4402 -0.1708 -0.6517
 6220SOL    HW230297   3.971   1.981   6.202 -1.3994 -3.1829  0.0797
 6221SOL     OW30298   1.478   0.853   7.465 -0.0746 -0.4462  0.2678
 6221SOL    HW130299   1.471   0.763   7.496 -0.0450 -0.5608 -0.0608
 6221SOL    HW230300   1.388   0.883   7.477 -0.0595  0.6152 -2.3592
 6222SOL     OW30301   1.493   2.881  12.859  0.4905  0.2856  0.3985
 6222SOL    HW130302   1.425   2.860  12.923  1.0190 -3.7415 -0.3568
 6222SOL    HW230303   1.510   2.797  12.817 -0.0155  0.5137 -0.2636
 6223SOL     OW30304   3.022   0.095   0.563 -0.0583  0.3600  0.1256
 6223SOL    HW130305   2.964   0.019   0.558 -0.7240  0.8868 -0.2623
 6223SOL    HW230306   3.019   0.119   0.656  1.1288  0.8351  0.0323
 6224SOL     OW30307   1.596   0.890  15.452  0.1665  0.3219 -0.1380
 6224SOL    HW130308   1.643   0.846  15.524 -0.3968  1.1302  0.7246
 6224SOL    HW230309   1.541   0.819  15.419 -0.7303  1.4872 -1.1157
 6225SOL     OW30310   4.679   2.467   7.330  0.4044 -0.4385 -0.2455
 6225SOL    HW130311   0.010   2.532   7.353  0.8102 -0.2329 -2.0383
 6225SOL    HW230312   4.643   2.439   7.414 -0.8194 -0.8504 -0.9085
 6226SOL     OW30313   1.878   1.808   6.367 -0.2739  0.0646  0.4057
 6226SOL    HW130314   1.783   1.814   6.358 -0.3274 -0.5916  0.5259
 6226SOL    HW230315   1.901   1.892   6.327  0.6715 -1.2647 -1.8737
 6227SOL     OW30316   4.231   1.988   1.476  0.7063 -0.1334  0.7126
 6227SOL    HW130317   4.288   1.996   1.552  1.6638 -0.8819  0.0696
 6227SOL    HW230318   4.243   1.895   1.457 -2.7494 -0.2828 -0.7657
 6228SOL     OW30319   4.121   2.670   9.925 -0.1504 -0.0434 -0.2791
 6228SOL    HW130320   4.170   2.749   9.903  1.7900 -1.1980 -0.0535
 6228SOL    HW230321   4.125   2.631   9.837 -3.0511 -3.0110  0.9008
 6229SOL     OW30322   3.640   4.055   8.944  0.2785  0.1233 -0.3838
 6229SOL    HW130323   3.589   4.115   8.889  1.0526  1.3066  0.1996
 6229SOL    HW230324   3.595   3.972   8.929 -1.3975  1.0370 -0.4049
 6230SOL     OW30325   0.266   0.310  16.775 -0.1435 -0.1155  0.3329
 6230SOL    HW130326   0.184   0.292  16.821  0.0235 -1.7331 -0.0207
 6230SOL    HW230327   0.233   0.292  16.687  1.7477 -1.6537 -0.0777
 6231SOL     OW30328   4.628   1.049   3.099  0.3986 -0.3996  0.1823
 6231SOL    HW130329   4.601   1.100   3.175 -0.0463 -0.3281 -0.0197
 6231SOL    HW230330   4.626   0.958   3.129  1.1499 -0.1102  1.1152
 6232SOL     OW30331   1.579   3.629   6.843  0.3593 -0.0107  0.2336
 6232SOL    HW130332   1.630   3.647   6.764 -1.1092 -1.3093 -1.0079
 6232SOL    HW230333   1.599   3.710   6.891  3.0053  0.8204 -2.3027
 6233SOL     OW30334   1.272   3.404   2.000 -0.4087  0.0634  0.5602
 6233SOL    HW130335   1.205   3.392   2.067 -0.4260 -0.8993  0.3654
 6233SOL    HW230336   1.258   3.331   1.939  0.8600 -0.0948  0.4606
 6234SOL     OW30337   1.524   1.215   8.767 -0.2462 -0.1060  0.3397
 6234SOL    HW130338   1.507   1.309   8.762  1.0315  0.1579  0.7838
 6234SOL    HW230339   1.442   1.179   8.735 -0.9558  1.3326  0.5537
 6235SOL     OW30340   2.731   2.158   7.692  0.4415  0.0846 -0.1003
 6235SOL    HW130341   2.661   2.114   7.644  0.1519 -0.5925  0.9472
 6235SOL    HW230342   2.740   2.082   7.749  1.3963  0.2530 -0.0149
 6236SOL     OW30343   0.898   3.542   4.658 -0.4391  0.5088 -0.2581
 6236SOL    HW130344   0.982   3.497   4.647 -0.6051 -0.0992  1.0462
 6236SOL    HW230345   0.886   3.517   4.750 -0.0448 -0.3035 -0.4262
 6237SOL     OW30346   4.716   0.120   1.438  0.2974  0.6091  0.1050
 6237SOL    HW130347   4.623   0.103   1.455  0.9386 -2.1366  0.9757
 6237SOL    HW230348   4.724   0.101   1.344  0.6903 -2.0669  0.6870
 6238SOL     OW30349   4.210   2.398   5.112  0.3269  0.7418  0.2754
 6238SOL    HW130350   4.224   2.330   5.046 -0.7683  1.1826 -0.4027
 6238SOL    HW230351   4.115   2.399   5.116  0.2153 -2.7440 -2.1686
 6239SOL     OW30352   4.594   4.054   9.831 -0.1370  0.1970 -0.1508
 6239SOL    HW130353   4.623   4.128   9.885  1.8417 -0.1323 -0.7611
 6239SOL    HW230354   4.507   4.079   9.801  1.2547  2.4202 -2.2684
 6240SOL     OW30355   4.318   2.442   5.533  0.0226 -0.5230  0.3144
 6240SOL    HW130356   4.266   2.506   5.483  0.4448 -0.2267  0.2483
 6240SOL    HW230357   4.294   2.446   5.625  0.1986 -0.8214  0.3727
 6241SOL     OW30358   4.140   4.070   1.401 -0.4598  0.3759  0.3160
 6241SOL    HW130359   4.179   3.997   1.353 -0.3827  0.2811  0.5229
 6241SOL    HW230360   4.166   4.141   1.342  0.9267 -1.3662 -1.1873
 6242SOL     OW30361   0.079   2.779   2.025  0.1654 -0.6640  0.0062
 6242SOL    HW130362   0.148   2.726   1.985 -0.6928 -2.4431  0.8990
 6242SOL    HW230363   0.054   2.740   2.108  0.6546 -1.2959 -0.1420
 6243SOL     OW30364   1.348   4.091   9.482  0.4013  0.3117  0.5599
 6243SOL    HW130365   1.289   4.019   9.503  1.0641 -0.8920 -1.5979
 6243SOL    HW230366   1.293   4.149   9.429 -0.0357 -0.0998  0.5627
 6244SOL     OW30367   3.626   2.392   9.530  0.1539  0.1190 -0.1293
 6244SOL    HW130368   3.645   2.483   9.553 -1.2045  0.2456  0.5071
 6244SOL    HW230369   3.684   2.353   9.595  1.0490  3.2984  0.9663
 6245SOL     OW30370   3.995   3.237   9.696  0.1097 -0.4716  0.0992
 6245SOL    HW130371   4.025   3.260   9.784 -0.8713 -0.6555  0.4837
 6245SOL    HW230372   4.077   3.223   9.650 -0.0761  0.0441 -0.3946
 6246SOL     OW30373   4.525   2.478  14.408  0.2735  0.1535 -0.2092
 6246SOL    HW130374   4.605   2.502  14.361 -0.0649  0.0774 -0.8261
 6246SOL    HW230375   4.546   2.385  14.413  0.9876  0.3731  0.7542
 6247SOL     OW30376   1.805   0.786   7.800  0.7677 -0.0144 -0.3553
 6247SOL    HW130377   1.875   0.784   7.864 -0.1191 -1.0992  0.5776
 6247SOL    HW230378   1.846   0.794   7.714 -1.1516 -0.6911 -1.3250
 6248SOL     OW30379   2.539   0.705   3.244 -0.4052 -0.0508  0.6244
 6248SOL    HW130380   2.510   0.668   3.328 -0.4879 -1.7436 -0.1530
 6248SOL    HW230381   2.516   0.640   3.178  0.0817  0.0440  0.3603
 6249SOL     OW30382   2.453   3.556   6.214  0.3657  0.2013  0.6046
 6249SOL    HW130383   2.376   3.610   6.230  2.4926  3.4875 -0.0374
 6249SOL    HW230384   2.511   3.623   6.178  0.3884 -0.8106 -1.2549
 6250SOL     OW30385   2.360   4.352   7.248 -0.2073 -0.2059  0.0510
 6250SOL    HW130386   2.294   4.283   7.239 -0.4033  0.4799 -3.6468
 6250SOL    HW230387   2.365   4.362   7.344 -0.9283  0.7834 -0.0129
 6251SOL     OW30388   3.170   4.130   4.175 -0.3646  0.2500 -0.2197
 6251SOL    HW130389   3.147   4.089   4.092 -2.0689  1.7979 -0.4904
 6251SOL    HW230390   3.244   4.077   4.205  0.2853 -0.5111 -3.1959
 6252SOL     OW30391   2.173   2.564   4.696  0.0562  0.2340 -0.1179
 6252SOL    HW130392   2.094   2.587   4.744  0.1498 -1.8354  1.0338
 6252SOL    HW230393   2.238   2.596   4.758  0.1241 -0.3180  0.0948
 6253SOL     OW30394   0.264   1.490   4.756  0.2510  0.1814 -0.2844
 6253SOL    HW130395   0.276   1.463   4.848 -2.3871  2.4771  0.7192
 6253SOL    HW230396   0.342   1.454   4.713  0.8475  1.7021 -0.4800
 6254SOL     OW30397   1.137   2.903   6.313  0.3897  0.3875 -0.0341
 6254SOL    HW130398   1.083   2.977   6.286 -0.5273 -0.1769  0.2385
 6254SOL    HW230399   1.102   2.888   6.401 -2.2460  0.0648 -1.1326
 6255SOL     OW30400   3.711   3.518  12.694 -0.1945  0.4146 -0.0564
 6255SOL    HW130401   3.780   3.461  12.727 -0.2611  1.0931  1.2643
 6255SOL    HW230402   3.695   3.493  12.603  2.3355  1.4014 -0.7600
 6256SOL     OW30403   0.743   3.726   8.313 -0.1209 -0.0951  0.6102
 6256SOL    HW130404   0.751   3.719   8.218  1.1103 -0.6099  0.7573
 6256SOL    HW230405   0.751   3.632   8.328  1.5660  0.3734  2.7317
 6257SOL     OW30406   0.686   2.419  16.660  0.2150  0.3581  0.1658
 6257SOL    HW130407   0.653   2.472  16.587  1.8461  1.0561 -0.0750
 6257SOL    HW230408   0.669   2.331  16.628  1.2856 -0.1448  1.0039
 6258SOL     OW30409   1.106   1.756   2.446 -0.0646  0.2567  0.1734
 6258SOL    HW130410   1.169   1.771   2.376  1.4909 -0.5914  1.3893
 6258SOL    HW230411   1.061   1.683   2.403  2.9989 -1.6069  0.1029
 6259SOL     OW30412   3.595   4.657   5.275 -0.7775  0.0937 -0.6108
 6259SOL    HW130413   3.561   4.568   5.267  1.4019 -0.8627  0.6357
 6259SOL    HW230414   3.610   4.666   5.369  0.6217 -0.4791 -0.7777
 6260SOL     OW30415   4.043   3.537   5.518  0.4279  0.3320  0.0332
 6260SOL    HW130416   4.138   3.527   5.505 -0.2917 -2.0191 -3.2810
 6260SOL    HW230417   4.034   3.569   5.608 -0.7937  0.7781 -0.2472
 6261SOL     OW30418   2.774   4.333   6.129  0.1022  0.3071 -0.0806
 6261SOL    HW130419   2.765   4.238   6.134  0.3490  0.3051  0.3020
 6261SOL    HW230420   2.765   4.349   6.035  2.5214  2.9611  0.1602
 6262SOL     OW30421   2.752   1.277   3.001  0.0359 -0.3899 -0.0627
 6262SOL    HW130422   2.710   1.236   3.077  1.6705 -1.8593  0.0512
 6262SOL    HW230423   2.677   1.271   2.942  0.4697 -1.2472 -0.5356
 6263SOL     OW30424   4.222   4.083   1.686 -0.6238  0.4278 -0.7881
 6263SOL    HW130425   4.173   4.009   1.721 -2.0343  1.5614 -0.4023
 6263SOL    HW230426   4.215   4.069   1.591  0.8472 -1.5116 -0.6207
 6264SOL     OW30427   1.264   2.792   7.437  0.1623  0.4961 -0.6621
 6264SOL    HW130428   1.248   2.763   7.527  1.6476  0.8760 -0.2747
 6264SOL    HW230429   1.201   2.862   7.421  0.5999  0.7968 -1.0390
 6265SOL     OW30430   2.137   1.622   6.961 -0.0119 -0.0618  0.5929
 6265SOL    HW130431   2.232   1.633   6.969  0.1434 -0.9487  0.0128
 6265SOL    HW230432   2.111   1.579   7.043 -0.6648 -0.5324  0.1435
 6266SOL     OW30433   3.307   1.265  13.083  0.3323 -0.1070 -0.0455
 6266SOL    HW130434   3.262   1.277  12.999 -1.7186 -0.1760  1.0462
 6266SOL    HW230435   3.391   1.248  13.039  0.7889 -1.3738  1.3368
 6267SOL     OW30436   1.692   0.241   4.151 -0.2910  0.4977 -0.0778
 6267SOL    HW130437   1.651   0.191   4.080 -0.0445  0.5956 -0.2891
 6267SOL    HW230438   1.614   0.291   4.175 -0.5902  0.4390 -0.9182
 6268SOL     OW30439   3.992   3.492   7.447  0.4417 -0.0977  0.2552
 6268SOL    HW130440   4.057   3.553   7.482 -1.6923  1.2595  1.8441
 6268SOL    HW230441   3.983   3.526   7.358  2.0265  1.7803  0.8341
 6269SOL     OW30442   2.643   3.412  10.052  0.1065  0.0538  0.4023
 6269SOL    HW130443   2.578   3.469  10.094  0.0058 -0.1602  0.5379
 6269SOL    HW230444   2.725   3.439  10.094 -0.1554 -2.5393  2.6046
 6270SOL     OW30445   2.885   4.064   9.551  0.5240 -0.3165 -0.2645
 6270SOL    HW130446   2.873   4.124   9.477 -1.9810  0.4908  0.7612
 6270SOL    HW230447   2.807   4.009   9.547  1.0503 -1.0781  0.0269
 6271SOL     OW30448   1.627   2.143   2.618 -0.2503  0.4528  0.0658
 6271SOL    HW130449   1.560   2.087   2.579  0.9928 -0.6201 -0.5453
 6271SOL    HW230450   1.598   2.141   2.709 -0.5069  0.9317 -0.0022
 6272SOL     OW30451   1.071   3.616   6.226 -0.5274 -0.0828  0.2000
 6272SOL    HW130452   1.134   3.632   6.296 -1.7009 -1.6502  1.6082
 6272SOL    HW230453   1.029   3.533   6.248 -0.2562 -0.8439 -2.0953
 6273SOL     OW30454   2.881   3.848   6.672 -0.2182  0.5150  0.2444
 6273SOL    HW130455   2.918   3.778   6.618 -0.8772 -0.2179  0.7492
 6273SOL    HW230456   2.867   3.914   6.604 -0.7543  0.7617  0.5947
 6274SOL     OW30457   1.336   1.116   3.367 -0.0500  0.2209  0.1784
 6274SOL    HW130458   1.261   1.061   3.389  0.5775 -0.3623  0.9154
 6274SOL    HW230459   1.345   1.080   3.279  2.0708 -1.1935  0.9622
 6275SOL     OW30460   4.259   0.346   2.079 -0.6973  0.2467 -0.3412
 6275SOL    HW130461   4.354   0.333   2.075 -0.9501 -2.2297  1.7169
 6275SOL    HW230462   4.263   0.431   2.122 -0.5068 -0.3279  0.7779
 6276SOL     OW30463   0.849   1.856  17.359 -0.2068 -0.7572 -0.2548
 6276SOL    HW130464   0.821   1.938  17.400  1.4037  0.4015 -1.4877
 6276SOL    HW230465   0.783   1.857  17.289  0.0501 -0.7431 -0.4933
 6277SOL     OW30466   3.948   1.002   1.726  0.0058 -0.3000 -0.9397
 6277SOL    HW130467   3.868   0.955   1.752 -0.5430  0.0081 -2.0912
 6277SOL    HW230468   3.925   1.092   1.746 -0.7637 -1.1214  1.9818
 6278SOL     OW30469   0.089   0.885   1.201 -0.5423 -0.3274  0.5932
 6278SOL    HW130470   0.093   0.865   1.295 -2.6511 -0.8558  0.5761
 6278SOL    HW230471   0.183   0.877   1.183 -0.6139 -1.8322  0.8959
 6279SOL     OW30472   1.861   0.450   3.485  0.2835 -0.0545  0.4331
 6279SOL    HW130473   1.895   0.442   3.574 -2.4580  1.0105  1.5729
 6279SOL    HW230474   1.901   0.536   3.471  1.3067 -0.4031  1.1821
 6280SOL     OW30475   4.516   1.344   2.376  0.7468  0.8518  0.0843
 6280SOL    HW130476   4.558   1.412   2.429  1.9237 -0.7426  1.2034
 6280SOL    HW230477   4.548   1.367   2.289 -0.0622  0.3437 -0.3461
 6281SOL     OW30478   0.696   0.289  13.308 -0.3443  0.0977  0.1784
 6281SOL    HW130479   0.753   0.356  13.346  1.6199 -0.7171 -1.3820
 6281SOL    HW230480   0.743   0.268  13.228 -2.9094 -1.3005 -0.9453
 6282SOL     OW30481   0.179   3.920   5.736  0.0797 -0.9000 -0.2625
 6282SOL    HW130482   0.202   3.899   5.645  1.2462 -0.8801  0.0265
 6282SOL    HW230483   0.189   4.015   5.743 -0.1350 -1.0483  2.0658
 6283SOL     OW30484   0.407   1.855   3.260  0.5491 -0.4266  0.1693
 6283SOL    HW130485   0.396   1.911   3.337 -0.6307  0.1876 -0.4463
 6283SOL    HW230486   0.327   1.885   3.217  1.6067 -0.7598 -2.0266
 6284SOL     OW30487   3.712   4.031   9.350  0.4441 -0.3931  0.2369
 6284SOL    HW130488   3.656   4.106   9.330  3.4926  1.7369 -0.2632
 6284SOL    HW230489   3.686   3.975   9.277  1.3853 -0.0803 -0.3352
 6285SOL     OW30490   1.642   4.697   7.545  0.0798  0.0397 -0.9267
 6285SOL    HW130491   1.712   4.693   7.480  0.7450  0.8588 -0.2557
 6285SOL    HW230492   1.682   0.016   7.613  1.3653 -0.4679 -1.2842
 6286SOL     OW30493   2.500   0.555  14.984  0.0286  0.0305  0.5361
 6286SOL    HW130494   2.590   0.579  14.964  0.2556  0.0304  1.5949
 6286SOL    HW230495   2.482   0.532  14.892  1.6817 -1.8820  0.7029
 6287SOL     OW30496   2.640   0.864   2.556  0.2050 -0.1005  0.0680
 6287SOL    HW130497   2.622   0.783   2.604  1.8837 -0.0867  0.7076
 6287SOL    HW230498   2.582   0.845   2.482 -1.4647  1.7312  0.8830
 6288SOL     OW30499   4.105   1.334   8.846  0.0065 -0.1493  0.4192
 6288SOL    HW130500   4.183   1.382   8.873 -1.4525  0.7737  3.0377
 6288SOL    HW230501   4.074   1.399   8.784  0.6623 -0.0756  0.1723
 6289SOL     OW30502   0.338   2.850   7.047 -0.1023 -0.1955  0.4261
 6289SOL    HW130503   0.364   2.897   7.126  0.9823 -0.8810  0.4761
 6289SOL    HW230504   0.327   2.759   7.072  0.7174 -0.6273 -0.7624
 6290SOL     OW30505   1.519   4.056   2.593 -0.1922 -0.2102  0.0917
 6290SOL    HW130506   1.596   4.052   2.535  0.0050 -0.3666  0.3635
 6290SOL    HW230507   1.566   4.074   2.674 -1.6765 -0.5091  1.0218
 6291SOL     OW30508   2.660   2.172   6.695 -0.6355  0.6822  0.7474
 6291SOL    HW130509   2.578   2.127   6.714 -0.9286  0.4006 -1.2014
 6291SOL    HW230510   2.721   2.107   6.730 -0.7685  0.8236  1.2443
 6292SOL     OW30511   3.295   0.591   8.669 -0.5742  0.2891  0.3636
 6292SOL    HW130512   3.372   0.534   8.678 -0.1808 -0.1120 -5.1579
 6292SOL    HW230513   3.305   0.660   8.734  0.1859  0.5909 -0.0741
 6293SOL     OW30514   2.912   3.671   9.120 -0.2947  0.0800  0.0097
 6293SOL    HW130515   2.873   3.621   9.049  0.5601 -2.3893  1.2896
 6293SOL    HW230516   2.839   3.705   9.173  0.9466  3.0273 -0.1416
 6294SOL     OW30517   1.012   0.524   0.259 -0.0823 -0.2194  0.1752
 6294SOL    HW130518   0.917   0.528   0.252  0.1366 -1.8248 -3.6360
 6294SOL    HW230519   1.017   0.556   0.349  0.5876 -1.9747  0.7664
 6295SOL     OW30520   4.679   0.722   1.050 -0.0888  0.3589 -0.1623
 6295SOL    HW130521   4.647   0.690   1.135  1.4094  1.1418  0.6919
 6295SOL    HW230522   4.729   0.797   1.081 -1.4990  0.5855  1.5913
 6296SOL     OW30523   0.842   0.026   9.140  0.1532 -0.3460 -0.5895
 6296SOL    HW130524   0.791   4.687   9.109 -1.4837  0.4290  0.2440
 6296SOL    HW230525   0.879   4.727   9.222  0.5321 -2.2797 -1.5885
 6297SOL     OW30526   1.171   3.308   6.655  0.3122  0.3204  0.3889
 6297SOL    HW130527   1.197   3.217   6.641 -2.3612 -0.7155  2.3156
 6297SOL    HW230528   1.254   3.352   6.634  1.0121 -0.0231  2.4939
 6298SOL     OW30529   4.424   2.776   3.124 -0.2153  0.0007  0.2927
 6298SOL    HW130530   4.416   2.869   3.148 -1.2170  0.7846 -3.0824
 6298SOL    HW230531   4.516   2.753   3.138 -0.0479  0.9829  0.8011
 6299SOL     OW30532   2.414   4.087  17.582 -0.1069 -0.1452 -0.8872
 6299SOL    HW130533   2.360   4.161  17.554 -0.0887  0.3565  0.4330
 6299SOL    HW230534   2.480   4.096  17.514  0.4473 -3.1708 -0.7582
 6300SOL     OW30535   0.531   2.897   3.958  0.4803 -0.0324 -0.6704
 6300SOL    HW130536   0.446   2.935   3.934  0.4746  0.0242 -0.5621
 6300SOL    HW230537   0.588   2.972   3.970 -1.3942  1.3728 -0.4905
 6301SOL     OW30538   0.393   1.336   2.740  0.1549  0.4253  0.1102
 6301SOL    HW130539   0.319   1.366   2.792  0.4947  2.2246 -0.4350
 6301SOL    HW230540   0.351   1.256   2.710  1.4631  0.9940 -3.3747
 6302SOL     OW30541   3.163   2.537   4.235 -0.7705  0.2986 -0.2400
 6302SOL    HW130542   3.151   2.465   4.296 -3.5980  2.6606  2.0011
 6302SOL    HW230543   3.256   2.554   4.253 -0.5767  2.1556 -2.9418
 6303SOL     OW30544   3.510   0.398   8.146  0.2822 -0.1120 -0.2626
 6303SOL    HW130545   3.513   0.392   8.241  1.5771 -1.8489 -0.4127
 6303SOL    HW230546   3.599   0.423   8.121  0.5889 -1.0953 -0.1696
 6304SOL     OW30547   3.726   2.455  12.430 -0.2717  0.3721 -0.4528
 6304SOL    HW130548   3.699   2.532  12.479 -1.3238  0.1675 -0.7035
 6304SOL    HW230549   3.686   2.467  12.343 -2.2457  0.0906  0.4198
 6305SOL     OW30550   0.567   3.121   7.066  1.3096 -0.1379 -0.2914
 6305SOL    HW130551   0.578   3.215   7.055  1.0519  0.0020  0.6013
 6305SOL    HW230552   0.600   3.100   7.153  0.1638 -2.0058 -0.3022
 6306SOL     OW30553   0.703   0.412   4.501 -0.1354  0.3925 -0.1651
 6306SOL    HW130554   0.671   0.481   4.442 -1.7331  1.3842  1.8890
 6306SOL    HW230555   0.779   0.442   4.551  1.4051 -1.5981 -1.2855
 6307SOL     OW30556   4.003   2.033  15.882  0.0791 -0.8386 -0.3743
 6307SOL    HW130557   3.961   1.993  15.958  1.6291 -1.6647  0.0558
 6307SOL    HW230558   4.096   2.036  15.908 -0.4304  0.0917  1.3661
 6308SOL     OW30559   3.282   2.073  12.722  0.3737 -0.5259  0.7120
 6308SOL    HW130560   3.310   1.989  12.685  2.6153  0.0386  1.1779
 6308SOL    HW230561   3.246   2.045  12.806 -1.1960 -1.5805 -0.3070
 6309SOL     OW30562   0.021   2.800   7.282 -0.1373 -0.0378  0.1872
 6309SOL    HW130563   0.001   2.819   7.190 -0.4429  1.0575  0.4777
 6309SOL    HW230564   0.009   2.884   7.326 -2.4893  0.0617 -0.6299
 6310SOL     OW30565   2.170   1.441   8.722 -0.3804 -0.6767 -0.3067
 6310SOL    HW130566   2.193   1.433   8.815 -0.4429 -2.9123 -0.4920
 6310SOL    HW230567   2.170   1.537   8.716  1.3272 -0.6783 -0.3659
 6311SOL     OW30568   1.423   2.051  16.903  0.5115  0.1800 -0.7324
 6311SOL    HW130569   1.423   1.963  16.867  0.0714  0.8662 -2.4377
 6311SOL    HW230570   1.415   2.047  16.998 -1.6192  1.8215 -0.8324
 6312SOL     OW30571   4.138   1.455  12.133 -0.1634  0.8793 -0.7356
 6312SOL    HW130572   4.130   1.450  12.038  4.0910  1.0882 -1.0723
 6312SOL    HW230573   4.108   1.372  12.171 -0.2173  0.9134 -0.7024
 6313SOL     OW30574   0.633   3.524   9.878  0.0365 -0.3398  0.0148
 6313SOL    HW130575   0.642   3.461   9.950 -0.0051  1.0362  1.2150
 6313SOL    HW230576   0.594   3.464   9.814 -1.4380  1.3243 -0.6324
 6314SOL     OW30577   3.343   4.038   0.960  0.1253  0.2523 -0.1343
 6314SOL    HW130578   3.320   3.994   1.042  0.9613 -2.2620 -1.2403
 6314SOL    HW230579   3.404   4.105   0.991  0.8914 -0.5372  0.0686
 6315SOL     OW30580   3.435   3.226  14.901  0.6822  0.6991 -0.5367
 6315SOL    HW130581   3.509   3.218  14.842  0.3380 -1.9611 -0.5870
 6315SOL    HW230582   3.379   3.291  14.858  0.1433  0.8992  0.4684
 6316SOL     OW30583   3.072   3.229  15.488  0.3198 -0.0161 -0.2926
 6316SOL    HW130584   3.034   3.145  15.462 -0.5921  0.6100 -0.9962
 6316SOL    HW230585   3.162   3.199  15.490  0.4126  0.2738 -0.1754
 6317SOL     OW30586   3.825   1.194   5.291  0.1099  0.3397  0.1178
 6317SOL    HW130587   3.842   1.109   5.334  0.0555  0.1178 -0.2994
 6317SOL    HW230588   3.894   1.182   5.225 -0.2907  1.0298 -0.4178
 6318SOL     OW30589   4.384   0.334   7.494  0.2490  0.0494 -0.4338
 6318SOL    HW130590   4.348   0.325   7.406  3.9128 -2.6504 -1.6532
 6318SOL    HW230591   4.340   0.416   7.517 -1.4811 -1.1619  0.6630
 6319SOL     OW30592   1.407   4.454   7.297 -0.3066 -0.0352 -0.0904
 6319SOL    HW130593   1.326   4.463   7.247  0.4314  0.8941 -1.1005
 6319SOL    HW230594   1.387   4.517   7.366  0.8771  0.5465 -0.2764
 6320SOL     OW30595   4.072   4.490  15.397 -0.6844  0.0735  0.1872
 6320SOL    HW130596   4.020   4.451  15.326  0.2452 -1.1742  0.1912
 6320SOL    HW230597   4.116   4.567  15.361  0.8561 -0.5404  0.7462
 6321SOL     OW30598   2.401   2.692   7.507  0.5155  0.0985 -0.1422
 6321SOL    HW130599   2.478   2.704   7.564 -1.2592 -2.0582  2.7374
 6321SOL    HW230600   2.339   2.668   7.576  0.2511 -2.9042 -1.4088
 6322SOL     OW30601   1.160   3.796   7.412  0.0211 -0.2100  0.2352
 6322SOL    HW130602   1.173   3.881   7.453  1.3298 -1.3193  2.1443
 6322SOL    HW230603   1.184   3.829   7.325  1.0468  0.5632  0.8151
 6323SOL     OW30604   1.254   4.194  14.225 -0.3197  0.5762  0.5790
 6323SOL    HW130605   1.233   4.271  14.278  0.2756  1.2553 -0.1776
 6323SOL    HW230606   1.180   4.135  14.242  0.3741 -0.3768  0.2876
 6324SOL     OW30607   2.309   0.099  14.009 -0.3781 -1.0223  0.0492
 6324SOL    HW130608   2.255   0.169  14.046  2.6408  0.7179  1.1697
 6324SOL    HW230609   2.287   0.095  13.916 -0.5378 -1.4226  0.1076
 6325SOL     OW30610   1.624   4.419   6.645  0.1482 -0.2885  0.1818
 6325SOL    HW130611   1.569   4.364   6.702 -0.3518 -1.1474 -1.1442
 6325SOL    HW230612   1.561   4.430   6.574 -1.9906  0.7377  2.2334
 6326SOL     OW30613   3.741   1.579   4.792 -0.2224  0.2022  0.1295
 6326SOL    HW130614   3.746   1.520   4.716  1.3746  0.1083  0.3092
 6326SOL    HW230615   3.743   1.660   4.741 -2.0764 -1.1951 -2.1965
 6327SOL     OW30616   3.310   2.681   8.144  0.0373 -0.4993 -0.2148
 6327SOL    HW130617   3.302   2.587   8.123  0.6582 -0.8079  0.9367
 6327SOL    HW230618   3.358   2.667   8.226  1.4872  2.6507 -0.5506
 6328SOL     OW30619   3.321   0.702   3.179 -0.3151 -0.0568 -0.5656
 6328SOL    HW130620   3.292   0.645   3.250  1.2197  1.3504  1.1718
 6328SOL    HW230621   3.398   0.740   3.220  0.9409 -1.6314 -1.4798
 6329SOL     OW30622   1.072   1.045   6.579  0.1978 -0.1232 -0.2351
 6329SOL    HW130623   1.037   1.012   6.496 -0.9096  0.0548  0.1732
 6329SOL    HW230624   1.125   1.113   6.537 -1.4365  1.3600  0.1228
 6330SOL     OW30625   2.090   3.504   5.287 -0.8336 -0.2452  0.2115
 6330SOL    HW130626   2.172   3.542   5.319 -1.6860  0.4848  1.5083
 6330SOL    HW230627   2.031   3.528   5.358  0.0767  0.0699  0.8715
 6331SOL     OW30628   2.121   2.634  12.170  0.8903  0.4048  0.5082
 6331SOL    HW130629   2.161   2.575  12.107 -1.3308  0.4628 -0.9532
 6331SOL    HW230630   2.196   2.659  12.224  1.2937  0.8838 -0.2747
 6332SOL     OW30631   4.594   0.458   3.100  0.1623  0.3136  0.3005
 6332SOL    HW130632   4.553   0.455   3.014 -0.8125 -1.5146  0.8333
 6332SOL    HW230633   4.684   0.482   3.079 -0.2468  3.2231  1.8232
 6333SOL     OW30634   1.305   4.489  16.770  0.3026 -0.0648  1.2215
 6333SOL    HW130635   1.296   4.584  16.775  0.7191  0.1065 -1.4620
 6333SOL    HW230636   1.399   4.474  16.755 -0.2613 -2.7933  0.3481
 6334SOL     OW30637   3.499   2.249   4.481 -0.4731 -0.2481 -0.3678
 6334SOL    HW130638   3.463   2.219   4.398 -1.1803  0.2267 -0.2257
 6334SOL    HW230639   3.425   2.244   4.541 -2.6816  2.4845 -2.8595
 6335SOL     OW30640   0.259   3.861   3.314  0.6767  0.5328  0.2711
 6335SOL    HW130641   0.237   3.819   3.231 -0.7267  1.6205  0.0967
 6335SOL    HW230642   0.348   3.892   3.297  1.0166 -0.4506  0.2292
 6336SOL     OW30643   0.691   2.187   6.222  0.2290  0.2769  0.6286
 6336SOL    HW130644   0.650   2.124   6.162 -3.1679  4.5384 -1.4721
 6336SOL    HW230645   0.614   2.218   6.270 -0.4022  1.5103 -1.2171
 6337SOL     OW30646   0.387   4.726  15.808 -1.4524  0.1681  0.3049
 6337SOL    HW130647   0.301   4.726  15.765 -1.5344 -1.9661  0.4863
 6337SOL    HW230648   0.372   4.657  15.873 -0.5594 -0.4528 -0.1548
 6338SOL     OW30649   1.115   4.278  15.423 -0.3171 -0.7849 -0.5600
 6338SOL    HW130650   1.190   4.222  15.445  0.3079 -0.1572 -1.0713
 6338SOL    HW230651   1.070   4.216  15.366 -0.4967 -3.0678  2.0679
 6339SOL     OW30652   4.241   3.854   7.136  0.1007  0.5408  0.1768
 6339SOL    HW130653   4.188   3.894   7.206 -1.4043  0.0862 -0.7047
 6339SOL    HW230654   4.176   3.852   7.066  0.9864 -0.1922 -0.6188
 6340SOL     OW30655   4.478   3.010   7.202  0.9145 -0.7165 -0.2419
 6340SOL    HW130656   4.430   2.998   7.283 -1.2433 -0.7865 -1.5247
 6340SOL    HW230657   4.411   3.040   7.140  1.0275 -3.6261 -1.7874
 6341SOL     OW30658   1.877   2.872   6.370  0.0075 -0.3694  0.0135
 6341SOL    HW130659   1.928   2.931   6.315 -0.2438 -0.1538  0.0156
 6341SOL    HW230660   1.927   2.885   6.451 -0.0360 -0.6709  0.0887
 6342SOL     OW30661   3.054   2.064   9.047  0.2642  0.1679 -0.0458
 6342SOL    HW130662   3.146   2.046   9.063 -0.3322 -1.0762  1.9502
 6342SOL    HW230663   3.048   2.027   8.959 -1.5734 -0.3912  0.3139
 6343SOL     OW30664   0.546   4.650   6.622 -0.7648  0.0596  0.1898
 6343SOL    HW130665   0.641   4.641   6.631 -0.8140  1.5416  2.4268
 6343SOL    HW230666   0.535   0.007   6.601 -0.8110 -0.1556 -0.7362
 6344SOL     OW30667   3.824   4.478  16.700 -0.6622  0.0639  0.4837
 6344SOL    HW130668   3.765   4.435  16.761 -1.6092  2.7107  1.4486
 6344SOL    HW230669   3.808   4.568  16.729 -1.6120 -0.2337  0.8792
 6345SOL     OW30670   1.957   4.194   7.471  0.0445 -0.2152 -0.7131
 6345SOL    HW130671   1.885   4.219   7.529  0.0698 -0.7270 -0.4620
 6345SOL    HW230672   1.954   4.269   7.412  2.3710 -0.6283 -1.3478
 6346SOL     OW30673   2.784   0.173   8.283 -0.2557  0.0124  0.0740
 6346SOL    HW130674   2.747   0.177   8.371  1.9778  0.0098  1.0016
 6346SOL    HW230675   2.875   0.197   8.299  0.8208 -2.3616 -2.6057
 6347SOL     OW30676   3.984   4.708   9.989 -0.0536  0.1744  0.3021
 6347SOL    HW130677   3.944   4.633   9.946  1.3220  1.3564 -2.9904
 6347SOL    HW230678   4.043   4.663  10.049 -0.3752  1.7415  1.8170
 6348SOL     OW30679   3.806   4.663   7.860  0.2635 -0.0894 -0.1265
 6348SOL    HW130680   3.828   4.700   7.775  1.7344  1.9506  1.1586
 6348SOL    HW230681   3.814   4.569   7.842 -0.5311 -0.2342  0.2826
 6349SOL     OW30682   0.070   0.377  16.486  0.1246 -0.2590  0.1298
 6349SOL    HW130683   0.035   0.431  16.556 -1.5749 -1.5078  0.2490
 6349SOL    HW230684   4.729   0.356  16.432 -0.3371  0.6384  0.4298
 6350SOL     OW30685   3.014   3.388  17.221  0.2133  0.1582  0.5375
 6350SOL    HW130686   3.007   3.350  17.133 -0.9813  1.1181  0.2264
 6350SOL    HW230687   3.037   3.478  17.197  4.0333 -1.2908 -1.2900
 6351SOL     OW30688   4.670   3.038  15.743  0.4816 -0.1828 -0.7188
 6351SOL    HW130689   4.642   3.123  15.778 -1.5836  0.2766 -3.5230
 6351SOL    HW230690   4.584   3.013  15.710 -0.2111  0.5161  0.5801
 6352SOL     OW30691   0.830   3.680  15.885 -0.4183  0.1365 -0.0046
 6352SOL    HW130692   0.801   3.757  15.836  0.9153  1.4768  1.3179
 6352SOL    HW230693   0.810   3.616  15.817 -1.5198  1.1551 -0.6425
 6353SOL     OW30694   4.657   2.105   4.001 -0.4518  0.3430  0.3438
 6353SOL    HW130695   4.601   2.144   4.068 -1.7269 -0.4490 -0.2729
 6353SOL    HW230696   4.617   2.130   3.918 -3.0653  0.7346  1.7197
 6354SOL     OW30697   2.878   2.412   2.565  0.2792 -0.3167  0.2324
 6354SOL    HW130698   2.897   2.505   2.550 -0.6195 -0.5575 -2.4521
 6354SOL    HW230699   2.784   2.407   2.581 -0.2266  1.6902 -2.0718
 6355SOL     OW30700   0.937   0.387   7.323  0.2355  0.0960 -0.0170
 6355SOL    HW130701   0.964   0.295   7.319 -1.0941 -0.3112  0.4389
 6355SOL    HW230702   1.020   0.436   7.318 -0.3619  1.1013  0.0671
 6356SOL     OW30703   4.670   0.364   7.491  0.0773  0.5815 -0.4271
 6356SOL    HW130704   4.594   0.369   7.433  0.9505 -0.4307 -1.6551
 6356SOL    HW230705   4.709   0.282   7.461 -0.3362 -1.0244  3.5449
 6357SOL     OW30706   0.296   1.947   5.123  0.0168 -0.1012  0.2426
 6357SOL    HW130707   0.277   1.893   5.200  2.8957 -0.0730  0.9747
 6357SOL    HW230708   0.288   2.034   5.163 -0.3811  1.1057 -2.4806
 6358SOL     OW30709   4.522   0.879   2.198  0.2469  0.5848 -0.1584
 6358SOL    HW130710   4.609   0.860   2.162 -0.0305 -1.1583  0.0894
 6358SOL    HW230711   4.535   0.953   2.257  2.1270  1.5390 -1.7867
 6359SOL     OW30712   1.172   1.399   2.617  0.3504  0.2895  0.8796
 6359SOL    HW130713   1.172   1.307   2.644  2.7069  0.1892  0.5089
 6359SOL    HW230714   1.240   1.389   2.550  0.6359 -1.1627  1.3925
 6360SOL     OW30715   0.764   3.582   8.605 -0.1546 -0.0125  0.1747
 6360SOL    HW130716   0.731   3.643   8.671 -0.2018  0.1988 -0.0460
 6360SOL    HW230717   0.737   3.499   8.645 -2.3311  0.3116 -0.6193
 6361SOL     OW30718   0.923   4.553   7.316  0.2352 -0.4993 -0.7172
 6361SOL    HW130719   0.974   4.480   7.349  0.3544 -0.9205 -1.8385
 6361SOL    HW230720   0.840   4.509   7.297 -0.6780  0.6683  0.5310
 6362SOL     OW30721   4.200   4.036  16.462  0.3795 -0.7078 -0.6830
 6362SOL    HW130722   4.194   4.115  16.516  2.3889  0.3390 -2.0119
 6362SOL    HW230723   4.151   4.061  16.383  0.8728  0.6991 -0.5435
 6363SOL     OW30724   1.404   2.633   2.773 -0.2509 -0.4746  0.2947
 6363SOL    HW130725   1.312   2.656   2.785  0.2663  0.7351  1.9049
 6363SOL    HW230726   1.446   2.719   2.770 -0.4904 -0.3684 -0.0180
 6364SOL     OW30727   1.692   2.888   3.014  0.5551 -0.1556 -0.1803
 6364SOL    HW130728   1.689   2.942   3.093 -1.7858 -1.9836  0.9686
 6364SOL    HW230729   1.757   2.949   2.979  1.1537 -1.5047 -1.4209
 6365SOL     OW30730   0.758   0.074   3.366  0.5316  0.2964  0.3832
 6365SOL    HW130731   0.738   0.134   3.438 -1.0604  0.0492  0.1509
 6365SOL    HW230732   0.852   0.061   3.367  0.6075  0.8671  0.1559
 6366SOL     OW30733   2.673   2.225   6.073  0.2447 -0.1190  0.3473
 6366SOL    HW130734   2.718   2.299   6.031 -1.5645  0.3766 -0.7390
 6366SOL    HW230735   2.668   2.269   6.158 -0.3980 -0.6090  0.5606
 6367SOL     OW30736   1.371   2.422   3.814  0.3752  0.4891  0.2478
 6367SOL    HW130737   1.417   2.409   3.730  2.0340 -0.4129  1.2965
 6367SOL    HW230738   1.447   2.454   3.863 -0.0304  1.7436  0.0387
 6368SOL     OW30739   1.815   3.364   4.779 -0.0061 -0.6334  0.0306
 6368SOL    HW130740   1.792   3.379   4.687 -1.5905  0.1313  0.5620
 6368SOL    HW230741   1.753   3.421   4.824 -1.2888 -1.4136 -0.7619
 6369SOL     OW30742   2.703   1.594   6.321  0.5511 -0.6619  0.2543
 6369SOL    HW130743   2.642   1.656   6.359  0.4421 -1.1897  0.9380
 6369SOL    HW230744   2.637   1.558   6.262 -0.6410 -3.8428  3.5453
 6370SOL     OW30745   2.399   2.211   3.874  0.0939  0.2279  0.0449
 6370SOL    HW130746   2.447   2.129   3.887  0.9632  0.6171 -0.7255
 6370SOL    HW230747   2.445   2.257   3.804  1.4067  1.0746  1.4799
 6371SOL     OW30748   3.173   1.127   3.006 -0.2003  0.1864 -0.3473
 6371SOL    HW130749   3.200   1.143   3.097 -0.2162  1.4325 -0.5570
 6371SOL    HW230750   3.228   1.055   2.975  1.0087  1.5632 -1.4267
 6372SOL     OW30751   0.930   1.918   1.211 -0.5298 -0.3880 -0.4628
 6372SOL    HW130752   1.020   1.952   1.217 -0.5692 -0.0906 -1.7725
 6372SOL    HW230753   0.878   1.997   1.219 -2.0574 -1.2234 -2.3077
 6373SOL     OW30754   1.009   0.792   9.295 -0.1119  0.1699 -0.5779
 6373SOL    HW130755   1.003   0.786   9.199  2.9863 -2.8699 -0.5967
 6373SOL    HW230756   1.064   0.870   9.300  0.0862 -0.0395  0.5151
 6374SOL     OW30757   1.218   3.540   5.509  0.3624 -0.0969 -1.0263
 6374SOL    HW130758   1.222   3.630   5.477  0.1966  0.5316  0.7100
 6374SOL    HW230759   1.212   3.491   5.427 -0.8922 -0.8440 -0.4759
 6375SOL     OW30760   4.343   4.199   9.797 -0.0882  0.3018 -0.5319
 6375SOL    HW130761   4.291   4.233   9.870  1.4060 -2.4176  1.8172
 6375SOL    HW230762   4.273   4.148   9.756 -1.4984  0.8151  1.2322
 6376SOL     OW30763   3.945   2.855   9.624  0.1472  0.0216  0.1377
 6376SOL    HW130764   4.018   2.890   9.573 -0.7265 -0.1218 -1.1938
 6376SOL    HW230765   3.870   2.900   9.585  0.1745 -0.0301  0.0270
 6377SOL     OW30766   1.197   4.558   4.692  0.0549  0.2293 -0.1606
 6377SOL    HW130767   1.121   4.609   4.722 -1.1806 -0.0119 -2.9416
 6377SOL    HW230768   1.269   4.615   4.719 -1.0509  0.7409  1.7675
 6378SOL     OW30769   3.579   4.507   7.800  0.1867  0.5597  0.4858
 6378SOL    HW130770   3.489   4.537   7.786 -0.9200 -3.1067 -0.2570
 6378SOL    HW230771   3.585   4.434   7.738  1.9160  0.3463  0.8897
 6379SOL     OW30772   3.666   0.926   6.681 -0.0250  0.1303 -0.1308
 6379SOL    HW130773   3.713   0.991   6.628 -1.1608  1.2304  0.2234
 6379SOL    HW230774   3.726   0.873   6.733 -0.4320 -0.8636 -0.6760
 6380SOL     OW30775   3.174   2.543   1.698 -0.1866  0.4214 -0.3971
 6380SOL    HW130776   3.105   2.480   1.677  1.0417 -0.8498 -0.6561
 6380SOL    HW230777   3.121   2.620   1.718  0.4708  0.9158 -0.5682
 6381SOL     OW30778   4.575   0.852   3.460 -0.2758  0.5759 -0.7188
 6381SOL    HW130779   4.557   0.795   3.535 -0.1569 -0.4608 -1.4743
 6381SOL    HW230780   4.645   0.910   3.491 -0.2678  0.2320 -0.0928
 6382SOL     OW30781   1.597   2.971   9.061  0.0944 -0.3001 -0.2183
 6382SOL    HW130782   1.673   3.004   9.109  0.9196 -3.6321  0.7913
 6382SOL    HW230783   1.533   2.979   9.131 -0.8107  0.7533 -1.1818
 6383SOL     OW30784   2.429   4.644   8.525  0.3591  0.4215  0.3168
 6383SOL    HW130785   2.404   4.553   8.535 -1.1941  0.7431 -0.5218
 6383SOL    HW230786   2.459   4.641   8.434 -0.9396 -1.1800 -0.0551
 6384SOL     OW30787   3.911   1.781  14.170 -0.3405  0.5481 -0.3461
 6384SOL    HW130788   3.818   1.776  14.149  0.3884  0.2845 -3.6214
 6384SOL    HW230789   3.935   1.698  14.129  0.1214  1.0612 -1.1252
 6385SOL     OW30790   3.379   3.161   0.027  0.4262  0.3305  0.1922
 6385SOL    HW130791   3.400   3.084   0.079  0.9090 -0.0925 -0.6422
 6385SOL    HW230792   3.305   3.198   0.076 -0.6608 -0.9319 -0.5054
 6386SOL     OW30793   3.829   4.378   7.546  0.1973 -0.1232 -0.1435
 6386SOL    HW130794   3.746   4.350   7.508  0.8052 -0.8703 -0.9226
 6386SOL    HW230795   3.889   4.309   7.516  0.8531  1.1109 -1.6416
 6387SOL     OW30796   3.095   3.453   6.612 -0.1615  0.2049  0.2245
 6387SOL    HW130797   3.011   3.409   6.598  0.4718 -0.4687 -1.3803
 6387SOL    HW230798   3.113   3.476   6.521 -1.7681 -0.9098 -0.3805
 6388SOL     OW30799   4.313   2.057  16.797  0.0218  0.1619  0.4804
 6388SOL    HW130800   4.287   2.143  16.830  1.1066  0.8318 -0.3969
 6388SOL    HW230801   4.356   2.092  16.719  1.5436  0.3322  1.3931
 6389SOL     OW30802   0.545   2.749   9.149 -0.6182  0.3454 -0.0258
 6389SOL    HW130803   0.511   2.693   9.219 -0.9750 -0.1285 -0.5765
 6389SOL    HW230804   0.569   2.682   9.085 -0.8104  0.2685 -0.0181
 6390SOL     OW30805   2.847   4.674   4.255 -0.0033 -0.3355  0.2422
 6390SOL    HW130806   2.776   4.733   4.282 -0.7587 -0.5005 -1.4286
 6390SOL    HW230807   2.835   4.675   4.160 -1.2164 -0.8457  0.3932
 6391SOL     OW30808   2.975   2.938   8.859 -0.3955 -0.2610 -0.0854
 6391SOL    HW130809   2.901   2.948   8.919  0.0657  1.0774  0.2514
 6391SOL    HW230810   2.997   2.854   8.900  1.9449  0.3492 -0.1188
 6392SOL     OW30811   3.014   0.147   7.970 -0.2037 -0.1287 -0.2063
 6392SOL    HW130812   2.973   0.085   8.031 -0.2400 -1.1498 -1.2892
 6392SOL    HW230813   3.064   0.095   7.908  0.1671 -2.3014  1.9240
 6393SOL     OW30814   4.612   4.130   6.525 -0.1166  0.2747  0.3337
 6393SOL    HW130815   4.566   4.198   6.573 -0.2176  1.4338 -1.4046
 6393SOL    HW230816   4.550   4.056   6.529  0.7223 -0.2781  2.8953
 6394SOL     OW30817   1.571   3.100  12.348  0.2197  0.0184  0.7982
 6394SOL    HW130818   1.589   3.081  12.440 -0.8297  0.8130  1.1650
 6394SOL    HW230819   1.618   3.031  12.302 -1.4794 -0.0207 -0.9003
 6395SOL     OW30820   3.247   1.652   5.224 -0.0493  0.0143 -0.3257
 6395SOL    HW130821   3.285   1.573   5.187  0.0854 -0.2495  0.3824
 6395SOL    HW230822   3.177   1.671   5.162 -1.7552 -2.6515  0.7781
 6396SOL     OW30823   4.373   0.636   2.050  0.0686  0.4684  0.2448
 6396SOL    HW130824   4.379   0.709   2.112  3.1531 -0.8889  1.5046
 6396SOL    HW230825   4.453   0.585   2.062 -1.2721 -1.6894  0.0359
 6397SOL     OW30826   3.073   1.011  17.184  0.3397  0.1358 -0.5672
 6397SOL    HW130827   3.099   0.919  17.190 -2.2361 -0.6391 -1.0009
 6397SOL    HW230828   3.122   1.037  17.106  1.9845  0.6910  0.6711
 6398SOL     OW30829   1.817   2.773   6.740  0.1950 -0.8738  0.1466
 6398SOL    HW130830   1.784   2.851   6.697  1.6197 -0.0760  0.4778
 6398SOL    HW230831   1.859   2.730   6.666  0.3421  2.4382 -1.6675
 6399SOL     OW30832   0.391   4.369   8.771  0.9119 -0.4644  0.1003
 6399SOL    HW130833   0.328   4.428   8.731  0.0511 -2.6476 -1.7705
 6399SOL    HW230834   0.347   4.289   8.740  1.6367 -1.5573  1.8443
 6400SOL     OW30835   4.400   2.885   6.157  0.0188  0.4103 -0.3961
 6400SOL    HW130836   4.461   2.837   6.102 -0.6342 -1.9093  0.9242
 6400SOL    HW230837   4.434   2.974   6.152 -1.2910  1.0058  1.1765
 6401SOL     OW30838   4.266   2.942   6.628  0.3186  0.2702  0.4993
 6401SOL    HW130839   4.173   2.930   6.609  0.2050  0.4184  0.9762
 6401SOL    HW230840   4.275   2.894   6.711  0.3301  0.8347  0.8228
 6402SOL     OW30841   1.739   0.230   1.685 -0.2483 -0.1032 -0.0329
 6402SOL    HW130842   1.666   0.210   1.626 -1.4512  0.0073  1.4206
 6402SOL    HW230843   1.695   0.279   1.754 -2.8178 -0.0011 -1.7515
 6403SOL     OW30844   2.810   0.775   5.387 -0.0863 -0.4018 -0.2945
 6403SOL    HW130845   2.844   0.718   5.318  0.8716 -0.0152 -0.1483
 6403SOL    HW230846   2.722   0.738   5.391 -0.2002 -0.1608 -0.5288
 6404SOL     OW30847   1.959   3.356   3.125 -0.2302  0.2195 -0.4141
 6404SOL    HW130848   1.877   3.315   3.099 -0.6774  1.1065 -0.4088
 6404SOL    HW230849   1.966   3.341   3.219 -0.2942  2.9446  0.0360
 6405SOL     OW30850   4.254   0.211  10.574 -0.3426  0.5801  0.0896
 6405SOL    HW130851   4.188   0.253  10.520 -1.6989 -2.3486 -0.5357
 6405SOL    HW230852   4.291   0.142  10.519  1.0163  2.0051 -0.7900
 6406SOL     OW30853   2.661   0.854   9.699  0.1581  0.4091 -0.5276
 6406SOL    HW130854   2.598   0.845   9.628  0.0657 -1.4648 -0.2039
 6406SOL    HW230855   2.662   0.762   9.724 -0.5492 -0.5908 -4.3224
 6407SOL     OW30856   2.916   3.281  16.474 -0.5661 -0.7070 -0.4822
 6407SOL    HW130857   2.895   3.191  16.450  2.9307 -1.7330  0.2673
 6407SOL    HW230858   2.988   3.304  16.415 -1.5529 -0.1293 -1.4564
 6408SOL     OW30859   4.072   2.911   0.803 -0.4507  0.2200 -0.1050
 6408SOL    HW130860   4.079   3.005   0.820  0.6409  0.3320 -1.1467
 6408SOL    HW230861   4.128   2.915   0.725 -1.1108  1.8307 -0.5142
 6409SOL     OW30862   2.574   1.953   2.016  0.1382  0.1708 -0.2622
 6409SOL    HW130863   2.497   1.989   2.060  0.8306 -0.6119  1.6048
 6409SOL    HW230864   2.532   1.932   1.933 -1.6267 -2.1591  1.2289
 6410SOL     OW30865   2.832   0.726   2.242 -0.3208 -0.8911 -0.5398
 6410SOL    HW130866   2.818   0.759   2.331  1.1583 -0.5043 -0.4601
 6410SOL    HW230867   2.914   0.678   2.252  0.0065 -0.5193 -1.4552
 6411SOL     OW30868   1.248   1.581  17.204  0.2127  0.5634 -0.4118
 6411SOL    HW130869   1.322   1.529  17.234  0.8562  0.4486 -2.1750
 6411SOL    HW230870   1.170   1.541  17.243  0.7048 -1.1405 -1.1750
 6412SOL     OW30871   0.486   2.942  14.715 -0.8694 -0.6744  0.3630
 6412SOL    HW130872   0.485   3.008  14.646 -1.4113 -0.6377  0.4058
 6412SOL    HW230873   0.406   2.893  14.698 -0.2422 -2.4385  2.4309
 6413SOL     OW30874   3.112   4.071   8.021  0.1453 -0.5275 -0.1300
 6413SOL    HW130875   3.019   4.062   7.998  0.5372 -2.2497 -1.0049
 6413SOL    HW230876   3.147   3.984   8.003  0.1190 -0.5866  0.0958
 6414SOL     OW30877   2.764   2.349   7.922  0.0400 -0.1450 -0.0494
 6414SOL    HW130878   2.801   2.418   7.867 -1.9963  2.1555  1.4281
 6414SOL    HW230879   2.751   2.278   7.859  2.3417 -0.5347 -0.0754
 6415SOL     OW30880   3.553   3.612   2.133 -0.5180  0.0495  0.2850
 6415SOL    HW130881   3.479   3.590   2.075  0.5865  3.2537 -2.3187
 6415SOL    HW230882   3.522   3.590   2.221  0.2093 -1.2355  0.2229
 6416SOL     OW30883   0.596   4.587   3.354 -1.2462  1.0048 -0.1732
 6416SOL    HW130884   0.622   4.679   3.354  2.6409 -0.1163  1.8646
 6416SOL    HW230885   0.563   4.560   3.440 -1.1517  0.8922 -0.1730
 6417SOL     OW30886   2.928   4.240   2.796  0.5594 -0.1431  0.0640
 6417SOL    HW130887   2.873   4.215   2.723 -0.6574 -0.2399  1.0267
 6417SOL    HW230888   3.010   4.264   2.752  0.8070 -1.8143 -0.3811
 6418SOL     OW30889   0.670   0.508   7.331  0.0473 -0.2169 -0.4898
 6418SOL    HW130890   0.758   0.485   7.359 -0.1283 -1.0992 -0.6719
 6418SOL    HW230891   0.618   0.472   7.403 -0.1373  2.7057  0.8389
 6419SOL     OW30892   0.984   1.380   1.513  0.3324  0.5481 -0.4425
 6419SOL    HW130893   0.916   1.313   1.516  0.2756  0.5199 -1.9190
 6419SOL    HW230894   1.057   1.349   1.459 -0.4034 -1.1004 -0.5161
 6420SOL     OW30895   4.530   0.778   0.144 -0.0455 -0.1397  0.2902
 6420SOL    HW130896   4.556   0.714   0.210 -0.1983 -1.7177 -1.1881
 6420SOL    HW230897   4.522   0.864   0.186 -0.3350 -0.4020  0.7616
 6421SOL     OW30898   1.523   4.573   6.992 -0.1072 -0.1617  0.8094
 6421SOL    HW130899   1.546   4.632   7.063 -0.6892 -0.1515  0.9908
 6421SOL    HW230900   1.458   4.623   6.941 -0.7006 -0.2092  1.5158
 6422SOL     OW30901   2.632   0.211   2.361  0.3010  0.1403 -0.7294
 6422SOL    HW130902   2.689   0.288   2.366  0.0760  0.3181 -0.9473
 6422SOL    HW230903   2.548   0.250   2.381  0.7085 -0.7126  2.6542
 6423SOL     OW30904   3.517   1.471   2.992  0.2292  0.1764  0.1486
 6423SOL    HW130905   3.454   1.472   2.920  0.5054 -3.2119 -0.1623
 6423SOL    HW230906   3.558   1.385   3.000 -0.5550 -0.1758  0.3308
 6424SOL     OW30907   2.931   2.966   1.901 -0.2264  0.4928  0.7292
 6424SOL    HW130908   2.879   3.000   1.829  2.0200 -0.0868 -1.1526
 6424SOL    HW230909   2.877   2.984   1.978  0.5382 -2.1096  1.9020
 6425SOL     OW30910   1.987   2.772   3.607 -0.0880 -0.4100 -0.3511
 6425SOL    HW130911   1.914   2.807   3.557 -0.6947  1.3079  1.7318
 6425SOL    HW230912   2.037   2.854   3.609  0.3636 -0.6823 -0.6292
 6426SOL     OW30913   1.795   3.550   4.236  0.0608  0.1445 -0.2329
 6426SOL    HW130914   1.715   3.542   4.286 -0.2498  0.0865 -0.7396
 6426SOL    HW230915   1.764   3.598   4.159 -0.2569  0.9728  0.4039
 6427SOL     OW30916   3.503   2.642   5.393 -0.0220  0.2956 -0.2103
 6427SOL    HW130917   3.446   2.715   5.370  0.6754  0.6892 -0.6733
 6427SOL    HW230918   3.443   2.569   5.378 -3.1595  2.8104  0.0644
 6428SOL     OW30919   2.837   2.726   3.064  0.1942  0.5474 -0.4332
 6428SOL    HW130920   2.867   2.817   3.060  0.2600  0.6076  1.4491
 6428SOL    HW230921   2.752   2.730   3.020 -0.3809 -0.7677  0.5496
 6429SOL     OW30922   3.908   2.695   4.775  0.2951  0.3529 -0.4964
 6429SOL    HW130923   3.885   2.604   4.756  2.4983 -0.1651 -0.6419
 6429SOL    HW230924   3.981   2.697   4.713  0.2359 -1.0733 -0.5997
 6430SOL     OW30925   4.153   2.769  10.864 -0.0892 -0.2809 -0.3541
 6430SOL    HW130926   4.186   2.680  10.860 -1.4598 -0.8457  1.1423
 6430SOL    HW230927   4.165   2.781  10.958  0.2892  1.0025 -0.5510
 6431SOL     OW30928   0.784   4.564   7.927  0.5011  0.0585  0.7772
 6431SOL    HW130929   0.763   4.589   7.838 -0.9929 -1.6849  0.6275
 6431SOL    HW230930   0.849   4.496   7.908 -1.7687 -2.3109  1.4230
 6432SOL     OW30931   2.719   1.071   6.239  0.0419 -0.1528  0.6855
 6432SOL    HW130932   2.682   1.034   6.320 -0.9363  1.1553  0.8366
 6432SOL    HW230933   2.647   1.107   6.188 -0.5611  1.2259  2.4935
 6433SOL     OW30934   4.434   4.669   5.942 -0.4118 -0.3322  0.3437
 6433SOL    HW130935   4.476   0.006   5.988  1.1557 -1.2443  0.3695
 6433SOL    HW230936   4.449   4.595   6.001  1.0606 -1.0316 -0.8932
 6434SOL     OW30937   4.646   3.817  16.234 -0.3665  0.4720  0.3102
 6434SOL    HW130938   4.703   3.746  16.263 -1.5958 -1.2763 -1.5176
 6434SOL    HW230939   4.562   3.806  16.279 -0.2598 -0.9407  0.1645
 6435SOL     OW30940   4.650   2.249   3.339  0.1484  0.5838  0.3793
 6435SOL    HW130941   4.688   2.321   3.389 -2.0530  1.0619  1.3355
 6435SOL    HW230942   4.557   2.271   3.337 -0.1421 -0.4911  1.4982
 6436SOL     OW30943   2.982   3.859   4.191 -0.1257 -0.3235  0.0006
 6436SOL    HW130944   2.968   3.811   4.272  0.8388 -0.3742  0.1396
 6436SOL    HW230945   3.038   3.929   4.226 -0.7042 -0.1941  0.6692
 6437SOL     OW30946   3.765   2.893   2.034 -0.6718 -0.1380 -0.2004
 6437SOL    HW130947   3.848   2.881   1.988  0.0751 -0.3995  1.2149
 6437SOL    HW230948   3.725   2.963   1.983  0.5948  1.5035  1.0553
 6438SOL     OW30949   0.302   3.615   3.989 -0.1869  0.3516  0.0452
 6438SOL    HW130950   0.224   3.645   3.942 -0.4005 -0.4120 -0.0798
 6438SOL    HW230951   0.297   3.654   4.076  1.5823 -1.6316  1.0366
 6439SOL     OW30952   1.215   1.051  16.506  0.0345 -0.4414 -0.3594
 6439SOL    HW130953   1.304   1.034  16.535 -0.1893 -1.0439 -0.0161
 6439SOL    HW230954   1.171   1.066  16.590  0.4071  0.0003 -0.2438
 6440SOL     OW30955   1.360   3.135   3.266 -0.5525 -0.4513  0.5798
 6440SOL    HW130956   1.287   3.191   3.238 -1.9776 -2.8716 -0.5550
 6440SOL    HW230957   1.328   3.083   3.339  0.2682 -2.2848 -0.3773
 6441SOL     OW30958   3.859   0.164   7.432 -0.2795 -0.1730 -0.1027
 6441SOL    HW130959   3.790   0.168   7.366  0.9345  0.5821 -1.3353
 6441SOL    HW230960   3.829   0.093   7.489 -1.7931 -0.6077 -1.4218
 6442SOL     OW30961   4.324   2.811   6.877  0.4377 -0.6405  0.0481
 6442SOL    HW130962   4.280   2.729   6.858  0.6561 -0.9478  0.8675
 6442SOL    HW230963   4.416   2.787   6.865  1.1099  0.6674  2.4635
 6443SOL     OW30964   1.769   3.949  10.386 -0.0409 -0.6244 -0.3455
 6443SOL    HW130965   1.809   3.893  10.453 -1.4490 -1.2889 -0.0617
 6443SOL    HW230966   1.795   3.903  10.306  0.7800  0.6486 -0.8105
 6444SOL     OW30967   1.159   1.402   5.863  0.3459  0.0762  0.2315
 6444SOL    HW130968   1.072   1.366   5.845  0.4647 -0.8784  1.6161
 6444SOL    HW230969   1.140   1.464   5.933 -0.5515  1.3575 -1.1334
 6445SOL     OW30970   3.128   2.209   7.301 -0.3842 -0.0471  0.1139
 6445SOL    HW130971   3.154   2.248   7.385 -3.4737  1.0819  0.5306
 6445SOL    HW230972   3.149   2.116   7.315 -0.3167  0.0174  0.4445
 6446SOL     OW30973   0.574   0.680   2.871  0.4916  0.0084 -0.5269
 6446SOL    HW130974   0.497   0.630   2.843  0.8015  1.5711 -4.1470
 6446SOL    HW230975   0.637   0.608   2.875 -1.7851 -1.9187  0.6386
 6447SOL     OW30976   2.749   1.927   1.215  0.2838 -0.0461 -0.2896
 6447SOL    HW130977   2.721   2.015   1.193 -2.7341 -0.7286  0.8697
 6447SOL    HW230978   2.826   1.945   1.270  0.1466 -2.7440  0.8025
 6448SOL     OW30979   3.876   3.723   0.160 -0.5105 -0.5907  0.1425
 6448SOL    HW130980   3.833   3.703   0.243 -0.0960 -1.3837  0.1624
 6448SOL    HW230981   3.954   3.775   0.178 -1.0147  0.7473 -1.4846
 6449SOL     OW30982   1.415   2.089   5.932 -0.3330  0.2163 -0.0214
 6449SOL    HW130983   1.428   2.005   5.974 -3.1137 -1.1741 -1.8992
 6449SOL    HW230984   1.495   2.133   5.959 -1.1398  1.4652  0.3621
 6450SOL     OW30985   1.801   0.340  12.430  0.0987 -0.0399  0.4001
 6450SOL    HW130986   1.717   0.351  12.475  0.3277 -0.5631  0.9676
 6450SOL    HW230987   1.776   0.347  12.339 -1.1587  1.7112  0.8948
 6451SOL     OW30988   1.874   3.818  10.601  0.4070 -0.6880 -0.0221
 6451SOL    HW130989   1.898   3.726  10.610  1.0913 -0.3202  1.9947
 6451SOL    HW230990   1.786   3.826  10.638  1.2984 -0.4339  2.0502
 6452SOL     OW30991   0.133   3.304  14.886 -0.3406 -0.1399  0.1522
 6452SOL    HW130992   0.088   3.235  14.934 -2.8203  1.0157 -0.4761
 6452SOL    HW230993   0.138   3.257  14.802 -0.4232  1.1478 -0.5641
 6453SOL     OW30994   0.158   2.202   1.795 -0.2550  0.1102  0.0309
 6453SOL    HW130995   0.158   2.239   1.707 -1.5981  2.3167  0.9407
 6453SOL    HW230996   0.062   2.201   1.802 -0.0619  1.1999  3.1083
 6454SOL     OW30997   1.366   3.995  17.385  0.2329 -0.2071 -0.1958
 6454SOL    HW130998   1.361   4.090  17.371 -1.0761 -0.5057 -1.7546
 6454SOL    HW230999   1.445   3.979  17.437 -0.5669 -0.4538  0.9332
 6455SOL     OW31000   3.811   4.105   4.982 -0.0455 -0.3807 -0.1862
 6455SOL    HW131001   3.899   4.127   4.952 -0.9944 -1.6383 -3.9353
 6455SOL    HW231002   3.791   4.174   5.046  1.0299  0.4245 -0.7347
 6456SOL     OW31003   0.455   2.985   6.838 -0.0604  0.1082  0.0246
 6456SOL    HW131004   0.514   3.000   6.912  1.7983 -3.2381 -0.7623
 6456SOL    HW231005   0.387   2.940   6.887  0.6203 -2.6778 -1.5846
 6457SOL     OW31006   2.605   4.019   7.716  0.0997 -0.9770 -0.1906
 6457SOL    HW131007   2.610   4.101   7.765 -2.4016 -0.0626 -1.4842
 6457SOL    HW231008   2.609   3.947   7.779 -0.4043 -0.4094  0.4981
 6458SOL     OW31009   4.592   1.725   9.314 -0.1055 -0.4825 -0.4186
 6458SOL    HW131010   4.510   1.748   9.359  1.1490  0.5021  1.3689
 6458SOL    HW231011   4.572   1.632   9.305  1.0239 -1.0044  2.4183
 6459SOL     OW31012   3.565   2.554   2.960  0.2687 -0.5660  0.2737
 6459SOL    HW131013   3.612   2.521   2.884 -0.2172  0.4878 -0.4868
 6459SOL    HW231014   3.540   2.477   3.010  1.9157  0.1223  2.1703
 6460SOL     OW31015   0.007   3.729   3.487 -0.1013 -0.4336  0.2208
 6460SOL    HW131016   4.649   3.747   3.493 -0.3300 -1.3526 -0.6493
 6460SOL    HW231017   0.012   3.708   3.394 -1.1078 -2.4535  0.6488
 6461SOL     OW31018   1.958   0.699   6.914 -0.3673  0.2406 -0.1347
 6461SOL    HW131019   1.922   0.753   6.984 -0.3579 -2.6431  2.1219
 6461SOL    HW231020   2.046   0.716   6.946  0.0165 -1.2987 -0.3736
 6462SOL     OW31021   4.373   0.262   5.929  0.0408 -0.3750  0.2641
 6462SOL    HW131022   4.312   0.332   5.905  0.0205  0.2070  2.0117
 6462SOL    HW231023   4.306   0.193   5.929  0.7446 -1.0568  2.4277
 6463SOL     OW31024   0.995   4.604   2.764  0.2838 -0.1311  0.1348
 6463SOL    HW131025   0.906   4.636   2.746  1.2858  2.3567 -0.4895
 6463SOL    HW231026   0.976   4.517   2.731  1.3172 -0.6184  0.8292
 6464SOL     OW31027   3.938   2.966   4.882  0.8362  0.1568 -0.2286
 6464SOL    HW131028   4.005   2.934   4.822  0.4929 -1.6903  0.3635
 6464SOL    HW231029   3.966   3.057   4.876 -2.7309  1.0758 -2.8376
 6465SOL     OW31030   0.486   2.437  14.053 -0.0290  0.0182  0.2231
 6465SOL    HW131031   0.437   2.503  14.102  0.1249  0.3193 -0.0262
 6465SOL    HW231032   0.490   2.369  14.121  1.2725 -3.0169 -2.9002
 6466SOL     OW31033   0.645   0.652  13.768 -0.2541 -0.2250 -0.7451
 6466SOL    HW131034   0.642   0.570  13.817  0.2049 -0.2180 -0.7046
 6466SOL    HW231035   0.654   0.625  13.677 -1.2557 -0.8831 -0.6463
 6467SOL     OW31036   1.876   1.829   3.626  0.4930 -0.5849 -0.6567
 6467SOL    HW131037   1.842   1.751   3.672 -1.8769  0.3292 -0.8765
 6467SOL    HW231038   1.810   1.827   3.556 -0.1220 -1.1742 -0.0632
 6468SOL     OW31039   0.306   4.395   4.477  0.0872  0.3948 -0.4608
 6468SOL    HW131040   0.258   4.429   4.401 -1.7328  0.6830  0.8088
 6468SOL    HW231041   0.389   4.370   4.436 -0.2116 -1.7787  0.2461
 6469SOL     OW31042   1.837   0.144   9.185 -0.4607 -0.2812 -0.4970
 6469SOL    HW131043   1.758   0.107   9.224 -1.3149  1.9721 -0.0770
 6469SOL    HW231044   1.843   0.094   9.104  0.4361 -2.1392  0.7190
 6470SOL     OW31045   3.967   1.935   4.181  0.1094 -0.0943 -0.0191
 6470SOL    HW131046   3.995   2.023   4.204  0.5607  0.1378 -1.4430
 6470SOL    HW231047   3.874   1.957   4.172  0.2707  0.9713  0.9974
 6471SOL     OW31048   1.452   4.546   8.883 -0.4609  0.2048  0.2235
 6471SOL    HW131049   1.453   4.639   8.908  2.1276  0.7289 -1.8373
 6471SOL    HW231050   1.455   4.548   8.788  1.4029 -2.0658  0.2551
 6472SOL     OW31051   2.196   4.505   8.399 -0.6407 -0.2763 -0.5767
 6472SOL    HW131052   2.208   4.585   8.348  0.9602 -0.3704 -0.3694
 6472SOL    HW231053   2.230   4.437   8.340  1.1286 -0.0275  0.1658
 6473SOL     OW31054   1.101   3.898  16.947  0.1074  0.4836  0.0335
 6473SOL    HW131055   1.087   3.893  16.853  1.8474 -2.1105 -0.0819
 6473SOL    HW231056   1.154   3.822  16.968 -1.8626 -0.9562 -0.2460
 6474SOL     OW31057   0.810   1.773   1.030 -0.1083 -0.1952 -0.0103
 6474SOL    HW131058   0.858   1.824   1.096  1.0044 -0.7431 -0.4027
 6474SOL    HW231059   0.822   1.830   0.954  2.6852 -0.5409  0.1935
 6475SOL     OW31060   3.438   0.745   7.415  0.7809 -0.5306  0.0543
 6475SOL    HW131061   3.370   0.751   7.482  3.3981 -2.7081  2.8777
 6475SOL    HW231062   3.514   0.738   7.473  0.1263  1.0806  1.1183
 6476SOL     OW31063   2.164   4.002   6.953 -0.7985 -0.2230  0.3885
 6476SOL    HW131064   2.177   3.988   7.046  2.4861  0.6514  0.0590
 6476SOL    HW231065   2.081   3.954   6.947 -0.6292 -0.4397 -0.2888
 6477SOL     OW31066   4.586   2.026   6.297 -0.0491  0.0669 -0.1071
 6477SOL    HW131067   4.545   2.055   6.215  2.4100  0.8345 -1.0517
 6477SOL    HW231068   4.521   2.070   6.352  0.5379 -1.8683  2.1475
 6478SOL     OW31069   4.150   2.225   7.682 -0.2544 -0.2293 -0.6103
 6478SOL    HW131070   4.152   2.290   7.612  1.8688  0.6261  0.2389
 6478SOL    HW231071   4.129   2.289   7.750 -1.7808  1.2558 -2.5008
 6479SOL     OW31072   3.752   4.528   9.231 -0.2762 -0.0205  0.6763
 6479SOL    HW131073   3.827   4.484   9.191  0.8470  1.1732  1.4908
 6479SOL    HW231074   3.729   4.466   9.301 -1.7297 -0.4678 -0.2059
 6480SOL     OW31075   2.926   2.306   6.453  0.7969  0.2922 -0.2828
 6480SOL    HW131076   2.887   2.381   6.408 -0.2875 -1.3153 -2.0136
 6480SOL    HW231077   2.983   2.357   6.510  0.5040  0.7441 -0.3949
 6481SOL     OW31078   1.027   1.692   7.595  0.0820 -0.2765 -0.2480
 6481SOL    HW131079   0.975   1.612   7.603 -2.0587  0.9699 -1.6254
 6481SOL    HW231080   1.006   1.718   7.505 -0.6747 -0.0589 -0.0017
 6482SOL     OW31081   0.037   0.219   3.523 -0.4610 -0.1396 -0.8310
 6482SOL    HW131082   0.059   0.126   3.514 -1.5168 -0.2925 -1.7865
 6482SOL    HW231083   0.080   0.255   3.446  0.1359  0.4461 -0.2227
 6483SOL     OW31084   1.621   0.214   6.305 -0.4052  0.6369 -0.6903
 6483SOL    HW131085   1.568   0.142   6.273 -0.9163  0.2912  0.9073
 6483SOL    HW231086   1.710   0.180   6.296 -1.3545 -2.7490  2.5168
 6484SOL     OW31087   4.409   4.477   2.871  0.1673 -0.3018 -0.0036
 6484SOL    HW131088   4.462   4.556   2.881 -0.7843  0.6229 -2.1508
 6484SOL    HW231089   4.328   4.516   2.839  0.3343  2.3782  2.9287
 6485SOL     OW31090   3.282   3.433   2.529  0.5384 -0.4310 -0.0005
 6485SOL    HW131091   3.290   3.375   2.604  0.7131  0.0267  0.3319
 6485SOL    HW231092   3.245   3.369   2.468 -1.0349 -0.0144  0.5216
 6486SOL     OW31093   4.290   4.724   7.883 -0.7055  0.1127  0.2116
 6486SOL    HW131094   4.281   0.016   7.792  0.3243  0.4852  0.2177
 6486SOL    HW231095   4.339   0.062   7.919  0.2967  1.1813 -3.3245
 6487SOL     OW31096   2.958   4.474   2.208  0.2189 -0.1581 -0.2222
 6487SOL    HW131097   3.039   4.523   2.222  0.8967 -1.1427 -0.6423
 6487SOL    HW231098   2.924   4.472   2.298  1.5334  2.0769  0.3351
 6488SOL     OW31099   0.891   1.673   2.798 -0.1104 -0.4264  0.1610
 6488SOL    HW131100   0.883   1.579   2.814 -1.1129 -0.1310  1.4612
 6488SOL    HW231101   0.980   1.688   2.830 -0.2556 -1.2319  0.9409
 6489SOL     OW31102   3.030   1.249   0.886 -0.1716 -0.2196 -0.2239
 6489SOL    HW131103   3.074   1.330   0.863  0.7806 -0.9809 -1.0808
 6489SOL    HW231104   3.010   1.219   0.797 -0.7758  0.8437 -0.4490
 6490SOL     OW31105   2.894   1.579   2.164 -0.4291  0.4009  0.1365
 6490SOL    HW131106   2.934   1.518   2.226  0.1853 -1.1248 -1.8043
 6490SOL    HW231107   2.874   1.653   2.222 -1.5353 -0.3872  0.7631
 6491SOL     OW31108   4.272   0.115   7.632  0.7262  0.4638 -0.8280
 6491SOL    HW131109   4.242   0.058   7.562  1.0418 -0.2559 -0.3772
 6491SOL    HW231110   4.304   0.186   7.577  2.4959  0.3200  0.0164
 6492SOL     OW31111   3.144   3.659   4.018  0.5507 -0.0418 -0.5103
 6492SOL    HW131112   3.226   3.706   4.033 -0.4512  1.8619 -0.9998
 6492SOL    HW231113   3.103   3.644   4.103  1.2658 -0.2662 -0.2149
 6493SOL     OW31114   0.133   4.704  16.679  0.1145 -0.4069  0.0123
 6493SOL    HW131115   0.055   4.653  16.657 -0.7259  0.2566  1.4081
 6493SOL    HW231116   0.102   0.021  16.753 -0.6847  0.2069 -0.7617
 6494SOL     OW31117   2.258   1.191   5.842 -0.1672  0.5450 -0.2624
 6494SOL    HW131118   2.210   1.112   5.867 -1.0629  0.9130 -0.8180
 6494SOL    HW231119   2.224   1.251   5.909  1.4279 -1.2484  2.1650
 6495SOL     OW31120   2.376   0.948   7.613 -0.5737 -0.3990 -0.6916
 6495SOL    HW131121   2.306   0.906   7.663  0.9044 -0.9084  0.9370
 6495SOL    HW231122   2.446   0.938   7.677 -0.6684  0.3609 -0.4680
 6496SOL     OW31123   3.398   3.809   5.849 -0.1024 -0.0932  0.3772
 6496SOL    HW131124   3.368   3.828   5.760 -0.8572 -0.0038  0.6576
 6496SOL    HW231125   3.337   3.740   5.875 -1.4818  0.3659 -1.6691
 6497SOL     OW31126   0.688   3.089  12.748 -0.4606 -0.2199  0.4197
 6497SOL    HW131127   0.651   3.161  12.697 -0.7488 -0.7963 -0.1813
 6497SOL    HW231128   0.625   3.019  12.765 -0.9791 -0.3368 -2.0741
 6498SOL     OW31129   1.733   3.447   5.732 -0.2920 -0.0139  0.1673
 6498SOL    HW131130   1.818   3.484   5.710 -0.5131 -1.7508 -3.4755
 6498SOL    HW231131   1.731   3.365   5.683  0.3026 -1.9879  3.4141
 6499SOL     OW31132   3.575   0.501   8.650  0.1448 -0.4617  0.9952
 6499SOL    HW131133   3.601   0.559   8.721  0.0002  1.9191 -0.8924
 6499SOL    HW231134   3.631   0.428   8.677  0.3154 -0.2335  1.2590
 6500SOL     OW31135   1.734   1.335  11.250 -0.2881  0.5024  0.3235
 6500SOL    HW131136   1.665   1.392  11.284 -0.9788  0.6895 -1.4092
 6500SOL    HW231137   1.694   1.252  11.223  0.5203  0.5452 -1.0130
 6501SOL     OW31138   0.434   2.954  17.345 -0.0422 -0.0054  0.4277
 6501SOL    HW131139   0.435   2.860  17.325  2.1342 -0.2898  1.8560
 6501SOL    HW231140   0.426   2.955  17.440  1.9183  3.3832  0.5716
 6502SOL     OW31141   3.483   4.723   0.347 -0.0000 -0.2949  0.3354
 6502SOL    HW131142   3.437   4.641   0.327  2.7461 -1.8227  0.3736
 6502SOL    HW231143   3.425   0.053   0.307  0.6312  1.5713  2.5065
 6503SOL     OW31144   2.841   3.323   7.927 -0.1828 -0.2116  0.8747
 6503SOL    HW131145   2.866   3.393   7.866  1.8009 -2.7507 -1.2373
 6503SOL    HW231146   2.805   3.265   7.859 -1.2815  0.7496  0.6368
 6504SOL     OW31147   3.444   1.432   4.745 -0.4384  0.3269 -0.0286
 6504SOL    HW131148   3.515   1.450   4.807 -0.9481  1.2758  0.2761
 6504SOL    HW231149   3.419   1.521   4.723 -1.0114  0.1663 -0.0215
 6505SOL     OW31150   3.078   0.422  10.405  0.1229  0.3599 -0.0653
 6505SOL    HW131151   3.104   0.492  10.465  2.0123  0.5387 -1.0825
 6505SOL    HW231152   3.117   0.460  10.326  2.9031 -0.2344  1.0263
 6506SOL     OW31153   3.460   0.723   6.380  0.3017 -0.1976 -0.1824
 6506SOL    HW131154   3.455   0.703   6.474  0.0745  1.7562  0.2319
 6506SOL    HW231155   3.546   0.763   6.369 -0.7794  2.0718 -0.4667
 6507SOL     OW31156   3.762   3.496   8.044  0.1476 -0.2251  0.1987
 6507SOL    HW131157   3.751   3.401   8.038  2.8401 -0.4748 -1.0702
 6507SOL    HW231158   3.701   3.534   7.981 -0.1914 -1.2043 -0.0613
 6508SOL     OW31159   4.524   3.105  17.355 -0.2128 -0.6024 -0.2814
 6508SOL    HW131160   4.522   3.201  17.362  1.0603 -0.4364 -2.1153
 6508SOL    HW231161   4.537   3.090  17.261  0.4106  1.1222 -0.4773
 6509SOL     OW31162   1.594   0.344   1.893  0.0191  0.3707 -0.2813
 6509SOL    HW131163   1.536   0.415   1.865 -0.9715 -0.0408  0.7063
 6509SOL    HW231164   1.532   0.292   1.944 -0.8903  0.8773 -0.8767
 6510SOL     OW31165   0.555   3.753   8.079  0.1037  0.7766 -0.2354
 6510SOL    HW131166   0.532   3.774   7.988  0.2533  0.8554 -0.2556
 6510SOL    HW231167   0.526   3.830   8.128 -1.0606 -0.0625  0.4047
 6511SOL     OW31168   3.251   1.268  12.819 -0.1756  0.4270  0.4189
 6511SOL    HW131169   3.320   1.277  12.754 -0.9827  0.2361 -0.4599
 6511SOL    HW231170   3.225   1.176  12.822  1.4485 -0.0334 -0.0180
 6512SOL     OW31171   0.972   4.549   8.256 -0.3083 -0.0062  0.2787
 6512SOL    HW131172   0.990   4.526   8.347  1.0316  0.9392  0.2377
 6512SOL    HW231173   0.876   4.554   8.256 -0.2664  0.7315 -0.2655
 6513SOL     OW31174   3.676   0.634   3.567 -0.5785 -0.2444  0.3291
 6513SOL    HW131175   3.631   0.554   3.542 -2.0396  1.5849 -2.8337
 6513SOL    HW231176   3.767   0.606   3.556 -0.2527  0.5902  0.8729
 6514SOL     OW31177   2.496   2.667   2.687  0.1612  0.4432 -0.2899
 6514SOL    HW131178   2.501   2.666   2.783  0.0534  2.7322 -0.2584
 6514SOL    HW231179   2.401   2.672   2.685 -0.0108 -2.2693  0.4749
 6515SOL     OW31180   4.392   4.342   2.585  0.3246  0.3963 -0.3782
 6515SOL    HW131181   4.333   4.273   2.558  0.2396 -0.0625  0.9772
 6515SOL    HW231182   4.343   4.369   2.663 -1.0756 -0.1894 -1.0703
 6516SOL     OW31183   4.186   0.583   7.535 -0.1294 -0.3407 -0.0011
 6516SOL    HW131184   4.174   0.666   7.489  0.1753  0.5248  1.4531
 6516SOL    HW231185   4.107   0.531   7.524 -1.1601  1.1175  0.5632
 6517SOL     OW31186   4.283   2.362   6.652 -0.1280 -0.0326 -0.4351
 6517SOL    HW131187   4.353   2.376   6.716  0.1177  0.9195 -0.9077
 6517SOL    HW231188   4.223   2.308   6.702  1.3374  0.7202  2.1064
 6518SOL     OW31189   3.502   3.248  12.996  0.5039  0.1249  0.1753
 6518SOL    HW131190   3.572   3.207  12.945 -0.1893  1.2023 -1.6364
 6518SOL    HW231191   3.457   3.304  12.933  1.3888 -0.5732 -1.0868
 6519SOL     OW31192   3.404   3.087   3.703 -0.3690  0.0154  0.4250
 6519SOL    HW131193   3.330   3.068   3.646  0.2551 -0.1131 -0.3560
 6519SOL    HW231194   3.426   3.178   3.681  0.4610 -0.4656 -0.7622
 6520SOL     OW31195   1.887   2.996  11.652  0.3493 -0.2614 -0.3326
 6520SOL    HW131196   1.807   3.026  11.695  0.0462 -3.2003  1.1531
 6520SOL    HW231197   1.866   2.910  11.615 -0.1906  0.2437 -1.1834
 6521SOL     OW31198   0.735   3.096   7.331  0.2680  0.5952 -0.9050
 6521SOL    HW131199   0.772   3.185   7.333  1.0018  0.2031  2.7802
 6521SOL    HW231200   0.692   3.091   7.416  2.1931 -1.6076 -0.0487
 6522SOL     OW31201   2.802   1.854  17.192  0.0837 -0.1054 -0.4818
 6522SOL    HW131202   2.825   1.939  17.228 -0.6880 -0.7330  1.4807
 6522SOL    HW231203   2.731   1.822  17.248 -0.3236 -0.2444 -1.0834
 6523SOL     OW31204   1.597   2.473  16.419  0.1968 -0.5841 -0.4206
 6523SOL    HW131205   1.686   2.445  16.399  0.0379 -0.8410 -0.7567
 6523SOL    HW231206   1.552   2.454  16.337  0.6934 -1.5573 -0.4590
 6524SOL     OW31207   0.113   3.491   6.664 -0.0090  0.3332 -0.3542
 6524SOL    HW131208   0.084   3.572   6.706  0.2896  1.3246 -2.0350
 6524SOL    HW231209   0.133   3.429   6.733 -1.9211  2.6525  2.2894
 6525SOL     OW31210   3.713   2.936   7.795  0.4458  1.0958  0.0460
 6525SOL    HW131211   3.636   2.981   7.759  1.1119  0.2548 -2.4369
 6525SOL    HW231212   3.773   2.939   7.720 -1.7250  1.7717 -1.6580
 6526SOL     OW31213   4.470   0.747   9.835  0.1730  0.1646  0.1577
 6526SOL    HW131214   4.553   0.702   9.821 -0.1084 -0.7259  1.4489
 6526SOL    HW231215   4.422   0.698   9.768 -0.4556 -1.5849  1.8845
 6527SOL     OW31216   1.705   2.014   5.279  0.2506 -0.4399  0.2049
 6527SOL    HW131217   1.653   2.094   5.272  1.0998  0.0087 -0.9110
 6527SOL    HW231218   1.706   2.009   5.375 -2.0591 -0.7576  0.2012
 6528SOL     OW31219   3.113   3.844   2.438  0.1235 -0.1914  0.2245
 6528SOL    HW131220   3.083   3.876   2.523  2.6786  1.3837  0.5366
 6528SOL    HW231221   3.207   3.846   2.458 -0.6836 -0.2694  4.0016
 6529SOL     OW31222   3.688   3.376  11.911 -0.2006  0.6316 -0.6287
 6529SOL    HW131223   3.633   3.411  11.982  1.2052  0.6900  0.4339
 6529SOL    HW231224   3.645   3.407  11.831 -1.4777 -0.9605 -0.5611
 6530SOL     OW31225   4.274   3.428  14.525 -0.4138 -0.1737 -0.1124
 6530SOL    HW131226   4.320   3.453  14.606  0.5190 -2.3383  0.0488
 6530SOL    HW231227   4.183   3.449  14.545  0.0061  0.0929  1.5399
 6531SOL     OW31228   1.604   2.555   1.114  0.6125  0.3520  0.3672
 6531SOL    HW131229   1.663   2.626   1.090  1.7275 -1.2727 -1.6158
 6531SOL    HW231230   1.622   2.496   1.041 -2.4178  0.2355 -0.2917
 6532SOL     OW31231   0.468   1.576   2.615  0.7077 -0.2973 -0.7750
 6532SOL    HW131232   0.491   1.574   2.708 -2.0094  2.0629 -0.0570
 6532SOL    HW231233   0.412   1.498   2.611 -0.8352  0.8055 -0.5556
 6533SOL     OW31234   1.330   4.013   0.545 -0.1966 -0.3873 -0.0981
 6533SOL    HW131235   1.420   4.042   0.529 -0.0028 -1.2745 -0.5881
 6533SOL    HW231236   1.343   3.928   0.586  2.3447 -0.1542 -0.4364
 6534SOL     OW31237   0.463   0.359   3.441  0.0038 -0.3820  0.4360
 6534SOL    HW131238   0.440   0.423   3.375  1.5551 -2.1230 -1.8159
 6534SOL    HW231239   0.408   0.284   3.419 -0.2287 -0.0643 -0.0545
 6535SOL     OW31240   2.701   3.968   5.848 -0.4707 -0.2603 -0.3893
 6535SOL    HW131241   2.679   4.031   5.780 -1.2824  0.1345  0.2461
 6535SOL    HW231242   2.733   3.894   5.795 -2.9694 -1.2078 -0.5440
 6536SOL     OW31243   1.421   1.568   2.840  0.0523  0.2839 -0.5820
 6536SOL    HW131244   1.412   1.586   2.747 -0.2515  1.3457 -0.3565
 6536SOL    HW231245   1.351   1.508   2.866  0.3730 -0.8144 -2.3182
 6537SOL     OW31246   1.043   0.026   4.804  0.0527  0.4458  0.1803
 6537SOL    HW131247   1.009   0.053   4.890 -0.7409  1.4003 -0.4349
 6537SOL    HW231248   1.005   0.099   4.756 -0.3989  0.2423  0.2300
 6538SOL     OW31249   3.436   0.718   6.664  0.3875  0.1654  0.3410
 6538SOL    HW131250   3.527   0.739   6.688  0.9213 -1.1146 -0.6076
 6538SOL    HW231251   3.400   0.710   6.753  0.8350 -0.4824  0.4652
 6539SOL     OW31252   1.167   0.512   8.582  0.3936 -0.0666  0.3218
 6539SOL    HW131253   1.164   0.515   8.487 -0.3569  1.8914  0.4134
 6539SOL    HW231254   1.150   0.418   8.594  1.0782 -0.4098 -1.3601
 6540SOL     OW31255   0.128   1.809   3.440 -0.8772 -0.4775 -0.2634
 6540SOL    HW131256   0.055   1.811   3.502  0.6553 -1.8482  1.5712
 6540SOL    HW231257   0.125   1.897   3.402 -2.2558 -0.5678 -0.3728
 6541SOL     OW31258   0.288   1.823   4.410  0.1313  0.1643 -1.0320
 6541SOL    HW131259   0.292   1.914   4.381  0.4462  0.9245  1.3871
 6541SOL    HW231260   0.294   1.775   4.328 -4.2375  1.8573 -2.3350
 6542SOL     OW31261   4.640   1.276   9.968  0.2458  0.1179 -0.0525
 6542SOL    HW131262   4.733   1.293   9.980  0.2557  1.2653 -1.7131
 6542SOL    HW231263   4.604   1.303  10.052  0.6079  0.1546  0.0909
 6543SOL     OW31264   2.686   1.144   8.608 -0.0037 -0.2075 -0.8657
 6543SOL    HW131265   2.646   1.226   8.577 -1.3061 -0.0504  1.2778
 6543SOL    HW231266   2.608   1.094   8.632 -0.9740  1.1905 -1.0601
 6544SOL     OW31267   4.063   0.274  10.358 -0.0904 -0.3027  0.1943
 6544SOL    HW131268   4.057   0.336  10.284 -1.7338  0.7362  1.1976
 6544SOL    HW231269   4.008   0.206  10.318 -0.6474  0.2099  0.0711
 6545SOL     OW31270   1.489   3.092  15.301 -0.0143 -0.2761  0.1853
 6545SOL    HW131271   1.544   3.108  15.379 -0.7426  3.3881 -0.0379
 6545SOL    HW231272   1.485   3.177  15.257 -0.6011 -0.7568 -0.6656
 6546SOL     OW31273   2.176   3.250   9.062  0.5337  0.4649  0.4269
 6546SOL    HW131274   2.088   3.287   9.074  0.9038  1.2720  0.6540
 6546SOL    HW231275   2.223   3.306   9.124 -0.4274 -0.2511  1.8345
 6547SOL     OW31276   2.490   4.412  16.404 -0.1466 -0.1775  0.0938
 6547SOL    HW131277   2.508   4.327  16.364  0.0917 -0.0344 -0.1058
 6547SOL    HW231278   2.528   4.399  16.491  0.5552  1.3045  0.0079
 6548SOL     OW31279   2.474   3.250   2.108  0.2706 -0.4436  0.4912
 6548SOL    HW131280   2.472   3.298   2.190 -1.8217  0.7170 -0.2480
 6548SOL    HW231281   2.556   3.201   2.117 -0.7323 -2.1097  0.4241
 6549SOL     OW31282   3.527   1.285  16.655 -0.4691 -0.1831 -0.0169
 6549SOL    HW131283   3.463   1.247  16.715  0.8712  0.8803  2.0578
 6549SOL    HW231284   3.567   1.208  16.615  0.2191 -0.1615  0.6411
 6550SOL     OW31285   1.824   1.814   7.545 -0.1181  0.1262 -0.0626
 6550SOL    HW131286   1.732   1.795   7.527 -0.3320  0.7638  0.3792
 6550SOL    HW231287   1.862   1.783   7.463 -0.1466 -2.2031  0.7836
 6551SOL     OW31288   4.685   3.257   3.224 -0.1533  0.8517 -0.0353
 6551SOL    HW131289   4.648   3.297   3.145  1.6287  1.5316 -0.5438
 6551SOL    HW231290   4.637   3.296   3.297  0.8773  0.8598  0.6491
 6552SOL     OW31291   4.094   0.506   4.711 -0.2380 -0.2543 -0.9989
 6552SOL    HW131292   4.085   0.472   4.622  0.3022 -1.9775 -0.4026
 6552SOL    HW231293   4.106   0.425   4.761  0.6302 -0.7307 -1.9764
 6553SOL     OW31294   1.913   2.011   0.310 -0.2046  0.5883  0.1381
 6553SOL    HW131295   1.861   2.070   0.255 -0.3837 -0.1855 -0.5150
 6553SOL    HW231296   1.857   1.989   0.385 -0.8325 -2.2789 -1.1658
 6554SOL     OW31297   3.574   3.407   0.821  0.1177 -0.0966 -0.5224
 6554SOL    HW131298   3.645   3.343   0.823  0.8675  0.8810  3.4858
 6554SOL    HW231299   3.567   3.436   0.912 -0.5366 -0.4720 -0.4558
 6555SOL     OW31300   2.217   1.228   6.893  0.0370  0.5628 -0.4610
 6555SOL    HW131301   2.147   1.215   6.830 -2.6294  0.5308  2.5063
 6555SOL    HW231302   2.249   1.312   6.861  1.3946  1.6849  3.8156
 6556SOL     OW31303   1.443   1.407  12.209  0.4149  0.0630 -0.0925
 6556SOL    HW131304   1.361   1.435  12.170  0.6250  0.7641 -0.0287
 6556SOL    HW231305   1.430   1.444  12.297 -1.8207 -1.6165  0.2731
 6557SOL     OW31306   3.944   3.425   3.252  0.1964  0.0341  0.0571
 6557SOL    HW131307   3.956   3.418   3.157  0.7682 -0.0364  0.1311
 6557SOL    HW231308   3.983   3.511   3.266 -0.6984  0.2106  1.4748
 6558SOL     OW31309   0.635   3.593   5.442  0.5616  0.4563  0.0515
 6558SOL    HW131310   0.729   3.611   5.451  0.6438  0.1519 -0.1970
 6558SOL    HW231311   0.637   3.497   5.435  0.3765  0.5700 -1.6248
 6559SOL     OW31312   1.418   3.445   6.636  0.4372 -0.5308 -0.1908
 6559SOL    HW131313   1.491   3.482   6.586 -0.9853  3.0670  0.3751
 6559SOL    HW231314   1.383   3.520   6.684 -0.3364  0.1372 -1.8051
 6560SOL     OW31315   2.050   1.471   1.698 -0.3433 -0.0807 -0.9178
 6560SOL    HW131316   2.044   1.550   1.752  0.9839  0.0413 -0.9578
 6560SOL    HW231317   1.961   1.462   1.665 -0.4524  2.5103 -1.3395
 6561SOL     OW31318   0.937   3.078  15.162 -0.0483 -0.1264  0.0153
 6561SOL    HW131319   0.903   2.999  15.119 -1.0266 -0.7516  1.9682
 6561SOL    HW231320   0.971   3.046  15.245 -1.3752 -0.3808  0.4597
 6562SOL     OW31321   4.170   0.671   0.585  0.2182  0.4644 -0.5534
 6562SOL    HW131322   4.185   0.641   0.674 -0.6082 -0.4618 -0.7335
 6562SOL    HW231323   4.238   0.738   0.575  0.0665  0.5325 -1.1400
 6563SOL     OW31324   4.062   4.593   1.001  0.6258  0.1554  0.2751
 6563SOL    HW131325   4.098   4.675   0.965  0.2295 -0.0310 -0.5549
 6563SOL    HW231326   4.001   4.556   0.937  1.0745 -1.5955  0.8690
 6564SOL     OW31327   2.675   2.602   8.891 -0.1509  0.1964 -0.6162
 6564SOL    HW131328   2.668   2.579   8.798  0.2309 -0.3913 -0.4987
 6564SOL    HW231329   2.669   2.697   8.895  0.1327  0.0551  2.9089
 6565SOL     OW31330   0.157   1.478   7.063  0.7589  0.1026 -0.0250
 6565SOL    HW131331   0.141   1.417   7.135  1.4061  0.0049  0.0341
 6565SOL    HW231332   0.109   1.440   6.989  0.0894 -1.1784  1.0673
 6566SOL     OW31333   2.977   3.513   4.198 -0.5392 -0.8303 -0.0543
 6566SOL    HW131334   2.903   3.507   4.258 -1.3792 -2.1764 -1.2034
 6566SOL    HW231335   2.960   3.435   4.145 -1.5533  1.2179 -2.7248
 6567SOL     OW31336   3.244   2.788   4.953  0.2131  0.6613 -0.2303
 6567SOL    HW131337   3.158   2.793   4.912  0.0873 -2.1811 -0.3266
 6567SOL    HW231338   3.265   2.695   4.953 -0.4549  0.5078 -0.9464
 6568SOL     OW31339   3.684   4.481  15.880  0.1245  0.2880  0.5148
 6568SOL    HW131340   3.644   4.456  15.963 -0.1698  0.0400  0.2954
 6568SOL    HW231341   3.741   4.554  15.905 -0.6641  1.4753 -1.1858
 6569SOL     OW31342   4.409   0.841   2.942 -0.4959 -0.2567  0.0643
 6569SOL    HW131343   4.450   0.791   3.013 -1.1648 -1.7236 -0.5795
 6569SOL    HW231344   4.489   0.850   2.889  0.3161  4.4506  2.1439
 6570SOL     OW31345   1.809   2.137  15.293  0.1264 -0.4313  0.2615
 6570SOL    HW131346   1.774   2.166  15.209 -1.6049 -2.7780  0.1660
 6570SOL    HW231347   1.886   2.085  15.271  0.7294  0.6615 -0.1883
 6571SOL     OW31348   2.934   3.266   3.576 -0.2271  0.5379  0.2744
 6571SOL    HW131349   2.887   3.189   3.544 -1.2304  0.2641  2.3996
 6571SOL    HW231350   2.977   3.227   3.653 -0.6357 -1.5682 -0.5764
 6572SOL     OW31351   0.035   2.696   0.198 -0.1946  0.0853 -0.4326
 6572SOL    HW131352   0.040   2.643   0.118 -1.9850  2.0297 -1.8510
 6572SOL    HW231353   0.123   2.732   0.204 -0.8975  1.4094  2.0424
 6573SOL     OW31354   2.656   3.746   1.750 -0.1221  0.5332  0.0304
 6573SOL    HW131355   2.622   3.658   1.759 -0.4027  0.7411  0.9453
 6573SOL    HW231356   2.748   3.720   1.758 -0.5448 -0.5767  1.2589
 6574SOL     OW31357   2.915   2.177   3.554  0.2381 -0.2731 -0.1500
 6574SOL    HW131358   2.831   2.146   3.522 -0.5101 -0.7956  2.3585
 6574SOL    HW231359   2.904   2.148   3.644  2.1919  0.1175  0.2221
 6575SOL     OW31360   3.416   0.900   3.962  0.2417  0.0426 -0.0454
 6575SOL    HW131361   3.464   0.980   3.986  0.4973 -0.6277  1.6818
 6575SOL    HW231362   3.479   0.833   3.986 -0.5298 -1.0155 -0.9744
 6576SOL     OW31363   1.306   3.648  15.045 -0.4374 -0.5266  0.1780
 6576SOL    HW131364   1.267   3.683  14.965 -0.9764  0.8713  1.0533
 6576SOL    HW231365   1.364   3.576  15.019  1.7813  1.3420 -0.0672
 6577SOL     OW31366   3.312   4.537   8.427  0.0880  0.2753  0.4063
 6577SOL    HW131367   3.340   4.603   8.490  1.2144  1.6336 -1.5084
 6577SOL    HW231368   3.387   4.478   8.428 -0.4612 -0.4522 -1.4443
 6578SOL     OW31369   1.516   3.178   9.409 -0.2520 -0.3698 -0.4636
 6578SOL    HW131370   1.481   3.251   9.461 -0.0430 -0.4523 -0.2072
 6578SOL    HW231371   1.553   3.121   9.476  0.3006  0.2076 -0.2791
 6579SOL     OW31372   0.754   2.525   5.577  0.7027  0.3389  0.1509
 6579SOL    HW131373   0.715   2.576   5.649  0.9024  0.2053  0.3553
 6579SOL    HW231374   0.671   2.514   5.531  1.3876 -0.0828 -0.9704
 6580SOL     OW31375   1.921   1.102   6.228  0.1079  0.1681 -0.1206
 6580SOL    HW131376   2.001   1.056   6.253 -1.6370 -1.7254  2.0305
 6580SOL    HW231377   1.868   1.082   6.306  0.3944 -0.9580 -0.2260
 6581SOL     OW31378   1.336   0.145  14.135 -0.0494 -0.0566 -0.3203
 6581SOL    HW131379   1.414   0.096  14.162 -1.2506 -0.4016  2.5214
 6581SOL    HW231380   1.343   0.225  14.187 -1.9375  0.0853 -0.2866
 6582SOL     OW31381   0.210   1.301   5.511  0.0062 -0.0907 -0.5482
 6582SOL    HW131382   0.286   1.258   5.470 -0.4182 -0.9729 -0.4030
 6582SOL    HW231383   0.162   1.220   5.526  2.0489 -1.2518 -0.2631
 6583SOL     OW31384   1.956   0.379   3.739 -0.2249 -0.0797 -0.2358
 6583SOL    HW131385   1.934   0.286   3.752  2.7393 -0.7326  0.2739
 6583SOL    HW231386   1.907   0.409   3.815 -0.5925 -1.5177  0.1083
 6584SOL     OW31387   2.025   2.142   8.032 -0.1510  0.0022 -0.3989
 6584SOL    HW131388   1.961   2.086   8.076  0.9598 -1.3327 -0.4824
 6584SOL    HW231389   2.058   2.196   8.104 -0.7416 -0.8124  0.4654
 6585SOL     OW31390   0.803   2.892  17.374 -0.7873 -0.7143 -0.0677
 6585SOL    HW131391   0.775   2.979  17.345 -0.2341 -0.0138  1.5143
 6585SOL    HW231392   0.893   2.907  17.403 -0.6955 -0.4832 -0.4741
 6586SOL     OW31393   3.118   2.041   8.730 -0.1951 -0.5713  0.1250
 6586SOL    HW131394   3.116   2.090   8.647 -0.7516  0.9522  1.0323
 6586SOL    HW231395   3.209   2.066   8.749 -0.5902  0.5747  0.5424
 6587SOL     OW31396   4.263   3.036   7.031 -0.3878  0.2195  0.1078
 6587SOL    HW131397   4.272   2.951   6.987  0.9949 -0.9742  2.6630
 6587SOL    HW231398   4.319   3.093   6.977 -1.1633  1.6789  0.8620
 6588SOL     OW31399   0.540   1.151   0.126 -0.0075  0.0246  0.1058
 6588SOL    HW131400   0.545   1.194   0.041 -1.1836  0.1729  0.1082
 6588SOL    HW231401   0.493   1.076   0.089 -2.6427  1.1886  1.0570
 6589SOL     OW31402   0.888   2.431  17.543 -0.1862 -0.4098 -0.2416
 6589SOL    HW131403   0.939   2.500  17.585  0.1188  0.5075 -2.1394
 6589SOL    HW231404   0.828   2.480  17.488 -1.0443 -0.5882  0.5346
 6590SOL     OW31405   0.961   4.306   5.346 -0.4110 -0.0252 -0.1180
 6590SOL    HW131406   0.900   4.233   5.341 -1.6697  0.9635  0.9084
 6590SOL    HW231407   0.959   4.323   5.252 -1.0812  2.1296  0.2847
 6591SOL     OW31408   3.575   4.631  12.316  0.2506  0.4763 -0.0688
 6591SOL    HW131409   3.521   4.673  12.249 -3.1732 -0.2327  2.2233
 6591SOL    HW231410   3.502   4.604  12.372  1.0252  1.8669  1.6203
 6592SOL     OW31411   3.983   1.211   2.468 -0.2871  0.3802 -0.3420
 6592SOL    HW131412   3.893   1.205   2.436 -0.1311 -0.4124 -0.6315
 6592SOL    HW231413   4.033   1.167   2.399  3.3360 -0.7728  2.9862
 6593SOL     OW31414   1.692   3.754   1.271  0.5516 -0.0221  0.3374
 6593SOL    HW131415   1.773   3.777   1.316  0.0662 -0.7561  1.5785
 6593SOL    HW231416   1.717   3.740   1.180 -2.3391 -0.9392 -0.3059
 6594SOL     OW31417   0.473   0.921  12.595 -0.3115 -0.1264  0.2562
 6594SOL    HW131418   0.511   0.933  12.682 -0.4849 -2.3951  0.6503
 6594SOL    HW231419   0.438   0.834  12.615  1.2024 -1.2945 -2.3311
 6595SOL     OW31420   2.583   2.668   2.976 -0.4875  0.3357  0.0736
 6595SOL    HW131421   2.546   2.595   3.025  1.3927  0.6044  1.9013
 6595SOL    HW231422   2.512   2.728   2.999  1.6607  2.1868  1.9061
 6596SOL     OW31423   3.803   4.501  10.691  0.1404  0.8162 -0.3080
 6596SOL    HW131424   3.882   4.480  10.741 -1.2777 -2.2048  0.6787
 6596SOL    HW231425   3.754   4.546  10.761  2.0403  0.3503  1.3234
 6597SOL     OW31426   1.893   3.613   6.933  0.6352  0.4374 -0.0286
 6597SOL    HW131427   1.856   3.536   6.975 -1.8383  0.9537 -1.2876
 6597SOL    HW231428   1.982   3.610   6.969  1.0528 -1.3998 -1.2340
 6598SOL     OW31429   2.295   1.427   1.306 -0.4601  0.3841  0.2807
 6598SOL    HW131430   2.334   1.513   1.324  2.5200 -0.5052 -2.1552
 6598SOL    HW231431   2.284   1.384   1.391 -3.9766 -0.0632 -0.3916
 6599SOL     OW31432   4.474   3.381   9.153  0.6553 -0.0452  0.0107
 6599SOL    HW131433   4.524   3.307   9.188 -0.5583 -1.0516 -0.4083
 6599SOL    HW231434   4.459   3.432   9.233  0.5698 -0.2221  0.1065
 6600SOL     OW31435   1.904   2.362   4.654 -0.6365  0.3696  0.4685
 6600SOL    HW131436   1.993   2.398   4.654 -0.2936 -0.4877  0.0628
 6600SOL    HW231437   1.847   2.434   4.625  0.0743  0.3231 -1.0633
 6601SOL     OW31438   2.250   1.565   6.285  0.7292  0.1754 -0.0590
 6601SOL    HW131439   2.308   1.636   6.311  0.7907  0.6402 -1.4678
 6601SOL    HW231440   2.191   1.557   6.360 -0.2208  2.4628 -0.5674
 6602SOL     OW31441   4.720   0.909   7.766  0.1376  0.6038 -0.4312
 6602SOL    HW131442   0.025   0.973   7.708 -1.5457 -0.2385 -2.5639
 6602SOL    HW231443   4.673   0.972   7.821 -1.3991  2.2774 -3.6760
 6603SOL     OW31444   4.034   4.273   2.872 -0.3466  0.3820 -0.4943
 6603SOL    HW131445   4.072   4.280   2.960  3.1643  0.4825 -2.0026
 6603SOL    HW231446   3.944   4.292   2.900 -0.4876 -1.2105  0.1636
 6604SOL     OW31447   4.656   1.600   0.241 -0.4099 -0.4091 -0.1223
 6604SOL    HW131448   4.597   1.524   0.247 -0.0275 -0.7482 -0.6630
 6604SOL    HW231449   4.721   1.576   0.175 -3.5531 -2.0866 -2.5779
 6605SOL     OW31450   0.980   0.761  11.982  0.1003  0.3058 -0.3620
 6605SOL    HW131451   0.970   0.848  12.020  2.1373  0.6343 -0.5723
 6605SOL    HW231452   1.051   0.723  12.034 -0.5955 -2.3929 -1.3729
 6606SOL     OW31453   1.885   0.031   5.291  0.3843 -0.0172 -0.4393
 6606SOL    HW131454   1.791   0.026   5.273 -0.0774  2.0516  1.3683
 6606SOL    HW231455   1.897   4.679   5.328  2.5948  0.3539 -0.2676
 6607SOL     OW31456   4.010   0.340   9.890  0.4675  0.4000  0.2337
 6607SOL    HW131457   4.070   0.266   9.890  1.2299  1.0204  0.6132
 6607SOL    HW231458   3.987   0.334   9.797 -1.3801 -2.8864  0.9142
 6608SOL     OW31459   3.250   4.499  11.396 -0.2149 -0.1192  0.3907
 6608SOL    HW131460   3.324   4.477  11.339 -0.1797  1.1092 -0.0335
 6608SOL    HW231461   3.288   4.496  11.483 -2.6593  1.4590  1.5257
 6609SOL     OW31462   1.485   1.666   2.557  0.2139 -0.0331  0.0714
 6609SOL    HW131463   1.455   1.683   2.468  0.5282  1.4350  0.2422
 6609SOL    HW231464   1.579   1.683   2.554  0.0226  0.7690 -1.1027
 6610SOL     OW31465   3.839   1.990  10.530  0.2763 -0.4836  0.0125
 6610SOL    HW131466   3.841   2.033  10.616  1.3871 -4.4556  1.9742
 6610SOL    HW231467   3.791   1.909  10.544 -2.1935  1.0558  0.4678
 6611SOL     OW31468   2.375   3.694   0.035 -0.4624 -0.5273  0.4510
 6611SOL    HW131469   2.461   3.735   0.033 -0.8680  0.3012  0.0927
 6611SOL    HW231470   2.312   3.762   0.011  1.1033  0.7850  0.1506
 6612SOL     OW31471   2.220   4.144   4.326 -0.5246 -0.1229  0.2894
 6612SOL    HW131472   2.233   4.109   4.237 -0.1818 -4.0904  1.8999
 6612SOL    HW231473   2.168   4.074   4.365  1.2892 -1.1532  0.8888
 6613SOL     OW31474   2.230   0.247   7.469  0.2966  0.2979  0.6387
 6613SOL    HW131475   2.296   0.212   7.409 -1.7891 -2.0935 -0.2574
 6613SOL    HW231476   2.169   0.173   7.474 -0.6016  1.1877  2.7809
 6614SOL     OW31477   0.828   0.803   5.345 -0.1884  0.2958  0.1275
 6614SOL    HW131478   0.752   0.840   5.300 -0.9483 -1.0262  0.3240
 6614SOL    HW231479   0.902   0.820   5.287 -0.3056 -1.9768 -0.6859
 6615SOL     OW31480   2.447   4.173  12.739  0.7270 -0.1079  0.1946
 6615SOL    HW131481   2.438   4.268  12.735  0.6321 -0.1580 -0.9283
 6615SOL    HW231482   2.502   4.162  12.817  0.2529 -1.2459  0.3777
 6616SOL     OW31483   0.841   4.585   9.859 -0.7361 -0.2521  0.2683
 6616SOL    HW131484   0.780   4.644   9.816 -0.1398 -1.2459 -1.9513
 6616SOL    HW231485   0.841   4.505   9.805  3.2555 -0.0371 -0.0545
 6617SOL     OW31486   2.856   0.544   5.154 -0.1089  0.0919  0.2425
 6617SOL    HW131487   2.892   0.587   5.077 -0.6030  0.7698  0.3907
 6617SOL    HW231488   2.941   0.512   5.187 -0.9913 -1.3540  1.1193
 6618SOL     OW31489   0.511   3.076  14.483 -0.0992 -0.0875  0.8891
 6618SOL    HW131490   0.602   3.091  14.457  0.5819 -1.4870  2.4206
 6618SOL    HW231491   0.484   3.163  14.509 -1.8555  0.0401 -1.3458
 6619SOL     OW31492   1.778   1.718   5.914  0.0495  0.4225 -0.4005
 6619SOL    HW131493   1.853   1.699   5.972  0.3888  1.6479 -0.4353
 6619SOL    HW231494   1.724   1.641   5.925  0.3697  0.1066 -1.0318
 6620SOL     OW31495   1.816   4.233   3.556  0.2198 -0.1841  0.4447
 6620SOL    HW131496   1.858   4.183   3.626 -0.4814 -0.6098  0.5644
 6620SOL    HW231497   1.891   4.287   3.533 -0.5613  0.5058 -0.5147
 6621SOL     OW31498   0.015   0.049   7.732  0.3221  0.0012 -0.4744
 6621SOL    HW131499   0.016   0.077   7.641  0.5144 -1.8237 -1.0435
 6621SOL    HW231500   0.031   0.125   7.787 -2.0423 -0.3771  0.7752
 6622SOL     OW31501   3.534   2.243   9.029  1.0830 -0.2022 -0.3802
 6622SOL    HW131502   3.526   2.164   9.083  0.2221 -0.2939 -0.6427
 6622SOL    HW231503   3.589   2.284   9.096  0.7236 -0.4270  0.0506
 6623SOL     OW31504   4.297   4.032   6.020 -0.0338  0.5356  0.5887
 6623SOL    HW131505   4.216   3.982   6.011 -0.0899  0.2648  2.5535
 6623SOL    HW231506   4.317   4.016   6.112  0.4829  0.0629  0.3918
 6624SOL     OW31507   2.004   4.097   5.632 -0.4123  0.0292 -0.0923
 6624SOL    HW131508   2.081   4.131   5.675  0.5242 -1.0279 -0.9219
 6624SOL    HW231509   2.005   4.004   5.654 -0.9043  0.1482  0.4362
 6625SOL     OW31510   1.583   4.421  16.682  0.2910  0.1267 -0.2920
 6625SOL    HW131511   1.553   4.331  16.667  0.2640  0.3545 -1.6302
 6625SOL    HW231512   1.654   4.433  16.618 -1.9904 -1.0959 -3.0554
 6626SOL     OW31513   2.564   2.073   8.921 -0.3542 -0.0243  0.0581
 6626SOL    HW131514   2.600   2.149   8.966  0.5029 -1.5070  1.8914
 6626SOL    HW231515   2.497   2.052   8.986  0.9807  0.5990  1.6422
 6627SOL     OW31516   3.703   0.783  16.249 -0.1055  0.3094  0.4190
 6627SOL    HW131517   3.767   0.798  16.180 -2.6737  1.0356 -1.8201
 6627SOL    HW231518   3.647   0.857  16.224  1.5396  1.5102  0.3441
 6628SOL     OW31519   2.086   4.321   7.842  0.0751 -0.0976 -0.2536
 6628SOL    HW131520   2.097   4.228   7.824 -0.7846 -0.3919  0.7852
 6628SOL    HW231521   2.000   4.327   7.883 -0.3470 -1.8913 -0.8809
 6629SOL     OW31522   0.775   0.600   0.984  0.3794 -0.3243 -0.2527
 6629SOL    HW131523   0.680   0.607   0.973  0.2567 -0.5004  0.6893
 6629SOL    HW231524   0.795   0.565   0.897 -0.4390 -2.5135  0.4409
 6630SOL     OW31525   1.901   1.745   7.974 -0.3113  0.8461 -0.5537
 6630SOL    HW131526   1.982   1.766   7.928  0.7281 -2.8603 -0.4390
 6630SOL    HW231527   1.835   1.777   7.913 -1.1015  1.0623  0.4114
 6631SOL     OW31528   0.879   4.638  10.221 -0.3634  0.1891 -0.0702
 6631SOL    HW131529   0.970   4.608  10.224 -0.5962 -0.6977 -1.7448
 6631SOL    HW231530   0.873   4.669  10.311  1.8707  1.1249 -0.2459
 6632SOL     OW31531   4.333   4.412   1.489  0.2605 -0.8223 -0.2874
 6632SOL    HW131532   4.365   4.387   1.402 -2.9645  0.6999 -1.9235
 6632SOL    HW231533   4.339   4.508   1.484  2.0631 -0.9877 -1.4356
 6633SOL     OW31534   0.396   1.635   5.416 -0.5210  0.5867  0.3482
 6633SOL    HW131535   0.481   1.676   5.431  0.3558 -0.3333 -2.2502
 6633SOL    HW231536   0.422   1.563   5.359  1.2976  1.2411  0.3407
 6634SOL     OW31537   3.135   1.416   3.278 -0.3968 -0.0551  0.1071
 6634SOL    HW131538   3.048   1.443   3.249 -0.2091 -0.1875 -0.5775
 6634SOL    HW231539   3.193   1.474   3.229  1.7172 -0.6923  1.8499
 6635SOL     OW31540   1.132   0.215  15.468 -0.1804  0.3414 -0.0673
 6635SOL    HW131541   1.177   0.132  15.454 -1.9066 -0.4401 -0.9470
 6635SOL    HW231542   1.044   0.189  15.443 -0.0335 -0.0897 -0.1298
 6636SOL     OW31543   1.965   1.802   3.059  0.0453  0.1811 -0.0668
 6636SOL    HW131544   2.014   1.724   3.084  0.5290  1.1502  2.0219
 6636SOL    HW231545   2.016   1.847   2.992  0.1435 -0.5551 -0.4870
 6637SOL     OW31546   3.304   1.991   9.067 -0.3903  0.4276 -0.1650
 6637SOL    HW131547   3.371   2.027   9.126 -0.5912 -0.0028  0.3296
 6637SOL    HW231548   3.347   1.914   9.030 -0.6820  0.3125 -0.2674
 6638SOL     OW31549   1.294   3.757   8.570  0.2145  0.0251  0.1513
 6638SOL    HW131550   1.214   3.714   8.541  1.6821 -1.6923 -1.3276
 6638SOL    HW231551   1.360   3.710   8.519  1.1330  2.1276 -0.6289
 6639SOL     OW31552   3.849   3.169   3.239 -0.2855  0.2894  0.3570
 6639SOL    HW131553   3.799   3.178   3.158 -0.6275  1.6237  0.7137
 6639SOL    HW231554   3.896   3.253   3.239 -2.6228  1.5837 -1.4102
 6640SOL     OW31555   3.223   3.488   8.033 -0.5072 -0.4279 -0.2691
 6640SOL    HW131556   3.222   3.554   7.963 -0.8902 -1.0249 -0.8249
 6640SOL    HW231557   3.210   3.408   7.983 -0.8833 -1.8108  2.0491
 6641SOL     OW31558   1.429   1.643  16.583 -0.3856  0.3346 -0.2581
 6641SOL    HW131559   1.475   1.611  16.661  0.7691 -0.0387 -1.0887
 6641SOL    HW231560   1.423   1.559  16.537  0.6401 -1.3687  2.7520
 6642SOL     OW31561   1.187   0.560   3.820 -0.5232  0.6244  0.0761
 6642SOL    HW131562   1.199   0.647   3.782 -0.5050  0.3375 -0.5644
 6642SOL    HW231563   1.191   0.503   3.743 -0.7863  1.5563 -0.6210
 6643SOL     OW31564   2.840   1.795  12.350 -0.3166 -0.6602 -0.3470
 6643SOL    HW131565   2.917   1.749  12.385 -1.7430 -0.7422  2.6892
 6643SOL    HW231566   2.876   1.883  12.337 -1.2604 -0.3028 -0.5254
 6644SOL     OW31567   3.452   1.578   8.071  0.1515 -0.3224  0.8300
 6644SOL    HW131568   3.502   1.563   8.151  0.6061 -0.9405  0.4256
 6644SOL    HW231569   3.521   1.571   8.005 -0.2849 -2.0555  0.5768
 6645SOL     OW31570   1.413   1.174   8.224  0.3927  0.1520 -0.0372
 6645SOL    HW131571   1.353   1.119   8.275  1.4790 -0.5398  0.5007
 6645SOL    HW231572   1.496   1.130   8.242  0.1246 -0.6678 -0.7985
 6646SOL     OW31573   3.308   1.468   2.833  0.3332  0.4945  0.3845
 6646SOL    HW131574   3.318   1.479   2.738 -0.0432  1.4118  0.4588
 6646SOL    HW231575   3.226   1.419   2.838 -0.1293  1.2591  0.2460
 6647SOL     OW31576   1.692   0.708   9.150  0.1720  0.3035  0.5664
 6647SOL    HW131577   1.705   0.801   9.168  1.8053  0.0293  0.8492
 6647SOL    HW231578   1.601   0.686   9.168  0.6705 -0.4390  2.1642
 6648SOL     OW31579   1.170   1.796  12.230 -0.0113  0.6696 -0.1790
 6648SOL    HW131580   1.128   1.710  12.225  0.2597  0.2222  5.4584
 6648SOL    HW231581   1.105   1.836  12.287  0.0373 -0.6832  0.8238
 6649SOL     OW31582   4.717   3.355   5.545 -0.0014 -0.2274 -0.4623
 6649SOL    HW131583   4.676   3.378   5.461 -0.8523  0.7349  0.2050
 6649SOL    HW231584   0.038   3.431   5.559 -2.6087  1.7510 -0.6128
 6650SOL     OW31585   2.695   1.554  12.678  0.0186 -0.2158  0.2471
 6650SOL    HW131586   2.732   1.524  12.595 -0.4612 -0.0178 -0.0349
 6650SOL    HW231587   2.613   1.505  12.680 -0.6461  0.9657  1.4639
 6651SOL     OW31588   4.341   0.972   6.609 -0.2944  0.5802 -0.0566
 6651SOL    HW131589   4.354   0.899   6.668  0.5365  0.0042 -0.9523
 6651SOL    HW231590   4.428   1.009   6.595 -0.0604  0.0407 -0.0315
 6652SOL     OW31591   1.295   1.422   7.657  0.1022 -0.3818  0.4138
 6652SOL    HW131592   1.336   1.391   7.576 -0.8393 -1.6500  0.4330
 6652SOL    HW231593   1.328   1.366   7.728  0.7574  1.0609  1.2509
 6653SOL     OW31594   0.451   1.352   3.138  0.7875 -0.3765  0.1146
 6653SOL    HW131595   0.489   1.440   3.141 -0.7040  0.2180  1.3689
 6653SOL    HW231596   0.364   1.369   3.102  0.2573  0.9616  2.0406
 6654SOL     OW31597   1.044   4.535   3.443 -0.0291 -0.2265 -0.5560
 6654SOL    HW131598   0.977   4.589   3.401 -0.3803 -1.4001 -1.5097
 6654SOL    HW231599   0.998   4.453   3.427  0.6763 -0.3836 -1.8160
 6655SOL     OW31600   0.285   4.108   4.152 -0.1537 -0.1134  0.1249
 6655SOL    HW131601   0.339   4.102   4.231  0.4609  2.0697 -0.1374
 6655SOL    HW231602   0.287   4.201   4.129 -0.3121  0.2260  1.4586
 6656SOL     OW31603   0.891   2.678  10.316  0.3032  0.4567 -0.3097
 6656SOL    HW131604   0.895   2.654  10.223  2.1664 -4.1311  0.9708
 6656SOL    HW231605   0.983   2.702  10.328  0.5795 -0.5001 -0.5479
 6657SOL     OW31606   4.440   2.454   3.631 -0.2509 -0.3706  0.1217
 6657SOL    HW131607   4.466   2.519   3.696  1.8341  0.1293 -1.2010
 6657SOL    HW231608   4.447   2.494   3.544  1.6921  1.4386  1.1248
 6658SOL     OW31609   1.809   2.672   3.100  0.1461  0.2011  0.4276
 6658SOL    HW131610   1.765   2.744   3.054  1.3140 -0.0202 -1.0471
 6658SOL    HW231611   1.739   2.657   3.163  1.6311 -0.2742  1.9599
 6659SOL     OW31612   3.497   4.696   2.579  0.4045  0.3197 -0.1728
 6659SOL    HW131613   3.525   0.024   2.513 -2.8795  2.2556  0.3369
 6659SOL    HW231614   3.403   4.700   2.567  0.6432  0.5621 -2.0246
 6660SOL     OW31615   2.668   3.464   8.871 -0.4066  0.1832  0.0613
 6660SOL    HW131616   2.605   3.525   8.909 -0.4990  0.0433  0.1330
 6660SOL    HW231617   2.707   3.423   8.948  1.3106  1.1717 -0.2709
 6661SOL     OW31618   0.514   4.426   1.607 -0.0742  0.3627  0.1058
 6661SOL    HW131619   0.491   4.499   1.549 -1.2273 -1.7040 -2.0444
 6661SOL    HW231620   0.546   4.371   1.536 -2.1286  0.9513 -1.2866
 6662SOL     OW31621   4.147   0.264   4.167 -1.3186 -0.2898 -0.5445
 6662SOL    HW131622   4.189   0.347   4.142 -1.8279  0.4016  0.8996
 6662SOL    HW231623   4.077   0.300   4.221 -0.3648 -0.0701  0.5574
 6663SOL     OW31624   0.373   0.110   3.362  0.6638  0.3400  0.5631
 6663SOL    HW131625   0.379   0.044   3.430 -0.2013 -2.7310 -2.3528
 6663SOL    HW231626   0.340   0.062   3.286 -1.8614 -0.4471  2.1458
 6664SOL     OW31627   2.424   4.072   2.469  0.2984 -0.1337  0.2634
 6664SOL    HW131628   2.398   4.045   2.381  0.7977  1.2583 -0.3114
 6664SOL    HW231629   2.487   4.005   2.493 -0.1946 -1.1456 -1.2175
 6665SOL     OW31630   4.070   2.941  13.614 -0.2101 -0.2267  0.4843
 6665SOL    HW131631   4.009   2.959  13.685 -0.8236 -1.1673  0.1861
 6665SOL    HW231632   4.012   2.931  13.539  1.5501 -0.9994 -0.7846
 6666SOL     OW31633   0.787   1.295   3.441  0.3530 -0.8909 -0.6223
 6666SOL    HW131634   0.712   1.354   3.430  0.3474 -0.6036  0.9126
 6666SOL    HW231635   0.824   1.309   3.354  1.6931 -2.7827 -0.3349
 6667SOL     OW31636   4.576   4.032   8.404 -0.1810  0.0471  0.1187
 6667SOL    HW131637   4.499   4.077   8.367  0.5706  1.1298 -0.1290
 6667SOL    HW231638   4.646   4.097   8.403  0.3306 -0.4983  0.4422
 6668SOL     OW31639   3.003   0.472   3.225 -0.1000  0.2060  0.2346
 6668SOL    HW131640   3.076   0.513   3.271  0.7397 -0.0786 -0.8526
 6668SOL    HW231641   2.929   0.533   3.225  0.7759  1.2840 -1.5881
 6669SOL     OW31642   3.031   3.596   2.390  0.3477 -0.2966 -0.1845
 6669SOL    HW131643   3.055   3.688   2.397  1.5154 -0.3996 -2.5518
 6669SOL    HW231644   3.106   3.556   2.345 -0.9585 -0.5918 -2.1137
 6670SOL     OW31645   4.299   4.005   4.092  0.4726 -0.3940 -0.3787
 6670SOL    HW131646   4.382   4.016   4.046  0.9207  0.0325  0.5111
 6670SOL    HW231647   4.240   4.030   4.022 -1.2337  0.0686  1.2185
 6671SOL     OW31648   4.030   2.010   6.800  0.5621  0.1004 -0.6347
 6671SOL    HW131649   4.052   2.071   6.870 -2.6010 -1.3030  1.6187
 6671SOL    HW231650   4.034   1.926   6.846  0.0753  0.9716  0.9625
 6672SOL     OW31651   1.568   3.795   1.640  0.0562  0.2333  0.4027
 6672SOL    HW131652   1.636   3.784   1.707  1.0337  1.6146 -0.3560
 6672SOL    HW231653   1.608   3.863   1.586  0.8632 -1.9222 -1.7176
 6673SOL     OW31654   0.071   0.471   6.601  0.1089  0.5558  0.4146
 6673SOL    HW131655   0.163   0.494   6.614  0.3381  1.0483 -2.0509
 6673SOL    HW231656   0.036   0.527   6.670 -0.2440  0.7326  0.0929
 6674SOL     OW31657   1.352   0.687  16.976  0.3364  0.4505 -0.1565
 6674SOL    HW131658   1.278   0.628  16.995  0.8318  0.2757  1.2396
 6674SOL    HW231659   1.309   0.735  16.905 -1.6240 -0.5397  0.3434
 6675SOL     OW31660   3.923   1.549  13.524  0.3734 -0.3552 -0.2564
 6675SOL    HW131661   3.997   1.527  13.468 -1.4245  0.7184 -3.0441
 6675SOL    HW231662   3.949   1.636  13.554 -3.1706  0.8612 -0.6807
 6676SOL     OW31663   3.212   3.898   3.000  0.3580 -0.3990  0.1000
 6676SOL    HW131664   3.118   3.879   3.007 -0.2645  2.7990  0.5760
 6676SOL    HW231665   3.224   3.922   3.092  0.6531 -3.2706  0.8100
 6677SOL     OW31666   4.714   4.247  12.621  0.3337  0.7495  0.3901
 6677SOL    HW131667   0.051   4.186  12.620  0.7630  1.2683  0.1950
 6677SOL    HW231668   0.016   4.315  12.565  0.5173  0.4114  0.1084
 6678SOL     OW31669   2.646   4.640   3.095 -0.1831  0.6410 -0.7374
 6678SOL    HW131670   2.621   4.549   3.083 -2.7526  1.4325 -1.4741
 6678SOL    HW231671   2.622   4.642   3.187  0.8551 -1.2285 -0.4323
 6679SOL     OW31672   3.392   3.829   1.884  0.0379  0.1489 -0.5002
 6679SOL    HW131673   3.383   3.750   1.832 -3.2376  0.0635  0.2013
 6679SOL    HW231674   3.355   3.896   1.827 -0.0292  0.5223 -0.0163
 6680SOL     OW31675   1.060   1.449   5.580  0.0176  0.2991  0.2737
 6680SOL    HW131676   1.049   1.366   5.626  1.6735  1.1180  2.1588
 6680SOL    HW231677   0.981   1.456   5.526 -0.0211  1.5730  0.4885
 6681SOL     OW31678   1.676   1.031   5.521  0.2984 -0.0078  0.0207
 6681SOL    HW131679   1.768   1.054   5.505  0.4825 -0.7662 -0.0195
 6681SOL    HW231680   1.665   0.949   5.473 -1.3568 -1.4460  2.8493
 6682SOL     OW31681   3.652   3.744   7.247  0.4219 -0.5360  0.2121
 6682SOL    HW131682   3.615   3.757   7.160  2.1815 -3.4291 -0.9805
 6682SOL    HW231683   3.610   3.660   7.265  0.5715 -0.1709  2.2246
 6683SOL     OW31684   2.694   1.354   5.990  0.1935 -0.5493  0.6383
 6683SOL    HW131685   2.662   1.277   6.037  3.0911 -0.6246  2.4625
 6683SOL    HW231686   2.608   1.382   5.957  0.9791 -0.7965 -1.5578
 6684SOL     OW31687   3.328   2.557   3.540 -0.7141 -0.0952 -0.0959
 6684SOL    HW131688   3.347   2.588   3.628  0.5363  0.8877 -0.7233
 6684SOL    HW231689   3.232   2.564   3.538 -0.5443  1.9673 -0.5048
 6685SOL     OW31690   0.418   2.329   0.813  0.2191  0.2564  0.3283
 6685SOL    HW131691   0.482   2.396   0.786 -2.3886  2.8056  0.4807
 6685SOL    HW231692   0.481   2.275   0.861  0.5569  0.3226 -0.0329
 6686SOL     OW31693   2.495   0.697   2.947 -0.3793  0.1316  0.6547
 6686SOL    HW131694   2.407   0.721   2.918  0.6321  3.7293  0.5487
 6686SOL    HW231695   2.541   0.668   2.868 -0.9951  0.7405  0.0797
 6687SOL     OW31696   2.014   3.639   2.493 -0.1959  0.5432 -0.1387
 6687SOL    HW131697   1.943   3.658   2.431 -0.9536 -1.1085  0.2094
 6687SOL    HW231698   2.067   3.716   2.472  3.4071 -2.1063 -0.7804
 6688SOL     OW31699   3.175   0.759   5.297 -0.2407 -0.4475  0.1648
 6688SOL    HW131700   3.228   0.803   5.231  0.2752  1.3116  1.7267
 6688SOL    HW231701   3.147   0.839   5.342  0.6901 -0.0197 -0.0217
 6689SOL     OW31702   4.608   3.820   8.576  0.3785  0.0267 -0.3282
 6689SOL    HW131703   4.593   3.904   8.534 -1.7865  0.0448  0.5064
 6689SOL    HW231704   4.567   3.765   8.510  3.6457 -2.1813 -0.5610
 6690SOL     OW31705   4.624   1.403   2.792  0.4004 -0.1397 -0.5850
 6690SOL    HW131706   4.652   1.492   2.771  0.7441 -0.4344 -1.3812
 6690SOL    HW231707   4.593   1.420   2.881  1.7735  0.5303 -0.2391
 6691SOL     OW31708   1.928   4.182   9.359  0.4162 -0.7251 -0.5407
 6691SOL    HW131709   1.910   4.201   9.451  2.2348  0.7647 -0.5135
 6691SOL    HW231710   1.998   4.246   9.359 -0.0819 -0.1853 -0.0270
 6692SOL     OW31711   1.485   4.437  12.278 -0.2966  0.5677  0.5279
 6692SOL    HW131712   1.397   4.450  12.315  0.8391  1.8442  2.7284
 6692SOL    HW231713   1.506   4.347  12.299  1.3561  1.0988  1.1523
 6693SOL     OW31714   4.141   0.606   9.452 -0.2553 -0.2842  0.2213
 6693SOL    HW131715   4.135   0.672   9.383  1.0480  0.4782  0.8320
 6693SOL    HW231716   4.055   0.627   9.488 -0.7861 -1.9927 -0.0490
 6694SOL     OW31717   4.566   0.282   1.103  0.1686 -0.3607  0.1896
 6694SOL    HW131718   4.498   0.284   1.171  1.9050  0.4935  1.9240
 6694SOL    HW231719   4.537   0.212   1.045  0.8590  0.9575 -1.7187
 6695SOL     OW31720   1.588   2.688   2.011  0.1104 -0.0718 -0.5044
 6695SOL    HW131721   1.528   2.663   2.080  1.0094  0.3745  0.4354
 6695SOL    HW231722   1.523   2.708   1.943  0.3283  0.5477 -0.5349
 6696SOL     OW31723   2.531   2.562  11.389  0.5824 -0.4400 -0.4176
 6696SOL    HW131724   2.502   2.653  11.387 -1.0980 -1.0080 -3.8778
 6696SOL    HW231725   2.594   2.576  11.318  1.7159 -1.3107  0.4359
 6697SOL     OW31726   4.533   2.048   5.724  0.1331  0.0958  0.0669
 6697SOL    HW131727   4.476   2.121   5.700 -0.0533 -0.6029 -1.6192
 6697SOL    HW231728   4.470   2.006   5.783  0.2056 -1.4495 -0.9462
 6698SOL     OW31729   4.529   3.877  11.778  0.2425  0.7919  0.3165
 6698SOL    HW131730   4.579   3.953  11.810  0.1173  1.1191 -0.2688
 6698SOL    HW231731   4.487   3.910  11.699  0.8557  0.4492 -0.1511
 6699SOL     OW31732   4.443   4.301   6.657 -0.5312 -0.2490 -0.0375
 6699SOL    HW131733   4.428   4.250   6.737 -1.6828  1.8552  1.0953
 6699SOL    HW231734   4.368   4.361   6.649 -0.7654 -0.8583 -2.5163
 6700SOL     OW31735   4.223   4.625   1.689 -0.2243 -0.7078 -0.1814
 6700SOL    HW131736   4.171   4.683   1.634 -0.6220  0.0123  0.9544
 6700SOL    HW231737   4.196   4.643   1.779 -0.4101  0.2791 -0.4298
 6701SOL     OW31738   3.081   1.217   2.565 -0.2325 -0.2589  0.0798
 6701SOL    HW131739   3.043   1.265   2.639  0.8274 -1.4788  1.3924
 6701SOL    HW231740   3.162   1.189   2.607  0.6060  1.6807 -0.2812
 6702SOL     OW31741   2.847   3.110   5.788 -0.1262 -0.4801  0.2288
 6702SOL    HW131742   2.908   3.184   5.797  0.4028 -0.8333 -0.5256
 6702SOL    HW231743   2.838   3.080   5.879 -1.5033  0.1808  0.3186
 6703SOL     OW31744   3.110   0.491   5.266  0.1397 -0.1112  0.1929
 6703SOL    HW131745   3.111   0.584   5.287  1.2358 -0.2145  0.6204
 6703SOL    HW231746   3.201   0.467   5.288  0.2046  1.1448  1.2899
 6704SOL     OW31747   2.707   3.414   3.564 -0.0872 -0.0059  0.2112
 6704SOL    HW131748   2.796   3.381   3.571  0.2379  1.1767  1.5967
 6704SOL    HW231749   2.688   3.434   3.656  0.2359 -0.4673  0.3825
 6705SOL     OW31750   0.319   3.379   4.969  0.2504 -0.1504 -0.4047
 6705SOL    HW131751   0.375   3.394   4.893  0.6418 -0.8507 -0.2561
 6705SOL    HW231752   0.305   3.284   4.976  2.1717 -0.3780  0.1153
 6706SOL     OW31753   3.876   4.003   1.107 -0.4165 -0.0647  0.3695
 6706SOL    HW131754   3.824   4.084   1.111 -1.5511 -0.8304  0.9331
 6706SOL    HW231755   3.948   4.047   1.061 -0.1424 -0.4297  0.4518
 6707SOL     OW31756   0.797   4.483  16.141  0.3474  0.6221 -0.2604
 6707SOL    HW131757   0.749   4.435  16.073 -0.7422  1.4474 -0.0748
 6707SOL    HW231758   0.825   4.565  16.102  0.4760 -0.1107 -1.6787
 6708SOL     OW31759   0.388   0.854   3.305  0.5746 -0.2009  0.4884
 6708SOL    HW131760   0.311   0.901   3.336  0.1436 -1.1387  0.8635
 6708SOL    HW231761   0.361   0.806   3.226  1.5248  1.3275 -0.7616
 6709SOL     OW31762   1.349   2.914   5.412 -0.0397 -0.0439  0.5884
 6709SOL    HW131763   1.439   2.893   5.439 -0.2295 -1.3040  0.2575
 6709SOL    HW231764   1.325   2.977   5.480 -0.0413  0.5877 -0.0047
 6710SOL     OW31765   0.126   2.214   8.854 -0.4256  0.0599 -0.0208
 6710SOL    HW131766   0.068   2.174   8.919  0.2491 -2.2724 -0.8588
 6710SOL    HW231767   0.181   2.273   8.907  1.0375 -1.0429 -0.3009
 6711SOL     OW31768   1.693   2.041  12.816  0.4132 -0.5728 -0.1253
 6711SOL    HW131769   1.705   2.127  12.776  0.5722 -0.4756  0.1364
 6711SOL    HW231770   1.636   2.060  12.890 -1.5114  0.5603 -1.8733
 6712SOL     OW31771   1.053   3.663  13.307 -0.3983  0.2379 -0.0277
 6712SOL    HW131772   0.957   3.655  13.313 -0.2591 -0.6532  1.0657
 6712SOL    HW231773   1.077   3.585  13.358  0.1181  1.0985  1.0386
 6713SOL     OW31774   0.313   2.336   7.801 -0.4453 -0.3523  0.5047
 6713SOL    HW131775   0.268   2.414   7.767 -0.2462 -0.7271 -0.6270
 6713SOL    HW231776   0.257   2.267   7.764  0.6460 -0.9008 -0.1078
 6714SOL     OW31777   4.648   3.464   7.524 -0.4621  0.6727  0.0171
 6714SOL    HW131778   4.707   3.533   7.494 -1.2456  1.7016  0.9036
 6714SOL    HW231779   4.563   3.504   7.504  0.7368  3.2298  0.1652
 6715SOL     OW31780   1.958   4.595   5.066 -0.1674  0.2612  0.1565
 6715SOL    HW131781   1.944   4.683   5.101 -1.2593  0.1841 -0.0637
 6715SOL    HW231782   1.889   4.550   5.116  0.7383 -0.3645  0.8328
 6716SOL     OW31783   2.567   3.842   2.544  0.2410  0.1070 -0.4140
 6716SOL    HW131784   2.642   3.815   2.491  0.1599  0.8609 -0.9158
 6716SOL    HW231785   2.526   3.756   2.552  1.1407 -0.2516  0.4079
 6717SOL     OW31786   1.026   3.414  17.478 -0.0660  0.3629 -1.0020
 6717SOL    HW131787   1.026   3.510  17.479  0.6731  0.3402  1.0391
 6717SOL    HW231788   0.951   3.399  17.420 -1.9670  1.7998  1.0688
 6718SOL     OW31789   0.717   2.582   3.553 -0.2684  0.3322  0.5172
 6718SOL    HW131790   0.714   2.534   3.470 -2.3903 -0.5694  1.1276
 6718SOL    HW231791   0.801   2.629   3.550  0.9288 -1.8348  0.1958
 6719SOL     OW31792   3.211   0.308   4.093  0.1226 -0.1346 -0.4000
 6719SOL    HW131793   3.193   0.234   4.034 -0.6444 -0.4730  0.2586
 6719SOL    HW231794   3.304   0.293   4.105  0.0998  1.6088  1.9629
 6720SOL     OW31795   4.239   0.799  10.172 -0.3652 -0.0496 -0.1681
 6720SOL    HW131796   4.180   0.830  10.241  1.5850  0.5229  1.2424
 6720SOL    HW231797   4.281   0.881  10.147 -0.7513  0.1980 -0.0004
 6721SOL     OW31798   2.151   3.488   4.293 -0.4828 -0.5793  0.3586
 6721SOL    HW131799   2.086   3.448   4.235 -0.4876 -2.6758  1.8109
 6721SOL    HW231800   2.087   3.554   4.320  0.3087  0.5688 -0.5973
 6722SOL     OW31801   1.852   1.228   7.484 -0.5326 -0.5402 -0.3083
 6722SOL    HW131802   1.838   1.181   7.402  0.6062  1.5787 -1.7100
 6722SOL    HW231803   1.759   1.249   7.495  0.0305  2.2353 -0.7268
 6723SOL     OW31804   1.190   0.667   1.976 -0.4684  0.0684 -0.1243
 6723SOL    HW131805   1.246   0.631   1.908 -1.9509  1.5984 -2.1345
 6723SOL    HW231806   1.255   0.704   2.036 -1.9402 -0.4763  1.8107
 6724SOL     OW31807   1.015   2.051   2.534 -0.7166  0.4122 -0.2450
 6724SOL    HW131808   1.061   2.058   2.451 -0.1164 -1.4217 -0.0727
 6724SOL    HW231809   0.935   2.013   2.497 -0.6982  0.7115 -0.5831
 6725SOL     OW31810   3.627   2.449  16.991  0.2490  0.1821  0.6698
 6725SOL    HW131811   3.536   2.444  17.019 -0.0329  0.1713 -0.2668
 6725SOL    HW231812   3.626   2.518  16.925 -1.3192  0.1748  0.6879
 6726SOL     OW31813   3.131   2.391   2.406 -0.2806  0.2924 -0.5442
 6726SOL    HW131814   3.110   2.483   2.419 -0.6745 -0.4879  4.3438
 6726SOL    HW231815   3.074   2.345   2.467  0.5307  1.4801  1.0923
 6727SOL     OW31816   2.897   4.351  11.634  0.6531  0.3373  0.6181
 6727SOL    HW131817   2.868   4.308  11.715  0.8741  0.1902  0.6201
 6727SOL    HW231818   2.837   4.423  11.614  0.6245 -0.2302 -1.4122
 6728SOL     OW31819   0.172   1.085   6.174 -0.0047  0.6794  0.0113
 6728SOL    HW131820   0.233   1.091   6.101 -2.0360 -1.3175 -1.8467
 6728SOL    HW231821   0.106   1.033   6.129 -1.7622  1.1327  2.0506
 6729SOL     OW31822   0.337   0.827   7.078 -0.3192 -0.2018 -0.4706
 6729SOL    HW131823   0.429   0.825   7.053 -0.4281  2.6198 -1.1135
 6729SOL    HW231824   0.339   0.812   7.173 -1.6496  1.3753 -0.1872
 6730SOL     OW31825   1.340   3.074  12.172  0.3321 -0.0154  0.3246
 6730SOL    HW131826   1.399   3.013  12.127  0.0557  0.9882 -1.3821
 6730SOL    HW231827   1.400   3.101  12.242  1.3927  4.4042 -2.2991
 6731SOL     OW31828   2.772   4.510   6.884 -0.4537 -0.0110  0.4063
 6731SOL    HW131829   2.684   4.478   6.904 -0.9274  1.2865  0.4560
 6731SOL    HW231830   2.749   4.573   6.815 -0.8578 -0.1003  0.4575
 6732SOL     OW31831   1.815   1.190  10.841  0.0629 -0.4676  0.3753
 6732SOL    HW131832   1.863   1.232  10.913 -1.9340  1.5176  0.5400
 6732SOL    HW231833   1.734   1.241  10.839 -1.5434 -3.0728 -0.8270
 6733SOL     OW31834   0.539   0.281   1.335 -0.2535  0.1694 -0.0061
 6733SOL    HW131835   0.505   0.233   1.259 -0.2176 -0.9699  0.7016
 6733SOL    HW231836   0.621   0.319   1.303 -0.2094  0.9106  0.9978
 6734SOL     OW31837   2.703   4.181  14.691  0.1981 -0.5385  0.2686
 6734SOL    HW131838   2.695   4.258  14.747  2.3140  0.3170 -0.5986
 6734SOL    HW231839   2.684   4.110  14.752 -1.9624  0.2444  0.4889
 6735SOL     OW31840   2.827   2.614   3.313  0.6217  0.1658 -0.0490
 6735SOL    HW131841   2.906   2.660   3.339  2.1665 -1.6301 -1.6254
 6735SOL    HW231842   2.843   2.610   3.219  0.1238  1.9962 -0.2082
 6736SOL     OW31843   1.860   1.377  17.073  0.3398 -0.5308  0.1025
 6736SOL    HW131844   1.899   1.457  17.110  0.1935 -0.3888 -0.0485
 6736SOL    HW231845   1.771   1.411  17.071  0.0177 -1.3734  0.5191
 6737SOL     OW31846   4.346   1.771   3.207 -1.0361  0.3555 -0.4679
 6737SOL    HW131847   4.410   1.811   3.149  0.6407 -0.8883  0.5368
 6737SOL    HW231848   4.297   1.712   3.149  1.0895  1.2454 -3.1307
 6738SOL     OW31849   3.604   2.608   9.145  0.0143 -0.2625  0.0638
 6738SOL    HW131850   3.591   2.527   9.193 -0.0316 -0.3326 -0.0662
 6738SOL    HW231851   3.695   2.598   9.117 -0.3596 -0.5111 -1.0728
 6739SOL     OW31852   0.654   1.472   5.566  0.2966  0.4812 -0.0817
 6739SOL    HW131853   0.688   1.385   5.546 -0.1465  0.6807 -1.7762
 6739SOL    HW231854   0.675   1.512   5.481  1.4693 -1.4525 -0.6909
 6740SOL     OW31855   0.968   0.098   6.564  0.0629 -0.1009  0.0067
 6740SOL    HW131856   0.927   0.182   6.585 -0.9527 -0.6200  0.1157
 6740SOL    HW231857   1.060   0.120   6.574  0.0075 -0.8162  2.2483
 6741SOL     OW31858   1.296   2.591   7.999 -0.0815 -0.1008 -0.1281
 6741SOL    HW131859   1.287   2.495   7.996  1.4740 -0.2298 -0.8537
 6741SOL    HW231860   1.308   2.620   7.909 -2.0052  0.4519 -0.2145
 6742SOL     OW31861   4.536   3.071   6.628  0.0963 -0.2196  0.1132
 6742SOL    HW131862   4.552   3.140   6.692  1.8759  0.7120 -1.3173
 6742SOL    HW231863   4.467   3.022   6.671  0.5106  1.1472  2.3162
 6743SOL     OW31864   4.602   2.501   1.115 -0.4238 -0.2070  0.0002
 6743SOL    HW131865   4.671   2.456   1.164  1.7682  0.7767 -2.1757
 6743SOL    HW231866   4.647   2.574   1.073  0.3124 -0.7728 -0.1954
 6744SOL     OW31867   3.707   2.355   8.856 -0.8886  0.2710 -0.1265
 6744SOL    HW131868   3.717   2.308   8.773  2.8108 -0.6951  0.8428
 6744SOL    HW231869   3.644   2.303   8.905  0.3388 -2.1336 -1.0965
 6745SOL     OW31870   3.233   0.691   9.371 -0.3453 -0.1022  0.0886
 6745SOL    HW131871   3.234   0.711   9.277 -4.1057 -1.3991 -0.2060
 6745SOL    HW231872   3.150   0.646   9.386 -1.5306  1.6697 -1.1555
 6746SOL     OW31873   3.247   4.613  17.619 -0.5445  0.0884 -0.1052
 6746SOL    HW131874   3.274   4.701  17.644 -0.6493  0.4955 -1.4156
 6746SOL    HW231875   3.236   4.625  17.525 -2.1198  1.2421  0.2175
 6747SOL     OW31876   2.645   0.549   0.636 -0.2635  0.0178 -0.4169
 6747SOL    HW131877   2.599   0.485   0.581 -1.0249 -1.1643  1.6147
 6747SOL    HW231878   2.577   0.615   0.628 -0.3128 -0.1026 -1.0410
 6748SOL     OW31879   0.614   1.028   2.172  0.0456 -0.4227  0.2514
 6748SOL    HW131880   0.561   1.050   2.249  1.3656  3.0417  0.1317
 6748SOL    HW231881   0.689   1.085   2.187 -1.6368  1.8934 -0.0856
 6749SOL     OW31882   3.217   1.147  14.823  0.0592 -0.3507  0.1896
 6749SOL    HW131883   3.167   1.134  14.904 -2.8948 -0.2448 -1.6400
 6749SOL    HW231884   3.302   1.111  14.848 -0.7440 -1.0242  1.9106
 6750SOL     OW31885   0.300   3.661   4.296  0.1840  0.3685 -0.0618
 6750SOL    HW131886   0.275   3.599   4.364  0.6432  1.3144  0.9679
 6750SOL    HW231887   0.395   3.669   4.307  0.4592 -1.4143 -1.0851
 6751SOL     OW31888   3.185   0.155   5.190 -0.2607 -0.3984 -0.7976
 6751SOL    HW131889   3.274   0.164   5.223 -0.2797 -1.5873 -0.4076
 6751SOL    HW231890   3.187   0.197   5.104  0.0318 -0.9099 -1.0402
 6752SOL     OW31891   1.314   4.017   2.378  0.4423  0.1290  0.1425
 6752SOL    HW131892   1.373   4.038   2.451  1.0607 -2.0041  0.2480
 6752SOL    HW231893   1.364   3.948   2.334  3.3150  1.1539  1.7592
 6753SOL     OW31894   1.303   3.786  17.146  0.4093  0.1730 -0.4487
 6753SOL    HW131895   1.363   3.844  17.100  1.3807 -0.4323  0.0644
 6753SOL    HW231896   1.274   3.839  17.220  0.1886 -2.5499  1.4245
 6754SOL     OW31897   0.557   1.993   8.248  0.2869  0.0872 -0.4832
 6754SOL    HW131898   0.462   1.988   8.250  0.3374 -1.9177 -3.8638
 6754SOL    HW231899   0.573   2.019   8.158  0.2498 -1.4807 -0.9495
 6755SOL     OW31900   2.841   2.994   3.889 -0.2760 -0.3186  0.1146
 6755SOL    HW131901   2.806   2.920   3.840 -0.2224  0.8428 -1.6425
 6755SOL    HW231902   2.791   2.990   3.971 -0.0700 -2.0347  0.1583
 6756SOL     OW31903   0.467   1.162   7.746  0.4442  0.1438 -0.0921
 6756SOL    HW131904   0.433   1.073   7.757 -1.7235  0.7325 -2.0254
 6756SOL    HW231905   0.394   1.215   7.780 -0.9303 -1.2744 -0.8325
 6757SOL     OW31906   1.983   3.913   3.523  0.8102  0.3132  0.2206
 6757SOL    HW131907   1.901   3.923   3.475  2.5184  0.6942 -2.5904
 6757SOL    HW231908   1.957   3.913   3.615  0.7807  1.6979  0.2054
 6758SOL     OW31909   2.591   3.228   9.864 -0.4139 -0.4147 -0.0681
 6758SOL    HW131910   2.633   3.275   9.937  1.5879 -0.6786 -1.0533
 6758SOL    HW231911   2.637   3.146   9.884  0.2902 -0.1201 -0.5183
 6759SOL     OW31912   4.235   1.487   1.561 -0.5799 -0.4320 -0.0267
 6759SOL    HW131913   4.231   1.405   1.611 -0.4954 -1.6684 -2.0680
 6759SOL    HW231914   4.280   1.457   1.482 -2.1111  3.0826 -2.1741
 6760SOL     OW31915   3.408   4.287   0.118 -0.0159  0.5313  0.3460
 6760SOL    HW131916   3.319   4.319   0.105 -0.7142 -1.1654  1.0117
 6760SOL    HW231917   3.441   4.334   0.041  1.2460 -1.0480 -0.0755
 6761SOL     OW31918   0.945   1.326   3.172 -0.1197 -0.0760 -0.0799
 6761SOL    HW131919   0.976   1.249   3.124 -1.4433  0.3269 -1.5457
 6761SOL    HW231920   1.030   1.358   3.203  0.6617 -1.4252 -0.8349
 6762SOL     OW31921   2.316   1.917  17.611  0.5518 -0.1536 -0.2662
 6762SOL    HW131922   2.376   1.880  17.676 -2.3846 -0.6038  2.2098
 6762SOL    HW231923   2.315   2.007  17.644  0.4193  0.5420 -2.1573
 6763SOL     OW31924   1.822   3.045   9.187  0.2822 -0.0025 -0.4091
 6763SOL    HW131925   1.880   2.969   9.177  0.7432  0.8859 -4.2358
 6763SOL    HW231926   1.851   3.076   9.273 -2.2558 -1.3947  0.9638
 6764SOL     OW31927   2.959   3.197   8.736 -0.5806 -0.4820  0.2685
 6764SOL    HW131928   2.956   3.185   8.641  0.2981 -1.9896  0.4279
 6764SOL    HW231929   2.973   3.107   8.765  0.2641 -0.3100  0.4037
 6765SOL     OW31930   1.150   0.633  11.652 -0.2584 -0.0042 -0.2794
 6765SOL    HW131931   1.156   0.728  11.654  1.2559 -0.1248  0.7682
 6765SOL    HW231932   1.059   0.616  11.676  0.2537 -0.7880  1.1585
 6766SOL     OW31933   4.292   3.225   3.333  0.0180  0.5748  0.2347
 6766SOL    HW131934   4.358   3.291   3.354  0.9859 -0.2251 -0.2636
 6766SOL    HW231935   4.239   3.234   3.412 -2.0093 -1.6468 -0.8552
 6767SOL     OW31936   3.715   0.579  17.258  0.1597 -0.0530  0.1051
 6767SOL    HW131937   3.690   0.491  17.286 -0.3629  0.2374  0.5406
 6767SOL    HW231938   3.748   0.621  17.338  0.5424  0.5502 -0.3724
 6768SOL     OW31939   1.082   0.896   5.885 -0.1856 -0.6006 -0.4345
 6768SOL    HW131940   1.103   0.834   5.816  2.0494 -0.8266  0.4440
 6768SOL    HW231941   1.149   0.961   5.866  0.6566 -0.7937  1.8121
 6769SOL     OW31942   2.600   3.864   8.030  0.3271 -0.0404 -0.8668
 6769SOL    HW131943   2.664   3.795   8.046  0.8934  0.3622 -1.3878
 6769SOL    HW231944   2.511   3.830   8.042  0.7332 -1.1155 -0.9891
 6770SOL     OW31945   0.918   3.016   8.128 -0.2229  0.0027  0.1832
 6770SOL    HW131946   0.990   3.077   8.145 -0.1677  0.7501 -2.8166
 6770SOL    HW231947   0.957   2.929   8.137 -1.0300 -0.3798 -0.0922
 6771SOL     OW31948   2.588   4.666  13.943 -0.2526  0.5067  0.1209
 6771SOL    HW131949   2.597   4.638  13.852 -3.9856  2.0915 -0.7118
 6771SOL    HW231950   2.680   4.679  13.967 -0.4982  1.3334  0.6338
 6772SOL     OW31951   1.553   3.678  12.699  0.0072  0.1298 -0.4367
 6772SOL    HW131952   1.536   3.766  12.665  0.5863  0.4735  0.1532
 6772SOL    HW231953   1.648   3.668  12.693  0.4198  1.9411  2.8206
 6773SOL     OW31954   2.544   2.449  12.244 -0.5874  0.5545  1.0819
 6773SOL    HW131955   2.465   2.435  12.192 -0.7585  5.0186  0.1377
 6773SOL    HW231956   2.568   2.357  12.246 -1.5731  0.2850  0.3942
 6774SOL     OW31957   1.224   4.529   5.762  0.5120  0.3546 -0.1214
 6774SOL    HW131958   1.230   4.438   5.789  2.7553  1.1096  1.9234
 6774SOL    HW231959   1.204   4.573   5.844 -2.4295  1.7893 -1.6200
 6775SOL     OW31960   3.870   0.498   3.208  0.6237  0.1841  0.1850
 6775SOL    HW131961   3.889   0.416   3.161 -0.8400 -0.1720  0.1854
 6775SOL    HW231962   3.889   0.466   3.296 -0.1970  1.3882  0.8006
 6776SOL     OW31963   0.184   3.893  12.695  0.0173 -0.2993 -0.2841
 6776SOL    HW131964   0.279   3.908  12.695  0.0888 -0.7683  1.3598
 6776SOL    HW231965   0.162   3.913  12.604 -1.3064  1.9675  0.5441
 6777SOL     OW31966   3.787   2.865   5.925  0.3009 -0.0109 -0.0397
 6777SOL    HW131967   3.873   2.899   5.897  0.4819 -0.7779 -0.4048
 6777SOL    HW231968   3.725   2.933   5.898  0.5521  0.8598  1.5474
 6778SOL     OW31969   0.708   3.731   8.832  0.4849 -0.5872 -0.1948
 6778SOL    HW131970   0.714   3.822   8.860 -0.7151 -0.2917 -0.8773
 6778SOL    HW231971   0.664   3.700   8.910 -2.2237 -1.4485 -2.0671
 6779SOL     OW31972   4.307   3.554   7.289 -0.1537  0.0843  0.2196
 6779SOL    HW131973   4.282   3.629   7.236 -1.2741 -0.6841 -0.3436
 6779SOL    HW231974   4.328   3.593   7.374 -0.0533 -0.6392  0.5268
 6780SOL     OW31975   0.126   2.830  11.468 -0.2740  1.2334 -0.5198
 6780SOL    HW131976   0.133   2.779  11.549 -1.8103  1.1512 -0.4393
 6780SOL    HW231977   0.057   2.784  11.420 -2.4308  0.6852  3.1130
 6781SOL     OW31978   4.249   0.889  12.209 -0.4461  0.1952 -0.2611
 6781SOL    HW131979   4.255   0.915  12.301  1.0973 -0.3566 -0.2241
 6781SOL    HW231980   4.330   0.846  12.184 -0.6020 -0.7892  0.8928
 6782SOL     OW31981   1.344   1.082   2.197  0.2921  0.5131 -0.0172
 6782SOL    HW131982   1.316   0.998   2.159  1.6915 -0.2117  0.5596
 6782SOL    HW231983   1.324   1.148   2.130  0.8794  0.8915  0.1789
 6783SOL     OW31984   2.268   2.569   5.628 -0.1184 -0.4112 -0.5106
 6783SOL    HW131985   2.192   2.517   5.653 -0.1854  0.0191  0.1898
 6783SOL    HW231986   2.290   2.601   5.716 -2.8913  1.0056 -0.3613
 6784SOL     OW31987   1.018   4.696  15.121  0.0592 -0.2356  0.0127
 6784SOL    HW131988   0.974   0.031  15.169 -0.9646  0.1609 -1.4844
 6784SOL    HW231989   1.058   4.645  15.191  1.4756  0.1813 -0.5041
 6785SOL     OW31990   2.697   1.634   4.648  0.2004 -0.0613  0.2779
 6785SOL    HW131991   2.641   1.708   4.674  0.3404 -0.2329  1.0801
 6785SOL    HW231992   2.633   1.563   4.651 -0.8201  0.8849  0.6673
 6786SOL     OW31993   2.079   1.596  12.397 -0.0397  0.1244 -0.1414
 6786SOL    HW131994   2.143   1.667  12.405 -0.5932  0.5842  0.2289
 6786SOL    HW231995   2.010   1.634  12.451  0.6082  1.1526 -0.0308
 6787SOL     OW31996   4.093   1.482   6.882 -0.1957 -0.1820  0.1765
 6787SOL    HW131997   4.102   1.418   6.811 -0.9555  1.8337 -1.7523
 6787SOL    HW231998   3.997   1.480   6.887 -0.1242  0.6804  1.8311
 6788SOL     OW31999   2.604   4.561  13.696  0.1231 -0.1079  0.7176
 6788SOL    HW132000   2.622   4.550  13.603 -0.5738  0.1676  0.5474
 6788SOL    HW232001   2.572   4.474  13.719 -0.5241  0.1199  0.6841
 6789SOL     OW32002   1.034   3.666   1.313  0.0835  0.0754  0.2930
 6789SOL    HW132003   1.077   3.726   1.375  1.9694 -0.8269 -0.1512
 6789SOL    HW232004   1.115   3.645   1.267  0.3080  0.9139  0.3034
 6790SOL     OW32005   0.687   2.936   7.616 -0.8366 -0.3857 -0.2698
 6790SOL    HW132006   0.642   2.981   7.688  0.9709 -0.7334  1.0903
 6790SOL    HW232007   0.623   2.885   7.566  0.4672 -1.2486 -1.0381
 6791SOL     OW32008   4.002   1.356  11.081  0.3347 -0.0803 -0.6030
 6791SOL    HW132009   3.948   1.374  11.158 -0.5452 -1.4731 -0.8999
 6791SOL    HW232010   4.015   1.264  11.102  1.8698  0.3704  0.4451
 6792SOL     OW32011   1.509   1.845   5.991 -0.3450 -0.0333 -0.3798
 6792SOL    HW132012   1.462   1.779   5.941 -2.9424  2.0493 -0.6832
 6792SOL    HW232013   1.547   1.795   6.063 -1.8748  1.0694  1.1959
 6793SOL     OW32014   3.663   3.245   7.970 -0.6227  0.2738 -0.6818
 6793SOL    HW132015   3.574   3.248   7.936 -1.6873 -1.7369  1.9546
 6793SOL    HW232016   3.718   3.252   7.892  0.1888 -0.8230 -0.1942
 6794SOL     OW32017   4.126   2.544   6.092  0.5445  0.3929  0.1815
 6794SOL    HW132018   4.032   2.525   6.089  0.0770  2.7985  0.1872
 6794SOL    HW232019   4.137   2.633   6.123 -1.5766  0.4802  0.7291
 6795SOL     OW32020   2.667   2.274   4.093  0.3897  0.0138  0.5276
 6795SOL    HW132021   2.654   2.184   4.062 -0.0309  0.5128 -0.7348
 6795SOL    HW232022   2.579   2.312   4.100  0.9715  1.1544  1.7250
 6796SOL     OW32023   1.345   1.661   3.796  0.1090 -0.3951 -0.4029
 6796SOL    HW132024   1.350   1.567   3.779  0.9455 -0.8333  2.2296
 6796SOL    HW232025   1.371   1.688   3.708  2.4268 -1.1432  0.0579
 6797SOL     OW32026   1.389   2.315  14.539 -0.3419 -0.4117  0.5828
 6797SOL    HW132027   1.408   2.247  14.603  1.9694  0.0824  0.4102
 6797SOL    HW232028   1.339   2.379  14.589 -1.1596  0.1907 -0.9924
 6798SOL     OW32029   3.742   4.637   7.280 -0.1125 -0.1178 -0.2402
 6798SOL    HW132030   3.810   4.672   7.338 -0.4954  2.8128 -1.5356
 6798SOL    HW232031   3.691   4.710   7.245  1.0295  0.8601  0.1205
 6799SOL     OW32032   3.981   3.320  10.318 -0.1181  0.2791 -0.1676
 6799SOL    HW132033   3.976   3.300  10.411  1.5016  3.9629  0.7015
 6799SOL    HW232034   3.912   3.386  10.309 -1.2753 -1.2551 -2.6981
 6800SOL     OW32035   3.210   0.335   2.560  0.4704  0.1159  0.8310
 6800SOL    HW132036   3.273   0.366   2.625  2.6820  3.1635 -2.7414
 6800SOL    HW232037   3.139   0.400   2.564  0.0747 -0.2323 -0.7013
 6801SOL     OW32038   3.363   2.733   7.683  0.1418 -0.4130 -0.2999
 6801SOL    HW132039   3.439   2.782   7.651 -0.5403  0.3688 -0.7220
 6801SOL    HW232040   3.399   2.722   7.771 -0.9467 -0.5112  0.1312
 6802SOL     OW32041   4.340   2.998   7.446 -0.1180 -0.4211 -0.0375
 6802SOL    HW132042   4.262   3.031   7.491  0.0794  0.5836 -0.4336
 6802SOL    HW232043   4.390   2.959   7.517  1.9613 -0.3232 -1.4223
 6803SOL     OW32044   4.079   1.763   5.925 -0.5980  0.0138  0.0560
 6803SOL    HW132045   3.994   1.736   5.960 -0.1428 -0.7765  0.5362
 6803SOL    HW232046   4.121   1.678   5.915 -1.9575 -0.8964  2.0024
 6804SOL     OW32047   1.201   2.562  11.027 -0.4442 -0.0226 -0.5074
 6804SOL    HW132048   1.251   2.480  11.021 -2.3891 -1.1284 -1.7043
 6804SOL    HW232049   1.254   2.616  11.085  0.3357  0.4928 -1.6873
 6805SOL     OW32050   3.361   0.744  16.322 -0.2301  0.5230  0.2905
 6805SOL    HW132051   3.361   0.744  16.418  2.5874 -3.0556  0.2814
 6805SOL    HW232052   3.420   0.820  16.320 -0.9939  1.0862 -0.6426
 6806SOL     OW32053   0.363   0.551   6.933 -0.0341  0.1701 -0.2786
 6806SOL    HW132054   0.309   0.543   7.011 -0.9787 -2.0058 -1.1624
 6806SOL    HW232055   0.442   0.584   6.975  0.3060 -0.2552 -0.5775
 6807SOL     OW32056   0.984   4.576   3.169 -0.2491 -0.4416 -0.4215
 6807SOL    HW132057   1.042   4.646   3.199 -1.7967  0.8404 -0.4172
 6807SOL    HW232058   1.034   4.517   3.113 -1.7416 -0.6077 -1.5850
 6808SOL     OW32059   4.405   1.645  10.908 -0.8710 -0.4228  0.5922
 6808SOL    HW132060   4.425   1.728  10.950 -1.7865  1.0700 -1.9023
 6808SOL    HW232061   4.379   1.590  10.982 -1.0470  0.8642  1.4830
 6809SOL     OW32062   3.742   4.267  12.079  0.0767  0.3944  0.4652
 6809SOL    HW132063   3.832   4.241  12.057 -0.8150 -0.7363 -1.7824
 6809SOL    HW232064   3.744   4.361  12.094  0.8257  0.6566 -1.2796
 6810SOL     OW32065   1.088   3.566   5.046  0.0322  0.5288  0.3289
 6810SOL    HW132066   1.040   3.521   5.116  0.8178 -0.8728 -0.0417
 6810SOL    HW232067   1.178   3.564   5.079 -0.2140  0.1425  0.9643
 6811SOL     OW32068   0.947   3.276   3.781  0.4730  0.2539  0.5544
 6811SOL    HW132069   0.943   3.271   3.685  1.1590 -0.0431  0.5440
 6811SOL    HW232070   0.956   3.182   3.795  0.0630  0.6010  3.0321
 6812SOL     OW32071   4.266   3.379  11.184  0.1957  0.3179  0.3703
 6812SOL    HW132072   4.289   3.454  11.129  1.9877 -0.7160 -0.3070
 6812SOL    HW232073   4.178   3.405  11.208 -0.2681  1.2668 -2.2952
 6813SOL     OW32074   2.121   4.207   7.196  0.1934  0.0041 -0.0670
 6813SOL    HW132075   2.065   4.283   7.213  1.0634  0.5502  0.3789
 6813SOL    HW232076   2.062   4.133   7.205  1.4850 -1.1216 -0.8748
 6814SOL     OW32077   0.787   0.064   5.226 -0.0822  0.1219 -0.6375
 6814SOL    HW132078   0.732   0.140   5.243  0.3792  0.0794  1.0150
 6814SOL    HW232079   0.746   4.734   5.283 -1.0661  1.1124 -0.2132
 6815SOL     OW32080   2.774   2.481   2.899 -0.0028 -0.3192 -0.3143
 6815SOL    HW132081   2.826   2.526   2.832 -1.0892  1.6929  0.2071
 6815SOL    HW232082   2.700   2.536   2.923  0.4573  0.3620 -0.4671
 6816SOL     OW32083   1.684   2.542   4.861  0.4618 -0.3142  0.3868
 6816SOL    HW132084   1.683   2.525   4.767 -1.1541 -1.0923  0.5428
 6816SOL    HW232085   1.769   2.585   4.865  0.6817 -0.7380  0.1814
 6817SOL     OW32086   1.942   2.731  16.676 -0.1214  0.0965  0.0638
 6817SOL    HW132087   1.875   2.798  16.690  1.1373  1.6119 -1.1508
 6817SOL    HW232088   2.016   2.782  16.644  0.8322 -1.1909  0.1995
 6818SOL     OW32089   3.843   4.421  11.788 -0.0189  0.4149 -0.2181
 6818SOL    HW132090   3.866   4.507  11.753 -1.3429  0.6111 -0.6317
 6818SOL    HW232091   3.888   4.431  11.872  2.3086 -0.0961 -1.4210
 6819SOL     OW32092   1.473   1.981   2.214 -0.1562  1.0737  0.3023
 6819SOL    HW132093   1.529   2.012   2.143  1.7336 -0.8373  0.9668
 6819SOL    HW232094   1.521   1.997   2.295  0.0249  0.8306  0.2440
 6820SOL     OW32095   1.928   1.132   4.826  0.0765  0.1798  0.0685
 6820SOL    HW132096   1.906   1.076   4.752  0.3496 -1.7504  1.4422
 6820SOL    HW232097   1.838   1.139   4.857  0.0660  0.2521  0.0211
 6821SOL     OW32098   1.371   2.306   3.157 -0.4554  0.0480  1.0093
 6821SOL    HW132099   1.321   2.224   3.160  0.8033 -0.7528 -0.4239
 6821SOL    HW232100   1.348   2.345   3.073 -1.1755 -1.8614  0.3072
 6822SOL     OW32101   4.348   3.620  13.629  0.1653  0.1463  0.7136
 6822SOL    HW132102   4.318   3.683  13.563  1.6507  0.9960  0.8357
 6822SOL    HW232103   4.398   3.683  13.681 -1.2944  2.2640 -0.4140
 6823SOL     OW32104   1.463   3.839  10.544  0.0339  0.0773 -0.2482
 6823SOL    HW132105   1.371   3.849  10.569 -0.9190 -0.9601 -3.2840
 6823SOL    HW232106   1.508   3.912  10.585  1.9866 -1.5496  0.4987
 6824SOL     OW32107   1.884   1.163   7.078 -0.3666 -0.1088  0.2367
 6824SOL    HW132108   1.961   1.178   7.133 -1.6406 -0.3729  2.0943
 6824SOL    HW232109   1.814   1.192   7.138 -0.0435 -0.0587  0.5900
 6825SOL     OW32110   1.111   0.998   3.343 -0.1911 -0.3877 -0.2842
 6825SOL    HW132111   1.097   0.903   3.351  1.3351 -0.4989  1.0560
 6825SOL    HW232112   1.031   1.037   3.378 -1.0553 -1.1319 -1.4087
 6826SOL     OW32113   3.309   0.374  16.737  0.5725  0.3856  1.1353
 6826SOL    HW132114   3.239   0.438  16.723  1.1305  0.7776  0.1311
 6826SOL    HW232115   3.388   0.427  16.723  1.6122 -1.4777 -0.1324
 6827SOL     OW32116   2.636   3.400   5.673  0.0472 -0.3525 -1.0996
 6827SOL    HW132117   2.611   3.492   5.681  0.6971 -0.3704  1.1447
 6827SOL    HW232118   2.705   3.393   5.740 -1.5607 -2.6242  0.3050
 6828SOL     OW32119   1.867   3.446  14.877 -0.5519 -0.6732 -0.2409
 6828SOL    HW132120   1.865   3.374  14.940 -0.5791  0.4150  0.9975
 6828SOL    HW232121   1.772   3.449  14.867 -0.6421  0.4650  1.0305
 6829SOL     OW32122   1.752   1.783   3.346 -0.0937  0.0978  0.2306
 6829SOL    HW132123   1.670   1.748   3.310  0.5580  0.4536 -1.6074
 6829SOL    HW232124   1.769   1.841   3.272 -0.4151  1.8925  1.5493
 6830SOL     OW32125   1.797   0.825   5.025  0.0587 -0.1566 -0.1796
 6830SOL    HW132126   1.874   0.829   4.968  0.4230  0.4453  0.3564
 6830SOL    HW232127   1.729   0.780   4.975 -1.0768  1.1879  0.1585
 6831SOL     OW32128   2.033   4.686   9.814 -0.3584 -0.0304  0.0704
 6831SOL    HW132129   2.017   4.607   9.866  1.9976 -2.6384 -3.2082
 6831SOL    HW232130   2.129   4.690   9.814 -0.3088 -1.3217  0.1971
 6832SOL     OW32131   0.028   2.695   4.782 -0.1383  0.6740  0.2670
 6832SOL    HW132132   0.078   2.626   4.739 -1.5529  0.5173 -1.1416
 6832SOL    HW232133   4.704   2.639   4.830  0.6023 -0.3795 -0.0436
 6833SOL     OW32134   0.621   2.099   9.252 -0.2276 -0.1077 -0.0075
 6833SOL    HW132135   0.569   2.179   9.249  1.6387  1.0053 -2.5992
 6833SOL    HW232136   0.587   2.060   9.333 -0.9981 -0.4451 -0.4957
 6834SOL     OW32137   2.821   0.709   3.211  0.2333  0.0119  0.2390
 6834SOL    HW132138   2.805   0.716   3.117 -3.2677 -2.2820  0.6559
 6834SOL    HW232139   2.730   0.712   3.241  0.1464  1.1381 -0.1477
 6835SOL     OW32140   4.478   1.244  10.286  0.3130  0.7737 -0.1999
 6835SOL    HW132141   4.524   1.278  10.363 -0.9662  2.0145  0.0282
 6835SOL    HW232142   4.507   1.153  10.289  0.4732  0.8146 -0.4934
 6836SOL     OW32143   3.073   0.368   6.310 -0.6425  0.1154  0.1656
 6836SOL    HW132144   3.081   0.339   6.219 -0.9106 -1.0172  0.5082
 6836SOL    HW232145   3.145   0.430   6.318  0.5019 -1.1106 -0.6719
 6837SOL     OW32146   1.149   0.143   5.703  0.6875 -0.1566 -0.1692
 6837SOL    HW132147   1.100   0.113   5.779  0.5107  0.3005 -0.1050
 6837SOL    HW232148   1.087   0.120   5.633  0.8850  0.8519 -0.6769
 6838SOL     OW32149   0.804   0.487   2.841  0.7029 -0.1646 -0.2443
 6838SOL    HW132150   0.784   0.394   2.855  0.7671 -0.0552  0.5982
 6838SOL    HW232151   0.878   0.500   2.900 -0.1376  0.1626  0.7365
 6839SOL     OW32152   2.965   4.323   6.903 -0.4564  0.5552 -0.3769
 6839SOL    HW132153   2.895   4.384   6.880 -1.0739  1.2885  3.4303
 6839SOL    HW232154   3.051   4.365   6.901 -1.1391  1.9142 -1.5983
 6840SOL     OW32155   0.599   1.841   2.669 -0.6201  0.0534 -0.7457
 6840SOL    HW132156   0.538   1.768   2.685 -1.1112  0.2832 -1.5578
 6840SOL    HW232157   0.672   1.792   2.631 -0.8835 -1.0003  0.1008
 6841SOL     OW32158   2.223   1.165   5.586  0.3001 -0.1593  0.0496
 6841SOL    HW132159   2.209   1.257   5.564  1.5037 -1.0884 -4.5751
 6841SOL    HW232160   2.240   1.169   5.680 -2.0129  0.2403  0.4526
 6842SOL     OW32161   1.948   4.415  12.622 -0.3075  0.0151 -0.1693
 6842SOL    HW132162   1.936   4.320  12.610  1.8720  0.0894 -2.9497
 6842SOL    HW232163   1.876   4.435  12.682 -0.5794 -0.5533 -0.3046
 6843SOL     OW32164   3.644   1.128  10.100  0.5224 -0.0298  0.2457
 6843SOL    HW132165   3.655   1.166  10.012  0.1513 -0.3180  0.0737
 6843SOL    HW232166   3.674   1.207  10.146  0.4679 -0.1671  0.5179
 6844SOL     OW32167   0.275   2.650   1.875 -0.1272 -0.3484 -0.1225
 6844SOL    HW132168   0.299   2.559   1.892 -1.8225 -0.8565 -0.4433
 6844SOL    HW232169   0.218   2.640   1.799  0.1405 -2.2115 -0.0630
 6845SOL     OW32170   0.133   4.431   8.160 -0.1110 -0.6129 -0.2797
 6845SOL    HW132171   0.077   4.502   8.191  1.0467 -0.0267  0.4445
 6845SOL    HW232172   0.195   4.478   8.104 -0.1629  0.1555  0.3147
 6846SOL     OW32173   2.301   0.355  15.001  0.0801 -0.6710  0.0869
 6846SOL    HW132174   2.364   0.427  15.001 -0.9821  0.2535  0.1138
 6846SOL    HW232175   2.235   0.380  15.065  0.0469  1.1961 -0.6650
 6847SOL     OW32176   4.011   1.658  14.745  0.0391 -0.4031  0.0082
 6847SOL    HW132177   4.086   1.639  14.801 -0.6707  0.5554  1.2673
 6847SOL    HW232178   3.939   1.611  14.785 -0.6794  1.9569  1.4871
 6848SOL     OW32179   2.818   3.392  15.529 -0.6984  0.0440 -0.0014
 6848SOL    HW132180   2.766   3.355  15.458 -0.8659  0.0004  0.1454
 6848SOL    HW232181   2.907   3.359  15.513 -0.2005  1.2327  0.2897
 6849SOL     OW32182   3.482   0.770   8.473  0.2767 -0.3436  0.5375
 6849SOL    HW132183   3.436   0.694   8.508  1.4441 -1.0258  0.5897
 6849SOL    HW232184   3.421   0.804   8.408 -1.2745 -0.1949  2.0888
 6850SOL     OW32185   2.407   2.803  12.945 -0.2045  0.1045 -0.0331
 6850SOL    HW132186   2.325   2.787  12.993 -0.5443  1.0105 -0.3233
 6850SOL    HW232187   2.457   2.842  13.016 -1.2227 -1.5379  1.5758
 6851SOL     OW32188   0.028   4.268  16.159  0.2752 -0.0143  0.7379
 6851SOL    HW132189   4.679   4.258  16.202  0.3515 -2.8803  0.2010
 6851SOL    HW232190   0.072   4.294  16.240 -1.8456  0.1847  1.8266
 6852SOL     OW32191   0.093   0.742  10.813 -0.1572 -0.1643 -0.3357
 6852SOL    HW132192   0.064   0.830  10.840 -0.0031  0.0406 -0.8446
 6852SOL    HW232193   0.060   0.746  10.723 -0.1280  2.3548 -0.2372
 6853SOL     OW32194   4.715   4.674   1.728  0.6462  0.3873 -0.2437
 6853SOL    HW132195   0.036   4.601   1.753 -2.0745 -1.0211  1.8681
 6853SOL    HW232196   0.042   4.731   1.684 -0.9189  2.5005  0.2844
 6854SOL     OW32197   0.384   4.268  13.021  0.2502 -0.0190 -0.4996
 6854SOL    HW132198   0.310   4.328  13.007  0.7673  0.8253  0.3156
 6854SOL    HW232199   0.444   4.305  12.956 -0.7010  1.3080 -0.6392
 6855SOL     OW32200   0.442   2.426   2.651 -0.2681  0.6381  0.0292
 6855SOL    HW132201   0.473   2.501   2.703  1.9625 -0.2948  0.0337
 6855SOL    HW232202   0.348   2.431   2.633 -0.0033  0.7617 -1.2991
 6856SOL     OW32203   4.619   2.802   5.319 -0.1036 -0.5912  0.7510
 6856SOL    HW132204   4.555   2.861   5.279  0.2713 -1.1722 -0.7040
 6856SOL    HW232205   4.598   2.726   5.265 -0.7113  0.7070 -0.8529
 6857SOL     OW32206   1.288   2.808   1.519  0.1395  0.1699 -0.3762
 6857SOL    HW132207   1.370   2.799   1.568  0.1851  0.2128 -0.4437
 6857SOL    HW232208   1.332   2.792   1.435 -0.2915  0.1749 -0.6001
 6858SOL     OW32209   2.406   0.279   8.382  0.4132 -0.1517 -0.2406
 6858SOL    HW132210   2.338   0.267   8.316  0.3674  1.7200 -0.5227
 6858SOL    HW232211   2.425   0.187   8.401 -0.0263 -0.6581 -2.2826
 6859SOL     OW32212   2.950   1.660  12.761 -0.2785 -0.3935 -0.1597
 6859SOL    HW132213   2.858   1.635  12.753  0.0376 -1.6778  0.2375
 6859SOL    HW232214   2.949   1.719  12.836 -2.1715 -1.4834  0.6424
 6860SOL     OW32215   4.595   2.833   2.792  0.6957 -0.0333 -0.1842
 6860SOL    HW132216   4.630   2.914   2.826 -1.6732  0.6399  0.6719
 6860SOL    HW232217   4.501   2.837   2.809  0.8535  1.2230  0.3272
 6861SOL     OW32218   1.933   1.953  12.723 -0.2638  0.1944  0.8302
 6861SOL    HW132219   1.846   1.978  12.754  0.5929  0.4770  2.9959
 6861SOL    HW232220   1.988   1.973  12.798  0.5873  0.6088  0.0921
 6862SOL     OW32221   3.043   3.162   6.025  0.0799 -0.2895 -0.2414
 6862SOL    HW132222   3.106   3.111   6.076 -2.9913 -2.8247  0.9751
 6862SOL    HW232223   2.970   3.102   6.012  1.1037 -1.5676 -0.1605
 6863SOL     OW32224   4.321   3.710   9.185 -0.1412 -0.3848  0.7532
 6863SOL    HW132225   4.405   3.702   9.138  0.5416 -1.1858  2.1205
 6863SOL    HW232226   4.268   3.762   9.125  0.4990 -0.0626  0.4571
 6864SOL     OW32227   3.986   1.778  11.575 -0.2828 -0.2363 -0.6700
 6864SOL    HW132228   3.953   1.865  11.598  1.1371 -0.0015  0.4976
 6864SOL    HW232229   4.081   1.782  11.591 -0.4993 -2.7184  1.2275
 6865SOL     OW32230   3.616   4.438   1.538 -0.2379  0.1858 -0.1003
 6865SOL    HW132231   3.667   4.379   1.481  2.3374 -0.6130  3.0485
 6865SOL    HW232232   3.679   4.496   1.580 -1.8761  1.1365  0.9987
 6866SOL     OW32233   0.913   0.486  17.166 -1.0145  0.0787 -0.1280
 6866SOL    HW132234   0.998   0.445  17.147 -1.1612  0.1425 -0.8907
 6866SOL    HW232235   0.849   0.425  17.131 -1.7462  0.8002 -0.0408
 6867SOL     OW32236   3.936   0.564   9.099 -0.2442  0.5493 -0.0694
 6867SOL    HW132237   3.969   0.621   9.029 -2.5185 -0.0895 -1.6812
 6867SOL    HW232238   4.019   0.542   9.141 -0.6479 -0.7526  0.0326
 6868SOL     OW32239   1.886   2.269   1.049 -0.0029 -1.1437  0.3819
 6868SOL    HW132240   1.905   2.339   1.111 -1.1119 -0.8950  0.4372
 6868SOL    HW232241   1.934   2.191   1.078  1.0770 -0.0670  1.4986
 6869SOL     OW32242   2.105   2.739   6.002  0.1958  0.5915 -0.4548
 6869SOL    HW132243   2.171   2.672   5.984 -0.0244  0.2281  0.1353
 6869SOL    HW232244   2.064   2.708   6.082  1.1977  1.5466  0.4268
 6870SOL     OW32245   4.643   0.907   5.216  0.0425 -0.6912  0.5150
 6870SOL    HW132246   4.616   0.838   5.276  0.0051 -0.4191  0.8098
 6870SOL    HW232247   0.002   0.899   5.226  0.0110 -2.4259 -0.6169
 6871SOL     OW32248   4.185   3.012  10.352  0.3869 -0.0621  0.4669
 6871SOL    HW132249   4.172   3.076  10.282  1.0561 -0.7604 -0.2897
 6871SOL    HW232250   4.269   2.977  10.325  0.2262  0.4393 -0.6996
 6872SOL     OW32251   3.496   0.260   2.330  0.0261  0.3846 -0.1688
 6872SOL    HW132252   3.514   0.286   2.420 -1.1887 -0.3396  0.2930
 6872SOL    HW232253   3.570   0.294   2.280  0.7370  0.3648  0.8797
 6873SOL     OW32254   2.344   3.492   3.131  0.1048  0.0538 -0.2400
 6873SOL    HW132255   2.360   3.420   3.192 -2.5330  1.4036  2.0788
 6873SOL    HW232256   2.281   3.542   3.185  1.6871  0.1059  1.5603
 6874SOL     OW32257   1.099   3.367   2.213 -0.5092 -0.0452 -0.1104
 6874SOL    HW132258   1.025   3.417   2.247 -0.7695  0.9555 -2.1268
 6874SOL    HW232259   1.065   3.278   2.216  1.1106 -0.6702  0.2110
 6875SOL     OW32260   1.296   1.795   2.251 -0.4627 -0.4017 -0.4534
 6875SOL    HW132261   1.243   1.787   2.172 -2.1781 -1.0810  0.7896
 6875SOL    HW232262   1.366   1.857   2.228 -1.7568  1.3662  0.4468
 6876SOL     OW32263   3.950   0.207   5.955 -0.6603 -0.6231 -0.0429
 6876SOL    HW132264   3.880   0.144   5.973 -0.5110 -0.7732  0.0147
 6876SOL    HW232265   4.027   0.153   5.972 -1.4282 -1.8894 -0.5257
 6877SOL     OW32266   0.799   1.764   7.027 -0.1182 -0.3108  1.1152
 6877SOL    HW132267   0.709   1.744   7.005 -0.1661 -0.5713  1.5514
 6877SOL    HW232268   0.790   1.857   7.049  0.1802 -0.2503  0.9849
 6878SOL     OW32269   3.026   0.685   9.756 -0.2964  0.3688 -0.3129
 6878SOL    HW132270   3.016   0.750   9.826 -0.8343 -0.3776  0.3025
 6878SOL    HW232271   3.013   0.739   9.679 -0.7248  0.5736 -0.0990
 6879SOL     OW32272   1.116   3.839   1.522  0.4853 -0.0226  0.2755
 6879SOL    HW132273   1.103   3.931   1.545 -1.4670 -0.9082  2.7195
 6879SOL    HW232274   1.189   3.812   1.579  0.3833 -1.7707 -0.4115
 6880SOL     OW32275   4.509   2.351   5.865 -0.0745 -0.6760 -0.5347
 6880SOL    HW132276   4.585   2.346   5.922 -0.4740  1.3145  0.1716
 6880SOL    HW232277   4.545   2.378   5.781  0.1037  0.3498 -0.1288
 6881SOL     OW32278   1.215   1.349   3.235 -0.7051 -0.2378 -0.5482
 6881SOL    HW132279   1.245   1.269   3.278 -0.9167 -0.9235 -1.6940
 6881SOL    HW232280   1.296   1.392   3.205  0.2852 -1.9450 -0.3293
 6882SOL     OW32281   4.345   2.170   7.016  0.0220 -0.1474 -0.0896
 6882SOL    HW132282   4.396   2.176   7.097 -0.9800  0.4927  0.5085
 6882SOL    HW232283   4.286   2.099   7.043 -0.9341  0.9980  0.8638
 6883SOL     OW32284   0.212   1.839   5.370 -0.4224  0.7393  0.3926
 6883SOL    HW132285   0.280   1.776   5.394  0.3182  1.2921 -0.2358
 6883SOL    HW232286   0.193   1.878   5.455 -1.1630  2.0894 -0.3923
 6884SOL     OW32287   0.611   0.665   1.869 -0.8317  0.2150 -0.1242
 6884SOL    HW132288   0.647   0.697   1.786  0.2738 -1.1522 -0.1820
 6884SOL    HW232289   0.689   0.642   1.920 -0.4553  0.1213 -0.7418
 6885SOL     OW32290   2.991   1.680   7.573 -0.2577 -0.0469  0.6712
 6885SOL    HW132291   2.907   1.678   7.527  0.2558  1.2670 -0.3365
 6885SOL    HW232292   2.963   1.627   7.647 -0.8549 -2.2384 -1.1282
 6886SOL     OW32293   0.304   4.609   7.296  0.4239  0.5915 -0.0384
 6886SOL    HW132294   0.310   4.682   7.357  1.1662 -0.5092  1.2025
 6886SOL    HW232295   0.234   4.632   7.234 -1.2666 -2.4232  0.7502
 6887SOL     OW32296   0.096   3.599   5.228 -0.1919 -0.2135  0.1210
 6887SOL    HW132297   0.054   3.614   5.312 -1.0211 -2.3332  0.0752
 6887SOL    HW232298   0.163   3.540   5.262 -0.5941  0.2241  1.6788
 6888SOL     OW32299   4.213   0.669  11.925  0.1990 -0.5506 -0.2591
 6888SOL    HW132300   4.260   0.697  12.003  0.6425  1.9159 -1.4169
 6888SOL    HW232301   4.292   0.652  11.873  0.6446  1.5609 -0.2387
 6889SOL     OW32302   0.110   0.481   6.268 -0.0793 -0.1918 -0.2780
 6889SOL    HW132303   0.148   0.569   6.270  0.5602 -0.4389 -1.4790
 6889SOL    HW232304   0.093   0.462   6.360 -2.8667  1.1749 -0.5181
 6890SOL     OW32305   0.643   1.141   7.553  0.3004  0.5588 -0.5625
 6890SOL    HW132306   0.619   1.220   7.505  0.6531 -0.8453 -3.0905
 6890SOL    HW232307   0.582   1.150   7.626 -0.0276  3.2925 -1.1807
 6891SOL     OW32308   4.279   2.944   5.440 -0.0087 -0.5213  0.1649
 6891SOL    HW132309   4.228   2.894   5.375 -3.4513  1.5404  1.2988
 6891SOL    HW232310   4.210   2.998   5.477  1.4433  1.7277 -0.4185
 6892SOL     OW32311   0.533   0.993  12.116  0.4523 -0.3962  0.4280
 6892SOL    HW132312   0.601   0.940  12.075 -1.4593 -0.9264 -2.0561
 6892SOL    HW232313   0.555   1.009  12.208 -0.3334 -1.1746  0.7441
 6893SOL     OW32314   1.045   4.258   5.795  0.4729 -0.3361  0.3421
 6893SOL    HW132315   1.011   4.169   5.788  0.2659 -0.2675  0.4688
 6893SOL    HW232316   0.972   4.304   5.836 -0.1234 -0.6695 -0.3372
 6894SOL     OW32317   4.328   2.861   2.459 -0.0521  0.0067 -0.6252
 6894SOL    HW132318   4.277   2.856   2.540 -0.3500 -0.6760 -0.8567
 6894SOL    HW232319   4.260   2.866   2.392 -0.7532  1.4514  0.1851
 6895SOL     OW32320   3.975   4.037   9.407 -0.5984 -0.3150  0.3249
 6895SOL    HW132321   3.994   3.949   9.376 -1.3532 -1.6099  3.5717
 6895SOL    HW232322   3.886   4.049   9.376  0.0660  1.6083 -0.8742
 6896SOL     OW32323   2.892   4.732   2.356 -0.3521 -0.8381 -0.6662
 6896SOL    HW132324   2.863   4.678   2.429 -2.2909 -1.3178 -1.7835
 6896SOL    HW232325   2.824   0.063   2.354 -1.2359 -1.8143 -3.4355
 6897SOL     OW32326   3.827   2.870  11.874 -0.5084 -0.4312  0.2488
 6897SOL    HW132327   3.735   2.896  11.875 -0.4344 -0.0526 -2.3286
 6897SOL    HW232328   3.843   2.830  11.959 -1.9012 -0.6423  0.4049
 6898SOL     OW32329   2.637   4.239   3.686  0.0660 -1.1397  0.5004
 6898SOL    HW132330   2.600   4.238   3.774  2.3604 -3.3673  1.4400
 6898SOL    HW232331   2.559   4.218   3.634 -0.9050 -0.5242  1.7242
 6899SOL     OW32332   1.457   4.251   5.210 -0.1640 -0.2182  0.3076
 6899SOL    HW132333   1.366   4.276   5.193  0.1238  0.4299 -0.2344
 6899SOL    HW232334   1.446   4.205   5.293  1.8225 -1.6130 -0.2074
 6900SOL     OW32335   2.780   4.528   9.363 -0.5398 -0.3289  0.5398
 6900SOL    HW132336   2.819   4.534   9.450 -0.8173  1.7921  0.5221
 6900SOL    HW232337   2.698   4.577   9.373 -1.1907 -1.6026  1.5046
 6901SOL     OW32338   3.897   4.222   8.329  0.1147  0.2209  0.0413
 6901SOL    HW132339   3.819   4.170   8.351  1.8698 -1.8234  1.4199
 6901SOL    HW232340   3.941   4.210   8.414  1.1569  1.1896 -0.3612
 6902SOL     OW32341   2.316   0.560   4.751  0.1763  0.4091 -0.6425
 6902SOL    HW132342   2.266   0.487   4.716 -0.1077  0.4724 -0.3668
 6902SOL    HW232343   2.407   0.533   4.742  0.5606  1.5792 -0.3005
 6903SOL     OW32344   3.955   1.507   9.846  0.8634  0.3162 -0.2975
 6903SOL    HW132345   3.877   1.492   9.899  1.7484 -1.6380  0.4635
 6903SOL    HW232346   3.945   1.430   9.790 -3.2104  0.5040  0.2212
 6904SOL     OW32347   4.520   1.206   6.349 -0.2883  0.0304 -0.5239
 6904SOL    HW132348   4.503   1.218   6.256 -3.6131 -2.5008 -0.2494
 6904SOL    HW232349   4.570   1.125   6.346 -1.6110 -0.8206  0.0118
 6905SOL     OW32350   1.861   3.059   7.377  0.5143 -0.0539  0.0629
 6905SOL    HW132351   1.906   3.064   7.293 -3.0076 -0.7784 -1.8737
 6905SOL    HW232352   1.921   3.119   7.422 -0.9694 -0.5955  2.7326
 6906SOL     OW32353   2.028   1.180   8.100 -0.3088  0.9266  0.1947
 6906SOL    HW132354   2.089   1.249   8.072  0.3315 -0.1372 -1.0649
 6906SOL    HW232355   2.015   1.214   8.188 -0.9564  2.1863 -0.3905
 6907SOL     OW32356   1.321   0.678   6.552  0.0984  0.1912  0.2272
 6907SOL    HW132357   1.396   0.690   6.494  1.1495 -1.6787  1.2181
 6907SOL    HW232358   1.262   0.720   6.490  0.6330 -1.0495 -1.1075
 6908SOL     OW32359   4.669   3.384   5.145 -0.0821  0.3498  0.6147
 6908SOL    HW132360   4.636   3.384   5.055 -2.7048  0.7464  1.5795
 6908SOL    HW232361   0.012   3.435   5.125  0.9111 -2.4100 -2.4988
 6909SOL     OW32362   3.036   4.708  14.648  0.2809  0.3971 -0.3183
 6909SOL    HW132363   2.945   0.002  14.649 -0.8385 -3.1122  0.5325
 6909SOL    HW232364   3.033   4.646  14.575 -0.6993  0.3244 -0.2141
 6910SOL     OW32365   3.773   2.022   1.858  0.0913 -0.6713  0.1652
 6910SOL    HW132366   3.697   2.073   1.830  1.8968  0.5590 -2.4640
 6910SOL    HW232367   3.771   2.034   1.953  0.2175 -3.6241  0.5530
 6911SOL     OW32368   1.372   3.316  15.123 -0.5382 -0.5276  0.3255
 6911SOL    HW132369   1.424   3.385  15.082  0.0940 -1.9114 -1.2364
 6911SOL    HW232370   1.324   3.276  15.051 -0.5786 -0.3516  0.2558
 6912SOL     OW32371   3.148   1.384   3.561  0.2325 -0.4639  0.4134
 6912SOL    HW132372   3.150   1.388   3.465  2.6097  0.3696  0.5129
 6912SOL    HW232373   3.170   1.293   3.583  0.7706  0.0649  2.0127
 6913SOL     OW32374   4.606   2.962   2.003  0.6863  0.0723  0.3490
 6913SOL    HW132375   4.634   3.046   2.040  0.3299  0.3510 -0.0152
 6913SOL    HW232376   4.691   2.918   1.996  0.9365  0.2778  2.2392
 6914SOL     OW32377   1.691   2.474  11.492  0.2680  0.0894  0.0353
 6914SOL    HW132378   1.601   2.457  11.465 -0.3565  1.5141  1.2090
 6914SOL    HW232379   1.720   2.391  11.531  0.8730  0.1279 -0.3337
 6915SOL     OW32380   0.987   3.853   4.722  0.2746  0.6320  0.0827
 6915SOL    HW132381   0.996   3.946   4.745  1.7445  0.1478  1.5018
 6915SOL    HW232382   0.973   3.817   4.810  0.7987 -0.4403 -0.2841
 6916SOL     OW32383   1.059   3.211   7.653  0.0564  0.0971  0.1777
 6916SOL    HW132384   1.073   3.305   7.651 -1.5609  0.4276  3.1759
 6916SOL    HW232385   1.122   3.196   7.724 -0.5727  2.2557  1.2154
 6917SOL     OW32386   0.144   0.077  11.528 -0.2711  0.2308  0.1789
 6917SOL    HW132387   0.162   4.723  11.501 -1.7025 -0.7253  2.3696
 6917SOL    HW232388   0.154   0.125  11.446 -0.3224  1.9279  1.1500
 6918SOL     OW32389   3.417   4.463   4.944  0.1377 -0.6308 -0.2804
 6918SOL    HW132390   3.381   4.390   4.994  2.7993 -0.4183  1.9397
 6918SOL    HW232391   3.512   4.453   4.958  0.1482 -0.6022 -0.3289
 6919SOL     OW32392   0.230   4.023  10.745 -0.3525 -0.6031 -0.2997
 6919SOL    HW132393   0.215   3.985  10.831  1.0363 -0.1962  0.1116
 6919SOL    HW232394   0.213   3.949  10.686  2.2508 -3.2904  2.3263
 6920SOL     OW32395   3.661   1.312   4.199 -0.2961 -0.4022 -0.3172
 6920SOL    HW132396   3.745   1.357   4.212 -0.0264 -1.0000 -0.0201
 6920SOL    HW232397   3.599   1.374   4.236 -0.2907 -0.2177 -0.6113
 6921SOL     OW32398   3.176   1.538   6.155 -0.2650 -0.3587 -0.6189
 6921SOL    HW132399   3.168   1.456   6.204 -0.9404  0.8075  1.1831
 6921SOL    HW232400   3.086   1.533   6.122  0.2141 -1.1349 -1.8418
 6922SOL     OW32401   0.399   2.920   0.715  0.3168  0.0961 -0.1002
 6922SOL    HW132402   0.319   2.882   0.679 -1.2552  4.4182 -1.1332
 6922SOL    HW232403   0.468   2.919   0.649 -0.2098 -0.4450 -0.6420
 6923SOL     OW32404   0.370   2.127   4.677 -0.3674  0.5347  0.7303
 6923SOL    HW132405   0.324   2.071   4.740 -1.3236  1.7213  1.0966
 6923SOL    HW232406   0.449   2.073   4.677 -0.0121  1.0513  1.5731
 6924SOL     OW32407   3.378   0.501   1.730  0.8561 -0.4933  0.3273
 6924SOL    HW132408   3.376   0.505   1.826  1.1351  0.6949  0.2880
 6924SOL    HW232409   3.364   0.408   1.717  0.1750 -0.5039  1.0746
 6925SOL     OW32410   1.662   2.872   5.989 -1.0890  0.1412 -0.0294
 6925SOL    HW132411   1.703   2.906   5.910  0.1098  0.9552  0.9408
 6925SOL    HW232412   1.679   2.943   6.051 -1.1130  0.9901 -1.0016
 6926SOL     OW32413   0.359   2.797   1.050  0.0296  0.2992  0.2931
 6926SOL    HW132414   0.310   2.751   1.119 -0.2803 -1.2878 -0.9841
 6926SOL    HW232415   0.294   2.867   1.041 -0.3664  0.2776  2.8295
 6927SOL     OW32416   2.056   0.519  10.868 -0.5012  0.2622  0.4574
 6927SOL    HW132417   2.150   0.506  10.863 -0.4711  1.3816 -1.7362
 6927SOL    HW232418   2.040   0.553  10.956  1.7701  1.8642  0.2336
 6928SOL     OW32419   1.158   3.061   1.599 -0.2111  0.1292 -0.3175
 6928SOL    HW132420   1.190   2.970   1.605 -1.6345 -0.2473  1.4343
 6928SOL    HW232421   1.109   3.061   1.516 -0.6688 -0.6635 -0.0516
 6929SOL     OW32422   4.445   3.346  17.244  0.4992 -0.3597  0.2527
 6929SOL    HW132423   4.474   3.424  17.292 -0.9767  1.6712 -2.1337
 6929SOL    HW232424   4.353   3.360  17.224  0.1951  0.2305  2.0625
 6930SOL     OW32425   4.474   4.520   8.591  0.0223 -0.6801 -0.0182
 6930SOL    HW132426   4.432   4.592   8.639  1.0204  1.0079 -1.6612
 6930SOL    HW232427   4.497   4.467   8.667  1.9706 -0.5526 -0.5111
 6931SOL     OW32428   1.929   4.418   7.293 -0.5536 -0.3877  0.2267
 6931SOL    HW132429   1.841   4.383   7.283 -1.0665  1.0960 -0.5322
 6931SOL    HW232430   1.930   4.499   7.241 -1.4534  0.6299  1.7845
 6932SOL     OW32431   4.357   0.773   6.798  0.6762  0.0038 -0.2890
 6932SOL    HW132432   4.375   0.836   6.869 -2.5238  1.2846 -0.6395
 6932SOL    HW232433   4.435   0.720   6.815 -1.9232 -2.5385  3.6556
 6933SOL     OW32434   3.823   1.983   8.652  0.5921  0.2490 -0.4181
 6933SOL    HW132435   3.793   2.063   8.610  0.6336  2.0257  2.8868
 6933SOL    HW232436   3.849   2.028   8.732 -1.3919  1.6114 -0.5364
 6934SOL     OW32437   3.310   2.106   6.643  0.0156  0.0021  0.0331
 6934SOL    HW132438   3.286   2.141   6.557 -0.7763  0.2136  0.3433
 6934SOL    HW232439   3.250   2.146   6.706 -0.5715 -0.4172 -0.2553
 6935SOL     OW32440   1.106   4.182   6.569 -0.1075  0.0966 -0.4965
 6935SOL    HW132441   1.040   4.248   6.593 -1.2851 -0.7174 -1.5126
 6935SOL    HW232442   1.107   4.189   6.474 -0.0205  0.7211 -0.4526
 6936SOL     OW32443   2.890   4.325   8.722 -0.1035 -0.1789  0.7239
 6936SOL    HW132444   2.855   4.366   8.643  0.0471 -0.4212  0.5295
 6936SOL    HW232445   2.976   4.304   8.686  0.4942  0.3728  1.8630
 6937SOL     OW32446   0.659   3.048   6.128  0.6378  0.2346 -0.0652
 6937SOL    HW132447   0.628   3.074   6.042 -0.7584  1.6564  0.8832
 6937SOL    HW232448   0.583   3.056   6.185  2.2977  1.1849  2.0174
 6938SOL     OW32449   1.279   2.608  15.281  0.5744 -0.1104  0.9381
 6938SOL    HW132450   1.320   2.694  15.271  0.4061 -0.0590  0.6982
 6938SOL    HW232451   1.348   2.556  15.323  2.4844 -0.7164 -2.9545
 6939SOL     OW32452   2.177   1.648   8.171  0.2896  0.1457 -0.0691
 6939SOL    HW132453   2.174   1.648   8.267 -0.0027  3.5793 -0.0714
 6939SOL    HW232454   2.091   1.683   8.149 -0.1736 -0.7465  0.3086
 6940SOL     OW32455   0.635   0.156   9.012 -0.4164  0.7211  0.0205
 6940SOL    HW132456   0.687   0.141   9.090  2.1871 -0.6218 -1.9982
 6940SOL    HW232457   0.654   0.244   8.980 -1.7920  1.1029  0.2356
 6941SOL     OW32458   1.280   2.534   3.274  0.0883 -0.0166  0.0547
 6941SOL    HW132459   1.256   2.465   3.337  0.0975  2.2167  2.5066
 6941SOL    HW232460   1.333   2.477   3.219  0.0492 -0.9040  0.9217
 6942SOL     OW32461   0.403   2.032   3.876  0.4209  0.1095  0.0183
 6942SOL    HW132462   0.392   2.125   3.896 -0.6716  0.0961 -0.5549
 6942SOL    HW232463   0.318   1.994   3.855  0.5658 -0.1551 -0.0884
 6943SOL     OW32464   2.240   3.236  17.258 -0.6278 -0.8000  0.3240
 6943SOL    HW132465   2.317   3.271  17.302 -1.2562 -0.2841  1.0074
 6943SOL    HW232466   2.172   3.291  17.298 -0.0541  2.5468 -3.1924
 6944SOL     OW32467   2.600   3.998   5.384 -0.0089 -0.3401  0.0378
 6944SOL    HW132468   2.550   4.072   5.347 -2.0680 -1.4387  0.6205
 6944SOL    HW232469   2.626   3.950   5.305 -0.9812  1.1721 -1.2125
 6945SOL     OW32470   3.719   3.310   2.194 -0.3622 -0.4118 -0.1091
 6945SOL    HW132471   3.684   3.356   2.117 -1.5934  0.6821  1.0929
 6945SOL    HW232472   3.698   3.373   2.263 -1.4657 -0.1811 -0.6569
 6946SOL     OW32473   1.089   2.943   3.025 -0.4362 -0.4594  0.0111
 6946SOL    HW132474   1.121   2.858   3.055  0.6302  1.1511  3.4139
 6946SOL    HW232475   1.031   2.956   3.101 -1.0115 -3.0282  0.0020
 6947SOL     OW32476   3.064   4.143  16.033  0.1456  0.3317 -0.1442
 6947SOL    HW132477   3.093   4.052  16.042  1.0472  0.5630 -0.6783
 6947SOL    HW232478   3.014   4.141  15.952 -0.6804 -0.4321  0.3881
 6948SOL     OW32479   1.482   4.094   1.988 -0.4177  0.6140 -0.4580
 6948SOL    HW132480   1.564   4.062   1.950 -0.1710 -1.2268  1.6668
 6948SOL    HW232481   1.440   4.009   1.997  0.5208  0.2573  0.6198
 6949SOL     OW32482   0.080   2.472   2.076  0.1658  0.6852  0.2322
 6949SOL    HW132483   0.105   2.394   2.125  1.0283  2.4370  2.5958
 6949SOL    HW232484   0.112   2.444   1.990 -1.6188 -1.3134  0.2335
 6950SOL     OW32485   2.464   0.765  17.563  0.7825 -0.1275  0.3938
 6950SOL    HW132486   2.463   0.847  17.514 -1.9739 -0.4662 -0.1366
 6950SOL    HW232487   2.424   0.787  17.647  0.9176  0.8907  0.1919
 6951SOL     OW32488   1.352   3.505  17.488  0.0490 -0.1134  0.3769
 6951SOL    HW132489   1.374   3.475  17.400  0.3872 -2.1364  1.1549
 6951SOL    HW232490   1.256   3.505  17.486  0.0494 -0.8465  0.2309
 6952SOL     OW32491   1.357   3.548   7.853 -0.0001  0.0931 -0.2168
 6952SOL    HW132492   1.429   3.595   7.894 -0.3630  0.7546 -0.3342
 6952SOL    HW232493   1.344   3.479   7.919  0.6435 -1.7212 -1.9856
 6953SOL     OW32494   4.504   2.550   0.016  0.0520 -0.2640 -0.0905
 6953SOL    HW132495   4.474   2.509  17.676 -1.1252 -0.4189  0.4268
 6953SOL    HW232496   4.598   2.557  17.739  0.6587  0.9592  3.4154
 6954SOL     OW32497   0.729   4.384  11.488  0.4215 -0.2278 -0.2587
 6954SOL    HW132498   0.740   4.314  11.552 -0.9180  2.0161  2.4134
 6954SOL    HW232499   0.816   4.424  11.488 -0.4765  1.7406 -1.8060
 6955SOL     OW32500   1.624   0.408   0.375  0.4887  0.2488  0.0831
 6955SOL    HW132501   1.580   0.493   0.378  3.1145  1.5799  0.7330
 6955SOL    HW232502   1.644   0.400   0.281 -2.4136 -0.8545 -0.4530
 6956SOL     OW32503   3.356   0.158   4.384  0.3165 -0.7281 -0.5753
 6956SOL    HW132504   3.270   0.142   4.424 -0.0888  0.6219 -0.9089
 6956SOL    HW232505   3.358   0.114   4.299 -0.7581 -3.1433  0.6467
 6957SOL     OW32506   3.884   0.582   4.877 -0.5655 -0.3237 -0.0098
 6957SOL    HW132507   3.972   0.546   4.869 -0.9626 -1.0195 -1.3182
 6957SOL    HW232508   3.896   0.674   4.855  0.5248 -0.8172 -1.4901
 6958SOL     OW32509   4.443   4.363   1.239 -0.2281  0.0073 -0.3010
 6958SOL    HW132510   4.472   4.292   1.182  2.4572  0.6742  0.2493
 6958SOL    HW232511   4.484   4.440   1.200  0.5786 -0.5194 -0.4858
 6959SOL     OW32512   4.450   3.489   8.642 -0.7350  0.7693  0.4094
 6959SOL    HW132513   4.530   3.508   8.593 -0.5828  0.8432  0.6902
 6959SOL    HW232514   4.466   3.400   8.675  1.1624  1.6368  1.7629
 6960SOL     OW32515   1.940   1.281   8.344  0.0837 -0.5374 -0.0841
 6960SOL    HW132516   1.961   1.369   8.376 -1.5033 -0.6075  1.1825
 6960SOL    HW232517   1.845   1.274   8.359  0.5359 -0.3436  2.8679
 6961SOL     OW32518   1.108   0.544   2.475  0.0638 -0.1070  0.3546
 6961SOL    HW132519   1.093   0.573   2.385  0.2854 -0.4471  0.2031
 6961SOL    HW232520   1.019   0.515   2.495 -0.1075  0.0950 -0.1200
 6962SOL     OW32521   4.502   0.998   0.330 -0.1882 -0.0244 -0.9807
 6962SOL    HW132522   4.477   1.015   0.421  2.6969 -1.0394 -0.0181
 6962SOL    HW232523   4.478   1.083   0.293 -0.3177  0.1562 -0.4844
 6963SOL     OW32524   3.535   2.020  16.413  0.5038 -0.2582  0.3783
 6963SOL    HW132525   3.564   2.100  16.458  2.7522 -0.8630 -0.0243
 6963SOL    HW232526   3.442   2.016  16.436  0.4693 -0.7400  0.1331
 6964SOL     OW32527   1.986   4.663   9.531  0.4701 -0.1276  0.3390
 6964SOL    HW132528   1.980   4.643   9.624 -1.2414 -0.4310  0.1632
 6964SOL    HW232529   1.901   4.707   9.527  0.7077  0.2030 -1.1614
 6965SOL     OW32530   3.383   2.643   6.933 -0.4484  0.1741 -0.2448
 6965SOL    HW132531   3.404   2.651   7.026 -0.3103 -0.6517 -0.2012
 6965SOL    HW232532   3.459   2.589   6.908 -0.3604 -0.3619  1.1486
 6966SOL     OW32533   4.061   2.595  12.654 -0.7688  0.0244  0.3364
 6966SOL    HW132534   4.017   2.533  12.596 -0.0289 -0.1814 -0.0024
 6966SOL    HW232535   4.154   2.573  12.661 -0.9162 -1.3642 -2.1241
 6967SOL     OW32536   0.274   4.275  16.636  0.1622 -0.0895 -0.1312
 6967SOL    HW132537   0.355   4.233  16.663  0.5178  0.4664 -0.3403
 6967SOL    HW232538   0.284   4.367  16.660 -2.4089  0.0200  0.5520
 6968SOL     OW32539   2.848   3.601   5.259 -0.3536  0.2870  0.4908
 6968SOL    HW132540   2.840   3.511   5.227  1.9731  0.9715 -2.0298
 6968SOL    HW232541   2.935   3.619   5.223  0.7849 -4.3677  0.9584
 6969SOL     OW32542   2.391   3.546   7.415 -0.1173  0.3498  0.6712
 6969SOL    HW132543   2.450   3.598   7.469  0.8270 -0.9283  0.8440
 6969SOL    HW232544   2.409   3.456   7.442 -1.9412  0.2583  1.5462
 6970SOL     OW32545   1.359   2.944   8.528  0.0547  0.9278 -0.9098
 6970SOL    HW132546   1.415   2.913   8.457 -0.7419  1.0957 -1.6041
 6970SOL    HW232547   1.282   2.987   8.491 -1.4923 -1.6140 -0.6638
 6971SOL     OW32548   3.037   4.272   4.952 -0.6602  0.3690  0.6360
 6971SOL    HW132549   2.973   4.210   4.919 -1.5505  1.9284 -0.5595
 6971SOL    HW232550   2.981   4.349   4.947  2.2750  2.5718  1.2979
 6972SOL     OW32551   3.747   4.082   3.315  0.3229  0.7172 -0.4453
 6972SOL    HW132552   3.684   4.143   3.276  0.4236 -0.2031 -2.0398
 6972SOL    HW232553   3.748   4.112   3.406  1.4735 -2.7684  0.6970
 6973SOL     OW32554   2.174   4.316  10.211 -0.2922  0.2985 -0.3572
 6973SOL    HW132555   2.142   4.239  10.258 -0.0023  0.7196  0.5299
 6973SOL    HW232556   2.148   4.292  10.123 -1.8782  0.4548  0.0619
 6974SOL     OW32557   1.428   0.067   2.287 -0.0030 -0.0872  0.4499
 6974SOL    HW132558   1.425   4.709   2.303 -0.8560 -0.4194 -1.5689
 6974SOL    HW232559   1.340   0.092   2.316  0.0480 -0.6607  1.0984
 6975SOL     OW32560   1.627   3.145  13.899 -0.0104 -0.3287 -0.3195
 6975SOL    HW132561   1.560   3.177  13.959  1.4586 -1.2263  1.7914
 6975SOL    HW232562   1.608   3.053  13.884  0.3231 -0.8219  2.3931
 6976SOL     OW32563   0.386   3.836   6.313 -0.6421  0.6780  0.0865
 6976SOL    HW132564   0.432   3.827   6.396  0.8184  0.2645 -0.7573
 6976SOL    HW232565   0.385   3.929   6.290 -1.8762  0.4411 -0.8196
 6977SOL     OW32566   0.040   3.998   7.909  0.6739  1.1354  0.3984
 6977SOL    HW132567   0.085   4.083   7.912  2.0369  0.4435 -0.5205
 6977SOL    HW232568   4.692   3.996   7.956  0.7254  1.3448  0.4981
 6978SOL     OW32569   2.550   1.565  11.538 -0.2791 -0.6660  0.5553
 6978SOL    HW132570   2.567   1.471  11.542  1.7454 -0.3109  0.1929
 6978SOL    HW232571   2.489   1.569  11.464 -0.8791  0.1870  1.0918
 6979SOL     OW32572   0.917   3.768   4.969  0.2385 -0.3440  0.6229
 6979SOL    HW132573   0.856   3.778   5.043 -0.9879  1.0145 -0.5518
 6979SOL    HW232574   0.967   3.692   4.998  1.3668 -0.1282 -0.7820
 6980SOL     OW32575   0.017   1.464  15.391 -0.0064 -0.4069  0.5136
 6980SOL    HW132576   0.103   1.454  15.349 -1.0507  0.2500 -1.7889
 6980SOL    HW232577   4.718   1.541  15.345 -1.7437 -1.1049  0.6581
 6981SOL     OW32578   1.935   3.239   6.631  0.2348 -0.8672  0.1443
 6981SOL    HW132579   1.877   3.171   6.663 -4.2299  2.9398  0.1534
 6981SOL    HW232580   1.889   3.273   6.554  0.5127 -1.8688 -0.4584
 6982SOL     OW32581   0.411   3.077  12.185  0.3999  0.0075 -0.2244
 6982SOL    HW132582   0.318   3.096  12.172  0.0812 -0.7034  0.9991
 6982SOL    HW232583   0.395   2.991  12.224  0.4903 -0.5214 -1.3704
 6983SOL     OW32584   3.125   1.489   1.982  0.1869 -0.1341 -0.0338
 6983SOL    HW132585   3.087   1.410   2.021  1.1098  0.1342  1.4038
 6983SOL    HW232586   3.078   1.558   2.028  1.6780  0.5921  0.3870
 6984SOL     OW32587   0.144   1.450   2.595  0.5399  0.0616  0.1391
 6984SOL    HW132588   0.121   1.383   2.659 -0.6527 -1.4751 -1.8965
 6984SOL    HW232589   0.059   1.489   2.578 -0.0769 -0.7908  1.2330
 6985SOL     OW32590   4.176   1.183  12.288 -0.4899  0.6169 -0.1859
 6985SOL    HW132591   4.257   1.228  12.263  0.4192 -1.4218 -0.8980
 6985SOL    HW232592   4.215   1.122  12.352 -3.5888 -0.7665  0.3696
 6986SOL     OW32593   3.936   1.278   7.990 -0.1457 -0.1907  0.8897
 6986SOL    HW132594   3.865   1.221   8.019  0.3387 -1.8214 -1.0759
 6986SOL    HW232595   3.901   1.356   8.032  4.6668  2.2061  0.4463
 6987SOL     OW32596   4.164   3.213  15.998 -0.0676  0.2974  0.7673
 6987SOL    HW132597   4.241   3.166  16.032 -1.2740 -0.0254  3.0321
 6987SOL    HW232598   4.104   3.180  16.065  2.9455 -1.7760  2.4771
 6988SOL     OW32599   4.613   1.753   6.429 -0.5126 -0.5856 -0.5143
 6988SOL    HW132600   4.520   1.731   6.428 -1.0565  1.9031 -3.7155
 6988SOL    HW232601   4.602   1.842   6.398 -0.3777 -0.6529 -0.7529
 6989SOL     OW32602   1.197   0.357   4.325  0.3123  0.2163  0.0126
 6989SOL    HW132603   1.185   0.452   4.323  0.6923  0.2463 -0.8887
 6989SOL    HW232604   1.131   0.319   4.267 -0.5260 -1.2223  1.9050
 6990SOL     OW32605   2.533   0.701   9.049 -0.1557 -0.1319  0.4780
 6990SOL    HW132606   2.560   0.609   9.051  0.0999 -0.0651  0.0948
 6990SOL    HW232607   2.461   0.718   9.110 -0.4256 -1.3037  0.4888
 6991SOL     OW32608   0.255   1.648   1.310 -0.0519  0.2509  0.5458
 6991SOL    HW132609   0.344   1.634   1.279 -0.7341 -0.8765 -0.8737
 6991SOL    HW232610   0.226   1.558   1.294  1.7590 -0.4549  1.2320
 6992SOL     OW32611   4.692   2.452   0.431  0.0423  0.0936 -0.4767
 6992SOL    HW132612   4.723   2.386   0.368  0.1434 -0.4540  0.1447
 6992SOL    HW232613   0.036   2.503   0.417 -0.8304  1.4422 -0.4454
 6993SOL     OW32614   4.704   4.103  15.783 -0.7401  0.0585 -0.3600
 6993SOL    HW132615   4.685   4.185  15.827 -0.9249 -0.5114  0.6267
 6993SOL    HW232616   4.722   4.044  15.856  3.5425 -0.8640 -2.1926
 6994SOL     OW32617   0.975   4.400   7.836 -0.4938 -0.2940  0.1225
 6994SOL    HW132618   1.003   4.314   7.868 -3.2545 -0.9016  0.8973
 6994SOL    HW232619   0.945   4.377   7.748 -0.8418  0.5779  0.0058
 6995SOL     OW32620   1.646   1.808  17.127 -0.2286  0.5245 -0.0696
 6995SOL    HW132621   1.556   1.838  17.137 -0.2176  0.0305  1.4255
 6995SOL    HW232622   1.704   1.882  17.110 -1.0749  1.0922 -0.5006
 6996SOL     OW32623   2.198   3.001  11.420  0.5406 -0.1019  0.1127
 6996SOL    HW132624   2.225   3.043  11.338 -0.4272 -0.6168 -0.4687
 6996SOL    HW232625   2.118   2.959  11.389  0.0352  0.4086  0.7375
 6997SOL     OW32626   0.666   1.488   7.890  0.0453 -0.0849  0.1706
 6997SOL    HW132627   0.731   1.541   7.844  0.3863  0.6390  1.4831
 6997SOL    HW232628   0.678   1.528   7.976  0.6882 -0.1976  0.1374
 6998SOL     OW32629   4.690   2.907   6.492  0.1468 -0.0695  0.2952
 6998SOL    HW132630   0.003   2.854   6.555 -0.6548 -1.2562 -0.0973
 6998SOL    HW232631   4.628   2.956   6.547 -0.2666 -1.9249  1.4806
 6999SOL     OW32632   4.253   1.311   4.386 -0.0693 -0.0359 -0.0824
 6999SOL    HW132633   4.324   1.281   4.443 -0.8011  0.6919  1.2065
 6999SOL    HW232634   4.261   1.406   4.382  2.0681 -0.2081  0.1634
 7000SOL     OW32635   4.270   0.978  12.481  0.3439  0.4097 -0.1394
 7000SOL    HW132636   4.339   0.942  12.537  0.0937  0.0553 -0.0595
 7000SOL    HW232637   4.197   0.964  12.542  2.1731 -2.2447  1.4702
 7001SOL     OW32638   1.431   2.383  11.884 -0.5771  0.3603  0.2544
 7001SOL    HW132639   1.380   2.323  11.939 -1.2690  0.1401 -0.6201
 7001SOL    HW232640   1.503   2.396  11.946  0.2260 -1.3429 -0.2917
 7002SOL     OW32641   3.155   4.150   1.877  0.5764 -0.3582  0.0931
 7002SOL    HW132642   3.244   4.140   1.845  0.6074  1.1704 -0.3358
 7002SOL    HW232643   3.166   4.215   1.947  0.8368 -0.2416 -0.0577
 7003SOL     OW32644   1.201   1.252   6.481 -0.1498 -0.3476  0.2729
 7003SOL    HW132645   1.152   1.324   6.520 -1.2923 -1.0928  0.2094
 7003SOL    HW232646   1.278   1.296   6.445  0.0548 -0.3533  0.6894
 7004SOL     OW32647   0.128   1.736   6.333  0.2176  0.3701 -0.3148
 7004SOL    HW132648   0.105   1.768   6.246  0.5243  2.5064  0.3658
 7004SOL    HW232649   0.051   1.720   6.386  0.8298 -0.2443  0.3875
 7005SOL     OW32650   3.345   0.333   7.508  0.2732 -0.0164 -0.2195
 7005SOL    HW132651   3.401   0.317   7.584  0.1166  1.3445  0.1815
 7005SOL    HW232652   3.260   0.358   7.545 -0.2397 -1.5491 -0.3859
 7006SOL     OW32653   2.533   0.361   7.319  0.1497 -0.3952  0.4082
 7006SOL    HW132654   2.511   0.282   7.368  1.4591 -0.4466  0.9087
 7006SOL    HW232655   2.486   0.343   7.238  0.7901 -1.4349  0.2736
 7007SOL     OW32656   4.057   0.779   1.585  0.0272 -0.8084 -0.6885
 7007SOL    HW132657   4.069   0.725   1.663 -1.6778  0.8305  0.7056
 7007SOL    HW232658   4.033   0.862   1.627  1.1824 -1.9042  2.0731
 7008SOL     OW32659   3.451   1.337   6.804 -0.2584 -0.8614 -0.8922
 7008SOL    HW132660   3.420   1.256   6.763 -3.5945 -0.3689  0.6842
 7008SOL    HW232661   3.388   1.400   6.770  0.4131  0.3544  0.1153
 7009SOL     OW32662   4.528   0.684   8.279 -0.6832 -0.0835  0.0009
 7009SOL    HW132663   4.536   0.706   8.186  3.1156 -1.2575  0.0547
 7009SOL    HW232664   4.610   0.706   8.323 -0.0374 -0.4934 -1.0008
 7010SOL     OW32665   3.766   2.248   8.603  0.2032 -0.3940  0.4816
 7010SOL    HW132666   3.811   2.282   8.525  0.9570 -1.6808  0.3579
 7010SOL    HW232667   3.676   2.249   8.570  0.0120 -1.6995  0.9507
 7011SOL     OW32668   1.190   2.787  16.897 -0.8300 -0.2067 -0.3633
 7011SOL    HW132669   1.210   2.798  16.990  1.6426 -0.2457 -0.8877
 7011SOL    HW232670   1.121   2.722  16.907  0.4216 -1.0058  2.8792
 7012SOL     OW32671   3.566   0.944  11.878  0.2004 -0.6022  0.2626
 7012SOL    HW132672   3.549   0.865  11.827  1.1104 -0.7593  0.2055
 7012SOL    HW232673   3.608   0.911  11.957  0.9115  0.5263  0.3554
 7013SOL     OW32674   1.867   1.257   0.118  0.0570 -0.1879  0.2561
 7013SOL    HW132675   1.866   1.338   0.168  1.4962 -0.5682  0.9108
 7013SOL    HW232676   1.794   1.209   0.159 -1.3405 -0.0676 -2.1004
 7014SOL     OW32677   4.582   1.657  17.336 -0.0636 -0.0777 -0.3130
 7014SOL    HW132678   4.532   1.640  17.416 -0.5051 -0.6198 -0.7112
 7014SOL    HW232679   4.553   1.579  17.290 -0.2666  0.5333 -1.2120
 7015SOL     OW32680   3.712   1.097  14.774 -0.0921  0.5242  0.1967
 7015SOL    HW132681   3.736   1.178  14.728 -2.9190  1.1864 -0.1287
 7015SOL    HW232682   3.767   1.034  14.729 -1.6382 -0.3801 -0.4084
 7016SOL     OW32683   2.376   0.381   8.845 -0.0740 -0.6327  0.4633
 7016SOL    HW132684   2.334   0.434   8.913 -0.0834  0.2179 -0.2010
 7016SOL    HW232685   2.321   0.382   8.767  0.6375  0.5285 -0.0291
 7017SOL     OW32686   1.611   0.071   5.506 -0.0842  0.3214  0.1754
 7017SOL    HW132687   1.523   0.103   5.528 -0.6666 -0.3878 -1.1068
 7017SOL    HW232688   1.605   0.056   5.411  0.5418  0.7627  0.0705
 7018SOL     OW32689   1.937   4.646   6.426 -0.7281  0.3047 -0.1013
 7018SOL    HW132690   1.893   4.673   6.507 -1.0057  2.2559 -0.9123
 7018SOL    HW232691   2.020   4.636   6.474 -2.0245 -2.5046  1.5760
 7019SOL     OW32692   2.766   3.640   8.052  0.3444 -0.1042  0.6125
 7019SOL    HW132693   2.827   3.633   7.979 -0.0245  3.2734 -0.0171
 7019SOL    HW232694   2.830   3.654   8.122 -1.2195  0.6394  1.9145
 7020SOL     OW32695   0.954   0.534  10.125 -0.0302 -0.3548 -0.3630
 7020SOL    HW132696   0.989   0.619  10.097  0.1001 -0.8611 -1.7075
 7020SOL    HW232697   0.877   0.544  10.069 -1.3197 -1.8869  1.1464
 7021SOL     OW32698   3.045   2.518   8.498  0.5415  0.0877  0.4075
 7021SOL    HW132699   3.110   2.452   8.525 -1.8937 -1.3621  2.8057
 7021SOL    HW232700   2.970   2.478   8.543  1.3783 -0.0534  1.6767
 7022SOL     OW32701   0.577   4.408  16.003 -0.5613 -1.1174  0.5395
 7022SOL    HW132702   0.504   4.452  15.960  0.4285  0.2688  0.2569
 7022SOL    HW232703   0.563   4.413  16.097 -2.4455  1.8364  0.1124
 7023SOL     OW32704   3.556   4.457   4.367  0.2245  0.1731  0.6692
 7023SOL    HW132705   3.595   4.386   4.418  1.8191 -0.0547 -0.8817
 7023SOL    HW232706   3.595   4.535   4.407  0.3834  0.5729 -0.2744
 7024SOL     OW32707   0.179   2.823  11.778 -0.4293  0.4393 -0.2693
 7024SOL    HW132708   0.269   2.797  11.757 -1.5834 -2.4358 -1.7871
 7024SOL    HW232709   0.153   2.759  11.845 -1.1860 -1.3027 -2.1979
 7025SOL     OW32710   4.281   4.209   0.607  0.3425  0.2782 -0.3755
 7025SOL    HW132711   4.217   4.238   0.542 -1.3405  1.5555  1.8496
 7025SOL    HW232712   4.285   4.118   0.579 -0.9861 -0.0588  0.5114
 7026SOL     OW32713   0.201   3.222   6.498 -0.0014 -0.0523  0.1190
 7026SOL    HW132714   0.256   3.282   6.449 -2.2370  1.9798  0.0908
 7026SOL    HW232715   0.271   3.167   6.533  0.7462  0.5632 -0.4254
 7027SOL     OW32716   2.140   3.622   3.929  0.1569 -0.5603  0.1541
 7027SOL    HW132717   2.208   3.581   3.983 -1.3401 -0.4401  2.1317
 7027SOL    HW232718   2.180   3.607   3.843  0.4736  1.7613 -0.0808
 7028SOL     OW32719   0.206   0.497   3.747  0.2387  0.3587 -0.4451
 7028SOL    HW132720   0.237   0.501   3.837  0.4696  0.8575 -0.5528
 7028SOL    HW232721   0.246   0.572   3.704  1.5692 -0.6564 -1.0025
 7029SOL     OW32722   3.801   1.561   2.016 -0.1443  0.0038  0.1809
 7029SOL    HW132723   3.739   1.538   1.947  2.6655  1.0168 -2.6679
 7029SOL    HW232724   3.778   1.500   2.087 -1.7683 -2.5541 -2.4977
 7030SOL     OW32725   1.678   2.100   6.290  0.5343 -0.2689  0.4948
 7030SOL    HW132726   1.723   2.177   6.324 -0.1351  0.3139  0.0436
 7030SOL    HW232727   1.742   2.071   6.225  0.1508  1.5581 -0.6925
 7031SOL     OW32728   0.016   4.214   1.158  0.0995 -0.3569  0.2957
 7031SOL    HW132729   0.089   4.225   1.219 -0.6530 -0.9161  1.2910
 7031SOL    HW232730   4.713   4.131   1.185 -1.0011 -0.1503 -0.6709
 7032SOL     OW32731   0.863   1.095   9.290  0.7549 -0.2568  0.3142
 7032SOL    HW132732   0.883   1.083   9.198  1.5851 -0.5997  0.5416
 7032SOL    HW232733   0.920   1.165   9.323 -0.7999  0.0490  2.3429
 7033SOL     OW32734   2.509   3.573   4.671 -0.0883 -0.1676  0.6062
 7033SOL    HW132735   2.424   3.567   4.716 -0.7805 -0.5744 -0.7695
 7033SOL    HW232736   2.513   3.481   4.643  0.9108  0.0994 -0.1275
 7034SOL     OW32737   2.517   4.641   8.267 -0.0990 -0.4606 -0.4266
 7034SOL    HW132738   2.610   4.646   8.244 -0.3510  3.6718 -0.4793
 7034SOL    HW232739   2.474   4.655   8.182 -0.1068 -0.3451 -0.4029
 7035SOL     OW32740   0.265   1.221  12.804 -0.0939 -0.4222  0.3490
 7035SOL    HW132741   0.310   1.139  12.821 -1.3219 -1.6698 -2.3491
 7035SOL    HW232742   0.255   1.230  12.709 -1.8954 -0.6378  0.5070
 7036SOL     OW32743   1.952   1.185  12.656  0.0928 -0.1075  0.0525
 7036SOL    HW132744   1.930   1.155  12.744 -1.1611 -2.9564 -1.1874
 7036SOL    HW232745   1.871   1.230  12.632  1.1181  1.0575 -1.2163
 7037SOL     OW32746   0.275   3.172  13.243  0.1344  0.2841 -0.1043
 7037SOL    HW132747   0.220   3.249  13.229  0.0249  0.2821  0.3140
 7037SOL    HW232748   0.268   3.162  13.338  2.9112  0.8661  0.1712
 7038SOL     OW32749   3.738   2.956   5.461  0.0938 -0.2569 -0.1791
 7038SOL    HW132750   3.793   2.910   5.398 -0.6929 -1.0524 -0.2827
 7038SOL    HW232751   3.654   2.948   5.416 -0.9095  1.3337  1.3507
 7039SOL     OW32752   2.547   2.487   0.820  0.6514 -0.1653 -0.1886
 7039SOL    HW132753   2.480   2.544   0.858 -0.6370 -0.3718 -2.1620
 7039SOL    HW232754   2.602   2.480   0.898  0.2134  0.3117  0.1605
 7040SOL     OW32755   2.769   1.310   4.001 -0.3243  0.1846  0.0259
 7040SOL    HW132756   2.758   1.359   4.083  0.8718  1.4215 -0.5457
 7040SOL    HW232757   2.864   1.320   3.987  0.1306 -4.4079 -0.2088
 7041SOL     OW32758   0.390   1.136   7.014 -0.9929 -0.2153 -0.1523
 7041SOL    HW132759   0.445   1.203   6.974  0.6071  0.3560  2.9643
 7041SOL    HW232760   0.445   1.058   7.024  1.0900  1.4807  1.6736
 7042SOL     OW32761   0.727   3.111   3.961  0.1444 -0.4281  0.2007
 7042SOL    HW132762   0.729   3.180   4.027 -1.1578 -0.0395 -0.1652
 7042SOL    HW232763   0.817   3.080   3.946  0.1744 -1.2309  1.9948
 7043SOL     OW32764   0.437   1.996   0.796 -0.2552 -0.2794 -0.9717
 7043SOL    HW132765   0.419   1.945   0.717  1.3180  0.0789 -1.5473
 7043SOL    HW232766   0.440   1.931   0.866  1.6638  1.9585  1.0142
 7044SOL     OW32767   0.803   0.537   2.564  0.3869  0.3909  0.5190
 7044SOL    HW132768   0.719   0.583   2.569  0.8755  1.1089  2.2803
 7044SOL    HW232769   0.821   0.536   2.658 -1.5653  0.9623  0.9073
 7045SOL     OW32770   2.024   0.305   2.096  0.1439  0.3002 -0.3521
 7045SOL    HW132771   2.102   0.283   2.045 -0.6080  1.4124 -1.9576
 7045SOL    HW232772   1.951   0.295   2.035 -0.7198  0.6207  0.6192
 7046SOL     OW32773   0.862   1.813   5.182  0.2240 -0.2190 -0.0565
 7046SOL    HW132774   0.930   1.839   5.245 -0.3198  1.4366 -0.1664
 7046SOL    HW232775   0.818   1.749   5.238  1.6758  1.3300  2.8897
 7047SOL     OW32776   1.989   1.863   4.657  0.2461 -0.2544 -0.5067
 7047SOL    HW132777   2.084   1.867   4.671  0.3566 -0.0982 -1.3144
 7047SOL    HW232778   1.986   1.940   4.600 -1.2860  2.3059  3.0863
 7048SOL     OW32779   2.779   3.355   1.644  0.0658  0.3514 -0.4683
 7048SOL    HW132780   2.856   3.388   1.689  0.8262  0.2041 -1.6666
 7048SOL    HW232781   2.795   3.263   1.666 -2.2971  0.7224  2.7799
 7049SOL     OW32782   3.966   1.773   9.363 -0.1150  0.5940  0.2458
 7049SOL    HW132783   3.931   1.721   9.435  0.5384  0.1140  0.2238
 7049SOL    HW232784   3.897   1.776   9.297  0.3270 -0.9334 -0.3033
 7050SOL     OW32785   1.716   2.579  12.978 -0.1838  0.4749 -0.4980
 7050SOL    HW132786   1.768   2.503  12.950 -0.9827 -0.2208 -0.0882
 7050SOL    HW232787   1.686   2.601  12.890 -0.2913  0.1678 -0.5402
 7051SOL     OW32788   1.169   3.139   9.637 -0.0702 -0.1222  0.3925
 7051SOL    HW132789   1.218   3.180   9.565  0.2593 -1.7282 -0.2914
 7051SOL    HW232790   1.118   3.210   9.677 -0.4164 -0.6452  0.8724
 7052SOL     OW32791   2.862   1.105   4.888 -0.2541 -0.4333  0.4372
 7052SOL    HW132792   2.796   1.125   4.822  0.4160 -0.5525 -0.2668
 7052SOL    HW232793   2.825   1.025   4.926  0.1367 -0.2625  1.1841
 7053SOL     OW32794   2.991   1.209  14.666  0.3005  0.0392  0.4456
 7053SOL    HW132795   3.051   1.168  14.729 -0.0257 -1.4582 -0.2216
 7053SOL    HW232796   3.035   1.218  14.582 -5.2984  4.2269 -2.0193
 7054SOL     OW32797   2.012   1.861  11.856 -0.7708 -0.2051 -0.0057
 7054SOL    HW132798   2.065   1.814  11.920  0.7673  1.9583  0.3285
 7054SOL    HW232799   1.939   1.903  11.902  0.1019 -0.3826  1.5174
 7055SOL     OW32800   2.397   3.233  12.772 -0.2160 -0.1182 -0.1920
 7055SOL    HW132801   2.428   3.314  12.811 -0.7836  0.2811 -0.5814
 7055SOL    HW232802   2.326   3.213  12.833 -0.6547 -1.9300 -1.2915
 7056SOL     OW32803   3.566   3.420  10.945  0.6593 -0.2395  0.1322
 7056SOL    HW132804   3.654   3.406  10.981  1.6110  0.6972 -1.8794
 7056SOL    HW232805   3.576   3.396  10.854 -0.8151 -1.2452  0.2403
 7057SOL     OW32806   3.154   0.768   6.546  0.3563 -0.3032 -0.3757
 7057SOL    HW132807   3.178   0.683   6.582 -2.6108 -1.2034 -0.5239
 7057SOL    HW232808   3.145   0.817   6.628  0.1162  1.5509 -1.5197
 7058SOL     OW32809   3.131   0.012   9.436 -0.2714  0.2710  0.4554
 7058SOL    HW132810   3.133   0.096   9.391  0.2031 -0.2586 -0.5265
 7058SOL    HW232811   3.223   4.725   9.452  0.1526  1.2640 -0.6423
 7059SOL     OW32812   2.018   2.265   8.971  0.4923  0.5341  0.0187
 7059SOL    HW132813   2.023   2.173   8.994  0.2602  1.2523  2.8610
 7059SOL    HW232814   1.954   2.292   9.037 -0.5477 -1.1286 -0.2913
 7060SOL     OW32815   0.470   2.389  16.301  0.0587 -0.1717  0.0173
 7060SOL    HW132816   0.421   2.453  16.249 -0.7660 -0.0706  0.9034
 7060SOL    HW232817   0.523   2.457  16.343 -0.1123 -0.1513  0.2057
 7061SOL     OW32818   2.383   1.905   1.800  0.2594  0.0216  0.4771
 7061SOL    HW132819   2.448   1.894   1.731 -1.0039  0.1984 -0.7498
 7061SOL    HW232820   2.329   1.831   1.771  1.2214 -0.3149 -0.4704
 7062SOL     OW32821   4.333   4.012   4.569 -0.3794  0.2196 -0.0761
 7062SOL    HW132822   4.290   3.935   4.608  0.8701 -0.4532 -0.0422
 7062SOL    HW232823   4.399   3.972   4.514 -1.8211 -4.0243  1.2702
 7063SOL     OW32824   4.521   2.240   7.717  0.3694  0.1638  0.0238
 7063SOL    HW132825   4.483   2.264   7.802  1.2177 -0.3598  0.5510
 7063SOL    HW232826   4.470   2.161   7.701 -2.0101  1.3385  1.7056
 7064SOL     OW32827   1.244   0.460   9.047 -0.5588  0.6608  0.1518
 7064SOL    HW132828   1.151   0.444   9.064 -0.1772 -1.8977 -0.2702
 7064SOL    HW232829   1.278   0.377   9.015 -0.3110  0.5166  0.7882
 7065SOL     OW32830   0.449   2.159  17.198 -0.2710 -0.1760  0.5211
 7065SOL    HW132831   0.378   2.220  17.181 -1.6582 -2.1107 -0.5811
 7065SOL    HW232832   0.453   2.119  17.111  1.3313 -2.1861  1.5151
 7066SOL     OW32833   0.329   3.936   7.756 -0.0200 -0.3517  0.3862
 7066SOL    HW132834   0.312   3.855   7.804 -1.0260  1.2152  2.6614
 7066SOL    HW232835   0.332   3.888   7.673  1.9801  1.9175 -0.8425
 7067SOL     OW32836   2.986   4.655   7.437  0.3018 -0.1962 -0.1235
 7067SOL    HW132837   2.991   4.734   7.383  2.4197  1.0513  1.9425
 7067SOL    HW232838   2.905   4.683   7.479  0.7013  0.6595  0.0575
 7068SOL     OW32839   4.168   0.509   8.517  0.3422  0.0470  0.1265
 7068SOL    HW132840   4.112   0.449   8.567  0.7192  0.5132  1.1090
 7068SOL    HW232841   4.133   0.594   8.541 -2.0873 -0.4407 -1.7333
 7069SOL     OW32842   1.686   4.113   2.792 -0.3605 -0.5145 -0.6888
 7069SOL    HW132843   1.738   4.043   2.754  0.7447  1.6268 -3.0771
 7069SOL    HW232844   1.652   4.068   2.870 -0.3032 -0.7651 -0.8102
 7070SOL     OW32845   1.850   1.723   9.520  0.0698  0.2795  0.8319
 7070SOL    HW132846   1.933   1.709   9.474 -0.4772  0.8937 -0.3314
 7070SOL    HW232847   1.809   1.639   9.501 -0.5145  0.3777  1.6459
 7071SOL     OW32848   2.547   1.872   3.352  0.0504 -0.3413 -0.4957
 7071SOL    HW132849   2.508   1.885   3.265  0.3367  2.8525 -0.1590
 7071SOL    HW232850   2.513   1.785   3.372  2.3934 -1.0075  0.5835
 7072SOL     OW32851   2.505   1.990   8.640 -0.0538 -0.0148 -0.1944
 7072SOL    HW132852   2.491   2.066   8.585  2.3655  1.4899  1.2704
 7072SOL    HW232853   2.532   2.026   8.725  2.6897  0.8525 -1.4199
 7073SOL     OW32854   3.513   0.662   5.226  0.1975 -0.9070  0.1653
 7073SOL    HW132855   3.471   0.579   5.249  1.1059 -1.5029 -0.3036
 7073SOL    HW232856   3.448   0.708   5.173  1.2168 -0.3148 -0.5759
 7074SOL     OW32857   3.898   2.095   5.055 -0.3424 -0.0201 -0.1923
 7074SOL    HW132858   3.978   2.148   5.055 -0.6116  0.3747  0.9862
 7074SOL    HW232859   3.932   2.009   5.082 -0.5372  0.5967  2.0261
 7075SOL     OW32860   3.120   0.879   5.704  0.4701  0.2395  0.0479
 7075SOL    HW132861   3.106   0.945   5.772  0.2158 -0.0529  0.2791
 7075SOL    HW232862   3.125   0.929   5.623  0.0700  0.6956  0.2992
 7076SOL     OW32863   1.976   0.037   4.802 -1.1636  0.3749  0.3447
 7076SOL    HW132864   1.939   4.684   4.794  1.3286 -0.7605  1.3115
 7076SOL    HW232865   1.914   0.079   4.861 -0.8554 -0.2797  1.1327
 7077SOL     OW32866   2.499   4.373   8.548  0.5839  0.0652  0.6251
 7077SOL    HW132867   2.417   4.325   8.548  1.1144 -0.8318  0.7791
 7077SOL    HW232868   2.551   4.340   8.475  1.3358  0.8277  0.8180
 7078SOL     OW32869   1.445   3.503  11.483 -0.3006  0.2393  0.2630
 7078SOL    HW132870   1.471   3.411  11.485 -0.7422  0.0724 -1.4252
 7078SOL    HW232871   1.349   3.504  11.476 -0.4370  1.7093  2.2379
 7079SOL     OW32872   3.851   1.362   8.356 -0.2694  0.3993 -0.4321
 7079SOL    HW132873   3.759   1.357   8.383 -0.2163 -2.7205 -0.8450
 7079SOL    HW232874   3.896   1.311   8.423 -0.0914  2.6030  1.1466
 7080SOL     OW32875   1.838   0.738   4.332 -0.3041 -0.0659 -0.2166
 7080SOL    HW132876   1.811   0.830   4.343  0.0014 -0.0424  0.3221
 7080SOL    HW232877   1.802   0.727   4.244  0.8901  1.1039 -0.8497
 7081SOL     OW32878   2.744   2.074   0.320 -0.1988 -0.3593  0.1106
 7081SOL    HW132879   2.667   2.069   0.264  0.4837  0.0267 -0.8548
 7081SOL    HW232880   2.758   2.167   0.336  1.7952 -0.1948 -2.6689
 7082SOL     OW32881   2.422   0.458   5.592  0.0999  0.4527 -0.2188
 7082SOL    HW132882   2.504   0.488   5.631  0.2324  0.7062 -0.7017
 7082SOL    HW232883   2.357   0.512   5.637  0.0434  0.1653  0.0481
 7083SOL     OW32884   3.698   3.417   1.932 -0.0173  0.3234  0.5055
 7083SOL    HW132885   3.688   3.507   1.903 -0.6415  0.2447  0.4849
 7083SOL    HW232886   3.698   3.365   1.852 -0.5266 -0.7332  1.1906
 7084SOL     OW32887   3.062   4.059   9.171  0.0866 -0.2614  0.1524
 7084SOL    HW132888   3.081   4.128   9.234  0.7368  0.7014 -1.0970
 7084SOL    HW232889   3.108   3.985   9.210 -1.4651 -1.1637  0.2594
 7085SOL     OW32890   0.489   0.510   1.457 -0.0225 -0.0868 -0.0240
 7085SOL    HW132891   0.422   0.545   1.398  1.0327  1.4437 -0.3293
 7085SOL    HW232892   0.492   0.419   1.427  0.0719 -0.4036  0.9580
 7086SOL     OW32893   3.639   2.495  12.168  0.0516  0.3569 -0.1102
 7086SOL    HW132894   3.571   2.552  12.134  0.9899  0.5876 -1.6228
 7086SOL    HW232895   3.712   2.538  12.123 -0.5341  1.3287 -0.1303
 7087SOL     OW32896   2.914   3.752   4.921 -0.7403  0.0228 -0.0827
 7087SOL    HW132897   2.828   3.713   4.902 -1.5073  2.5591 -1.9492
 7087SOL    HW232898   2.935   3.772   4.830  0.7307  0.2504  0.3135
 7088SOL     OW32899   4.379   3.470   4.426  0.8765  0.1377 -0.0494
 7088SOL    HW132900   4.459   3.508   4.390  0.9428 -1.2468 -1.3375
 7088SOL    HW232901   4.401   3.378   4.419 -0.9229 -0.2558 -0.5854
 7089SOL     OW32902   3.689   2.268   5.026  0.5016 -0.2184  0.3766
 7089SOL    HW132903   3.636   2.214   4.967  0.7419 -0.6982  0.5999
 7089SOL    HW232904   3.748   2.196   5.051 -1.9659 -2.2737  0.2597
 7090SOL     OW32905   4.512   3.133  11.599 -0.6028 -0.4677  0.3798
 7090SOL    HW132906   4.567   3.080  11.657 -1.0931 -0.2216  1.0563
 7090SOL    HW232907   4.521   3.213  11.651  1.3585 -0.3211 -0.1660
 7091SOL     OW32908   3.066   3.653   8.273  0.0109 -0.4041  0.2874
 7091SOL    HW132909   3.115   3.612   8.202  0.9231 -1.3369  1.4666
 7091SOL    HW232910   2.986   3.602   8.286  0.8014 -1.6698  0.1407
 7092SOL     OW32911   4.379   0.032  10.011  0.1626 -0.4137 -0.3859
 7092SOL    HW132912   4.399   0.122  10.037 -0.0419 -1.0223  1.8474
 7092SOL    HW232913   4.471   0.012   9.994  1.1913  3.5094  0.5323
 7093SOL     OW32914   2.341   4.080   7.593  0.3284  0.0032  0.6998
 7093SOL    HW132915   2.356   3.988   7.570  0.1464  0.0828  0.2595
 7093SOL    HW232916   2.406   4.095   7.661  1.4572 -1.0680 -0.1546
 7094SOL     OW32917   1.314   2.380   1.160 -0.3963  0.7001 -0.3891
 7094SOL    HW132918   1.284   2.465   1.194  1.1333  1.2931 -0.5052
 7094SOL    HW232919   1.317   2.394   1.066 -0.5328 -0.6553 -0.5990
 7095SOL     OW32920   1.211   1.994  15.002 -0.1804  0.4003  1.2450
 7095SOL    HW132921   1.257   2.023  15.080  0.3868  1.3249  0.5622
 7095SOL    HW232922   1.139   2.057  15.009 -0.0433  0.6513  0.3938
 7096SOL     OW32923   4.460   4.550   6.982  0.3324  0.4435 -0.3284
 7096SOL    HW132924   4.456   4.556   7.078  0.8474  0.4479 -0.3051
 7096SOL    HW232925   4.401   4.478   6.960 -1.2304  1.0606  1.8193
 7097SOL     OW32926   4.198   0.982  11.382 -0.1442 -0.0066 -0.2675
 7097SOL    HW132927   4.277   0.971  11.435  0.6214 -1.9057 -1.7875
 7097SOL    HW232928   4.129   0.948  11.438  1.2633 -0.7470  1.0130
 7098SOL     OW32929   3.468   4.657   4.180  0.2077  0.3135  0.5457
 7098SOL    HW132930   3.411   4.708   4.122  1.3290  1.3807  0.3879
 7098SOL    HW232931   3.551   4.702   4.164  0.1828  0.0061 -0.5160
 7099SOL     OW32932   1.673   1.363   8.203 -0.1358 -0.5553  0.5757
 7099SOL    HW132933   1.651   1.295   8.140 -0.0724 -0.9369  0.9674
 7099SOL    HW232934   1.633   1.340   8.287  0.6824 -0.5350  0.9753
 7100SOL     OW32935   2.101   2.040   1.103  0.3447  0.6561 -0.4250
 7100SOL    HW132936   2.080   1.947   1.102  2.8743  0.0945  0.2579
 7100SOL    HW232937   2.126   2.046   1.011  1.9560  3.1112  0.1801
 7101SOL     OW32938   2.130   3.375   2.133 -0.1203 -0.0754 -0.4791
 7101SOL    HW132939   2.196   3.352   2.068 -1.1198 -1.4757 -0.9800
 7101SOL    HW232940   2.172   3.357   2.218  1.0311  2.1778 -0.5801
 7102SOL     OW32941   0.166   0.257   4.204  0.4029  0.2012 -0.3197
 7102SOL    HW132942   0.135   0.306   4.280  0.3848 -0.1932 -0.0790
 7102SOL    HW232943   0.109   0.298   4.138 -0.3014  0.2378  0.3197
 7103SOL     OW32944   4.047   0.911   2.431 -0.1689  0.2875 -0.0591
 7103SOL    HW132945   4.139   0.917   2.406  0.2391 -0.3215  1.3135
 7103SOL    HW232946   4.035   0.999   2.467  0.4532  1.3206 -2.3381
 7104SOL     OW32947   4.686   2.969  11.806 -0.4821 -0.3939 -1.0748
 7104SOL    HW132948   4.691   3.030  11.880 -0.1749 -2.0356  0.2522
 7104SOL    HW232949   0.036   2.926  11.802 -0.4671 -0.4309 -0.4309
 7105SOL     OW32950   0.544   3.127   3.745  0.6598  0.0471 -0.0265
 7105SOL    HW132951   0.586   3.133   3.831  2.1033  2.0265 -0.8651
 7105SOL    HW232952   0.620   3.104   3.692 -0.4608  1.1770 -2.0910
 7106SOL     OW32953   0.929   2.205   0.717  0.4374 -0.1045 -0.1146
 7106SOL    HW132954   0.896   2.259   0.645 -1.2799 -0.8022  0.1294
 7106SOL    HW232955   0.844   2.165   0.737 -0.4938  2.6176  1.3707
 7107SOL     OW32956   1.254   2.265  14.311  0.6782  0.0986  0.4320
 7107SOL    HW132957   1.316   2.328  14.275 -1.9958  1.8474 -1.1502
 7107SOL    HW232958   1.281   2.262  14.403  2.0214  0.8348  0.0635
 7108SOL     OW32959   2.677   4.520   3.876  0.4940 -0.1471 -0.6635
 7108SOL    HW132960   2.767   4.492   3.860  0.8961 -1.1900  3.4367
 7108SOL    HW232961   2.691   4.606   3.916 -0.7785  0.0629 -0.6601
 7109SOL     OW32962   0.587   1.846   7.901 -0.3606  0.2713  0.1604
 7109SOL    HW132963   0.501   1.840   7.861 -0.4374  1.4422  0.1551
 7109SOL    HW232964   0.654   1.803   7.848  1.9176  0.5771  2.7935
 7110SOL     OW32965   1.727   0.555  17.570 -0.4462  0.1038  0.1517
 7110SOL    HW132966   1.706   0.603  17.490  0.2753  0.1921  0.0164
 7110SOL    HW232967   1.775   0.480  17.535 -1.9542  0.7209 -3.2214
 7111SOL     OW32968   0.797   2.793  12.924  0.1594 -0.1619 -0.1634
 7111SOL    HW132969   0.824   2.884  12.938  2.7549 -1.4494  3.0841
 7111SOL    HW232970   0.811   2.775  12.831  0.8243 -1.2396  0.1450
 7112SOL     OW32971   4.621   2.913   4.954  0.5695 -0.4408  0.2367
 7112SOL    HW132972   4.537   2.868   4.950 -0.0492  0.5249  2.3167
 7112SOL    HW232973   4.680   2.841   4.976  0.5156 -0.4975  0.1935
 7113SOL     OW32974   1.068   0.281  11.633 -0.1979 -0.2769  0.1975
 7113SOL    HW132975   1.044   0.259  11.724  0.4689 -1.5556  0.0644
 7113SOL    HW232976   1.161   0.258  11.636 -0.2701 -0.6386 -0.4933
 7114SOL     OW32977   0.715   0.537   6.778  0.1741  0.2153  0.1112
 7114SOL    HW132978   0.705   0.531   6.873 -0.6699 -0.6153 -0.0261
 7114SOL    HW232979   0.797   0.587   6.772  0.2087  0.0577 -0.8458
 7115SOL     OW32980   2.434   1.536   2.264 -0.4047 -0.2004  0.9224
 7115SOL    HW132981   2.342   1.545   2.287  0.0006 -0.8533  2.7680
 7115SOL    HW232982   2.430   1.546   2.169 -1.9457  0.3074  1.0517
 7116SOL     OW32983   1.499   2.422   5.583  0.6405 -0.0234 -0.3545
 7116SOL    HW132984   1.425   2.420   5.523 -1.4614 -0.3329  2.2109
 7116SOL    HW232985   1.503   2.331   5.611 -0.4903  0.2409  0.6596
 7117SOL     OW32986   2.862   1.957   5.099  0.3167  0.0075  0.1588
 7117SOL    HW132987   2.871   1.896   5.026  0.6124 -0.4263  0.5616
 7117SOL    HW232988   2.791   1.913   5.146  0.3956 -0.1503  0.1311
 7118SOL     OW32989   0.430   2.619   3.574 -0.1779  0.2177  0.4849
 7118SOL    HW132990   0.516   2.632   3.536 -0.2623 -0.2204  0.1393
 7118SOL    HW232991   0.401   2.707   3.598 -0.6774 -0.1467  1.2080
 7119SOL     OW32992   3.619   4.482   8.101  0.2249  0.5836  0.3776
 7119SOL    HW132993   3.697   4.535   8.084  1.1129 -0.8540 -0.0707
 7119SOL    HW232994   3.584   4.469   8.012 -0.7719  1.3037  0.6654
 7120SOL     OW32995   1.508   1.819  14.652  0.5475 -0.0289 -0.5906
 7120SOL    HW132996   1.421   1.840  14.685  0.7317  0.2753 -0.2941
 7120SOL    HW232997   1.543   1.903  14.620  0.7279 -0.6593 -2.0524
 7121SOL     OW32998   3.200   3.859   8.370  0.1167 -0.2250 -0.0191
 7121SOL    HW132999   3.132   3.809   8.324  1.5922 -0.1184 -2.3361
 7121SOL    HW233000   3.174   3.855   8.462 -0.6680 -2.2187 -0.3246
 7122SOL     OW33001   1.906   2.170   1.718 -0.1451 -0.3113  0.3492
 7122SOL    HW133002   1.966   2.244   1.725  0.3834 -0.5418 -1.8961
 7122SOL    HW233003   1.854   2.189   1.640 -0.4458  0.9356  0.8444
 7123SOL     OW33004   3.319   1.996   5.030 -0.5838  0.3018  0.7515
 7123SOL    HW133005   3.315   1.908   4.994 -1.8042  0.8135 -0.3801
 7123SOL    HW233006   3.331   1.971   5.121 -0.2390 -1.2068  0.2860
 7124SOL     OW33007   2.591   0.203   4.648  0.4498 -0.1063 -0.1075
 7124SOL    HW133008   2.540   0.157   4.714 -1.2229 -1.7263 -2.4983
 7124SOL    HW233009   2.514   0.237   4.603 -0.3570 -0.5349  0.9491
 7125SOL     OW33010   2.493   2.603   5.183 -0.2956 -0.2235 -0.6542
 7125SOL    HW133011   2.505   2.634   5.273 -0.1412  1.8666 -1.3894
 7125SOL    HW233012   2.573   2.551   5.177 -0.9007 -1.3851  1.2223
 7126SOL     OW33013   1.937   1.022   6.862  0.4880 -0.5567 -0.1878
 7126SOL    HW133014   1.913   1.084   6.931  2.8994 -0.8103  0.8797
 7126SOL    HW233015   1.990   0.963   6.915 -0.5987 -2.1345 -0.8515
 7127SOL     OW33016   4.289   3.878  13.475  0.3836 -0.1854  0.7616
 7127SOL    HW133017   4.336   3.928  13.408 -0.1656  0.6732  1.0138
 7127SOL    HW233018   4.239   3.823  13.414  2.4479 -1.0545 -0.1513
 7128SOL     OW33019   1.948   2.278   9.623  0.2997 -0.0899  0.4710
 7128SOL    HW133020   2.038   2.305   9.604 -0.0133 -0.3352 -1.3067
 7128SOL    HW233021   1.961   2.229   9.704  1.0344  1.1519  1.1155
 7129SOL     OW33022   3.588   0.217  14.384 -0.1696 -0.2672  0.3269
 7129SOL    HW133023   3.606   0.309  14.364 -1.3528 -0.3908 -1.3294
 7129SOL    HW233024   3.493   0.222  14.398 -0.5600  1.3707 -2.8656
 7130SOL     OW33025   0.558   2.620   6.426  0.3588 -0.3628 -0.0938
 7130SOL    HW133026   0.550   2.684   6.497  1.0347 -1.6212  1.1139
 7130SOL    HW233027   0.471   2.611   6.389 -0.1588 -0.0972  1.0581
 7131SOL     OW33028   1.779   3.112   8.108 -0.2584 -0.4513 -0.2160
 7131SOL    HW133029   1.738   3.159   8.181 -0.4561  0.2305 -0.7666
 7131SOL    HW233030   1.831   3.049   8.159 -1.4212  0.0039  1.5398
 7132SOL     OW33031   0.227   4.550   5.166  0.1117  0.3889  0.0409
 7132SOL    HW133032   0.223   4.554   5.070 -1.3502  1.3162  0.1332
 7132SOL    HW233033   0.208   4.643   5.181 -2.9053  0.2303 -2.9045
 7133SOL     OW33034   0.219   3.871   7.249  0.2705 -0.2479 -0.2125
 7133SOL    HW133035   0.167   3.921   7.313  2.3906 -0.8426  1.9711
 7133SOL    HW233036   0.158   3.802   7.221 -0.9402  0.4719  0.6306
 7134SOL     OW33037   1.449   4.299   1.644 -0.4870  0.2547 -0.4613
 7134SOL    HW133038   1.493   4.306   1.729 -2.3857 -1.6920  0.6813
 7134SOL    HW233039   1.499   4.347   1.578 -0.7467 -0.0870 -0.9040
 7135SOL     OW33040   4.566   4.490   6.155  0.1269  0.3735 -0.3645
 7135SOL    HW133041   4.634   4.516   6.218 -0.1050  0.6422 -0.2268
 7135SOL    HW233042   4.578   4.396   6.147 -1.3492  0.0897  0.8082
 7136SOL     OW33043   1.028   3.209   2.981 -0.0021 -0.1604  0.3742
 7136SOL    HW133044   0.958   3.242   2.925 -0.3019 -0.6626  0.4627
 7136SOL    HW233045   1.015   3.115   2.985  1.1088 -0.3638 -0.7048
 7137SOL     OW33046   3.251   3.689   4.680  0.2757 -0.0643  0.4976
 7137SOL    HW133047   3.171   3.733   4.706 -0.1552 -0.8502  0.5021
 7137SOL    HW233048   3.239   3.598   4.707  0.1806 -0.0023  0.6611
 7138SOL     OW33049   2.501   1.172   7.161 -0.0595 -0.5690  0.3052
 7138SOL    HW133050   2.464   1.127   7.236  1.6036 -2.8156 -0.2280
 7138SOL    HW233051   2.447   1.251   7.156 -0.5583 -0.8719  0.9293
 7139SOL     OW33052   2.418   3.491  14.533 -0.6973 -0.3048 -0.1198
 7139SOL    HW133053   2.496   3.509  14.585 -0.7452 -1.3788  0.3137
 7139SOL    HW233054   2.349   3.474  14.597  0.1972  0.2994  1.0096
 7140SOL     OW33055   2.886   2.559  13.808  0.3139  0.3379  0.4611
 7140SOL    HW133056   2.961   2.617  13.814 -0.9121  1.5748  3.7421
 7140SOL    HW233057   2.830   2.621  13.855 -0.9461  1.0632 -1.9818
 7141SOL     OW33058   1.775   2.237   8.270 -0.5950  0.7135  0.2135
 7141SOL    HW133059   1.802   2.200   8.354  1.2233  1.1431 -0.1682
 7141SOL    HW233060   1.861   2.253   8.232 -0.9774 -1.5586 -1.5566
 7142SOL     OW33061   2.458   1.631  12.019 -0.4189  0.5638 -0.1511
 7142SOL    HW133062   2.513   1.565  11.977 -0.6469 -0.5535  1.2898
 7142SOL    HW233063   2.501   1.713  11.993 -2.0534  1.0616 -1.2695
 7143SOL     OW33064   4.519   2.352   8.901  0.1758 -0.3221 -1.0281
 7143SOL    HW133065   4.516   2.271   8.952  1.0222 -0.1927 -0.7728
 7143SOL    HW233066   4.590   2.399   8.945  0.6510 -1.7260 -0.3007
 7144SOL     OW33067   3.673   4.346  14.114  0.1975 -0.2095  0.8029
 7144SOL    HW133068   3.668   4.266  14.166  0.7835 -1.3144 -0.8536
 7144SOL    HW233069   3.701   4.402  14.186  1.8106  0.3127 -0.2405
 7145SOL     OW33070   2.343   3.156  10.162 -0.5923 -0.0534 -0.7239
 7145SOL    HW133071   2.433   3.130  10.181 -0.3632  1.3715  0.1708
 7145SOL    HW233072   2.328   3.157  10.067 -1.1659 -0.8594 -0.6432
 7146SOL     OW33073   1.671   0.145  11.004 -0.6525  0.8011 -0.3605
 7146SOL    HW133074   1.733   0.073  11.016 -1.0644  0.3315 -1.0946
 7146SOL    HW233075   1.725   0.219  11.034 -0.4799  0.3602  0.4305
 7147SOL     OW33076   0.119   2.038  12.729  0.3273 -0.1851 -0.3299
 7147SOL    HW133077   0.043   2.016  12.674 -0.4547 -1.2319  1.1647
 7147SOL    HW233078   0.080   2.101  12.790  0.4440 -0.5886  0.1625
 7148SOL     OW33079   2.609   1.553   1.322  0.4809 -0.1550  0.3937
 7148SOL    HW133080   2.640   1.544   1.412 -0.5286  1.1366  0.8536
 7148SOL    HW233081   2.624   1.644   1.300 -2.3686 -0.0415 -1.1263
 7149SOL     OW33082   1.979   1.043   5.487  0.4327  0.3332 -0.2562
 7149SOL    HW133083   2.065   1.073   5.515  0.6266 -0.7495  0.3225
 7149SOL    HW233084   1.982   1.019   5.395 -0.7890 -1.5576  0.1883
 7150SOL     OW33085   1.023   2.566   7.063  0.2652 -0.4010 -0.2356
 7150SOL    HW133086   0.939   2.584   7.020 -0.9395 -0.7055  1.9837
 7150SOL    HW233087   1.074   2.569   6.982 -2.3466  0.5174 -1.8747
 7151SOL     OW33088   2.387   4.321   6.537  0.6855  0.5386 -0.1020
 7151SOL    HW133089   2.342   4.283   6.461  1.4860 -1.8113  0.5898
 7151SOL    HW233090   2.443   4.387   6.497  2.0467 -1.1690 -1.0528
 7152SOL     OW33091   3.956   3.534   8.478 -0.3846  0.0109  0.1335
 7152SOL    HW133092   3.939   3.599   8.409  2.0320  0.3184 -0.1675
 7152SOL    HW233093   3.959   3.599   8.548 -1.6267  0.3577 -0.1320
 7153SOL     OW33094   2.108   2.452  10.181 -0.5138 -0.4138 -0.2187
 7153SOL    HW133095   2.202   2.468  10.191 -0.4390 -1.5249  0.7557
 7153SOL    HW233096   2.090   2.487  10.093 -2.2073  1.9060  1.0636
 7154SOL     OW33097   1.715   0.858   1.919  0.4779 -0.1480 -0.0241
 7154SOL    HW133098   1.727   0.826   2.009 -0.0884  1.8183  0.7719
 7154SOL    HW233099   1.758   0.788   1.872 -0.3608 -1.2541  0.8622
 7155SOL     OW33100   1.801   1.449   5.597 -0.3861 -0.1340 -0.5074
 7155SOL    HW133101   1.793   1.522   5.659  0.9122  1.3966 -2.1560
 7155SOL    HW233102   1.853   1.491   5.528 -0.9042  0.9651 -0.2400
 7156SOL     OW33103   4.007   0.522   3.599  0.6161 -0.4143  0.4384
 7156SOL    HW133104   3.987   0.447   3.543 -0.1890 -0.5056  0.8553
 7156SOL    HW233105   4.101   0.526   3.577  0.4808  0.6502  0.0494
 7157SOL     OW33106   4.479   4.205   9.424  0.0423 -0.0363  0.1812
 7157SOL    HW133107   4.491   4.204   9.329  0.4911 -2.7856  0.2704
 7157SOL    HW233108   4.456   4.114   9.443  0.6747  0.2559  2.3305
 7158SOL     OW33109   2.876   1.458   7.360 -0.2156 -0.0530 -0.0437
 7158SOL    HW133110   2.830   1.392   7.308 -1.3396  1.8220 -1.3898
 7158SOL    HW233111   2.807   1.499   7.411  2.2000  0.1736  3.0215
 7159SOL     OW33112   1.521   2.938   7.764  0.2203  0.0631 -0.7065
 7159SOL    HW133113   1.557   2.861   7.807 -1.6199 -0.3632  0.1084
 7159SOL    HW233114   1.527   2.908   7.673 -1.8477 -0.6026 -0.6319
 7160SOL     OW33115   1.168   2.691   3.080 -0.3072 -0.3883  0.4294
 7160SOL    HW133116   1.213   2.629   3.136  0.9512  1.5646  1.5643
 7160SOL    HW233117   1.141   2.635   3.007  1.0057 -0.3829 -0.0562
 7161SOL     OW33118   1.687   2.365   2.941 -0.5151  0.2977 -0.8948
 7161SOL    HW133119   1.644   2.448   2.959  0.5210  1.2455 -2.7713
 7161SOL    HW233120   1.653   2.345   2.853 -0.6744 -0.4523 -0.6686
 7162SOL     OW33121   0.075   0.428   4.408 -0.1645 -0.6514 -0.2684
 7162SOL    HW133122   4.722   0.407   4.438 -0.0316 -2.0517 -0.8553
 7162SOL    HW233123   0.056   0.512   4.365 -2.4469 -1.3813 -0.6799
 7163SOL     OW33124   1.174   3.568   5.776 -0.6895 -0.1194  0.2634
 7163SOL    HW133125   1.166   3.543   5.684  0.1265  3.0941 -0.6720
 7163SOL    HW233126   1.263   3.603   5.777 -0.7177 -0.0387  0.0380
 7164SOL     OW33127   4.534   3.883   6.899 -0.3003  0.4943 -0.3455
 7164SOL    HW133128   4.455   3.835   6.873 -0.8142  1.4469 -0.5417
 7164SOL    HW233129   4.530   3.857   6.991 -0.6836  1.5217 -0.0697
 7165SOL     OW33130   3.779   0.959  13.204 -0.2842  0.6326  0.0497
 7165SOL    HW133131   3.713   0.915  13.257  0.1435  0.5210  0.4911
 7165SOL    HW233132   3.856   0.937  13.256 -1.8768  0.3446  2.2746
 7166SOL     OW33133   1.609   4.625   1.657  0.1515  0.0423  0.0796
 7166SOL    HW133134   1.599   4.708   1.609 -0.8327  0.2387  0.6152
 7166SOL    HW233135   1.519   4.594   1.649  0.4310 -0.8629  0.5053
 7167SOL     OW33136   4.328   0.007   8.693 -0.1503 -0.3091 -0.5140
 7167SOL    HW133137   4.327   4.731   8.788 -0.4241  1.5546 -0.2844
 7167SOL    HW233138   4.261   0.075   8.689  0.9451  0.7691 -0.4268
 7168SOL     OW33139   2.437   1.959  13.679 -0.3253  0.1645 -0.4076
 7168SOL    HW133140   2.393   1.907  13.612 -1.2279 -2.1371  1.9311
 7168SOL    HW233141   2.496   1.889  13.708 -0.6872 -0.1543 -0.4408
 7169SOL     OW33142   0.505   3.769   5.942  0.1839  0.0878 -0.4723
 7169SOL    HW133143   0.466   3.848   5.979 -0.0764 -1.0124  1.6404
 7169SOL    HW233144   0.511   3.792   5.849  1.1761  1.2820 -0.1051
 7170SOL     OW33145   4.646   2.991   3.240 -0.2474  0.0084  0.1768
 7170SOL    HW133146   4.643   2.973   3.333  3.5793 -3.1152 -0.3011
 7170SOL    HW233147   4.651   3.086   3.236 -1.7324  0.0542 -1.0856
 7171SOL     OW33148   3.771   2.594   3.142  0.3808 -0.2769 -0.1576
 7171SOL    HW133149   3.706   2.598   3.071 -1.0850 -1.5532  1.0962
 7171SOL    HW233150   3.737   2.670   3.188 -0.3496 -1.5504  1.4063
 7172SOL     OW33151   0.252   4.299   6.298 -0.1037  0.4059  0.0609
 7172SOL    HW133152   0.271   4.238   6.371 -1.9499 -0.0214  0.1716
 7172SOL    HW233153   0.279   4.383   6.337  1.8432 -0.4755  0.6434
 7173SOL     OW33154   3.535   4.466   1.237  0.2097 -0.2853  0.2779
 7173SOL    HW133155   3.538   4.502   1.325  0.3527  1.6797 -0.5409
 7173SOL    HW233156   3.607   4.507   1.190  1.1689  1.2490  3.1243
 7174SOL     OW33157   4.216   4.674   4.017 -0.3778 -0.1518 -0.0014
 7174SOL    HW133158   4.222   0.027   4.051  1.8680 -0.9623  1.7165
 7174SOL    HW233159   4.259   4.682   3.932  1.3423 -0.7023  0.8187
 7175SOL     OW33160   0.273   3.470   4.498 -0.2637  0.6703  0.0236
 7175SOL    HW133161   0.222   3.444   4.575  0.8059  0.4563  0.6607
 7175SOL    HW233162   0.319   3.388   4.478 -0.9128  0.5879 -1.1300
 7176SOL     OW33163   2.176   1.077   4.916 -0.4655  0.3583 -0.2642
 7176SOL    HW133164   2.204   1.093   4.825 -0.2432 -0.3207 -0.3191
 7176SOL    HW233165   2.082   1.095   4.907 -1.3186 -3.4484  1.1867
 7177SOL     OW33166   0.279   2.391   9.036  0.0193 -0.2449  0.1435
 7177SOL    HW133167   0.371   2.412   9.018  0.3975  0.6105  3.0494
 7177SOL    HW233168   0.230   2.469   9.010 -1.9164 -0.8161  2.0464
 7178SOL     OW33169   1.134   3.091   8.401  0.2343 -0.1822  0.0711
 7178SOL    HW133170   1.045   3.101   8.368 -0.2244  1.7771  1.8384
 7178SOL    HW233171   1.135   3.176   8.446 -1.4261 -1.0283  1.7018
 7179SOL     OW33172   2.519   2.219   1.660 -0.2520 -0.4293 -0.3201
 7179SOL    HW133173   2.530   2.258   1.746 -0.3733  0.3432 -0.6540
 7179SOL    HW233174   2.580   2.268   1.606 -0.5196 -3.7025 -3.6303
 7180SOL     OW33175   2.792   2.296  16.921 -0.4215  0.2024  0.6506
 7180SOL    HW133176   2.709   2.271  16.881 -0.1639  0.8235 -0.2496
 7180SOL    HW233177   2.796   2.388  16.895 -4.4376  0.4681  0.9394
 7181SOL     OW33178   2.361   1.707   1.271  0.6643 -0.4158  0.7641
 7181SOL    HW133179   2.286   1.730   1.215  0.4442  0.3356  1.3617
 7181SOL    HW233180   2.430   1.714   1.205 -0.2584  0.5641 -0.1038
 7182SOL     OW33181   0.716   0.958  10.147 -0.0003  0.3271  0.1313
 7182SOL    HW133182   0.751   0.957  10.058  0.1083  0.4377  0.1730
 7182SOL    HW233183   0.748   1.043  10.179 -1.2890  0.5119  0.9290
 7183SOL     OW33184   4.456   4.012   7.368  0.2999 -0.6353 -0.8047
 7183SOL    HW133185   4.431   4.104   7.370 -1.5300 -1.1697  0.7186
 7183SOL    HW233186   4.434   3.974   7.453  1.9506 -1.4244 -0.7219
 7184SOL     OW33187   2.378   0.699   5.125 -0.7464  0.4937  0.2325
 7184SOL    HW133188   2.413   0.787   5.142 -1.0245  0.7921 -0.7328
 7184SOL    HW233189   2.455   0.651   5.095 -0.3537  1.1143  0.2377
 7185SOL     OW33190   4.514   4.168   5.866  0.4996  0.0083  0.1434
 7185SOL    HW133191   4.425   4.150   5.836  0.0628  1.1209  0.7965
 7185SOL    HW233192   4.550   4.083   5.891  0.1300  0.4493  2.1734
 7186SOL     OW33193   2.445   3.528   2.090 -0.4004 -0.0635 -0.0023
 7186SOL    HW133194   2.439   3.437   2.059 -0.1417  0.2851 -1.0748
 7186SOL    HW233195   2.362   3.557   2.126 -0.8868 -1.2150 -0.1824
 7187SOL     OW33196   3.298   0.246   8.864 -0.4123  0.3626 -0.0616
 7187SOL    HW133197   3.220   0.239   8.918  0.2453 -0.1420  0.8300
 7187SOL    HW233198   3.373   0.276   8.915  1.1964 -1.3252 -1.4494
 7188SOL     OW33199   0.135   1.176   2.941  0.0740 -0.6427  0.2932
 7188SOL    HW133200   0.043   1.149   2.949 -0.0871 -0.0145  0.5050
 7188SOL    HW233201   0.132   1.260   2.986  0.1398  0.5133 -1.8561
 7189SOL     OW33202   0.324   4.678   8.239  0.1682  0.7631 -0.1949
 7189SOL    HW133203   0.277   4.679   8.155 -1.6640 -0.9028  0.7930
 7189SOL    HW233204   0.412   4.710   8.220 -0.1991  1.2933 -1.0260
 7190SOL     OW33205   3.382   4.495   5.240  0.2849  0.1997  0.0634
 7190SOL    HW133206   3.331   4.575   5.254 -1.3851 -0.5784 -1.5599
 7190SOL    HW233207   3.316   4.449   5.189 -0.4082 -0.9074  1.9519
 7191SOL     OW33208   3.898   0.271   6.268  0.6007  0.1606 -0.7298
 7191SOL    HW133209   3.875   0.245   6.179 -0.8860 -0.3068 -0.2187
 7191SOL    HW233210   3.830   0.336   6.283 -1.8162 -2.3157 -1.0025
 7192SOL     OW33211   0.967   0.140   2.094  0.2451 -0.3928  0.2622
 7192SOL    HW133212   0.873   0.127   2.102  0.1207 -0.1291 -0.8215
 7192SOL    HW233213   1.000   0.067   2.146  0.9334 -0.7793 -0.7239
 7193SOL     OW33214   1.817   3.918   3.747  0.0547  0.1812  0.5659
 7193SOL    HW133215   1.809   3.853   3.817  1.1940 -0.7130 -0.1252
 7193SOL    HW233216   1.724   3.939   3.739  0.1432 -0.7168 -2.8060
 7194SOL     OW33217   2.669   1.976   2.629  0.0127 -0.7066  0.5591
 7194SOL    HW133218   2.644   2.023   2.550  1.2815  0.4583  0.8546
 7194SOL    HW233219   2.740   1.935   2.579  1.2691  2.2773 -0.0648
 7195SOL     OW33220   1.865   2.615   9.019  0.3823  0.5696  0.3882
 7195SOL    HW133221   1.897   2.552   9.084  1.0852 -0.5412 -1.0318
 7195SOL    HW233222   1.778   2.581   8.999  0.2018  0.3037  1.5986
 7196SOL     OW33223   2.610   3.927   3.175  0.1702 -0.4639 -0.2845
 7196SOL    HW133224   2.589   4.008   3.128  1.2868  1.5681  2.7126
 7196SOL    HW233225   2.578   3.863   3.111 -0.4495  0.7323 -1.1621
 7197SOL     OW33226   1.652   2.407  14.868 -0.0366  0.2012 -0.2917
 7197SOL    HW133227   1.643   2.444  14.956  0.0309  2.9663 -1.4531
 7197SOL    HW233228   1.703   2.328  14.886  2.3255  1.5511 -1.0635
 7198SOL     OW33229   1.704   2.509   4.564 -0.2376  0.1585 -0.0870
 7198SOL    HW133230   1.671   2.577   4.505  0.2686  0.0246 -0.5161
 7198SOL    HW233231   1.659   2.432   4.529  0.8805 -1.2760  1.6293
 7199SOL     OW33232   0.599   1.641   6.337  0.3384  0.2985 -0.4007
 7199SOL    HW133233   0.568   1.731   6.322  1.6157  1.1463  1.9689
 7199SOL    HW233234   0.512   1.604   6.351  0.5796  0.2280  0.9215
 7200SOL     OW33235   2.354   1.424   7.119 -0.2148  0.2690  0.0839
 7200SOL    HW133236   2.259   1.434   7.109 -0.4004 -1.0873  0.6233
 7200SOL    HW233237   2.391   1.499   7.071  0.7810 -1.4797 -1.8785
 7201SOL     OW33238   4.016   4.610   5.685 -0.2859 -0.3734  0.4862
 7201SOL    HW133239   4.110   4.620   5.667  0.3859 -0.9819  3.7106
 7201SOL    HW233240   4.024   4.527   5.733 -0.3983 -0.7077 -0.0614
 7202SOL     OW33241   3.951   2.234   9.308 -0.2997 -0.1383 -0.0582
 7202SOL    HW133242   4.018   2.283   9.355  0.0979 -0.8080  0.0618
 7202SOL    HW233243   3.908   2.203   9.387 -0.8617 -0.0475 -0.3264
 7203SOL     OW33244   1.358   2.921   0.142 -0.0561 -0.3520 -0.0509
 7203SOL    HW133245   1.453   2.924   0.137 -0.0872  1.9205  0.8115
 7203SOL    HW233246   1.348   3.016   0.128 -0.9122 -0.6734 -1.7285
 7204SOL     OW33247   0.553   1.423   3.756 -0.0973  0.1417  0.0068
 7204SOL    HW133248   0.578   1.516   3.758 -1.2817  0.4999 -1.1436
 7204SOL    HW233249   0.634   1.378   3.778 -0.2618  0.4471  1.2473
 7205SOL     OW33250   4.006   0.609   1.341  0.0424 -0.3237  0.4412
 7205SOL    HW133251   4.020   0.667   1.416 -0.7127  0.4292  0.0035
 7205SOL    HW233252   4.031   0.527   1.382  3.6327  0.2914 -0.4761
 7206SOL     OW33253   0.280   0.004   1.663  0.0757 -0.1738  0.5400
 7206SOL    HW133254   0.256   0.060   1.737 -1.5478  0.0317 -0.1585
 7206SOL    HW233255   0.375   4.728   1.666  0.2641  0.6978 -2.0810
 7207SOL     OW33256   4.011   1.053   9.958  0.2750 -0.2491 -0.0392
 7207SOL    HW133257   3.999   1.143   9.989  1.4021 -0.0551 -0.1798
 7207SOL    HW233258   4.091   1.022  10.001 -0.6445 -0.2415  1.6765
 7208SOL     OW33259   0.972   1.273   4.652 -0.3825 -0.3904  0.1919
 7208SOL    HW133260   0.944   1.362   4.675  1.1859 -0.2085  1.4005
 7208SOL    HW233261   0.892   1.223   4.667 -1.3082  1.4929  1.6624
 7209SOL     OW33262   4.359   1.038   2.638  0.2243 -0.5325 -0.5898
 7209SOL    HW133263   4.354   0.995   2.553  0.1743 -0.7478 -0.4768
 7209SOL    HW233264   4.322   1.125   2.622  1.3165 -0.2477 -1.5740
 7210SOL     OW33265   3.617   2.840   7.097 -0.0261 -0.4188  0.0082
 7210SOL    HW133266   3.555   2.784   7.144 -0.9980  0.8119  0.1872
 7210SOL    HW233267   3.571   2.924   7.099  0.6439 -0.0527 -0.0180
 7211SOL     OW33268   0.468   0.684  11.882  0.2361  0.4882 -0.4121
 7211SOL    HW133269   0.458   0.589  11.883  0.4415  0.4715  0.1980
 7211SOL    HW233270   0.556   0.690  11.919 -0.4705  1.3486  1.1353
 7212SOL     OW33271   0.509   4.243   7.211  0.1688  0.0941  0.1341
 7212SOL    HW133272   0.476   4.244   7.121 -1.7235 -0.0949  0.8184
 7212SOL    HW233273   0.461   4.317   7.247 -2.0639 -1.7552  0.9454
 7213SOL     OW33274   1.634   1.194   3.418  0.0960  0.4287 -0.0589
 7213SOL    HW133275   1.706   1.131   3.427 -1.3848 -1.3800 -0.7628
 7213SOL    HW233276   1.562   1.132   3.405  0.0373  0.4574  0.1316
 7214SOL     OW33277   1.073   1.200  16.349  0.3354 -0.4573 -0.8495
 7214SOL    HW133278   1.140   1.207  16.281 -0.0361 -1.9477 -1.3427
 7214SOL    HW233279   1.125   1.166  16.422 -0.6583  2.9974  1.4662
 7215SOL     OW33280   2.377   4.397  10.379 -0.1875  0.0052  0.0994
 7215SOL    HW133281   2.302   4.404  10.319  0.2731  1.1922 -0.3371
 7215SOL    HW233282   2.439   4.376  10.309 -0.4837 -0.1991 -0.1026
 7216SOL     OW33283   3.021   2.755   4.250 -0.1293 -0.0660  0.0735
 7216SOL    HW133284   3.060   2.669   4.235  0.0877 -0.3027  1.9896
 7216SOL    HW233285   2.928   2.736   4.263 -0.0764 -0.8709 -0.7006
 7217SOL     OW33286   0.184   4.593   3.933  0.2531  0.6196 -0.0963
 7217SOL    HW133287   0.273   4.601   3.897 -0.1550  0.7161 -1.0780
 7217SOL    HW233288   0.217   4.587   4.022  0.9984 -0.0999 -0.4203
 7218SOL     OW33289   0.252   0.715   6.277  0.1830  0.2586 -0.4979
 7218SOL    HW133290   0.267   0.760   6.360  0.9949 -0.0288 -0.4803
 7218SOL    HW233291   0.323   0.759   6.230  1.7735 -1.4823  0.2420
 7219SOL     OW33292   0.181   0.093   5.164  0.1216 -0.6632  0.4143
 7219SOL    HW133293   0.234   0.147   5.106  1.9343 -1.7151  1.0824
 7219SOL    HW233294   0.103   0.147   5.178  0.8797  0.3909  0.5050
 7220SOL     OW33295   0.522   3.438   3.697 -0.6515  0.3474  0.3988
 7220SOL    HW133296   0.606   3.459   3.736  0.2227 -1.2194 -0.6587
 7220SOL    HW233297   0.515   3.343   3.694 -1.6005  0.4713 -1.6420
 7221SOL     OW33298   0.347   3.537   8.297  0.2222 -0.0522 -0.3919
 7221SOL    HW133299   0.365   3.467   8.360 -0.6306 -1.7878 -2.0576
 7221SOL    HW233300   0.410   3.517   8.227  0.5608  1.2760 -0.4679
 7222SOL     OW33301   3.449   4.433  17.625 -0.2184  0.3357  0.4301
 7222SOL    HW133302   3.488   4.462  17.542  0.3821 -2.3948 -0.2404
 7222SOL    HW233303   3.367   4.482  17.624 -0.1217  0.4634 -1.3457
 7223SOL     OW33304   1.472   4.242  12.670 -0.2340  0.4353  0.4409
 7223SOL    HW133305   1.547   4.224  12.726  0.2816 -1.1475 -0.7616
 7223SOL    HW233306   1.442   4.330  12.692 -3.7048 -0.8570  0.9322
 7224SOL     OW33307   4.440   3.368   9.549 -0.1634 -0.1199  0.4719
 7224SOL    HW133308   4.495   3.432   9.595 -0.6277  0.1248  0.6822
 7224SOL    HW233309   4.389   3.434   9.502 -0.5197  0.3002  1.4487
 7225SOL     OW33310   3.901   2.910   1.710 -0.0644  0.2502  0.6005
 7225SOL    HW133311   3.946   2.961   1.777 -1.3506  1.6382  0.3924
 7225SOL    HW233312   3.914   2.824   1.750 -2.0791  0.9370  2.7474
 7226SOL     OW33313   1.743   0.156   0.327  0.0037 -0.2991  0.1161
 7226SOL    HW133314   1.721   0.243   0.361  0.4705  0.1101 -0.6282
 7226SOL    HW233315   1.651   0.129   0.330 -0.0163 -0.4616 -2.1437
 7227SOL     OW33316   1.983   2.894   7.974  0.0840 -0.1097  0.4499
 7227SOL    HW133317   1.989   2.901   8.069  0.3066  1.3780  0.3263
 7227SOL    HW233318   2.071   2.920   7.947  0.4950 -0.2630  1.6232
 7228SOL     OW33319   4.517   0.232   5.664 -0.7493  0.0982  0.2316
 7228SOL    HW133320   4.542   0.140   5.670 -1.3364 -0.1081 -0.6877
 7228SOL    HW233321   4.478   0.245   5.751  0.6586 -0.4576  0.9503
 7229SOL     OW33322   2.086   0.043   7.549  0.5632 -0.0751 -0.0716
 7229SOL    HW133323   2.098   4.686   7.526  2.1060 -0.5422  2.6169
 7229SOL    HW233324   2.005   0.047   7.599  0.4323 -1.8157 -0.1610
 7230SOL     OW33325   2.781   0.681   4.721 -0.3323  0.6471  0.0503
 7230SOL    HW133326   2.853   0.636   4.765  0.0851  1.0393 -0.2457
 7230SOL    HW233327   2.788   0.774   4.739  1.2902  0.2991  1.2324
 7231SOL     OW33328   2.822   4.000  16.221  0.2686  0.1002 -0.5404
 7231SOL    HW133329   2.905   4.009  16.174  0.4052  0.0917 -0.3048
 7231SOL    HW233330   2.831   3.905  16.227  0.9502  0.0626 -2.1660
 7232SOL     OW33331   2.148   0.171   5.258 -0.3998  0.1327  0.6958
 7232SOL    HW133332   2.076   0.107   5.261 -1.2670  0.9988 -1.8998
 7232SOL    HW233333   2.205   0.126   5.196 -3.1873  1.3138 -2.7133
 7233SOL     OW33334   2.862   3.820   9.768 -0.1751 -0.9251 -0.1540
 7233SOL    HW133335   2.779   3.868   9.768  0.2415 -0.2108 -0.6876
 7233SOL    HW233336   2.920   3.897   9.769  1.8297 -2.4374 -0.5571
 7234SOL     OW33337   4.636   2.303   6.344 -0.2287  0.3417  0.0787
 7234SOL    HW133338   4.678   2.350   6.416 -3.1551  0.2581  1.8712
 7234SOL    HW233339   4.547   2.339   6.352 -0.6528 -0.5845 -0.5148
 7235SOL     OW33340   2.452   0.967   7.338 -0.1600 -0.1989 -0.1684
 7235SOL    HW133341   2.440   0.957   7.432  2.8669  2.3650  0.4711
 7235SOL    HW233342   2.523   0.907   7.314  2.1409  2.8026 -0.8656
 7236SOL     OW33343   3.407   0.040   7.027  0.4959 -0.1391 -0.2867
 7236SOL    HW133344   3.324   4.732   7.010  0.8314 -0.3017 -1.5412
 7236SOL    HW233345   3.393   0.084   7.110 -0.3851  0.8458 -0.9598
 7237SOL     OW33346   4.213   2.134   3.200 -0.0396  0.5663 -0.2121
 7237SOL    HW133347   4.204   2.039   3.211  2.4286  0.5660  1.8148
 7237SOL    HW233348   4.155   2.146   3.124  0.1037  0.6696 -0.3037
 7238SOL     OW33349   3.519   1.221  12.678 -0.2057 -0.2342 -0.2599
 7238SOL    HW133350   3.597   1.169  12.659 -0.0034  0.2216 -0.6801
 7238SOL    HW233351   3.512   1.193  12.770  3.0767  1.9745  0.6661
 7239SOL     OW33352   0.787   2.579   6.184  0.4408  0.1278 -0.4882
 7239SOL    HW133353   0.742   2.643   6.238  0.2031  0.6388 -1.3015
 7239SOL    HW233354   0.818   2.511   6.245  0.2080 -1.9542 -2.6663
 7240SOL     OW33355   2.948   3.496   2.090 -0.0680  0.2821  0.5868
 7240SOL    HW133356   3.030   3.465   2.130  0.5074 -0.2236 -0.9852
 7240SOL    HW233357   2.955   3.590   2.106 -1.2234  0.5422 -0.4593
 7241SOL     OW33358   2.168   1.036   7.064 -0.4144 -0.1605 -0.0615
 7241SOL    HW133359   2.203   1.102   7.005  1.5539 -1.6603 -0.5681
 7241SOL    HW233360   2.163   1.087   7.145  0.1739  1.3861 -0.9928
 7242SOL     OW33361   0.001   1.384   1.875  0.5663 -0.6817  0.2710
 7242SOL    HW133362   4.713   1.438   1.799  0.5702  0.4590  1.0939
 7242SOL    HW233363   0.065   1.322   1.839 -1.5620 -0.5636 -3.7585
 7243SOL     OW33364   3.439   2.655   7.206  0.4794 -0.1769 -0.2421
 7243SOL    HW133365   3.437   2.568   7.248  1.4608 -0.7855 -1.4754
 7243SOL    HW233366   3.360   2.696   7.242 -0.0234  0.7631 -2.4314
 7244SOL     OW33367   1.347   2.678   1.801 -0.4920  0.4001  0.0293
 7244SOL    HW133368   1.437   2.689   1.771 -0.5253 -0.6654 -0.4565
 7244SOL    HW233369   1.305   2.613   1.744  1.5795  1.6055 -2.8513
 7245SOL     OW33370   4.495   3.496  16.760 -0.2057  0.5178 -0.6365
 7245SOL    HW133371   4.577   3.449  16.745 -0.0550  0.8277 -0.7870
 7245SOL    HW233372   4.497   3.524  16.851  2.2216 -1.3799 -0.1163
 7246SOL     OW33373   2.881   0.355   7.906  0.5808 -0.0152  0.0774
 7246SOL    HW133374   2.923   0.271   7.924 -1.1086 -0.7458  0.6188
 7246SOL    HW233375   2.930   0.419   7.957  1.0125 -0.6345  0.4384
 7247SOL     OW33376   1.596   2.079   3.382  0.0283 -0.1462 -0.2416
 7247SOL    HW133377   1.560   2.166   3.397  1.1867 -0.0749  2.1381
 7247SOL    HW233378   1.657   2.094   3.310  1.0699 -4.1998 -0.2366
 7248SOL     OW33379   0.494   1.010   6.297  0.3129  0.0171  0.0080
 7248SOL    HW133380   0.499   0.940   6.362 -1.0410  0.8742  1.0210
 7248SOL    HW233381   0.475   1.085   6.352  0.9475  0.6632 -0.6465
 7249SOL     OW33382   4.015   1.569   1.875  0.6751 -0.4219 -0.2043
 7249SOL    HW133383   3.929   1.585   1.914  0.7110 -0.5217 -0.0861
 7249SOL    HW233384   4.029   1.647   1.821  1.3032 -0.5702 -0.2550
 7250SOL     OW33385   1.402   0.410   0.849 -0.2108 -0.2865  0.5981
 7250SOL    HW133386   1.470   0.387   0.912 -1.6032 -1.7502  1.5611
 7250SOL    HW233387   1.331   0.428   0.911 -2.3835 -0.8480 -1.7313
 7251SOL     OW33388   0.008   1.511   5.869 -0.0133 -0.3501 -0.4423
 7251SOL    HW133389   4.673   1.451   5.844 -2.8888  1.9953  1.8524
 7251SOL    HW233390   0.038   1.548   5.787  0.1535  0.5278  0.0152
 7252SOL     OW33391   1.466   4.606   7.899 -0.1216  0.0627 -0.7372
 7252SOL    HW133392   1.516   4.540   7.851  0.9357  0.5509 -0.2985
 7252SOL    HW233393   1.381   4.597   7.855  1.2359  0.1743 -3.4251
 7253SOL     OW33394   0.941   3.516   6.946 -0.0536  0.2187 -0.2634
 7253SOL    HW133395   0.923   3.435   6.993 -0.2723 -0.8803 -2.2499
 7253SOL    HW233396   1.020   3.549   6.989 -0.8807  1.1950  0.5138
 7254SOL     OW33397   1.633   0.551   7.823 -0.1143  0.4601  0.0752
 7254SOL    HW133398   1.676   0.635   7.838 -2.1178  1.5990 -0.7091
 7254SOL    HW233399   1.564   0.548   7.889  1.2131 -3.5277  1.3064
 7255SOL     OW33400   4.556   0.233   2.835  0.1188 -0.4081 -0.0807
 7255SOL    HW133401   4.489   0.191   2.780 -1.0964  0.1512  0.9738
 7255SOL    HW233402   4.504   0.312   2.851 -1.0155 -1.0323 -0.6947
 7256SOL     OW33403   3.062   4.689   3.691  0.5998  0.7659  0.2972
 7256SOL    HW133404   3.028   0.042   3.678  0.8218  0.6382 -1.0769
 7256SOL    HW233405   3.078   4.664   3.601 -2.0246 -0.4052  0.1549
 7257SOL     OW33406   4.548   1.462   9.295 -0.8366  0.3111 -0.2616
 7257SOL    HW133407   4.476   1.406   9.268 -0.2219 -0.9476  0.7041
 7257SOL    HW233408   4.623   1.402   9.291 -0.0258  1.3210 -0.3144
 7258SOL     OW33409   4.147   3.449   6.081 -0.0333  0.1126 -0.4100
 7258SOL    HW133410   4.239   3.452   6.107 -0.1013 -1.2828  0.0362
 7258SOL    HW233411   4.126   3.356   6.073 -0.6251  0.2978 -1.0231
 7259SOL     OW33412   1.969   1.844   0.723 -0.0665 -0.1514 -0.1738
 7259SOL    HW133413   2.006   1.768   0.768 -1.4505 -1.6791 -1.6418
 7259SOL    HW233414   1.921   1.812   0.647 -0.2722  1.3607 -0.6960
 7260SOL     OW33415   1.499   3.765   0.308  0.1642 -0.0516 -0.1301
 7260SOL    HW133416   1.574   3.810   0.271 -0.2143  2.0933  1.6911
 7260SOL    HW233417   1.438   3.839   0.312  0.4150  0.0394  2.4149
 7261SOL     OW33418   2.722   1.362   1.803  0.3597  0.0533 -0.7104
 7261SOL    HW133419   2.675   1.278   1.804 -2.0195  1.3901  0.3010
 7261SOL    HW233420   2.814   1.336   1.797  0.3889  0.1715 -0.7613
 7262SOL     OW33421   1.041   2.867   5.388 -0.0220 -0.0591 -0.0859
 7262SOL    HW133422   1.020   2.778   5.361 -0.5867  0.4749 -1.3965
 7262SOL    HW233423   1.023   2.866   5.482  1.8260  0.6054  0.2658
 7263SOL     OW33424   3.133   2.207   6.833 -0.6284  0.3542 -0.5786
 7263SOL    HW133425   3.062   2.172   6.887 -0.8507  1.4586 -0.1501
 7263SOL    HW233426   3.154   2.287   6.881 -3.0566  1.3417 -1.1488
 7264SOL     OW33427   1.650   4.312   1.412  0.1356 -0.0211 -0.0531
 7264SOL    HW133428   1.621   4.392   1.367  0.0022  0.7440  1.3963
 7264SOL    HW233429   1.699   4.344   1.488 -0.2635 -1.0195  0.6212
 7265SOL     OW33430   4.356   1.890   4.781 -0.2624  0.3078 -0.1900
 7265SOL    HW133431   4.353   1.816   4.721  0.7881 -1.4863  1.9963
 7265SOL    HW233432   4.434   1.932   4.746  0.2116 -2.2788 -2.2272
 7266SOL     OW33433   4.222   3.737   2.173 -0.1567  0.2119  0.8324
 7266SOL    HW133434   4.256   3.711   2.259  3.5497  0.5981 -0.5186
 7266SOL    HW233435   4.178   3.657   2.145 -1.2481  0.0565  3.0023
 7267SOL     OW33436   2.062   1.626   6.467 -0.5107  0.3314 -0.0624
 7267SOL    HW133437   2.047   1.645   6.560  0.7314 -1.8625  0.5906
 7267SOL    HW233438   2.010   1.696   6.426 -1.4743 -1.0550 -1.2225
 7268SOL     OW33439   2.950   0.542   8.374 -0.7631  0.0511 -0.2295
 7268SOL    HW133440   3.025   0.600   8.392 -2.9129  2.5343  0.8842
 7268SOL    HW233441   2.969   0.474   8.439  1.1873  0.7761 -0.0410
 7269SOL     OW33442   3.232   1.512   5.545 -0.0878  0.4723 -0.0016
 7269SOL    HW133443   3.195   1.527   5.631 -0.0346  3.7587 -0.5454
 7269SOL    HW233444   3.167   1.449   5.512  0.8735 -0.5226 -0.0183
 7270SOL     OW33445   1.402   2.477  10.755 -0.5105 -0.2554  0.3096
 7270SOL    HW133446   1.430   2.423  10.829 -1.7799 -0.0411  0.9544
 7270SOL    HW233447   1.447   2.441  10.679  2.2971  0.2427  1.7628
 7271SOL     OW33448   1.321   3.825   1.713  0.3318  0.1001 -0.4046
 7271SOL    HW133449   1.406   3.804   1.675  0.1591 -0.3092 -0.5743
 7271SOL    HW233450   1.327   3.791   1.803  0.4238  1.5551  0.1332
 7272SOL     OW33451   3.915   2.552  10.128 -0.6603 -0.2745 -0.3393
 7272SOL    HW133452   3.979   2.596  10.073 -0.7896  1.6314  1.0241
 7272SOL    HW233453   3.851   2.622  10.139 -2.6890 -1.9041 -1.9952
 7273SOL     OW33454   0.982   0.387   5.341  0.2659 -0.1475  0.5334
 7273SOL    HW133455   0.988   0.300   5.382  1.3552 -0.4223 -0.2006
 7273SOL    HW233456   1.073   0.398   5.315 -0.6733 -0.5705 -2.8383
 7274SOL     OW33457   3.323   2.572  13.319  0.5310  0.3451  0.0391
 7274SOL    HW133458   3.387   2.506  13.346  0.3332  0.4168  0.6749
 7274SOL    HW233459   3.380   2.643  13.290  0.2413  0.9813  1.0333
 7275SOL     OW33460   0.928   1.872   3.551 -0.6642 -0.0453 -0.2274
 7275SOL    HW133461   0.857   1.849   3.490  1.2030 -1.8885 -1.7245
 7275SOL    HW233462   0.944   1.787   3.592 -0.6174  0.4575  0.7956
 7276SOL     OW33463   1.198   2.108   2.276  0.4631 -0.1053 -0.1145
 7276SOL    HW133464   1.137   2.084   2.206  1.7468 -1.9676 -0.6023
 7276SOL    HW233465   1.278   2.069   2.242  1.1270 -1.6849  3.3120
 7277SOL     OW33466   4.376   2.089   4.098  0.3147  0.2649 -0.0333
 7277SOL    HW133467   4.371   2.157   4.030 -0.6014  0.0504 -0.1871
 7277SOL    HW233468   4.325   2.018   4.059  0.7581  1.0384 -2.0663
 7278SOL     OW33469   4.095   1.096   5.566 -0.2405  0.0811  0.6656
 7278SOL    HW133470   4.038   1.031   5.526 -2.2300  2.5009 -0.4055
 7278SOL    HW233471   4.159   1.113   5.497  1.3618 -0.2747  2.0604
 7279SOL     OW33472   2.519   2.258   9.580  0.3079  0.1314 -0.0252
 7279SOL    HW133473   2.553   2.341   9.612 -1.2874  0.0890  1.7679
 7279SOL    HW233474   2.574   2.201   9.635  0.3365  0.5690  0.3969
 7280SOL     OW33475   4.268   4.729   9.306 -0.1160  0.5266 -0.6569
 7280SOL    HW133476   4.229   0.008   9.393  0.6454 -2.8807  0.2298
 7280SOL    HW233477   4.256   4.635   9.292 -0.5216  0.5127 -0.2377
 7281SOL     OW33478   0.486   2.440   4.520  0.3093 -0.1363  0.3319
 7281SOL    HW133479   0.507   2.428   4.428  1.8679 -0.3568  0.7231
 7281SOL    HW233480   0.541   2.384   4.575 -1.0348 -2.0147 -0.2210
 7282SOL     OW33481   1.611   1.682   1.288  0.3471  0.0502 -0.8023
 7282SOL    HW133482   1.698   1.669   1.249  0.7777  1.8450 -0.4212
 7282SOL    HW233483   1.626   1.641   1.374  2.1295  0.1499 -1.0539
 7283SOL     OW33484   0.185   1.932   5.656  0.2617  0.0586  0.0323
 7283SOL    HW133485   0.280   1.932   5.663  0.3367 -0.1954 -1.0119
 7283SOL    HW233486   0.157   2.005   5.712  0.8333  0.9225 -0.8159
 7284SOL     OW33487   4.005   0.060  13.605 -0.4756 -0.1724  0.0511
 7284SOL    HW133488   3.910   0.065  13.614 -0.4116 -0.8703  1.1221
 7284SOL    HW233489   4.010   4.726  13.540 -0.0752 -0.2930  0.2125
 7285SOL     OW33490   4.422   2.570   2.700  0.0879  0.2248 -0.2511
 7285SOL    HW133491   4.419   2.512   2.776 -1.6810  0.0338 -0.4574
 7285SOL    HW233492   4.388   2.648   2.744 -0.4609  0.7065 -1.5400
 7286SOL     OW33493   1.769   4.154   4.399 -0.1718 -0.3311 -0.6640
 7286SOL    HW133494   1.793   4.165   4.491 -0.0240  0.0012 -0.7436
 7286SOL    HW233495   1.848   4.123   4.356 -1.0588 -0.4844 -2.1910
 7287SOL     OW33496   2.405   2.648  13.568  0.2649 -0.6430  0.0794
 7287SOL    HW133497   2.453   2.617  13.645 -0.5031 -0.5229  0.6060
 7287SOL    HW233498   2.336   2.582  13.563  1.5310 -1.9167 -0.5328
 7288SOL     OW33499   3.898   2.367   1.710  0.0684  0.1055 -0.1404
 7288SOL    HW133500   3.964   2.353   1.642  2.3580  0.9636  1.9126
 7288SOL    HW233501   3.949   2.350   1.789 -0.9337  0.9666  0.6968
 7289SOL     OW33502   4.298   3.729  10.733 -0.0431 -0.1936  0.2871
 7289SOL    HW133503   4.371   3.669  10.722  0.3216 -0.1539  2.3720
 7289SOL    HW233504   4.285   3.752  10.641 -3.4111 -2.8842  0.0524
 7290SOL     OW33505   2.294   0.080  16.458  0.0494 -0.0818 -0.1914
 7290SOL    HW133506   2.304   4.725  16.427  0.0160 -0.1761  0.0771
 7290SOL    HW233507   2.246   0.125  16.388  0.4929 -0.6462 -0.8538
 7291SOL     OW33508   2.483   1.305  14.862 -0.3795 -0.6653 -0.1874
 7291SOL    HW133509   2.403   1.262  14.831  0.2775 -0.4603 -2.1709
 7291SOL    HW233510   2.533   1.224  14.872  0.3742 -0.5098 -2.7176
 7292SOL     OW33511   4.313   1.289   6.508 -0.4498  0.1078 -0.0608
 7292SOL    HW133512   4.312   1.385   6.507 -1.8044  0.0890  0.1357
 7292SOL    HW233513   4.385   1.266   6.449  1.0227 -0.3504  1.8807
 7293SOL     OW33514   0.300   3.576  11.998 -0.1175 -0.4264 -0.1199
 7293SOL    HW133515   0.258   3.659  12.023 -0.5358 -0.7771  0.3212
 7293SOL    HW233516   0.291   3.597  11.905  0.6328 -0.6642 -0.2502
 7294SOL     OW33517   4.405   1.183   5.886  0.2617  0.4458 -0.4795
 7294SOL    HW133518   4.398   1.278   5.896 -0.0018  0.4227 -0.4372
 7294SOL    HW233519   4.311   1.166   5.880 -0.3985  3.0623  2.2467
 7295SOL     OW33520   4.308   1.270   2.535  0.1108 -0.0901  0.5226
 7295SOL    HW133521   4.382   1.287   2.478 -0.2240  0.6946  0.3173
 7295SOL    HW233522   4.247   1.267   2.461  1.3861  1.8065 -0.5852
 7296SOL     OW33523   3.222   3.088  10.009 -0.2465  0.3122 -0.0648
 7296SOL    HW133524   3.287   3.105  10.077 -0.7290  1.9370  0.0014
 7296SOL    HW233525   3.169   3.168  10.001 -1.3920 -0.2480  1.9813
 7297SOL     OW33526   3.048   3.875   3.664 -0.8964 -0.1471  0.0064
 7297SOL    HW133527   2.982   3.940   3.688 -0.7021 -0.0443  0.2598
 7297SOL    HW233528   3.031   3.876   3.570 -0.9369 -0.1562  0.0135
 7298SOL     OW33529   1.521   1.434   1.795 -0.1768 -0.1136 -0.2182
 7298SOL    HW133530   1.447   1.474   1.841 -1.2378 -2.8596  0.4488
 7298SOL    HW233531   1.493   1.345   1.776 -0.4191 -0.1696  0.4035
 7299SOL     OW33532   0.579   3.964   7.846  0.0621 -0.1287  0.5350
 7299SOL    HW133533   0.601   4.055   7.830 -1.2392 -0.4717 -3.0716
 7299SOL    HW233534   0.488   3.973   7.821  0.2680 -0.4429 -0.3253
 7300SOL     OW33535   0.800   0.580  11.349  0.1669  0.1552 -0.4605
 7300SOL    HW133536   0.765   0.534  11.426 -0.3765 -0.5242 -1.1158
 7300SOL    HW233537   0.878   0.528  11.328 -0.3071 -0.2052 -1.3029
 7301SOL     OW33538   3.985   0.922   6.307 -0.0322  0.0668  0.1493
 7301SOL    HW133539   4.021   0.952   6.391 -0.6461  0.7093  0.1819
 7301SOL    HW233540   4.023   0.989   6.250  0.5283 -1.6663 -1.5056
 7302SOL     OW33541   3.315   0.658   2.903 -0.1613 -0.6458 -0.4306
 7302SOL    HW133542   3.325   0.667   2.997 -0.1097  1.2023 -0.6254
 7302SOL    HW233543   3.226   0.623   2.901  0.1100 -1.1810 -3.3273
 7303SOL     OW33544   0.279   2.326  10.426 -0.2600 -0.1798  0.6233
 7303SOL    HW133545   0.312   2.414  10.409  2.2339 -1.4065 -0.7669
 7303SOL    HW233546   0.271   2.293  10.337 -0.7296  0.7021  0.3306
 7304SOL     OW33547   3.299   2.937   2.881  0.0455 -0.1011 -0.3002
 7304SOL    HW133548   3.302   2.846   2.852 -2.6101 -0.0167 -0.7856
 7304SOL    HW233549   3.260   2.978   2.804 -0.5989 -0.4530 -0.1577
 7305SOL     OW33550   3.113   1.533   1.596 -0.5243  0.3845 -0.7946
 7305SOL    HW133551   3.033   1.584   1.608  0.9113  3.0029 -2.2180
 7305SOL    HW233552   3.171   1.596   1.639 -0.8195  0.2769 -0.2380
 7306SOL     OW33553   2.528   0.846   6.733 -0.2917  0.0361  0.5195
 7306SOL    HW133554   2.435   0.846   6.755 -0.1837  0.7738  0.9540
 7306SOL    HW233555   2.548   0.919   6.791  0.7833  1.2316 -1.3673
 7307SOL     OW33556   2.709   3.471  10.996 -0.6762  0.0146 -0.2739
 7307SOL    HW133557   2.655   3.549  11.004 -0.9212 -0.0577 -1.3633
 7307SOL    HW233558   2.798   3.501  11.016 -0.0948 -0.8896 -1.4984
 7308SOL     OW33559   1.693   1.152   7.282  0.5742  0.8980  0.1509
 7308SOL    HW133560   1.656   1.066   7.262 -0.9517  1.3283  1.1888
 7308SOL    HW233561   1.619   1.211   7.273 -0.7132 -0.4373  2.1041
 7309SOL     OW33562   2.213   0.420   8.566 -0.1284  0.3475  0.2882
 7309SOL    HW133563   2.232   0.405   8.473 -2.2332 -2.6079  0.3354
 7309SOL    HW233564   2.238   0.512   8.581 -0.7156  0.7844 -1.4225
 7310SOL     OW33565   2.610   1.850   9.205  0.0248 -0.0218  0.5403
 7310SOL    HW133566   2.618   1.935   9.248 -2.7336 -0.1454  1.2959
 7310SOL    HW233567   2.521   1.856   9.171 -0.6507 -0.7637  2.2089
 7311SOL     OW33568   2.526   2.123  17.098 -0.7601 -0.0946 -0.4415
 7311SOL    HW133569   2.549   2.207  17.136  0.5213  0.2895 -2.0571
 7311SOL    HW233570   2.588   2.060  17.135 -0.5866 -0.4560 -1.3617
 7312SOL     OW33571   0.763   2.205   1.722 -0.3919  0.5595  0.1451
 7312SOL    HW133572   0.794   2.188   1.811  0.9114  2.0761 -0.0260
 7312SOL    HW233573   0.842   2.237   1.679 -0.5236 -0.0430 -0.5502
 7313SOL     OW33574   0.968   3.679   7.544 -0.1894 -0.0489  0.5670
 7313SOL    HW133575   1.023   3.722   7.478 -2.2430 -0.4163 -1.3864
 7313SOL    HW233576   0.925   3.754   7.584 -0.0892  1.3214 -1.9136
 7314SOL     OW33577   3.969   0.236   2.234  0.1471  0.6549  0.1567
 7314SOL    HW133578   3.955   0.292   2.158 -1.2095 -0.7126 -0.5902
 7314SOL    HW233579   4.060   0.210   2.222  0.4647  1.7059  0.2605
 7315SOL     OW33580   1.806   4.483  17.502 -0.1939  0.4507 -0.1964
 7315SOL    HW133581   1.772   4.395  17.516 -1.4730  1.0384  0.3068
 7315SOL    HW233582   1.889   4.477  17.454  0.8114 -2.1125  1.8980
 7316SOL     OW33583   2.199   0.454   2.985  0.2943  0.0217 -0.1838
 7316SOL    HW133584   2.197   0.549   2.989 -0.2927  0.0192 -0.5125
 7316SOL    HW233585   2.241   0.435   3.069  0.5059 -2.7410 -0.8893
 7317SOL     OW33586   2.955   4.387   3.025  0.1193 -0.4101 -0.0288
 7317SOL    HW133587   2.944   4.476   2.993  2.0693 -0.1382  0.0730
 7317SOL    HW233588   2.932   4.337   2.946 -1.7093 -0.7247  0.7009
 7318SOL     OW33589   1.497   2.107   6.662 -0.5511 -0.0561  0.2365
 7318SOL    HW133590   1.548   2.174   6.708 -1.6987  1.8569 -1.2608
 7318SOL    HW233591   1.518   2.026   6.709 -2.9789  0.3669  2.0879
 7319SOL     OW33592   1.061   4.471  15.595  0.5675  0.5016 -0.2294
 7319SOL    HW133593   1.055   4.392  15.540  1.0145 -0.4162  1.0261
 7319SOL    HW233594   1.057   4.535  15.524  0.7545  2.7362  1.7910
 7320SOL     OW33595   0.396   3.085   6.601 -0.4790  0.1427  0.6262
 7320SOL    HW133596   0.475   3.135   6.621  0.1615 -0.8803  0.6790
 7320SOL    HW233597   0.393   3.025   6.675  0.9891  0.4101  0.8984
 7321SOL     OW33598   1.473   1.485   3.313  0.5036  0.7636  0.0449
 7321SOL    HW133599   1.498   1.402   3.273  0.2119  1.1212 -0.8868
 7321SOL    HW233600   1.521   1.556   3.270  0.5924 -0.2155 -1.4840
 7322SOL     OW33601   1.579   0.348  11.275 -0.0495  0.1718  0.2485
 7322SOL    HW133602   1.548   0.386  11.193  2.2895 -0.3860 -0.8739
 7322SOL    HW233603   1.654   0.403  11.298  0.7611 -1.0126  0.3929
 7323SOL     OW33604   2.247   4.352   3.720  0.3031  0.4163 -0.1424
 7323SOL    HW133605   2.307   4.425   3.733  0.2530  0.4245  0.0413
 7323SOL    HW233606   2.282   4.296   3.789  0.0581 -0.8734 -1.0725
 7324SOL     OW33607   1.678   4.384   4.867 -0.4488  0.2058 -0.2826
 7324SOL    HW133608   1.674   4.297   4.907 -2.7812  0.1570 -0.5840
 7324SOL    HW233609   1.607   4.430   4.913  1.8165  3.0052  0.4161
 7325SOL     OW33610   1.697   2.330   4.305 -0.2391 -0.2831 -0.3694
 7325SOL    HW133611   1.695   2.279   4.385 -0.6510  0.5788  0.1630
 7325SOL    HW233612   1.792   2.326   4.290 -0.9834 -3.1115 -4.4454
 7326SOL     OW33613   0.278   2.203  10.187 -0.9127 -0.7084 -0.4294
 7326SOL    HW133614   0.303   2.198  10.094  0.7728  3.1260 -0.2024
 7326SOL    HW233615   0.196   2.154  10.187 -0.1034 -2.0384  1.1067
 7327SOL     OW33616   2.484   1.763  15.108 -0.4627 -0.4428  0.1578
 7327SOL    HW133617   2.443   1.688  15.065 -1.6412 -1.2541  2.6715
 7327SOL    HW233618   2.408   1.784  15.163  0.5229  2.1921  0.4819
 7328SOL     OW33619   1.035   2.020   0.434 -0.0938 -0.0912  0.0892
 7328SOL    HW133620   1.106   2.045   0.376 -0.0452  0.9752  0.6076
 7328SOL    HW233621   1.020   2.106   0.474 -4.1134 -0.6390 -0.1989
 7329SOL     OW33622   1.437   2.686   5.693  0.3625  0.0837 -0.0615
 7329SOL    HW133623   1.454   2.594   5.675  1.7487  0.2150  0.5338
 7329SOL    HW233624   1.447   2.725   5.606 -0.0398  0.3726  0.0207
 7330SOL     OW33625   0.938   1.425   7.561  0.1892  0.1753 -0.4818
 7330SOL    HW133626   0.980   1.404   7.478 -0.8791 -0.2884 -0.8961
 7330SOL    HW233627   0.923   1.337   7.595 -0.6619  0.5640  0.1665
 7331SOL     OW33628   3.987   3.630   1.759 -0.2034 -0.2355  0.1339
 7331SOL    HW133629   4.022   3.652   1.673  0.5792  0.6977  0.6824
 7331SOL    HW233630   3.893   3.643   1.751 -0.2586 -1.0321 -0.5030
 7332SOL     OW33631   1.219   4.391   5.147 -1.0717 -0.8307 -0.2795
 7332SOL    HW133632   1.222   4.471   5.200  1.6340 -0.2068 -1.3588
 7332SOL    HW233633   1.125   4.380   5.132 -1.4518  0.9667  0.7943
 7333SOL     OW33634   4.725   0.079   7.443  0.4758 -0.4360 -0.5744
 7333SOL    HW133635   0.084   0.087   7.433  0.0693  0.9436 -3.3201
 7333SOL    HW233636   4.717   4.720   7.457 -0.0539 -0.4259 -0.7950
 7334SOL     OW33637   3.584   1.486   5.003  0.1817 -0.2959 -0.7088
 7334SOL    HW133638   3.582   1.555   5.069 -0.1911 -0.1124 -0.9157
 7334SOL    HW233639   3.630   1.529   4.931  0.7385  0.8727  0.3517
 7335SOL     OW33640   3.923   1.093  10.900 -0.2376  0.1813  0.3110
 7335SOL    HW133641   4.014   1.112  10.876 -0.6562  1.1477 -0.5164
 7335SOL    HW233642   3.935   1.115  10.993 -0.8173  1.8823 -0.0089
 7336SOL     OW33643   1.275   0.232  10.440  0.4685  0.2131 -0.1768
 7336SOL    HW133644   1.197   0.265  10.396 -0.2409  1.2974  1.8926
 7336SOL    HW233645   1.263   0.252  10.533 -2.1158  1.7618 -0.8428
 7337SOL     OW33646   1.266   0.474  11.407  0.0092  0.3072  0.2097
 7337SOL    HW133647   1.347   0.498  11.452 -0.2791 -0.4594  1.1352
 7337SOL    HW233648   1.302   0.445  11.323 -3.7712 -2.1802 -0.5702
 7338SOL     OW33649   3.822   3.702   8.694 -0.0352 -0.0875  0.7660
 7338SOL    HW133650   3.765   3.766   8.650  0.5399 -1.9424 -2.6931
 7338SOL    HW233651   3.773   3.708   8.776  2.4330  0.9979  2.1657
 7339SOL     OW33652   2.175   4.486   1.951 -0.3455 -0.2667 -0.4247
 7339SOL    HW133653   2.094   4.436   1.940  0.1353 -1.5941  2.1056
 7339SOL    HW233654   2.140   4.575   1.946  0.5174  0.2080  2.1922
 7340SOL     OW33655   1.395   0.476   9.456  0.1139 -0.3827 -0.3323
 7340SOL    HW133656   1.314   0.499   9.502 -0.2989 -0.5922 -0.9616
 7340SOL    HW233657   1.425   0.559   9.420  2.6207 -0.8339  0.7339
 7341SOL     OW33658   3.098   0.390  12.578  0.5313 -0.2179 -0.5471
 7341SOL    HW133659   3.075   0.480  12.601 -0.7802  0.1256 -3.1726
 7341SOL    HW233660   3.092   0.388  12.482 -1.2383  0.1585 -0.4510
 7342SOL     OW33661   1.104   0.502  12.275 -0.5798 -0.1626 -0.3315
 7342SOL    HW133662   1.114   0.407  12.287 -2.6565 -0.5368 -1.5909
 7342SOL    HW233663   1.196   0.524  12.260  0.1677 -2.0257  1.3533
 7343SOL     OW33664   1.277   3.841   4.152  0.3886 -0.0287  0.1471
 7343SOL    HW133665   1.192   3.802   4.131  1.0618 -2.0348  1.0676
 7343SOL    HW233666   1.303   3.795   4.232 -2.2905 -0.0339  0.9998
 7344SOL     OW33667   2.852   4.632   0.217  0.4133 -0.0720 -0.2985
 7344SOL    HW133668   2.839   4.691   0.142  0.4814  1.0995  0.6230
 7344SOL    HW233669   2.791   4.675   0.276  0.1029 -0.6782 -0.1767
 7345SOL     OW33670   2.734   2.808   5.809  0.5036 -0.0747 -0.6016
 7345SOL    HW133671   2.776   2.893   5.821 -0.0023  0.2778 -1.3137
 7345SOL    HW233672   2.771   2.774   5.728  1.8865 -1.6722  0.7127
 7346SOL     OW33673   0.301   2.696   3.321 -0.7007  0.2094 -0.1270
 7346SOL    HW133674   0.324   2.631   3.387 -0.3409 -0.6768 -1.1310
 7346SOL    HW233675   0.230   2.740   3.368 -0.7092  1.0827 -0.9567
 7347SOL     OW33676   2.455   4.148   3.024 -0.2691  0.0115  0.4756
 7347SOL    HW133677   2.423   4.138   2.935 -0.2205 -0.1137  0.4723
 7347SOL    HW233678   2.375   4.174   3.070 -1.6730 -0.0953 -1.9086
 7348SOL     OW33679   4.569   1.819   0.049  0.4292 -0.2824  0.0834
 7348SOL    HW133680   4.621   1.761   0.104  0.8833 -1.4130 -1.5454
 7348SOL    HW233681   4.515   1.763  17.735  0.1427  0.8233 -0.7693
 7349SOL     OW33682   4.423   2.188   2.561  0.2047 -0.4379  0.1010
 7349SOL    HW133683   4.396   2.224   2.645 -0.9210 -1.7212  0.2840
 7349SOL    HW233684   4.468   2.264   2.524 -1.3524  0.1889 -0.5099
 7350SOL     OW33685   0.363   4.443   2.353 -0.4982  0.1702  0.1486
 7350SOL    HW133686   0.347   4.349   2.339  1.3515  0.0405 -1.0016
 7350SOL    HW233687   0.394   4.448   2.443  1.2551 -0.1203 -0.4440
 7351SOL     OW33688   3.196   0.289   1.434 -0.2903  0.1803  0.0459
 7351SOL    HW133689   3.223   0.368   1.387  1.7515 -0.6728 -0.1849
 7351SOL    HW233690   3.137   0.327   1.499 -1.0858  0.0555 -0.6048
 7352SOL     OW33691   0.805   1.417  10.978 -0.2978 -0.0215 -0.4495
 7352SOL    HW133692   0.780   1.487  10.917 -0.1370  0.3123 -0.1347
 7352SOL    HW233693   0.729   1.359  10.978  0.1137 -0.5492  2.0604
 7353SOL     OW33694   1.085   3.743   5.994  0.4047 -0.2525  0.1053
 7353SOL    HW133695   1.076   3.711   6.084  0.6365 -0.5415  0.0240
 7353SOL    HW233696   1.121   3.668   5.947  1.2368  0.5892 -0.5950
 7354SOL     OW33697   0.525   3.992   8.233  0.3048 -0.0157  0.5579
 7354SOL    HW133698   0.578   4.070   8.244 -0.2284  0.4240  0.0026
 7354SOL    HW233699   0.449   4.024   8.184 -0.6913 -0.9875  1.4639
 7355SOL     OW33700   3.803   2.238  11.615 -0.0444  0.2037 -0.3035
 7355SOL    HW133701   3.708   2.249  11.625  0.2929  2.8587  0.1126
 7355SOL    HW233702   3.836   2.328  11.624 -1.2829  0.6751 -0.4145
 7356SOL     OW33703   2.977   0.898   7.284  0.5385 -0.0634 -0.5402
 7356SOL    HW133704   3.005   0.859   7.201  3.3961  2.3974 -0.7528
 7356SOL    HW233705   2.993   0.993   7.280 -2.2772  0.3049 -2.8454
 7357SOL     OW33706   1.802   3.263  12.429  0.3564 -0.3161 -0.0170
 7357SOL    HW133707   1.711   3.238  12.411  1.1391 -2.6649 -0.7228
 7357SOL    HW233708   1.796   3.353  12.395 -2.5270 -1.4589 -2.5261
 7358SOL     OW33709   0.056   0.075  16.170  0.7750  0.3633  0.2044
 7358SOL    HW133710   4.726   0.023  16.217 -0.0975  0.0697 -1.3427
 7358SOL    HW233711   0.021   0.164  16.159  0.4468  0.1341 -0.5986
 7359SOL     OW33712   2.115   1.691   4.239  0.5400 -0.1486 -0.0729
 7359SOL    HW133713   2.047   1.706   4.173 -0.3862  0.0828  0.9113
 7359SOL    HW233714   2.137   1.784   4.248 -1.7265  0.5284 -1.4566
 7360SOL     OW33715   1.411   1.748  14.384 -0.5762  0.1062 -0.6026
 7360SOL    HW133716   1.430   1.658  14.359  0.8988  0.2535 -0.0092
 7360SOL    HW233717   1.397   1.748  14.479  0.7507  1.9377 -0.4096
 7361SOL     OW33718   2.839   1.834   6.055  0.0046 -0.0277 -0.1262
 7361SOL    HW133719   2.806   1.851   6.143  1.4098 -0.6724  0.5136
 7361SOL    HW233720   2.929   1.812   6.075  1.1117  2.9406 -1.8693
 7362SOL     OW33721   2.256   1.966  12.155  0.2363 -0.3588  0.3324
 7362SOL    HW133722   2.305   2.006  12.083 -1.1744  1.3415  0.3182
 7362SOL    HW233723   2.231   1.881  12.118  1.1116 -0.3462 -0.3107
 7363SOL     OW33724   4.586   3.126   7.736  0.2045 -0.1547 -0.3789
 7363SOL    HW133725   4.527   3.162   7.670 -0.7196 -3.3836 -1.2979
 7363SOL    HW233726   4.578   3.033   7.715  4.3499 -0.3192 -1.3991
 7364SOL     OW33727   1.530   2.003  12.556 -0.4404 -0.0192  0.0908
 7364SOL    HW133728   1.622   2.017  12.579  0.0149 -0.1655 -1.6110
 7364SOL    HW233729   1.524   1.915  12.593 -2.7424 -0.2807 -0.8904
 7365SOL     OW33730   0.415   2.435  17.477 -0.4312  0.6035 -0.4817
 7365SOL    HW133731   0.506   2.414  17.456 -0.7399 -0.4137 -0.7896
 7365SOL    HW233732   0.409   2.529  17.460  1.7961  0.4935 -1.9587
 7366SOL     OW33733   1.487   3.311   9.655  0.0419 -0.0591  0.6814
 7366SOL    HW133734   1.529   3.268   9.729 -2.1533 -0.2561  1.8135
 7366SOL    HW233735   1.418   3.370   9.686 -0.7723 -0.6801  0.0755
 7367SOL     OW33736   3.408   1.728  10.559 -0.0408 -0.2745  0.3478
 7367SOL    HW133737   3.326   1.759  10.520 -0.8966 -0.7845  1.7486
 7367SOL    HW233738   3.384   1.738  10.651  2.5530 -1.2730  1.1486
 7368SOL     OW33739   4.623   4.305   5.632 -0.3391 -0.2913 -0.4239
 7368SOL    HW133740   4.676   4.227   5.617  2.4503  1.5712 -0.2262
 7368SOL    HW233741   4.599   4.287   5.723  0.7015  3.2436  0.5355
 7369SOL     OW33742   4.634   3.956   5.130  0.2380 -0.1282 -1.0654
 7369SOL    HW133743   4.588   3.946   5.048 -0.6490  0.8857 -0.6863
 7369SOL    HW233744   4.551   3.950   5.178  0.3719  0.6570 -0.7379
 7370SOL     OW33745   0.558   3.187   1.371 -0.5292  0.2453 -0.0309
 7370SOL    HW133746   0.540   3.176   1.465 -2.3351 -2.0296 -0.6524
 7370SOL    HW233747   0.647   3.221   1.379 -0.6966  0.6711  0.0283
 7371SOL     OW33748   4.123   2.418   2.896  0.1948  0.5785  0.4830
 7371SOL    HW133749   4.059   2.359   2.937 -1.2976  0.4930 -1.9499
 7371SOL    HW233750   4.114   2.495   2.952  0.1396  0.8727  0.0598
 7372SOL     OW33751   3.138   2.338  10.799 -0.2379 -0.6255 -0.4530
 7372SOL    HW133752   3.147   2.244  10.787 -0.8575 -0.8085  0.4918
 7372SOL    HW233753   3.094   2.331  10.884 -3.3182  0.1508 -1.9638
 7373SOL     OW33754   2.365   2.161  12.378 -0.3226  0.2584  0.0149
 7373SOL    HW133755   2.347   2.081  12.329  2.6670 -0.8279  0.7216
 7373SOL    HW233756   2.276   2.188  12.401 -0.6347 -0.3697 -0.4872
 7374SOL     OW33757   3.381   1.113   1.346 -0.2195  0.1934 -0.3241
 7374SOL    HW133758   3.294   1.153   1.343 -0.2922  0.0715  0.1689
 7374SOL    HW233759   3.424   1.185   1.392  0.0889  0.1003 -0.4615
 7375SOL     OW33760   3.693   2.753   8.742  0.3960 -0.8143 -0.0739
 7375SOL    HW133761   3.628   2.683   8.752 -0.8695  0.5087  0.9928
 7375SOL    HW233762   3.641   2.832   8.759 -0.1759 -1.4237  0.9914
 7376SOL     OW33763   3.212   2.757   8.477 -0.3778  0.5356 -0.0860
 7376SOL    HW133764   3.296   2.718   8.503 -0.0873  1.0035 -0.3295
 7376SOL    HW233765   3.149   2.690   8.504 -1.7434  1.3097 -1.3952
 7377SOL     OW33766   1.747   3.847  13.827  0.1672 -0.2965 -0.9887
 7377SOL    HW133767   1.772   3.826  13.917  0.1721 -0.6655 -1.0796
 7377SOL    HW233768   1.661   3.882  13.852  1.6332  1.7691  1.1745
 7378SOL     OW33769   1.680   0.332  13.407 -0.0463  0.1920  0.3238
 7378SOL    HW133770   1.606   0.373  13.452  0.5098  1.4153  0.1279
 7378SOL    HW233771   1.660   0.376  13.324  1.5081  0.5744  0.1556
 7379SOL     OW33772   1.910   3.804   9.406  0.7103  0.2422  0.3903
 7379SOL    HW133773   1.864   3.878   9.367  1.3330  0.2435 -0.3259
 7379SOL    HW233774   1.863   3.806   9.489 -1.0242 -0.9297 -0.5670
 7380SOL     OW33775   4.699   4.710  14.706  0.0818 -0.5446 -0.0440
 7380SOL    HW133776   0.050   4.672  14.688  1.2116  0.8867  2.3694
 7380SOL    HW233777   4.651   4.692  14.625  1.6415  0.8369 -1.2893
 7381SOL     OW33778   4.625   2.695  15.828  0.2988 -0.0877 -0.1510
 7381SOL    HW133779   4.694   2.735  15.775 -0.6230  1.9976  0.2219
 7381SOL    HW233780   4.657   2.605  15.840  0.6846 -0.2663 -2.4535
 7382SOL     OW33781   0.224   4.599   6.981 -0.0362 -0.7748 -0.0739
 7382SOL    HW133782   0.222   4.517   7.030 -0.4369 -0.1342  0.9648
 7382SOL    HW233783   0.148   4.579   6.926  0.4078  1.0068 -1.3492
 7383SOL     OW33784   3.615   2.755   9.860  0.1739 -0.2369  0.0161
 7383SOL    HW133785   3.575   2.839   9.837  2.9287  0.3460 -2.5639
 7383SOL    HW233786   3.641   2.769   9.951 -2.0461 -2.4971  1.0138
 7384SOL     OW33787   0.378   1.323   2.028  0.0213  0.0877 -0.0787
 7384SOL    HW133788   0.341   1.250   1.978  0.4875 -0.0217 -0.2637
 7384SOL    HW233789   0.442   1.264   2.066  2.2622  2.7812  0.3240
 7385SOL     OW33790   2.260   2.945   8.438 -0.3789  0.5130 -0.3882
 7385SOL    HW133791   2.192   3.011   8.426  2.0084  3.2471  0.9902
 7385SOL    HW233792   2.338   2.997   8.459  1.0962 -1.5616 -0.7758
 7386SOL     OW33793   0.353   1.017   5.894  0.2879 -0.6028  0.1129
 7386SOL    HW133794   0.261   1.011   5.865  0.5603  1.5869 -1.2069
 7386SOL    HW233795   0.362   1.111   5.880  1.1599 -0.8317 -0.8522
 7387SOL     OW33796   0.962   0.967   1.408  0.2755 -0.2937  0.1142
 7387SOL    HW133797   0.973   0.924   1.323  0.0321  1.8673 -1.0076
 7387SOL    HW233798   0.916   1.044   1.375 -1.3332 -0.9944  0.7441
 7388SOL     OW33799   2.931   0.028   8.773  0.0717 -0.7834  0.0978
 7388SOL    HW133800   2.867   4.735   8.837 -1.3779 -0.1705 -1.0608
 7388SOL    HW233801   3.011   0.001   8.817  0.5054 -0.2038 -0.3257
 7389SOL     OW33802   2.787   4.499  16.378  0.4818  0.3308 -0.5836
 7389SOL    HW133803   2.700   4.466  16.399  0.5232 -0.0195 -0.9399
 7389SOL    HW233804   2.826   4.417  16.347  2.7643  0.2501  2.5714
 7390SOL     OW33805   2.973   1.304   9.774 -0.2159  0.1952  0.3521
 7390SOL    HW133806   2.946   1.213   9.786  1.8109 -0.6548 -1.3802
 7390SOL    HW233807   3.056   1.307   9.822 -0.3481  2.2184  0.4463
 7391SOL     OW33808   3.095   2.686   8.988 -0.0047 -0.4954 -0.4424
 7391SOL    HW133809   3.134   2.599   8.984 -1.3165 -1.2005  2.2968
 7391SOL    HW233810   3.113   2.718   9.076  1.6257 -0.0668 -0.9411
 7392SOL     OW33811   0.320   2.825   7.826 -0.1059  0.4353  0.4912
 7392SOL    HW133812   0.365   2.907   7.842  1.8499 -0.7559  1.1269
 7392SOL    HW233813   0.396   2.769   7.813 -0.4672  0.0385  0.0549
 7393SOL     OW33814   2.066   1.914   7.016  0.1133  0.6554  0.5068
 7393SOL    HW133815   2.012   1.875   6.947 -0.7776  1.2640  0.8566
 7393SOL    HW233816   2.154   1.880   7.001  0.4662  1.1223  1.4617
 7394SOL     OW33817   2.581   0.791  12.263 -0.3010 -0.7764  0.8196
 7394SOL    HW133818   2.511   0.731  12.289 -1.0251 -0.2035  0.2164
 7394SOL    HW233819   2.569   0.807  12.169  0.1827 -1.9897  0.5484
 7395SOL     OW33820   4.628   0.630   1.295 -0.7265 -0.2473  0.4922
 7395SOL    HW133821   4.709   0.596   1.333 -1.5827 -0.5607  2.0140
 7395SOL    HW233822   4.597   0.684   1.368 -1.3160 -1.6219  1.2566
 7396SOL     OW33823   0.280   0.810   1.659  0.1805  0.1445  0.3473
 7396SOL    HW133824   0.260   0.823   1.751 -3.3883  1.7035 -0.6379
 7396SOL    HW233825   0.362   0.856   1.644 -0.1850  0.9268  0.7491
 7397SOL     OW33826   0.394   4.427  16.968  0.2243 -0.0798 -0.0377
 7397SOL    HW133827   0.473   4.397  16.922 -0.3837 -0.3044 -0.9298
 7397SOL    HW233828   0.349   4.346  16.992 -0.1219  0.2149  0.3116
 7398SOL     OW33829   4.616   3.591   6.795  0.0972  0.8824  0.3142
 7398SOL    HW133830   4.558   3.612   6.723 -2.7514 -0.0483  2.3528
 7398SOL    HW233831   4.593   3.664   6.853 -1.9229 -0.3818  1.0945
 7399SOL     OW33832   3.262   1.969  17.288 -0.1786  0.0368 -0.1618
 7399SOL    HW133833   3.250   1.885  17.332  2.0513  0.6180  1.5370
 7399SOL    HW233834   3.193   2.017  17.333 -0.4709 -0.3775 -0.1653
 7400SOL     OW33835   2.679   4.393   7.189 -0.0269  0.4273  0.4824
 7400SOL    HW133836   2.584   4.388   7.203 -0.7339  1.4180 -4.1158
 7400SOL    HW233837   2.698   4.301   7.208 -0.5085  0.6606  2.1346
 7401SOL     OW33838   2.613   0.011   8.731 -0.2461 -0.6397  0.4544
 7401SOL    HW133839   2.620   0.085   8.671  2.1314 -0.7848  0.5468
 7401SOL    HW233840   2.573   4.683   8.672 -1.8369  0.5375  0.2593
 7402SOL     OW33841   2.262   3.073   3.206  0.1304  0.2705 -0.3864
 7402SOL    HW133842   2.176   3.086   3.246 -0.8315 -1.3904 -1.9337
 7402SOL    HW233843   2.308   3.040   3.283  1.1299  2.7810  0.0828
 7403SOL     OW33844   2.996   4.677   7.731 -0.0232  0.4918  0.0037
 7403SOL    HW133845   3.046   4.634   7.801 -1.3676 -0.3376  0.4558
 7403SOL    HW233846   3.044   4.649   7.654  0.2494  2.3051 -0.4844
 7404SOL     OW33847   1.006   3.130   2.592 -0.2373  0.2156  0.3088
 7404SOL    HW133848   0.926   3.114   2.641 -0.6858 -2.3121 -1.2520
 7404SOL    HW233849   0.995   3.224   2.582 -2.5316 -0.0494  0.5310
 7405SOL     OW33850   3.975   2.349  12.116  0.6728 -0.1941 -0.1955
 7405SOL    HW133851   3.944   2.277  12.171  0.1396  0.5106  0.4306
 7405SOL    HW233852   4.060   2.314  12.091  0.4971 -0.0661 -0.9889
 7406SOL     OW33853   3.961   1.024   2.739  1.1785 -0.2742 -0.1463
 7406SOL    HW133854   3.955   1.119   2.745  0.1224 -0.4982  2.1480
 7406SOL    HW233855   4.049   1.006   2.772  1.3204 -1.2261 -1.0451
 7407SOL     OW33856   1.649   3.608   3.421 -0.0572 -0.3317  0.4387
 7407SOL    HW133857   1.602   3.533   3.383  2.0088 -2.1511  1.4449
 7407SOL    HW233858   1.573   3.664   3.433 -0.4425 -0.5611 -0.9320
 7408SOL     OW33859   2.835   2.334  14.294 -0.0482 -0.5183  0.0338
 7408SOL    HW133860   2.904   2.269  14.309 -0.2855 -0.2536  2.3188
 7408SOL    HW233861   2.794   2.321  14.380 -0.0676  2.2319  0.4282
 7409SOL     OW33862   0.956   0.311   3.683  0.0519  0.3072  0.0695
 7409SOL    HW133863   1.051   0.296   3.677 -0.0419 -1.1996  2.6128
 7409SOL    HW233864   0.932   0.304   3.591 -1.5175 -0.7472  0.5741
 7410SOL     OW33865   0.036   1.704   3.741  0.4532  0.7582  0.0710
 7410SOL    HW133866   0.059   1.621   3.783  0.4587  0.5347 -0.3704
 7410SOL    HW233867   4.707   1.668   3.680  2.7803 -0.9597 -1.4090
 7411SOL     OW33868   2.784   4.146   2.603 -0.3619 -0.2387 -0.7792
 7411SOL    HW133869   2.801   4.084   2.532  1.0736  0.5024 -1.0907
 7411SOL    HW233870   2.689   4.137   2.599 -0.3594 -1.3047  1.2323
 7412SOL     OW33871   2.404   2.888   8.930  0.5955  0.1418  0.6209
 7412SOL    HW133872   2.441   2.946   8.997 -1.2930  0.1686  1.6428
 7412SOL    HW233873   2.483   2.855   8.888  0.1232 -0.4780  0.2292
 7413SOL     OW33874   1.426   1.988   8.787  0.2689  0.6257 -0.0074
 7413SOL    HW133875   1.369   2.003   8.712 -0.7995 -2.6846  0.1235
 7413SOL    HW233876   1.361   1.960   8.851 -0.3480  0.9864 -0.4868
 7414SOL     OW33877   0.858   3.591   3.142 -0.2640 -0.2668 -0.7789
 7414SOL    HW133878   0.847   3.599   3.048 -1.7761  1.1165 -0.4788
 7414SOL    HW233879   0.797   3.519   3.153 -0.3705  0.3909  3.0164
 7415SOL     OW33880   1.367   0.049  16.163  0.3421  0.3703  0.2279
 7415SOL    HW133881   1.456   0.031  16.194  0.0930 -0.1722  0.6217
 7415SOL    HW233882   1.335   4.701  16.130 -0.2399 -0.1004  2.0011
 7416SOL     OW33883   1.024   2.790   4.765  0.0922  0.2575  0.2996
 7416SOL    HW133884   0.962   2.828   4.827  0.1472 -0.3319  0.7210
 7416SOL    HW233885   1.071   2.738   4.831 -3.1190  0.5561  2.7836
 7417SOL     OW33886   1.940   1.023   8.438 -0.7544 -0.2366 -0.0087
 7417SOL    HW133887   1.956   1.112   8.407  0.4666 -1.4597 -2.8784
 7417SOL    HW233888   1.854   1.040   8.475 -0.3547 -0.7638  1.1830
 7418SOL     OW33889   2.428   1.804   0.858  0.3860 -0.1636 -0.1605
 7418SOL    HW133890   2.422   1.854   0.777 -1.0241 -0.7170 -0.4043
 7418SOL    HW233891   2.399   1.717   0.830 -0.3403  0.0614 -0.1024
 7419SOL     OW33892   0.109   3.181   2.821  0.2165  0.0023 -0.1452
 7419SOL    HW133893   0.173   3.230   2.873 -1.3588  0.6045  1.2084
 7419SOL    HW233894   0.045   3.151   2.885  2.4308 -0.6145  1.7858
 7420SOL     OW33895   1.147   2.502   2.878 -0.8465  0.6885 -0.7886
 7420SOL    HW133896   1.055   2.509   2.853 -0.2624 -0.3768 -3.3162
 7420SOL    HW233897   1.176   2.434   2.817  1.9496  0.2899  1.0032
 7421SOL     OW33898   1.875   0.140   3.736  0.3771  0.1249 -0.1524
 7421SOL    HW133899   1.827   0.065   3.772  2.0618 -0.2990  1.2083
 7421SOL    HW233900   1.804   0.169   3.679  0.3500  0.7743  0.2104
 7422SOL     OW33901   0.499   0.292  16.447  0.0378  0.5246 -0.6819
 7422SOL    HW133902   0.409   0.259  16.451  1.1371 -2.4085 -0.1184
 7422SOL    HW233903   0.502   0.325  16.358  3.2164 -1.6578 -1.3804
 7423SOL     OW33904   3.635   3.041  10.554  0.2538 -0.2735  0.3630
 7423SOL    HW133905   3.557   3.025  10.607 -1.0682 -0.9193 -1.8068
 7423SOL    HW233906   3.605   3.069  10.468 -0.1568 -0.9908  0.2676
 7424SOL     OW33907   2.506   3.753  15.775 -0.2601 -0.6484  0.3489
 7424SOL    HW133908   2.586   3.700  15.778  0.3945  0.2505 -1.5829
 7424SOL    HW233909   2.540   3.836  15.809 -1.8406  1.1243 -2.4174
 7425SOL     OW33910   1.453   4.526   1.330 -0.2161 -0.3156 -0.5575
 7425SOL    HW133911   1.378   4.584   1.330 -0.5135 -0.7071 -3.0314
 7425SOL    HW233912   1.443   4.477   1.248 -1.3449  2.2335 -1.9231
 7426SOL     OW33913   1.394   0.314   1.414 -0.5741  0.5104 -0.3433
 7426SOL    HW133914   1.307   0.294   1.451  0.2412  1.4130  2.0389
 7426SOL    HW233915   1.396   0.409   1.425 -1.2219  0.0348  3.7730
 7427SOL     OW33916   2.614   1.639   7.159  0.0064 -0.0427 -0.2072
 7427SOL    HW133917   2.701   1.674   7.143  0.3931 -1.0955 -0.3914
 7427SOL    HW233918   2.606   1.652   7.253 -0.7025 -2.5519  0.0903
 7428SOL     OW33919   0.785   3.719   4.012 -0.6221  0.2410 -0.2696
 7428SOL    HW133920   0.797   3.805   3.971  0.4722  0.1990 -0.0275
 7428SOL    HW233921   0.705   3.687   3.971 -1.8122  1.3609  1.2061
 7429SOL     OW33922   1.900   0.368   4.027  0.6103 -0.4846  0.3777
 7429SOL    HW133923   1.839   0.439   4.009  1.4663  0.6182  1.7768
 7429SOL    HW233924   1.840   0.324   4.087  0.4249 -1.8817 -0.8121
 7430SOL     OW33925   4.320   3.607   1.815  0.4418 -0.8622 -0.1839
 7430SOL    HW133926   4.344   3.695   1.843  1.1093 -0.6665 -1.3602
 7430SOL    HW233927   4.277   3.640   1.736  0.4681 -2.4914 -0.8777
 7431SOL     OW33928   1.280   2.577   8.437  0.3424  0.5070  0.1289
 7431SOL    HW133929   1.336   2.623   8.500  1.0951 -0.5481  0.2332
 7431SOL    HW233930   1.197   2.623   8.437  0.8809  1.4747  0.0993
 7432SOL     OW33931   3.455   2.567   8.479  0.1776 -0.3108  0.9021
 7432SOL    HW133932   3.436   2.561   8.573  0.9611 -0.0991  1.0727
 7432SOL    HW233933   3.440   2.477   8.449  1.4711  0.9967 -3.6483
 7433SOL     OW33934   2.095   1.545   3.149  0.0162 -0.0310  0.1860
 7433SOL    HW133935   2.087   1.602   3.226 -1.0735  2.6450 -1.8999
 7433SOL    HW233936   2.107   1.466   3.201  2.4115  0.1372 -0.1190
 7434SOL     OW33937   4.580   3.426   1.550  0.2616  0.4879 -0.2358
 7434SOL    HW133938   4.543   3.453   1.466 -1.6165 -0.2708  0.3462
 7434SOL    HW233939   4.632   3.500   1.580  1.0018 -0.0191 -0.2622
 7435SOL     OW33940   4.161   0.473   5.573  0.1856 -0.0690 -0.2492
 7435SOL    HW133941   4.091   0.410   5.590 -0.2388  0.7630  1.0703
 7435SOL    HW233942   4.165   0.454   5.479 -0.7763  0.3966 -0.3878
 7436SOL     OW33943   1.191   1.636   4.106  0.5119 -0.3533  0.3465
 7436SOL    HW133944   1.205   1.586   4.186  1.0889 -0.5424  0.1291
 7436SOL    HW233945   1.272   1.685   4.091  0.0450 -0.2276 -1.7544
 7437SOL     OW33946   4.494   4.413   8.835 -0.5095  0.2978  0.0062
 7437SOL    HW133947   4.579   4.445   8.864 -0.1430  0.9896 -1.8126
 7437SOL    HW233948   4.447   4.396   8.916 -0.5186 -0.2643 -0.1146
 7438SOL     OW33949   3.808   1.704   4.360 -0.0930 -0.1702 -0.4128
 7438SOL    HW133950   3.809   1.652   4.280  0.1379 -0.8175  0.0159
 7438SOL    HW233951   3.806   1.630   4.420 -1.3305 -0.4871 -0.8422
 7439SOL     OW33952   1.145   1.167  12.413  0.3138 -0.0191  0.2572
 7439SOL    HW133953   1.064   1.207  12.383  0.1612  0.3598  1.1948
 7439SOL    HW233954   1.207   1.240  12.414  0.4752 -0.1569  0.6434
 7440SOL     OW33955   4.062   3.357   0.547 -0.1494  0.2097  0.7653
 7440SOL    HW133956   3.967   3.350   0.545  0.0599 -2.7916  0.3856
 7440SOL    HW233957   4.078   3.451   0.548  1.3118 -0.0215 -0.5531
 7441SOL     OW33958   1.701   1.165   6.090 -0.0654 -0.3649 -0.2462
 7441SOL    HW133959   1.642   1.227   6.133  1.2103  0.5905  0.1324
 7441SOL    HW233960   1.783   1.164   6.140  1.0807  0.9797 -2.0796
 7442SOL     OW33961   3.176   4.194   2.964  0.0096  0.0530  0.2201
 7442SOL    HW133962   3.166   4.099   2.966  1.1716 -0.0739  0.0194
 7442SOL    HW233963   3.154   4.217   2.874 -1.5292 -2.3094 -0.0234
 7443SOL     OW33964   3.328   2.648   9.475 -0.3016  0.3703 -0.1443
 7443SOL    HW133965   3.235   2.635   9.496 -0.3190 -1.2360 -1.2332
 7443SOL    HW233966   3.354   2.682   9.561 -2.2355 -0.2766  0.7049
 7444SOL     OW33967   1.860   3.660   1.053  0.7871 -0.3662  0.1398
 7444SOL    HW133968   1.937   3.624   1.097  1.0186 -2.3441 -1.8445
 7444SOL    HW233969   1.851   3.599   0.979 -0.0383 -0.5652  0.4052
 7445SOL     OW33970   3.074   4.342   8.087 -0.3965  0.0927  0.0777
 7445SOL    HW133971   3.092   4.248   8.085 -1.3634 -0.0744 -0.7941
 7445SOL    HW233972   3.083   4.346   8.182 -0.0079  0.9780  0.0031
 7446SOL     OW33973   4.190   2.771  14.343 -0.1081  0.2778  0.3710
 7446SOL    HW133974   4.245   2.713  14.291  0.7388  0.2992  1.2474
 7446SOL    HW233975   4.211   2.862  14.321  1.6440 -0.8171 -2.3036
 7447SOL     OW33976   3.250   4.413   4.735  0.1751 -0.3202 -0.5642
 7447SOL    HW133977   3.188   4.461   4.791 -0.3708  0.2499 -1.6486
 7447SOL    HW233978   3.323   4.424   4.796  1.5672  1.0522 -2.4475
 7448SOL     OW33979   2.648   1.489   4.208  0.2504 -0.1072  0.0033
 7448SOL    HW133980   2.723   1.502   4.266 -0.7280  2.4607  0.6931
 7448SOL    HW233981   2.670   1.552   4.140  0.1134  1.2529  1.2324
 7449SOL     OW33982   3.605   3.234   4.672  0.1348 -0.0308 -0.2184
 7449SOL    HW133983   3.536   3.195   4.725  1.8137 -1.1790  1.1064
 7449SOL    HW233984   3.649   3.293   4.733  2.5989  0.5242 -2.5547
 7450SOL     OW33985   1.687   2.737  10.922 -0.1550  0.1109  0.0558
 7450SOL    HW133986   1.615   2.799  10.907 -0.3739  0.0464  0.8747
 7450SOL    HW233987   1.674   2.718  11.014 -0.8101  0.2402 -0.0113
 7451SOL     OW33988   2.126   2.328  10.431 -0.8774  0.2860 -0.4270
 7451SOL    HW133989   2.115   2.382  10.353  0.9274  3.2251  1.3759
 7451SOL    HW233990   2.220   2.343  10.442 -1.2661  0.9142  1.9572
 7452SOL     OW33991   1.852   2.941   4.291  0.4390 -0.5146 -0.1648
 7452SOL    HW133992   1.879   3.031   4.312  0.3680 -0.9951  2.0591
 7452SOL    HW233993   1.782   2.961   4.230 -1.3791 -1.1542  1.7060
 7453SOL     OW33994   2.054   3.364  10.482 -0.0287 -0.2973 -0.0079
 7453SOL    HW133995   2.103   3.334  10.405  1.8197  1.7674  0.3420
 7453SOL    HW233996   2.034   3.282  10.526  0.1632  0.7304  1.9902
 7454SOL     OW33997   0.924   3.316  14.243 -0.3819  0.5750  0.2243
 7454SOL    HW133998   0.919   3.352  14.155 -2.4177  0.4053  0.2725
 7454SOL    HW233999   0.995   3.373  14.275 -0.0837  0.3435 -0.0214
 7455SOL     OW34000   3.133   0.151  12.911  0.8525 -0.5700 -0.2016
 7455SOL    HW134001   3.145   0.245  12.903 -0.2534 -0.4507 -0.3415
 7455SOL    HW234002   3.224   0.121  12.919  0.7981 -0.6583  0.1116
 7456SOL     OW34003   1.638   1.536  17.683 -0.2806  0.2003  0.1716
 7456SOL    HW134004   1.603   1.447  17.680 -2.0458  0.8210  2.3453
 7456SOL    HW234005   1.734   1.530  17.685 -0.2908  0.3154  0.9488
 7457SOL     OW34006   4.483   4.165  14.865  0.5081  0.2802 -0.0735
 7457SOL    HW134007   4.533   4.235  14.824  2.3479 -0.7695  0.4195
 7457SOL    HW234008   4.503   4.090  14.809  1.1554  2.3499 -2.6371
 7458SOL     OW34009   2.480   4.522   6.197 -0.2664 -0.2810 -0.1392
 7458SOL    HW134010   2.391   4.497   6.170  0.0217 -2.0536  0.5377
 7458SOL    HW234011   2.523   4.556   6.119  0.2191 -0.4502  0.0566
 7459SOL     OW34012   0.004   3.776   7.733  0.0939 -0.2544  0.1329
 7459SOL    HW134013   0.027   3.854   7.784  1.4783 -1.4252  1.3103
 7459SOL    HW234014   4.655   3.758   7.774 -1.1245 -0.2216 -2.3879
 7460SOL     OW34015   0.312   0.710   3.081  0.2466  0.2961 -0.3959
 7460SOL    HW134016   0.217   0.696   3.079  0.2917 -0.3053  1.5463
 7460SOL    HW234017   0.320   0.797   3.042 -2.1178  0.7044  0.0179
 7461SOL     OW34018   1.986   1.623   2.474 -0.2162  0.1827  0.2459
 7461SOL    HW134019   1.935   1.553   2.433  1.5560  0.5391 -2.5427
 7461SOL    HW234020   2.031   1.574   2.543 -4.1789 -0.6783  2.2377
 7462SOL     OW34021   0.592   0.499   4.944 -0.2220 -0.6877 -0.6747
 7462SOL    HW134022   0.564   0.548   5.021 -1.3968  0.8128 -2.0639
 7462SOL    HW234023   0.577   0.573   4.885  0.4115  0.0190  0.0653
 7463SOL     OW34024   1.156   2.301   6.925 -0.0190  0.0485  0.2858
 7463SOL    HW134025   1.185   2.296   6.834  0.6193 -0.3588  0.5191
 7463SOL    HW234026   1.209   2.375   6.954  0.8989  0.3221 -2.0801
 7464SOL     OW34027   4.145   0.650   8.753  0.1426 -0.0781  0.0358
 7464SOL    HW134028   4.136   0.745   8.744 -1.5530 -0.4459 -2.1779
 7464SOL    HW234029   4.184   0.646   8.841  1.3070  3.5160 -0.3483
 7465SOL     OW34030   2.974   4.343   4.142  0.0324  0.3100  0.2104
 7465SOL    HW134031   3.041   4.282   4.172  0.0028 -0.0461 -0.4577
 7465SOL    HW234032   3.032   4.418   4.126 -0.5428 -0.1432 -3.7809
 7466SOL     OW34033   0.379   1.199   1.230 -0.2981  0.3802 -0.5233
 7466SOL    HW134034   0.425   1.126   1.270 -2.9969 -0.7854  0.4471
 7466SOL    HW234035   0.453   1.258   1.241 -1.1345  0.7617  2.8734
 7467SOL     OW34036   4.567   3.321  15.535 -0.2487 -0.0302 -0.7444
 7467SOL    HW134037   4.507   3.271  15.590 -1.3833  2.1786  0.0524
 7467SOL    HW234038   4.623   3.351  15.607  1.2793 -1.3713 -1.3792
 7468SOL     OW34039   3.076   4.703  11.451  1.0011  0.1328 -0.5299
 7468SOL    HW134040   3.098   4.700  11.545 -1.0656  1.3868 -0.0029
 7468SOL    HW234041   3.129   4.630  11.420  0.3521 -0.2849 -0.6418
 7469SOL     OW34042   4.129   2.879   8.028  0.1944 -0.2824 -0.4537
 7469SOL    HW134043   4.092   2.816   7.967  1.3689 -0.2628 -1.1740
 7469SOL    HW234044   4.187   2.812   8.065  0.2142 -0.1885 -0.3143
 7470SOL     OW34045   2.432   2.186  12.024 -0.6606 -1.2980 -0.1239
 7470SOL    HW134046   2.512   2.174  12.075  0.6807  1.0942 -1.6332
 7470SOL    HW234047   2.461   2.244  11.952 -0.2171  1.2051  2.0681
 7471SOL     OW34048   4.089   0.608   3.863 -0.4300 -0.2463 -0.5156
 7471SOL    HW134049   4.176   0.642   3.883 -0.2668  0.1836 -1.9688
 7471SOL    HW234050   4.089   0.588   3.770  3.8154 -0.5945 -0.4539
 7472SOL     OW34051   2.583   0.571   3.995 -0.1733  0.4668 -0.4176
 7472SOL    HW134052   2.547   0.565   4.083 -1.6443 -1.1557 -1.1486
 7472SOL    HW234053   2.676   0.567   4.019 -0.9126 -0.7651  2.2646
 7473SOL     OW34054   3.286   2.814   5.256 -0.1444  0.3880 -0.8997
 7473SOL    HW134055   3.211   2.858   5.296  0.4055  0.4864  0.0359
 7473SOL    HW234056   3.261   2.797   5.165  0.4174  1.9709 -1.3563
 7474SOL     OW34057   1.415   1.623   9.536  0.9010  0.1072  0.2463
 7474SOL    HW134058   1.429   1.716   9.553  1.4666  0.1638 -0.5272
 7474SOL    HW234059   1.448   1.624   9.447 -0.9868 -1.7832 -0.4616
 7475SOL     OW34060   3.470   4.233   1.105  0.5275 -0.3771  0.0876
 7475SOL    HW134061   3.560   4.210   1.125 -0.0812 -1.8496  1.1174
 7475SOL    HW234062   3.469   4.322   1.140 -3.9931  0.0677 -1.2017
 7476SOL     OW34063   3.235   4.127   5.509  0.1570  0.0175 -0.7916
 7476SOL    HW134064   3.327   4.114   5.486  0.2252 -0.9047 -0.0117
 7476SOL    HW234065   3.247   4.149   5.602 -1.1766 -1.4154 -0.2887
 7477SOL     OW34066   1.523   4.188  12.385 -0.0135  0.2297 -0.0708
 7477SOL    HW134067   1.494   4.207  12.474 -1.2250 -0.8447 -0.2320
 7477SOL    HW234068   1.562   4.101  12.398 -0.8527  0.0568  1.2871
 7478SOL     OW34069   1.448   2.354   2.792 -0.1250 -0.0746  0.2786
 7478SOL    HW134070   1.380   2.288   2.778  1.7755 -1.8922 -0.3433
 7478SOL    HW234071   1.399   2.433   2.768  0.0718  0.0802  0.3863
 7479SOL     OW34072   0.232   4.293   7.114 -0.5328  0.5286 -0.0787
 7479SOL    HW134073   0.216   4.302   7.020 -1.9259  0.2632  0.1420
 7479SOL    HW234074   0.144   4.273   7.143 -0.4253 -2.0189 -1.5432
 7480SOL     OW34075   2.097   4.517  15.232 -0.5830  1.0962 -0.2002
 7480SOL    HW134076   2.165   4.462  15.270 -0.7441  1.1709  0.1972
 7480SOL    HW234077   2.063   4.477  15.152  0.6992  1.3972 -0.8969
 7481SOL     OW34078   3.570   0.630   9.454 -0.0032  0.2111  0.4310
 7481SOL    HW134079   3.630   0.558   9.470 -1.0141 -0.8130 -0.3448
 7481SOL    HW234080   3.625   0.707   9.462 -0.1069  0.4260 -0.8310
 7482SOL     OW34081   3.467   0.425   4.395 -0.3156 -0.7166  0.2910
 7482SOL    HW134082   3.532   0.429   4.324 -1.1592 -1.7773 -0.5486
 7482SOL    HW234083   3.458   0.330   4.406 -2.1289 -0.4233  1.4021
 7483SOL     OW34084   3.720   2.780  10.565 -0.1646 -0.0663  0.5494
 7483SOL    HW134085   3.703   2.747  10.653  2.8584 -2.5313  0.2103
 7483SOL    HW234086   3.657   2.852  10.559 -1.3825 -1.1254  0.7169
 7484SOL     OW34087   3.337   2.761   9.724 -0.4511 -0.1668  0.2008
 7484SOL    HW134088   3.264   2.789   9.779 -0.6848 -0.3758  0.0009
 7484SOL    HW234089   3.395   2.739   9.797 -1.8265 -0.3620  1.2327
 7485SOL     OW34090   0.210   1.001  14.693  0.0934 -0.0073 -0.7167
 7485SOL    HW134091   0.258   1.078  14.663 -3.0979  1.9146 -0.8170
 7485SOL    HW234092   0.243   0.927  14.642  0.4443  1.4028 -2.5451
 7486SOL     OW34093   4.366   1.389  15.678  0.2651 -0.3139 -0.2696
 7486SOL    HW134094   4.448   1.343  15.693  0.6022  0.3362 -0.1298
 7486SOL    HW234095   4.394   1.471  15.636  1.8619 -1.5815 -1.6513
 7487SOL     OW34096   1.479   0.691   4.433 -0.5720 -0.4289  0.0185
 7487SOL    HW134097   1.509   0.698   4.342  0.4129 -0.4420  0.3440
 7487SOL    HW234098   1.402   0.748   4.424  1.2181  2.3116  1.7992
 7488SOL     OW34099   0.775   3.558  14.401 -0.4479  0.0196  0.5257
 7488SOL    HW134100   0.774   3.488  14.336  1.1334 -0.8704  1.4764
 7488SOL    HW234101   0.736   3.501  14.468 -0.2960 -0.2054  0.4232
 7489SOL     OW34102   0.907   2.803   2.579  0.0306 -0.0098 -0.1580
 7489SOL    HW134103   0.926   2.845   2.495 -2.8921 -0.5369 -1.0930
 7489SOL    HW234104   0.858   2.725   2.554  0.8910 -0.2889 -1.0002
 7490SOL     OW34105   2.337   4.163  15.798  0.1138 -0.3189  0.4368
 7490SOL    HW134106   2.346   4.111  15.878 -0.6867 -1.6503 -0.3256
 7490SOL    HW234107   2.360   4.108  15.724  0.3153  2.8146 -1.8381
 7491SOL     OW34108   1.622   3.569   5.938  0.1852  0.1382  0.3868
 7491SOL    HW134109   1.664   3.528   6.014  2.1488 -0.4105 -0.9797
 7491SOL    HW234110   1.656   3.513   5.868  0.8022 -0.1735  0.9314
 7492SOL     OW34111   0.247   1.496   2.233 -0.1504  0.1767 -0.0203
 7492SOL    HW134112   0.241   1.546   2.152 -2.9024  0.4233  0.3454
 7492SOL    HW234113   0.276   1.414   2.193 -0.4021 -0.0716  0.2981
 7493SOL     OW34114   4.702   2.246  13.290 -0.0917  0.6526 -0.1119
 7493SOL    HW134115   4.620   2.199  13.274 -0.5439  1.0030  1.1895
 7493SOL    HW234116   0.021   2.195  13.351 -0.5185 -1.6095 -1.5967
 7494SOL     OW34117   0.939   1.634  17.217  0.9235 -0.2803 -0.0411
 7494SOL    HW134118   0.915   1.682  17.138  0.6769  1.1932  0.9228
 7494SOL    HW234119   0.880   1.676  17.279  0.2144 -0.1312 -0.8300
 7495SOL     OW34120   3.091   0.134   6.494 -0.0517  0.5353 -0.1205
 7495SOL    HW134121   3.183   0.152   6.473  0.7552 -2.3553  0.9948
 7495SOL    HW234122   3.042   0.181   6.426  1.4655 -0.0233 -1.6110
 7496SOL     OW34123   3.834   4.698  12.336 -0.3019 -0.4395  0.6981
 7496SOL    HW134124   3.884   4.619  12.316  1.4605  1.3297 -1.8386
 7496SOL    HW234125   3.746   4.661  12.333  0.0305 -1.2334  0.8332
 7497SOL     OW34126   4.045   2.804   2.936  0.2705  0.4318 -0.4603
 7497SOL    HW134127   4.037   2.878   2.996  1.7241 -0.6190  0.9909
 7497SOL    HW234128   3.968   2.817   2.880 -1.1688 -0.3798  1.3266
 7498SOL     OW34129   4.474   3.820   1.830 -0.1326  0.0802 -0.2471
 7498SOL    HW134130   4.483   3.899   1.777  0.8388 -0.1835 -0.4812
 7498SOL    HW234131   4.471   3.846   1.922 -2.0891 -1.7090  0.1741
 7499SOL     OW34132   1.614   4.715   8.356  0.5964  0.1944 -0.3689
 7499SOL    HW134133   1.703   4.681   8.353 -0.1735 -1.7056 -2.2152
 7499SOL    HW234134   1.590   0.015   8.270  1.8019  1.6244 -0.0843
 7500SOL     OW34135   2.676   3.132   8.249 -0.1161 -0.2238 -0.2784
 7500SOL    HW134136   2.605   3.089   8.203 -1.1468  0.2910  0.8132
 7500SOL    HW234137   2.670   3.223   8.218 -0.5002 -0.5317 -1.0822
 7501SOL     OW34138   4.687   3.580   5.929  0.5132 -0.7334 -0.3764
 7501SOL    HW134139   0.036   3.615   5.902  0.7717  0.0014  1.3689
 7501SOL    HW234140   4.695   3.528   6.009  1.7107 -0.7917 -0.5471
 7502SOL     OW34141   2.594   2.273  12.498  0.4478 -0.4148 -0.8497
 7502SOL    HW134142   2.533   2.213  12.455 -0.0847  0.3584 -1.1635
 7502SOL    HW234143   2.541   2.353  12.493 -0.1438 -0.7030  0.9867
 7503SOL     OW34144   1.801   3.576  10.542  0.0468  0.2921  0.0371
 7503SOL    HW134145   1.793   3.535  10.628 -1.7894 -1.2949 -0.8750
 7503SOL    HW234146   1.852   3.511  10.494 -1.0701 -1.0995  0.7233
 7504SOL     OW34147   4.444   2.091   8.131 -0.3429  0.3308  0.0195
 7504SOL    HW134148   4.460   2.046   8.214 -0.4827  1.4026  0.6262
 7504SOL    HW234149   4.415   2.020   8.074  0.7297  1.6123 -2.1378
 7505SOL     OW34150   3.861   3.226   4.560 -0.0343  0.0508 -0.5275
 7505SOL    HW134151   3.784   3.225   4.617  0.4665 -1.4639  0.1243
 7505SOL    HW234152   3.867   3.321   4.551  0.0098  0.2018  1.1737
 7506SOL     OW34153   3.929   3.086   6.888  0.1824  0.4199 -0.1537
 7506SOL    HW134154   3.839   3.055   6.889  1.5141 -3.3966  0.0043
 7506SOL    HW234155   3.981   3.006   6.877  1.5663  0.9408  2.3455
 7507SOL     OW34156   3.995   2.619  13.762 -0.0142  0.5393  0.4990
 7507SOL    HW134157   3.966   2.561  13.832  0.6257 -0.1361  0.2058
 7507SOL    HW234158   3.945   2.585  13.687  0.6705 -0.9621  0.7160
 7508SOL     OW34159   2.753   2.905   5.239  0.2444 -0.2172 -0.0405
 7508SOL    HW134160   2.814   2.833   5.251 -1.1315 -1.7145 -1.9690
 7508SOL    HW234161   2.792   2.960   5.307  1.6076 -1.3625  0.0882
 7509SOL     OW34162   1.160   3.184  17.485 -0.0622 -0.3566  0.0279
 7509SOL    HW134163   1.126   3.163  17.398 -1.3034  0.9837  0.1800
 7509SOL    HW234164   1.114   3.266  17.505 -0.0587 -0.1297 -0.9203
 7510SOL     OW34165   2.206   3.044   5.172 -0.2824 -0.7667  0.2299
 7510SOL    HW134166   2.273   3.058   5.239  1.0718  0.1221 -1.3157
 7510SOL    HW234167   2.168   3.131   5.186  2.4933  0.9033 -2.5477
 7511SOL     OW34168   0.665   0.704   1.535  0.5929 -0.2081  0.6687
 7511SOL    HW134169   0.748   0.659   1.516 -0.4974 -0.0977 -4.4301
 7511SOL    HW234170   0.597   0.639   1.520  0.7705 -0.0639 -0.7717
 7512SOL     OW34171   1.404   3.203   3.961 -0.4948  0.0824 -0.5569
 7512SOL    HW134172   1.360   3.192   4.045 -1.7862  0.0189 -1.2425
 7512SOL    HW234173   1.446   3.117   3.955  0.8639  0.5220  2.8322
 7513SOL     OW34174   1.050   2.102  14.538 -0.0881  0.6202  0.1012
 7513SOL    HW134175   0.994   2.176  14.563  0.2342  0.1636  2.1618
 7513SOL    HW234176   1.109   2.109  14.613  0.3073  2.2152 -0.3489
 7514SOL     OW34177   2.239   1.065   3.886  0.5790 -0.2746 -0.3482
 7514SOL    HW134178   2.303   1.059   3.815 -0.5483 -0.1915 -1.3818
 7514SOL    HW234179   2.222   0.972   3.900  0.3338  0.0295  1.3226
 7515SOL     OW34180   4.609   0.686   0.402  0.0349  0.2902 -0.3732
 7515SOL    HW134181   4.537   0.713   0.459  2.3886  2.9763  1.3398
 7515SOL    HW234182   4.688   0.685   0.457 -0.2787 -1.6443  0.0594
 7516SOL     OW34183   2.132   2.006   0.847 -0.3736 -0.2422  0.0200
 7516SOL    HW134184   2.064   1.967   0.793 -0.3923 -1.3330  0.8262
 7516SOL    HW234185   2.205   1.962   0.802 -2.0961 -3.4184  0.3808
 7517SOL     OW34186   0.074   2.162   2.785  0.4897 -0.1111  0.3388
 7517SOL    HW134187   0.090   2.147   2.692 -1.9021 -0.5093  0.0023
 7517SOL    HW234188   4.734   2.220   2.777  1.5554  1.1905 -0.4172
 7518SOL     OW34189   4.346   3.645  13.330 -0.4515 -0.5819  0.1164
 7518SOL    HW134190   4.327   3.598  13.249 -1.2550 -0.1761  0.0685
 7518SOL    HW234191   4.370   3.571  13.386  2.9039  0.2669 -0.2120
 7519SOL     OW34192   0.746   2.142   3.894 -0.0438  0.0282  0.6322
 7519SOL    HW134193   0.775   2.216   3.840 -0.7936 -0.1615 -0.0256
 7519SOL    HW234194   0.677   2.186   3.942 -0.6636  0.4505 -0.6441
 7520SOL     OW34195   1.713   2.619   8.135  0.3663 -0.6403 -0.0134
 7520SOL    HW134196   1.629   2.577   8.118 -0.2951 -0.2819  2.3671
 7520SOL    HW234197   1.737   2.586   8.221  1.3058  2.0432  0.7481
 7521SOL     OW34198   3.606   3.804   3.871 -0.3312  0.3497 -0.4274
 7521SOL    HW134199   3.679   3.789   3.931 -0.3487 -1.0553 -0.7783
 7521SOL    HW234200   3.652   3.865   3.813 -2.5405  4.0039  1.6298
 7522SOL     OW34201   4.646   3.497   4.329  0.0034  0.1953 -0.1436
 7522SOL    HW134202   4.676   3.535   4.246  2.1327 -0.3025  0.4083
 7522SOL    HW234203   4.676   3.410   4.301 -0.7237  0.3197 -1.3414
 7523SOL     OW34204   4.563   0.351   7.772 -0.2231  0.4014 -0.2608
 7523SOL    HW134205   4.504   0.366   7.698 -0.8886 -1.4446 -0.1052
 7523SOL    HW234206   4.639   0.324   7.721  0.1695 -0.2878  0.6948
 7524SOL     OW34207   1.597   4.525   9.950 -0.4505  0.2725 -0.1598
 7524SOL    HW134208   1.502   4.528   9.957 -0.3248 -0.3198  1.6875
 7524SOL    HW234209   1.599   4.437   9.988  0.2600 -0.9619 -3.0371
 7525SOL     OW34210   1.539   1.603   6.935 -0.1160 -0.6139  0.0391
 7525SOL    HW134211   1.462   1.591   6.992  0.6978  4.0865  2.1491
 7525SOL    HW234212   1.515   1.536   6.872  2.3931 -2.6776  1.2706
 7526SOL     OW34213   0.641   0.286   5.286 -0.5584 -0.0350 -0.2753
 7526SOL    HW134214   0.626   0.275   5.380  1.2141  0.6884  0.0948
 7526SOL    HW234215   0.681   0.374   5.287  1.7696 -1.0805 -1.1960
 7527SOL     OW34216   0.707   3.377  17.726 -0.6256 -0.1347 -0.0207
 7527SOL    HW134217   0.782   3.424  17.688 -1.9907  2.0541 -0.0269
 7527SOL    HW234218   0.742   3.336   0.063 -0.0295  0.9990  0.3107
 7528SOL     OW34219   3.607   0.387  15.159 -0.0547 -0.0246  0.6380
 7528SOL    HW134220   3.530   0.336  15.183  1.6029 -3.2688 -0.8730
 7528SOL    HW234221   3.666   0.321  15.123 -1.0350 -0.7480  0.3616
 7529SOL     OW34222   2.954   3.393  14.598  0.5222 -0.4875 -0.1817
 7529SOL    HW134223   2.960   3.326  14.530 -0.6403  0.0654 -0.8397
 7529SOL    HW234224   2.895   3.454  14.552  0.9687 -0.3079 -0.5200
 7530SOL     OW34225   1.593   3.101   4.171  0.1858  0.3053 -0.1873
 7530SOL    HW134226   1.609   3.167   4.238  0.2120 -1.2437  1.3454
 7530SOL    HW234227   1.651   3.135   4.103 -0.6708  1.1494 -0.5062
 7531SOL     OW34228   2.733   0.119  14.180  0.5276  0.0882  0.1285
 7531SOL    HW134229   2.737   0.192  14.118  1.0859 -1.3504 -1.5209
 7531SOL    HW234230   2.781   0.055  14.127 -1.9450 -0.9903 -0.8200
 7532SOL     OW34231   2.002   3.283   7.454 -0.1042 -0.2889 -0.6258
 7532SOL    HW134232   2.028   3.375   7.446 -0.2164 -0.3067 -1.2287
 7532SOL    HW234233   2.053   3.264   7.532  0.0198 -0.0736 -0.6532
 7533SOL     OW34234   3.210   4.117   6.737  0.6132  0.1839 -0.3106
 7533SOL    HW134235   3.156   4.194   6.715  1.1529  0.0766 -2.0065
 7533SOL    HW234236   3.255   4.149   6.815  2.3423 -0.6024 -1.0059
 7534SOL     OW34237   2.302   1.891   8.906  0.0428 -0.6613 -0.9560
 7534SOL    HW134238   2.380   1.864   8.858  1.4501  1.1671  0.3130
 7534SOL    HW234239   2.342   1.912   8.991 -2.5656 -0.0328  0.1305
 7535SOL     OW34240   0.098   4.121   4.510  0.0994 -0.2394  1.1103
 7535SOL    HW134241   0.192   4.140   4.519  0.5891 -1.9214 -0.4498
 7535SOL    HW234242   0.098   4.046   4.450 -0.1620  1.4993 -1.0556
 7536SOL     OW34243   3.777   2.889   3.751 -0.5425  0.1854 -0.6959
 7536SOL    HW134244   3.740   2.902   3.664  1.1714  0.8061 -1.3300
 7536SOL    HW234245   3.734   2.947   3.813 -1.5021 -0.8046 -0.4346
 7537SOL     OW34246   4.170   4.651   5.158  0.3358  0.2631 -1.1199
 7537SOL    HW134247   4.252   4.637   5.206 -0.6386  1.4760  0.9080
 7537SOL    HW234248   4.166   0.010   5.161 -0.6181  0.2079 -0.4574
 7538SOL     OW34249   0.034   2.195  14.666 -0.0749  0.1983 -0.0589
 7538SOL    HW134250   0.052   2.289  14.663 -0.6987  0.2949 -0.5585
 7538SOL    HW234251   4.675   2.196  14.683 -0.3301 -2.3763 -1.4118
 7539SOL     OW34252   3.007   0.253   4.630 -0.0109 -0.9303 -0.0464
 7539SOL    HW134253   3.022   0.160   4.611  1.0219 -0.9664  0.9719
 7539SOL    HW234254   3.028   0.296   4.547 -2.1630 -1.7816 -1.0362
 7540SOL     OW34255   2.463   1.002   8.640  0.0758 -0.1567 -0.7688
 7540SOL    HW134256   2.472   0.938   8.711 -0.9064 -1.2966 -1.6679
 7540SOL    HW234257   2.369   1.012   8.624  0.1626  1.5539 -0.1503
 7541SOL     OW34258   4.097   1.588   9.603  0.2587 -0.2965  0.0141
 7541SOL    HW134259   4.171   1.555   9.653 -0.6079 -0.3132  1.2937
 7541SOL    HW234260   4.025   1.574   9.665  0.5501 -0.8923  0.2108
 7542SOL     OW34261   2.337   2.853  11.583 -0.4311 -0.2935 -0.3334
 7542SOL    HW134262   2.276   2.906  11.532  0.9188 -0.8935 -2.5872
 7542SOL    HW234263   2.412   2.910  11.596 -0.3319 -0.2096 -1.2798
 7543SOL     OW34264   0.965   2.618  10.053  0.4092 -0.2178  0.5999
 7543SOL    HW134265   0.951   2.602   9.959 -2.3689  2.2687  0.6100
 7543SOL    HW234266   1.044   2.566  10.069  0.3908 -1.0314 -1.8252
 7544SOL     OW34267   3.655   2.155   3.486 -0.2413 -0.2613  0.0337
 7544SOL    HW134268   3.683   2.167   3.395  0.6840  0.1836  0.3804
 7544SOL    HW234269   3.706   2.077   3.508 -0.8901  0.5161  4.1736
 7545SOL     OW34270   2.807   4.026   2.360 -0.2082  0.3601 -0.5956
 7545SOL    HW134271   2.876   4.029   2.294  0.3219  0.1435 -0.0446
 7545SOL    HW234272   2.737   3.993   2.303  0.5241  0.1391 -1.3736
 7546SOL     OW34273   3.232   4.689  17.373  0.2912  0.6942  0.2632
 7546SOL    HW134274   3.207   4.682  17.281 -0.2282  1.7984  0.3298
 7546SOL    HW234275   3.294   0.026  17.374  1.4562 -0.2916 -1.1609
 7547SOL     OW34276   3.391   1.180  10.689 -0.2038 -0.4258  0.1219
 7547SOL    HW134277   3.381   1.191  10.595  1.9117 -4.7895 -0.6078
 7547SOL    HW234278   3.436   1.258  10.720  0.1421 -0.6121  0.0820
 7548SOL     OW34279   4.295   2.464  14.978 -0.5179  0.1113  0.2337
 7548SOL    HW134280   4.367   2.484  14.918 -0.4012 -1.0371 -0.0152
 7548SOL    HW234281   4.253   2.550  14.980  2.4807  1.5732  1.1655
 7549SOL     OW34282   3.341   0.244   1.686  0.9184  0.3231  0.1594
 7549SOL    HW134283   3.428   0.206   1.687  0.6271 -0.3725 -0.8579
 7549SOL    HW234284   3.345   0.261   1.592 -2.3169  0.1093 -0.0393
 7550SOL     OW34285   1.754   3.445  10.775 -0.2437  0.5022 -0.3137
 7550SOL    HW134286   1.662   3.465  10.795 -0.1292  0.4286  0.2876
 7550SOL    HW234287   1.796   3.441  10.861  0.2316 -0.4226 -0.5872
 7551SOL     OW34288   1.128   0.721  10.013 -0.2130  0.2678  0.3377
 7551SOL    HW134289   1.200   0.672   9.972 -1.3111 -1.9371  1.0520
 7551SOL    HW234290   1.173   0.805  10.024  2.2323 -0.6042 -2.8444
 7552SOL     OW34291   0.467   1.977   3.518  0.3584  0.3811  0.2096
 7552SOL    HW134292   0.484   2.069   3.497  0.6982 -0.0925 -1.6059
 7552SOL    HW234293   0.542   1.948   3.569  0.5038  1.1989  0.4612
 7553SOL     OW34294   0.278   1.682   6.907 -0.1786 -0.5383  0.1298
 7553SOL    HW134295   0.193   1.726   6.904  0.3980  0.4635 -1.3696
 7553SOL    HW234296   0.256   1.600   6.952 -2.5858 -0.3351 -0.6624
 7554SOL     OW34297   4.378   1.662   3.941 -0.0602  0.1472 -0.0068
 7554SOL    HW134298   4.462   1.709   3.937  0.3674 -0.6641 -0.4894
 7554SOL    HW234299   4.322   1.740   3.943  0.1898  0.3210  0.1687
 7555SOL     OW34300   4.312   1.298   6.154 -0.4380  0.1090  0.0859
 7555SOL    HW134301   4.262   1.373   6.186 -0.1278 -0.1619  1.2147
 7555SOL    HW234302   4.346   1.330   6.070 -0.3398 -2.2780 -0.7861
 7556SOL     OW34303   3.512   4.172   5.928 -0.2028  0.3241  0.2215
 7556SOL    HW134304   3.522   4.261   5.960  0.8715  0.0900  0.5103
 7556SOL    HW234305   3.582   4.164   5.863  1.2926 -1.5570  2.0762
 7557SOL     OW34306   1.735   4.077   5.153 -0.0725 -0.5685 -0.2185
 7557SOL    HW134307   1.732   3.991   5.110 -0.3424 -0.6402 -0.0572
 7557SOL    HW234308   1.642   4.088   5.175  0.1074 -0.7951  0.6797
 7558SOL     OW34309   3.700   0.182   7.218  0.0361 -0.3822 -0.5766
 7558SOL    HW134310   3.623   0.238   7.227 -0.3743 -1.0312 -0.0967
 7558SOL    HW234311   3.710   0.188   7.123 -0.4410  0.7657 -0.5570
 7559SOL     OW34312   2.014   0.192   4.533  0.2968 -0.1014  0.4977
 7559SOL    HW134313   2.025   0.271   4.586 -1.1648  0.2000  0.3449
 7559SOL    HW234314   2.001   0.129   4.603  0.1985 -1.7097 -0.9584
 7560SOL     OW34315   0.075   2.742   3.462  0.0159 -0.0682  0.2168
 7560SOL    HW134316   0.041   2.696   3.538  1.7463 -1.1320  0.3547
 7560SOL    HW234317   0.061   2.832   3.490  0.4112 -0.0798  0.4485
 7561SOL     OW34318   2.725   4.382   4.308  0.7715  0.2351  0.5959
 7561SOL    HW134319   2.761   4.305   4.352 -2.0851 -1.9680 -0.9144
 7561SOL    HW234320   2.787   4.394   4.236  0.4670  0.2159  0.3325
 7562SOL     OW34321   2.874   3.516  13.978 -0.4821 -0.2506 -0.0665
 7562SOL    HW134322   2.962   3.491  14.007 -0.1270  0.5315 -0.4715
 7562SOL    HW234323   2.829   3.432  13.977  2.0258 -1.5680 -0.8486
 7563SOL     OW34324   4.416   2.301   7.956  0.3026 -0.0077  0.0892
 7563SOL    HW134325   4.407   2.229   8.018  1.8598  0.6291  1.0490
 7563SOL    HW234326   4.328   2.337   7.943  0.0267 -0.8271 -0.3143
 7564SOL     OW34327   1.466   2.321  16.231  0.1302 -0.3085 -0.2633
 7564SOL    HW134328   1.409   2.247  16.255 -0.2598  0.7201  2.0025
 7564SOL    HW234329   1.475   2.314  16.136 -1.2055  0.9363 -0.4911
 7565SOL     OW34330   1.581   2.360   9.292 -0.4143 -0.5638  0.1428
 7565SOL    HW134331   1.624   2.310   9.361 -1.3010 -1.1862  0.2426
 7565SOL    HW234332   1.490   2.335   9.310 -0.5591 -0.3326 -0.2623
 7566SOL     OW34333   0.632   2.913   1.861  0.0326 -0.2632 -0.1793
 7566SOL    HW134334   0.567   2.910   1.932  0.6463 -1.3704  0.3297
 7566SOL    HW234335   0.573   2.927   1.787  1.8025  1.1545 -1.3196
 7567SOL     OW34336   3.043   1.562  15.012 -0.4393  0.5889 -0.0719
 7567SOL    HW134337   2.991   1.520  14.945  1.5879 -2.1813  0.0586
 7567SOL    HW234338   3.093   1.486  15.043 -0.4261  1.0889  1.1272
 7568SOL     OW34339   0.254   1.912   6.606  0.2766 -0.3220  0.0457
 7568SOL    HW134340   0.251   1.883   6.514 -0.8868  0.0699 -0.0486
 7568SOL    HW234341   0.161   1.933   6.614  0.9458  2.2920  0.8019
 7569SOL     OW34342   1.805   1.510   6.337  0.3492 -0.1744  0.4636
 7569SOL    HW134343   1.882   1.543   6.384 -1.3207  1.9601  1.6948
 7569SOL    HW234344   1.752   1.464   6.403  0.3787  0.3444  0.8544
 7570SOL     OW34345   3.982   1.462  10.842  0.0795  0.5424  0.3180
 7570SOL    HW134346   4.010   1.444  10.932 -1.6506  1.8433  1.1192
 7570SOL    HW234347   4.064   1.436  10.799 -0.3594 -1.4654  0.6715
 7571SOL     OW34348   2.300   2.251   6.654 -0.0825 -0.3066 -0.1124
 7571SOL    HW134349   2.363   2.316   6.621 -0.2118 -0.1574 -0.0671
 7571SOL    HW234350   2.312   2.255   6.749 -0.5732 -0.5497 -0.0415
 7572SOL     OW34351   3.093   3.736   6.470 -0.0270  0.0940  0.3843
 7572SOL    HW134352   3.107   3.658   6.416  0.4654  0.1919  0.3667
 7572SOL    HW234353   3.144   3.802   6.423 -1.5172  0.1830 -1.0846
 7573SOL     OW34354   0.253   3.116  13.547 -0.5849 -0.2521  0.8624
 7573SOL    HW134355   0.241   3.173  13.623 -0.0244  2.0809 -0.8122
 7573SOL    HW234356   0.186   3.047  13.549 -0.5528 -0.3722 -2.3017
 7574SOL     OW34357   3.331   2.735   2.199 -0.1958  0.0547 -0.7898
 7574SOL    HW134358   3.255   2.753   2.254  0.3716 -3.9406  1.3248
 7574SOL    HW234359   3.296   2.681   2.129  0.1416  2.9748 -3.1748
 7575SOL     OW34360   1.709   0.536  15.220  0.3490  0.6933  0.8092
 7575SOL    HW134361   1.710   0.443  15.241  1.2132 -0.5403 -4.7247
 7575SOL    HW234362   1.624   0.544  15.177 -0.5634 -1.4589  2.2328
 7576SOL     OW34363   4.126   4.361   1.704  0.6687 -0.4071 -0.1019
 7576SOL    HW134364   4.178   4.419   1.647 -0.2946  0.5449 -0.0027
 7576SOL    HW234365   4.154   4.272   1.682 -0.9589 -0.4938 -1.8435
 7577SOL     OW34366   1.348   2.204   7.678  0.3958 -0.4007 -0.2481
 7577SOL    HW134367   1.413   2.140   7.707  0.7683  0.5412  0.9957
 7577SOL    HW234368   1.309   2.167   7.599 -1.4788  1.4259 -0.1845
 7578SOL     OW34369   1.419   0.759   3.330  0.0517 -0.0398 -0.2996
 7578SOL    HW134370   1.448   0.670   3.310  1.9104  0.1050  1.7186
 7578SOL    HW234371   1.325   0.747   3.317  0.1210  0.3556 -1.1752
 7579SOL     OW34372   1.806   3.476   6.123 -0.5183  0.1876 -0.0754
 7579SOL    HW134373   1.858   3.399   6.099  1.2174  1.6161 -0.9220
 7579SOL    HW234374   1.749   3.437   6.189 -1.3439  1.7219  0.1148
 7580SOL     OW34375   1.534   0.227  11.540 -0.1783 -0.2488 -0.5971
 7580SOL    HW134376   1.497   0.303  11.496  0.9445  1.0607  0.7431
 7580SOL    HW234377   1.455   0.198  11.586  0.3137 -1.4158 -0.4725
 7581SOL     OW34378   2.426   1.641   3.400 -0.1539  0.2443  0.0496
 7581SOL    HW134379   2.490   1.570   3.402 -0.5258 -0.0893 -0.0374
 7581SOL    HW234380   2.368   1.617   3.472  0.8364 -0.3280  0.6601
 7582SOL     OW34381   2.109   0.906   6.317  0.2161 -0.6849 -0.2438
 7582SOL    HW134382   2.021   0.870   6.332 -0.0469 -0.2695 -0.7704
 7582SOL    HW234383   2.143   0.849   6.249  1.7859 -1.4548  1.2000
 7583SOL     OW34384   0.724   2.898  17.631  0.3169  0.0488  0.0729
 7583SOL    HW134385   0.809   2.941  17.622  0.3235 -0.0953 -0.5964
 7583SOL    HW234386   0.714   2.877  17.538  0.8225 -0.2808  0.0924
 7584SOL     OW34387   3.457   4.262   5.385  0.9033 -0.2240 -0.4871
 7584SOL    HW134388   3.499   4.327   5.441 -1.2467  0.8903 -0.1523
 7584SOL    HW234389   3.420   4.327   5.326 -0.0964 -1.8273 -1.6297
 7585SOL     OW34390   1.281   4.381  11.822  0.4344 -0.3867  0.2050
 7585SOL    HW134391   1.257   4.372  11.729 -2.0982 -0.8556  0.9234
 7585SOL    HW234392   1.308   4.289  11.832 -1.3273 -0.9214 -0.0036
 7586SOL     OW34393   2.535   0.932  15.898 -0.6347  0.1168 -0.0511
 7586SOL    HW134394   2.468   0.928  15.830 -0.0006  0.5496 -0.7073
 7586SOL    HW234395   2.562   1.023  15.884 -1.6843  0.4551  0.1228
 7587SOL     OW34396   1.955   2.319   7.801 -0.4056  0.3971  0.0394
 7587SOL    HW134397   1.958   2.406   7.762  1.5616 -0.1179 -0.9421
 7587SOL    HW234398   2.047   2.301   7.821 -0.3185  0.3213 -0.4386
 7588SOL     OW34399   2.693   3.354   3.128  0.3475 -0.5036 -0.0887
 7588SOL    HW134400   2.690   3.265   3.163  0.6813 -0.5548 -0.1869
 7588SOL    HW234401   2.653   3.411   3.194  1.4715  2.6371 -2.0884
 7589SOL     OW34402   2.878   0.950   0.160  0.2031  0.3795 -0.3266
 7589SOL    HW134403   2.896   0.892   0.233  1.5151 -0.5679 -1.3933
 7589SOL    HW234404   2.967   0.970   0.131 -0.6351  1.4443 -2.1673
 7590SOL     OW34405   4.529   3.228   3.940 -0.1009 -0.1291 -0.3266
 7590SOL    HW134406   4.477   3.149   3.926 -1.0360  0.5075 -0.4960
 7590SOL    HW234407   4.483   3.264   4.017 -1.5005 -1.4764 -0.5348
 7591SOL     OW34408   4.501   1.016  13.547  0.2686 -0.1938  0.3456
 7591SOL    HW134409   4.588   0.987  13.575  0.1602  0.6232  1.5377
 7591SOL    HW234410   4.449   0.976  13.616 -0.5216 -0.9448 -0.6878
 7592SOL     OW34411   0.620   0.821   7.035 -0.1434  0.6425 -0.3522
 7592SOL    HW134412   0.671   0.856   7.108 -0.2913  0.6256 -0.2397
 7592SOL    HW234413   0.652   0.734   7.059  1.4223  1.0173 -1.0646
 7593SOL     OW34414   4.230   2.758  10.564  0.4690 -0.2192 -0.1816
 7593SOL    HW134415   4.177   2.837  10.578 -0.1773 -0.7771  0.5397
 7593SOL    HW234416   4.152   2.715  10.528 -1.1735  4.1703 -1.9862
 7594SOL     OW34417   2.265   2.997  13.813  0.1075  0.4471  0.0829
 7594SOL    HW134418   2.311   2.989  13.730  0.6267 -0.3105  0.4425
 7594SOL    HW234419   2.286   3.086  13.841  2.1333  0.2377 -0.7639
 7595SOL     OW34420   3.502   0.178   2.018 -0.3177  0.1324  0.1502
 7595SOL    HW134421   3.525   0.225   1.938 -0.5592  1.2492  0.7367
 7595SOL    HW234422   3.544   0.231   2.086 -1.5760  3.0459 -1.3302
 7596SOL     OW34423   2.227   1.739  11.366 -0.8781 -0.0494 -0.9377
 7596SOL    HW134424   2.188   1.765  11.450 -0.7785  0.6110 -1.0899
 7596SOL    HW234425   2.253   1.822  11.326 -2.4928  1.3076  0.7981
 7597SOL     OW34426   1.953   3.285  14.520 -0.0189 -0.3147  0.0487
 7597SOL    HW134427   1.928   3.376  14.508 -0.0864 -0.5927 -2.0156
 7597SOL    HW234428   1.903   3.250  14.445  3.3846 -1.4973 -1.6834
 7598SOL     OW34429   3.433   0.499   3.784 -0.3871  0.1438  0.5238
 7598SOL    HW134430   3.518   0.497   3.827 -0.8118 -1.3742  1.3263
 7598SOL    HW234431   3.467   0.477   3.698 -0.1335  0.9920  0.4047
 7599SOL     OW34432   1.988   0.802   7.534 -0.6207  0.3617 -0.1918
 7599SOL    HW134433   1.895   0.818   7.519 -0.2168  1.5655 -1.2991
 7599SOL    HW234434   2.003   0.751   7.455 -0.0756 -1.0836  0.8292
 7600SOL     OW34435   0.520   4.376   2.601 -0.2414  0.1430  0.3723
 7600SOL    HW134436   0.483   4.348   2.685 -1.5267 -0.1627 -0.2949
 7600SOL    HW234437   0.561   4.295   2.571  1.2868  0.7778  0.7495
 7601SOL     OW34438   0.106   0.860   6.035  0.1422  0.5436  0.0457
 7601SOL    HW134439   0.190   0.825   6.005 -0.0509  1.4907 -1.6200
 7601SOL    HW234440   0.097   0.810   6.116  1.3730 -2.7395 -1.8303
 7602SOL     OW34441   3.893   0.109   1.763  0.4342 -0.0070  0.3704
 7602SOL    HW134442   3.970   0.165   1.752 -0.8899  1.7635  0.2017
 7602SOL    HW234443   3.910   0.059   1.843  1.4685 -0.6916 -0.2830
 7603SOL     OW34444   1.031   3.550   0.859  0.2805  0.3161 -0.2911
 7603SOL    HW134445   1.029   3.473   0.916  0.3187  1.8643  1.7994
 7603SOL    HW234446   0.955   3.600   0.890  1.8317  1.1288  2.2347
 7604SOL     OW34447   3.136   2.813   7.876  0.8971 -0.4894 -0.0442
 7604SOL    HW134448   3.205   2.812   7.810 -0.2863  2.3835 -1.3489
 7604SOL    HW234449   3.105   2.723   7.865  1.4731 -0.6929  0.0204
 7605SOL     OW34450   1.236   3.285  15.807 -0.0347  0.2324 -0.1764
 7605SOL    HW134451   1.302   3.350  15.783 -0.8200  0.0864 -2.6790
 7605SOL    HW234452   1.156   3.334  15.824  0.2931  0.9962 -0.8813
 7606SOL     OW34453   0.800   3.823   7.796  0.3149 -0.9532 -0.0465
 7606SOL    HW134454   0.716   3.860   7.821  0.4973 -1.2784  1.0587
 7606SOL    HW234455   0.766   3.737   7.772 -0.7397 -0.8521  1.0801
 7607SOL     OW34456   4.000   3.091  16.167 -0.2038  0.2659 -0.2578
 7607SOL    HW134457   3.974   3.004  16.137  2.7655 -1.1130  1.2043
 7607SOL    HW234458   3.968   3.097  16.257  1.8137  2.6535  0.3168
 7608SOL     OW34459   3.977   1.718   8.291 -0.2500  0.1535  0.4195
 7608SOL    HW134460   4.053   1.662   8.280  0.2585  0.9916 -0.3305
 7608SOL    HW234461   3.994   1.799   8.242  0.6556 -0.5402 -0.4191
 7609SOL     OW34462   4.646   3.929   5.954  1.1736 -0.1619  0.0323
 7609SOL    HW134463   4.728   3.938   5.906  0.2584 -1.0794 -1.7076
 7609SOL    HW234464   4.659   3.865   6.024 -1.4327  0.3542  0.9875
 7610SOL     OW34465   1.303   0.070  11.170 -0.4405  0.4683 -0.1373
 7610SOL    HW134466   1.398   0.057  11.175 -0.2777  1.6998 -0.0796
 7610SOL    HW234467   1.302   0.161  11.142  0.2641  0.5165 -0.0154
 7611SOL     OW34468   3.543   1.224   7.945 -0.4370  0.4175 -0.3873
 7611SOL    HW134469   3.539   1.158   7.875  2.6827 -0.5514  0.3329
 7611SOL    HW234470   3.489   1.179   8.010  3.4127 -0.6164  2.1104
 7612SOL     OW34471   4.158   1.229   7.161 -0.4785  0.3059  0.4556
 7612SOL    HW134472   4.084   1.192   7.114 -2.2610  1.3206  2.4270
 7612SOL    HW234473   4.167   1.163   7.230 -0.8859 -0.5787 -0.3450
 7613SOL     OW34474   0.651   2.099   1.444  0.1969 -0.1132  0.3034
 7613SOL    HW134475   0.688   2.134   1.363  0.8919  0.4982  0.8893
 7613SOL    HW234476   0.677   2.162   1.512 -0.8929  0.5133  0.1514
 7614SOL     OW34477   1.980   4.467   0.453  1.1314  0.1756 -0.0534
 7614SOL    HW134478   1.891   4.430   0.454  1.9392 -1.8314 -1.5491
 7614SOL    HW234479   2.014   4.466   0.543 -0.7778  1.1335  0.6852
 7615SOL     OW34480   0.148   1.541  14.198  0.4616  0.2006 -0.3913
 7615SOL    HW134481   0.113   1.504  14.279 -0.6314 -1.4463 -1.6034
 7615SOL    HW234482   0.228   1.493  14.175  2.2282  2.5599  0.9246
 7616SOL     OW34483   3.279   3.280   2.752  0.0428 -0.7427 -0.8597
 7616SOL    HW134484   3.242   3.361   2.785  2.2527  0.3244 -1.0376
 7616SOL    HW234485   3.342   3.255   2.820 -0.0195  0.6183 -0.2990
 7617SOL     OW34486   4.647   3.189   1.799 -0.1704 -0.1990  0.1290
 7617SOL    HW134487   4.646   3.131   1.723  1.7857  0.7847 -0.6621
 7617SOL    HW234488   4.567   3.238   1.781  0.3158  0.6252  0.2011
 7618SOL     OW34489   3.157   4.124  13.622  0.4515  0.2011  0.5416
 7618SOL    HW134490   3.167   4.072  13.542  1.4294  0.2551  0.6371
 7618SOL    HW234491   3.160   4.056  13.689  0.1908 -1.2084 -0.8813
 7619SOL     OW34492   0.565   0.724   3.509  0.0823 -0.1222 -0.1566
 7619SOL    HW134493   0.524   0.780   3.443  0.5421  0.1537 -0.2130
 7619SOL    HW234494   0.567   0.785   3.583 -0.3329  0.3154 -0.5037
 7620SOL     OW34495   1.725   4.561  13.344  0.8160 -0.2976 -0.1160
 7620SOL    HW134496   1.676   4.520  13.415 -0.2660  2.0450  0.4705
 7620SOL    HW234497   1.671   4.639  13.333 -1.0275 -1.5458  0.0089
 7621SOL     OW34498   4.008   1.278  10.110 -0.1797 -0.2588  0.0782
 7621SOL    HW134499   4.085   1.292  10.165  0.6236  0.1315 -1.1554
 7621SOL    HW234500   3.951   1.354  10.123 -0.5508 -0.4326 -0.5226
 7622SOL     OW34501   0.381   3.169   5.515 -0.3018  0.2895 -0.8670
 7622SOL    HW134502   0.337   3.149   5.433 -0.4496  0.5832 -0.8593
 7622SOL    HW234503   0.301   3.181   5.567  0.1739 -0.3985  0.0258
 7623SOL     OW34504   1.100   1.491  15.275  0.1510  0.6220  0.0705
 7623SOL    HW134505   1.113   1.485  15.180 -0.7713 -1.1963  0.0529
 7623SOL    HW234506   1.050   1.573  15.278  0.6394  0.9762 -1.5402
 7624SOL     OW34507   1.560   3.648   4.090 -0.6094  0.0699 -0.0654
 7624SOL    HW134508   1.489   3.670   4.029 -1.6627  0.6750  1.3521
 7624SOL    HW234509   1.567   3.734   4.132 -0.5662 -0.8020  1.6949
 7625SOL     OW34510   1.680   0.179   8.506 -0.2886 -0.1776 -0.3587
 7625SOL    HW134511   1.644   0.130   8.580 -1.5628  1.0739 -0.1533
 7625SOL    HW234512   1.644   0.127   8.435  2.2901 -0.1701 -1.6996
 7626SOL     OW34513   0.647   4.044  10.318 -0.3686 -0.1388  0.1740
 7626SOL    HW134514   0.735   4.032  10.282  0.1504 -2.2912  2.2296
 7626SOL    HW234515   0.662   4.128  10.361  0.6903 -0.0468 -0.3711
 7627SOL     OW34516   0.369   1.908  12.733 -0.3530  0.1354  0.5671
 7627SOL    HW134517   0.308   1.860  12.677  2.5823 -3.4130  0.4505
 7627SOL    HW234518   0.310   1.972  12.774 -0.3004 -1.3605  2.9556
 7628SOL     OW34519   1.071   2.116  13.040 -0.7648  0.3607 -0.8551
 7628SOL    HW134520   0.981   2.147  13.028 -1.5654 -0.8220  2.2399
 7628SOL    HW234521   1.099   2.112  12.948  2.0697  0.8312 -0.0218
 7629SOL     OW34522   1.839   3.985   7.817  0.4400 -0.1475 -0.4656
 7629SOL    HW134523   1.932   3.965   7.826 -0.0778 -2.5109 -0.1390
 7629SOL    HW234524   1.827   4.053   7.883 -1.1802 -0.1208 -0.7846
 7630SOL     OW34525   1.590   3.036   0.364  0.5670 -0.7740 -0.5580
 7630SOL    HW134526   1.558   3.125   0.379 -2.7124 -1.9822 -0.5054
 7630SOL    HW234527   1.517   2.990   0.405  0.8690  0.2976  1.2023
 7631SOL     OW34528   2.403   4.587   3.800  0.1898 -0.5422  0.2284
 7631SOL    HW134529   2.492   4.582   3.834  0.1427 -1.1072  0.2612
 7631SOL    HW234530   2.347   4.614   3.872  0.3557 -0.1252  0.2000
 7632SOL     OW34531   3.199   2.849   4.494 -1.0630 -0.0787  0.5069
 7632SOL    HW134532   3.169   2.805   4.415  0.3982  0.7783 -0.5390
 7632SOL    HW234533   3.289   2.815   4.493 -0.3146  1.8592  1.5164
 7633SOL     OW34534   2.410   3.631   3.423 -0.5386  0.8692 -0.0864
 7633SOL    HW134535   2.502   3.622   3.397 -0.2262  2.4699  0.4920
 7633SOL    HW234536   2.361   3.556   3.389 -1.8733  2.4086 -1.5255
 7634SOL     OW34537   4.119   0.246   4.862  0.3354 -0.5930 -0.1463
 7634SOL    HW134538   4.062   0.209   4.795  1.2535  0.8317 -1.7018
 7634SOL    HW234539   4.201   0.205   4.833  0.0870 -2.4908  1.8184
 7635SOL     OW34540   0.236   3.458   7.265  0.4140  0.2249  0.2980
 7635SOL    HW134541   0.219   3.367   7.241 -0.6664  1.5222 -3.9695
 7635SOL    HW234542   0.226   3.500   7.179  0.2591  1.3722  0.8830
 7636SOL     OW34543   0.886   3.156   7.908 -0.5187 -0.4342 -0.3697
 7636SOL    HW134544   0.924   3.088   7.853 -0.8301  0.1127 -1.2503
 7636SOL    HW234545   0.885   3.100   7.986  1.3260  0.1582  0.0666
 7637SOL     OW34546   0.053   2.400   3.524  0.1733 -0.0902 -0.0838
 7637SOL    HW134547   0.148   2.388   3.520  0.3335  1.2621 -0.1560
 7637SOL    HW234548   0.043   2.484   3.568  2.5455  0.8990 -1.4077
 7638SOL     OW34549   0.264   2.932  14.379  0.0826  0.3049  0.2520
 7638SOL    HW134550   0.346   2.979  14.393 -0.8284  1.6296  1.0676
 7638SOL    HW234551   0.258   2.902  14.469  0.9316 -0.0231  0.1995
 7639SOL     OW34552   2.086   0.786   2.438  0.2083 -0.1209  0.3071
 7639SOL    HW134553   2.041   0.725   2.379  1.3655  0.4221 -1.1275
 7639SOL    HW234554   2.058   0.874   2.411  0.1519 -0.2724 -0.1420
 7640SOL     OW34555   3.014   3.985   8.906  0.2243  0.1286 -0.0799
 7640SOL    HW134556   2.923   4.008   8.886  0.1526  1.5329  1.7838
 7640SOL    HW234557   3.022   4.032   8.989  1.3139 -0.6017  0.2268
 7641SOL     OW34558   1.292   2.125   4.778 -0.1503 -0.4055  0.4949
 7641SOL    HW134559   1.270   2.114   4.685 -1.3087 -0.3359  0.7700
 7641SOL    HW234560   1.375   2.078   4.766  0.6084  0.4785  2.2749
 7642SOL     OW34561   1.270   2.198   0.788 -0.0594 -0.2329 -0.0418
 7642SOL    HW134562   1.343   2.260   0.794  0.5051 -0.8912 -0.0606
 7642SOL    HW234563   1.197   2.256   0.769 -0.4101 -0.2841  1.1384
 7643SOL     OW34564   1.912   0.867   7.137 -0.0103 -0.6443  0.0655
 7643SOL    HW134565   1.828   0.859   7.181  0.6295  0.6109  1.5403
 7643SOL    HW234566   1.944   0.956   7.153 -1.0407 -0.2468 -0.1117
 7644SOL     OW34567   1.656   2.948  12.637  0.0247  0.1494  0.4342
 7644SOL    HW134568   1.587   2.928  12.701  2.2101  1.0900  3.1178
 7644SOL    HW234569   1.685   3.033  12.671  3.0063 -1.1071  1.0600
 7645SOL     OW34570   1.344   0.263   8.790 -0.2073  0.5659  0.2730
 7645SOL    HW134571   1.338   0.211   8.870 -0.8116 -0.1499 -0.2359
 7645SOL    HW234572   1.315   0.203   8.721 -0.3350  0.7812  0.1386
 7646SOL     OW34573   2.341   3.861   8.158 -0.6800  0.1126 -0.3278
 7646SOL    HW134574   2.257   3.886   8.197 -0.8870  0.3108 -0.8989
 7646SOL    HW234575   2.386   3.836   8.239  1.3209 -1.4095 -1.9121
 7647SOL     OW34576   3.558   2.130  12.275  0.4194 -0.0292 -0.5022
 7647SOL    HW134577   3.589   2.116  12.185  0.3289  0.4260 -0.6038
 7647SOL    HW234578   3.475   2.173  12.254  0.1455 -1.1365 -1.7373
 7648SOL     OW34579   4.087   1.474   5.815  0.3312 -0.0108 -0.3425
 7648SOL    HW134580   4.091   1.460   5.720 -1.3322  0.5444 -0.4930
 7648SOL    HW234581   4.169   1.439   5.849  0.3831 -1.5517 -2.0437
 7649SOL     OW34582   1.855   1.109  12.323 -0.3043 -1.0831  0.8401
 7649SOL    HW134583   1.876   1.193  12.364  2.2593 -1.6143  0.5984
 7649SOL    HW234584   1.819   1.046  12.386 -1.8145 -1.0799  0.0030
 7650SOL     OW34585   1.104   0.444   5.785 -0.2327 -0.0091  0.1291
 7650SOL    HW134586   1.102   0.371   5.723  1.2375  0.2095 -0.1841
 7650SOL    HW234587   1.010   0.438   5.798 -0.2320 -1.7235 -0.5511
 7651SOL     OW34588   3.986   4.492   6.880 -0.3734  0.4317  0.1762
 7651SOL    HW134589   3.948   4.434   6.814 -0.2012 -0.6762  1.0347
 7651SOL    HW234590   3.932   4.465   6.955 -0.5862 -0.9664 -0.4772
 7652SOL     OW34591   1.208   1.858   8.129 -0.0765  0.1139  0.0863
 7652SOL    HW134592   1.124   1.902   8.136 -0.7433 -0.8879 -1.8379
 7652SOL    HW234593   1.199   1.795   8.058  1.0463 -3.1646  2.8203
 7653SOL     OW34594   0.835   2.552   2.144 -0.0780  0.3704 -0.1083
 7653SOL    HW134595   0.869   2.635   2.111  1.8704 -0.0231  0.9209
 7653SOL    HW234596   0.752   2.548   2.096 -0.3760 -1.8134  0.5880
 7654SOL     OW34597   2.888   4.656   6.517 -0.1503  0.0135  0.2588
 7654SOL    HW134598   2.802   4.696   6.503 -0.1015 -0.1711 -0.5646
 7654SOL    HW234599   2.944   4.734   6.523 -0.0972 -0.0075  0.0442
 7655SOL     OW34600   3.637   2.892   9.499  0.2687  0.7961  0.2999
 7655SOL    HW134601   3.707   2.943   9.459  0.0541 -2.6131 -4.2934
 7655SOL    HW234602   3.576   2.887   9.425  0.0895 -0.2975  0.5211
 7656SOL     OW34603   1.247   2.500  16.518 -0.2105  0.1319 -0.2945
 7656SOL    HW134604   1.252   2.547  16.435 -1.4061 -1.0488 -1.0526
 7656SOL    HW234605   1.302   2.421  16.515 -0.3709 -0.0269  0.9574
 7657SOL     OW34606   2.840   4.258   9.350 -0.5906 -0.0338  0.7774
 7657SOL    HW134607   2.832   4.353   9.349  0.2790  0.0258  0.1111
 7657SOL    HW234608   2.934   4.245   9.344 -0.5740 -0.4413  1.8594
 7658SOL     OW34609   2.816   2.338   3.151 -0.0393  0.6325 -0.0699
 7658SOL    HW134610   2.828   2.409   3.089  0.9976 -1.7995 -2.6601
 7658SOL    HW234611   2.784   2.389   3.226 -0.1096 -1.0111  1.0210
 7659SOL     OW34612   1.780   0.589   3.933 -0.3913  0.3437  0.7268
 7659SOL    HW134613   1.819   0.668   3.894  2.5668 -0.8324  1.3195
 7659SOL    HW234614   1.692   0.586   3.895  1.4824 -0.2015 -3.6412
 7660SOL     OW34615   0.231   1.627   4.178  0.0227 -0.2062 -0.5675
 7660SOL    HW134616   0.190   1.686   4.115  1.7091 -0.2494 -1.7151
 7660SOL    HW234617   0.311   1.602   4.132  0.9757 -1.1151  1.5480
 7661SOL     OW34618   4.704   1.479  10.212  0.1563 -0.1664 -0.0560
 7661SOL    HW134619   0.035   1.487  10.281  0.6332 -1.4929 -0.3743
 7661SOL    HW234620   4.630   1.441  10.259  1.4107  0.1284  2.1468
 7662SOL     OW34621   0.162   1.210   7.118  0.0363 -0.0260 -0.3170
 7662SOL    HW134622   0.105   1.135   7.102  0.5001 -0.8205  1.7657
 7662SOL    HW234623   0.243   1.180   7.079  0.2906 -0.9436  0.9189
 7663SOL     OW34624   4.071   1.551   1.268  0.1014  0.0327  0.4575
 7663SOL    HW134625   4.014   1.567   1.343 -2.2369 -0.2459 -1.2417
 7663SOL    HW234626   4.118   1.634   1.268 -0.6177  0.4434 -0.2202
 7664SOL     OW34627   1.468   0.096   6.688 -0.4205  0.1818 -0.2468
 7664SOL    HW134628   1.458   0.142   6.772 -2.2039 -2.8785  1.2285
 7664SOL    HW234629   1.427   0.012   6.707 -0.1452 -0.1774 -1.2466
 7665SOL     OW34630   1.868   1.811  13.195  0.5090 -0.4610  0.3458
 7665SOL    HW134631   1.952   1.767  13.210  1.0504  1.6506  3.4114
 7665SOL    HW234632   1.892   1.903  13.204  0.6183 -0.3256 -1.3457
 7666SOL     OW34633   4.683   2.474   4.895 -0.2069  0.5889  0.2424
 7666SOL    HW134634   0.014   2.440   4.955  1.8894 -0.8287 -2.9199
 7666SOL    HW234635   4.645   2.391   4.868 -1.1893  1.2518 -0.4133
 7667SOL     OW34636   1.674   0.270   9.835 -0.1624  0.2472  0.1763
 7667SOL    HW134637   1.620   0.318   9.898  1.2746  1.7568  0.2484
 7667SOL    HW234638   1.736   0.332   9.798 -2.5440  1.6267 -1.5390
 7668SOL     OW34639   4.080   3.090   6.258  0.0367  0.0547  0.3591
 7668SOL    HW134640   4.090   3.134   6.173 -0.7784  0.6446  0.5724
 7668SOL    HW234641   4.131   3.010   6.247 -0.3981 -0.1027 -0.4723
 7669SOL     OW34642   4.311   2.931   9.591 -0.0255  0.8310 -0.5007
 7669SOL    HW134643   4.264   3.003   9.549 -0.5549  0.3958 -0.6481
 7669SOL    HW234644   4.392   2.974   9.617 -0.0895  0.3635  0.4544
 7670SOL     OW34645   3.283   3.046   8.541 -1.0774  0.1772  0.5337
 7670SOL    HW134646   3.268   2.956   8.512 -1.7359  0.4320  0.0954
 7670SOL    HW234647   3.202   3.066   8.588 -2.3427  0.7340 -1.8712
 7671SOL     OW34648   1.896   4.018  12.923  0.4700 -0.6865 -0.6779
 7671SOL    HW134649   1.884   3.944  12.983  0.6429 -1.4933 -1.6335
 7671SOL    HW234650   1.916   4.092  12.981  0.7582  0.4158 -2.1713
 7672SOL     OW34651   3.043   0.560   2.241 -0.0761 -0.0530  0.4540
 7672SOL    HW134652   3.090   0.480   2.216 -2.0424 -1.0456 -0.0695
 7672SOL    HW234653   3.108   0.590   2.305  0.0628  0.8701 -0.1343
 7673SOL     OW34654   2.188   2.476  13.258  0.0992  0.8686  0.1628
 7673SOL    HW134655   2.283   2.477  13.251  0.1083 -0.3038  0.0914
 7673SOL    HW234656   2.163   2.516  13.174  1.9482  1.8784  0.0919
 7674SOL     OW34657   2.551   0.258   5.469 -0.2034  0.3855 -0.2594
 7674SOL    HW134658   2.580   0.325   5.407  0.9216  0.7572  0.6627
 7674SOL    HW234659   2.513   0.323   5.529  1.9021  3.4823 -2.2703
 7675SOL     OW34660   0.784   3.512   3.730  0.3267  0.5703 -0.7939
 7675SOL    HW134661   0.834   3.433   3.750  1.3863  1.6852  0.9450
 7675SOL    HW234662   0.844   3.576   3.768  1.3768 -0.9580  0.1350
 7676SOL     OW34663   0.570   0.538  11.209 -0.1761  0.0260  0.1399
 7676SOL    HW134664   0.653   0.515  11.250 -0.3159  0.6233  0.7569
 7676SOL    HW234665   0.547   0.458  11.162 -0.2233 -0.0508  0.2936
 7677SOL     OW34666   2.812   0.644   7.211 -0.0071  0.3001  0.2138
 7677SOL    HW134667   2.810   0.691   7.295 -2.0827  0.4902  0.0596
 7677SOL    HW234668   2.719   0.626   7.197  0.2197  0.3861 -1.3958
 7678SOL     OW34669   1.830   1.005   3.508  0.2229  0.0723 -0.4569
 7678SOL    HW134670   1.757   0.944   3.512  1.1551 -0.8628  2.5875
 7678SOL    HW234671   1.836   1.038   3.598 -2.6908 -0.2733 -0.1426
 7679SOL     OW34672   2.518   0.638   7.168 -0.2372 -0.3307  0.1283
 7679SOL    HW134673   2.430   0.650   7.204 -1.0074 -1.9514 -1.2069
 7679SOL    HW234674   2.488   0.598   7.086  2.8057 -0.0265 -1.1614
 7680SOL     OW34675   2.397   2.233   6.935  0.3267  0.3090  0.0451
 7680SOL    HW134676   2.350   2.285   7.000 -2.4282 -0.8833 -0.9931
 7680SOL    HW234677   2.400   2.146   6.975  0.2702  1.3190  2.2283
 7681SOL     OW34678   1.830   2.312   0.264 -0.7921  0.2830 -0.1446
 7681SOL    HW134679   1.766   2.374   0.228  1.0571  2.7384  0.7718
 7681SOL    HW234680   1.780   2.275   0.337 -0.6195  1.1603  0.4239
 7682SOL     OW34681   1.464   3.861   4.643 -0.1737  0.1124 -0.3022
 7682SOL    HW134682   1.442   3.842   4.734  0.2892  0.1443 -0.1847
 7682SOL    HW234683   1.373   3.843   4.619 -0.3130 -1.8995  1.8489
 7683SOL     OW34684   1.190   1.181   9.861 -0.0121 -0.2159  0.1580
 7683SOL    HW134685   1.119   1.237   9.829  0.2694  1.6400  2.8578
 7683SOL    HW234686   1.220   1.148   9.776 -1.1251  0.2616 -0.4225
 7684SOL     OW34687   4.293   2.307   6.126  1.0008 -0.2872  0.4367
 7684SOL    HW134688   4.387   2.326   6.127  1.3677 -2.0277 -2.0725
 7684SOL    HW234689   4.247   2.388   6.105  0.8187 -0.4981  0.0392
 7685SOL     OW34690   4.271   3.056  14.440 -0.2186 -0.2797  0.1696
 7685SOL    HW134691   4.215   3.052  14.517 -0.3670  0.3307  0.0934
 7685SOL    HW234692   4.337   2.990  14.462 -2.1540 -2.1161  0.5577
 7686SOL     OW34693   4.624   1.032  11.301 -0.0168 -0.4058  0.3288
 7686SOL    HW134694   4.564   1.046  11.228  0.4811 -0.3355 -0.0613
 7686SOL    HW234695   4.566   0.989  11.365 -0.0260 -0.4953  0.2599
 7687SOL     OW34696   2.541   2.763   3.806  0.8780  0.8236 -0.3515
 7687SOL    HW134697   2.488   2.690   3.838  1.7467  0.6595  0.7479
 7687SOL    HW234698   2.519   2.835   3.866 -1.4492 -0.7256  0.6433
 7688SOL     OW34699   2.142   1.810   4.951  0.3448  0.2179  0.6119
 7688SOL    HW134700   2.054   1.837   4.924  0.6568 -0.4066 -1.0161
 7688SOL    HW234701   2.108   1.741   5.008  0.9756  0.2408  1.0169
 7689SOL     OW34702   2.887   2.404  11.897  0.0311  0.6390 -0.3818
 7689SOL    HW134703   2.802   2.359  11.899  0.2816  0.2112  0.6621
 7689SOL    HW234704   2.859   2.491  11.867  0.8430  0.2621 -2.1991
 7690SOL     OW34705   1.077   0.875   0.293 -0.0976 -0.4658  0.3702
 7690SOL    HW134706   0.988   0.907   0.277 -0.5992 -1.1144  1.8964
 7690SOL    HW234707   1.114   0.880   0.204  0.9125  2.3168  0.9627
 7691SOL     OW34708   0.102   3.197   4.677  0.3630  0.2524  0.3615
 7691SOL    HW134709   0.070   3.210   4.588  0.7416 -1.2595  0.0204
 7691SOL    HW234710   0.056   3.114   4.690  0.6172  0.1467  0.5748
 7692SOL     OW34711   2.425   4.474  14.105  0.0707  0.2575  0.1450
 7692SOL    HW134712   2.379   4.521  14.174 -1.3871  1.1104 -1.4030
 7692SOL    HW234713   2.488   4.535  14.065 -0.2728  1.1755  1.0179
 7693SOL     OW34714   0.122   1.053   4.204 -0.1886  0.2991  0.3493
 7693SOL    HW134715   0.068   1.053   4.283 -1.3279  1.3312 -0.4276
 7693SOL    HW234716   0.126   0.959   4.188  3.0141  0.2605  1.3625
 7694SOL     OW34717   3.448   4.073   7.283 -0.1881  0.4180 -0.1479
 7694SOL    HW134718   3.359   4.109   7.274 -1.0535 -2.0365 -1.4567
 7694SOL    HW234719   3.439   4.000   7.221  0.7494 -0.5870  0.8952
 7695SOL     OW34720   3.627   4.400   0.701 -0.2566  0.4309 -0.2130
 7695SOL    HW134721   3.580   4.325   0.736  3.6052 -1.2429  1.3840
 7695SOL    HW234722   3.556   4.445   0.656 -0.1683  0.7261 -0.0547
 7696SOL     OW34723   3.029   2.456   3.508 -0.3213 -0.1419 -0.1025
 7696SOL    HW134724   3.009   2.363   3.501  1.4943 -0.5099 -0.4402
 7696SOL    HW234725   2.951   2.492   3.551  0.1321  0.9230 -0.1803
 7697SOL     OW34726   3.309   3.982   3.343 -0.0513 -0.6163 -0.2750
 7697SOL    HW134727   3.341   4.071   3.325 -1.4051  0.4255  2.3798
 7697SOL    HW234728   3.358   3.958   3.422 -1.3586 -0.9106  0.4492
 7698SOL     OW34729   0.248   1.953   9.912 -0.4675  0.0765 -0.1451
 7698SOL    HW134730   0.179   1.971   9.849  1.5917  1.1380 -2.1035
 7698SOL    HW234731   0.322   1.983   9.859  0.4008 -0.2014  0.8981
 7699SOL     OW34732   0.566   1.416   8.375  0.2341 -0.2062 -0.5432
 7699SOL    HW134733   0.633   1.438   8.440  1.1977 -2.8166 -0.6831
 7699SOL    HW234734   0.500   1.370   8.427  0.7949  0.2867  0.6234
 7700SOL     OW34735   4.676   2.742   1.045 -0.0595  0.1891 -0.2207
 7700SOL    HW134736   4.699   2.812   0.984  2.6056  1.0027  1.7346
 7700SOL    HW234737   4.592   2.782   1.068 -0.6700 -0.5869 -1.1203
 7701SOL     OW34738   4.177   1.378   3.793  0.2157  0.0990  0.4448
 7701SOL    HW134739   4.175   1.283   3.802 -0.6267 -0.2396 -3.0880
 7701SOL    HW234740   4.192   1.388   3.699 -1.3253  1.3485  0.3247
 7702SOL     OW34741   3.424   1.164   3.624  0.1385  0.3651 -0.1541
 7702SOL    HW134742   3.504   1.158   3.572 -0.1027  0.4287 -0.5315
 7702SOL    HW234743   3.419   1.258   3.638 -1.6440 -0.2847  3.3682
 7703SOL     OW34744   0.377   0.173   9.346  0.0792  0.2737 -0.0189
 7703SOL    HW134745   0.364   0.161   9.440  2.6263  0.6471  0.3640
 7703SOL    HW234746   0.444   0.106   9.329  0.7860  1.1409 -0.5943
 7704SOL     OW34747   0.504   0.100   7.867 -0.4047 -0.5810 -0.3132
 7704SOL    HW134748   0.450   0.078   7.791  0.7102 -0.1261 -1.2436
 7704SOL    HW234749   0.448   0.146   7.929 -1.6533 -2.4326 -0.0620
 7705SOL     OW34750   3.785   1.381   7.689  0.3497 -0.6118 -0.5713
 7705SOL    HW134751   3.761   1.378   7.781  1.4559  0.7888 -0.2413
 7705SOL    HW234752   3.710   1.336   7.649 -0.0308  0.1341 -0.6984
 7706SOL     OW34753   3.121   3.695  14.098  0.0930 -0.4252 -0.1575
 7706SOL    HW134754   3.171   3.775  14.081 -1.8167  0.6415 -0.6587
 7706SOL    HW234755   3.187   3.626  14.083 -1.4979 -2.6086  2.9397
 7707SOL     OW34756   2.725   4.196   5.635  0.1928 -0.2132 -0.0893
 7707SOL    HW134757   2.699   4.246   5.557 -1.2022 -3.4832 -1.7252
 7707SOL    HW234758   2.820   4.187   5.630  0.1447 -0.2510 -0.9262
 7708SOL     OW34759   1.063   0.167   5.982  0.0091  0.5630  0.2203
 7708SOL    HW134760   1.123   0.233   6.017 -0.1527  0.5303  0.5579
 7708SOL    HW234761   0.972   0.188   6.004  0.5897  0.3081  2.8662
 7709SOL     OW34762   3.603   2.427  17.440  0.0574  0.3129  0.4675
 7709SOL    HW134763   3.671   2.491  17.419  1.2158 -2.4306 -3.9426
 7709SOL    HW234764   3.659   2.367  17.489 -1.1556 -1.0581  0.1454
 7710SOL     OW34765   1.043   2.522   2.331 -0.0090  0.2815  0.0729
 7710SOL    HW134766   0.986   2.498   2.258 -1.6112  1.5936  0.8919
 7710SOL    HW234767   1.044   2.616   2.312  1.7312  0.7500  2.4467
 7711SOL     OW34768   1.382   1.383   9.062 -0.4250 -0.6199  0.1572
 7711SOL    HW134769   1.346   1.454   9.116  1.6643  0.5586  0.0080
 7711SOL    HW234770   1.431   1.432   8.996 -1.4164 -0.1029 -0.1936
 7712SOL     OW34771   3.151   4.564   3.449  0.0898 -0.2596 -0.0859
 7712SOL    HW134772   3.198   4.486   3.480  1.2081  0.2047 -0.6186
 7712SOL    HW234773   3.066   4.524   3.430 -0.3184 -0.3756  2.0007
 7713SOL     OW34774   2.096   4.077   2.537  0.8309 -0.3839 -0.0006
 7713SOL    HW134775   2.120   4.015   2.468 -1.1800 -1.0691 -0.0798
 7713SOL    HW234776   2.164   4.067   2.603  0.2382  1.1719  0.8514
 7714SOL     OW34777   1.726   2.539   6.863 -0.2767 -0.0886 -0.1317
 7714SOL    HW134778   1.751   2.632   6.864  0.1607 -0.2190  1.1907
 7714SOL    HW234779   1.810   2.505   6.892  0.6426  2.1419 -0.1883
 7715SOL     OW34780   4.706   4.347   4.912 -0.3785  0.6160  0.4916
 7715SOL    HW134781   0.016   4.263   4.912 -0.0594  0.7911 -2.7899
 7715SOL    HW234782   4.733   4.368   4.823 -0.0965  1.2958  0.7318
 7716SOL     OW34783   2.669   0.997   7.541  0.6438 -0.4093  0.2714
 7716SOL    HW134784   2.722   1.058   7.593  0.0768  1.6571 -1.6018
 7716SOL    HW234785   2.632   0.950   7.616  0.6895 -1.8790 -0.6209
 7717SOL     OW34786   3.256   1.186   5.860 -0.2270  0.3524  0.8622
 7717SOL    HW134787   3.169   1.149   5.842 -1.7106  3.0282  2.4984
 7717SOL    HW234788   3.296   1.109   5.900 -0.7397  0.0419  0.7799
 7718SOL     OW34789   1.022   1.502   2.281  0.0687  0.1772 -0.4811
 7718SOL    HW134790   1.044   1.449   2.204  0.1385 -1.5056  0.7103
 7718SOL    HW234791   0.984   1.442   2.344  3.1850  0.4847  1.6789
 7719SOL     OW34792   2.283   2.129   9.854  0.0899  0.1478  0.0616
 7719SOL    HW134793   2.225   2.184   9.907 -0.6496 -0.1719 -0.4168
 7719SOL    HW234794   2.259   2.146   9.763 -0.2085  1.2996  0.3538
 7720SOL     OW34795   2.825   0.971  16.018  0.2342  0.0076 -1.0763
 7720SOL    HW134796   2.794   1.051  15.978  0.9205  0.7803 -0.0671
 7720SOL    HW234797   2.740   0.927  16.021  0.9896 -1.4549 -1.0598
 7721SOL     OW34798   1.794   2.804   9.815 -0.1393 -0.1655 -0.6458
 7721SOL    HW134799   1.862   2.767   9.872 -0.9480  0.1990  0.5522
 7721SOL    HW234800   1.853   2.828   9.743  0.1946  0.3676 -0.1941
 7722SOL     OW34801   1.622   2.119   1.982 -0.4394 -0.4797 -0.0755
 7722SOL    HW134802   1.616   2.136   1.888  0.8332  2.3334  0.3551
 7722SOL    HW234803   1.578   2.192   2.024 -1.3582 -1.1986  0.2133
 7723SOL     OW34804   1.958   0.834   2.875  0.0187 -0.0683  0.5045
 7723SOL    HW134805   1.900   0.812   2.803 -0.8513  1.1561  0.8432
 7723SOL    HW234806   1.959   0.930   2.875  0.7160 -0.0772  0.1801
 7724SOL     OW34807   4.184   2.110   4.861  0.5538  0.1001 -0.0332
 7724SOL    HW134808   4.253   2.139   4.920  0.7704  1.5108 -1.0101
 7724SOL    HW234809   4.219   2.023   4.842  1.1293 -0.0110  1.4861
 7725SOL     OW34810   0.050   2.959  13.493  0.5479 -0.2242 -0.5013
 7725SOL    HW134811   4.727   2.894  13.530  1.6865 -0.2737  1.2396
 7725SOL    HW234812   0.093   2.913  13.422 -0.7234 -0.0184 -1.3958
 7726SOL     OW34813   1.025   0.521   8.263  0.5898 -0.0789 -0.4584
 7726SOL    HW134814   1.091   0.491   8.201  0.6161  0.9085 -0.9245
 7726SOL    HW234815   0.973   0.443   8.282 -0.8321  1.3356  1.5218
 7727SOL     OW34816   3.814   4.112   5.434 -0.5825 -0.1068 -0.8155
 7727SOL    HW134817   3.857   4.196   5.449  1.0593 -1.1581  0.4216
 7727SOL    HW234818   3.876   4.069   5.376  2.0384 -2.1211  3.4350
 7728SOL     OW34819   3.593   2.485   6.903  0.0919  0.1257  0.1524
 7728SOL    HW134820   3.577   2.409   6.846  2.0341 -0.7617  0.7934
 7728SOL    HW234821   3.644   2.442   6.972 -0.0137 -0.2736 -0.0185
 7729SOL     OW34822   3.126   0.167   2.803 -0.6618 -0.6858 -0.1385
 7729SOL    HW134823   3.043   0.137   2.842 -0.8806  0.2428  0.1013
 7729SOL    HW234824   3.173   0.181   2.885  1.7425  0.2284 -1.6823
 7730SOL     OW34825   0.815   2.649   6.510 -0.3173 -0.3035 -0.5067
 7730SOL    HW134826   0.828   2.736   6.472 -0.8873 -0.0449 -0.1191
 7730SOL    HW234827   0.730   2.624   6.476 -1.6020 -0.1230  2.5897
 7731SOL     OW34828   1.564   0.189   7.118  0.2942  0.5088 -0.5464
 7731SOL    HW134829   1.658   0.210   7.118  0.0141  1.7481  2.7567
 7731SOL    HW234830   1.542   0.185   7.211  0.6583 -2.0848 -0.5836
 7732SOL     OW34831   1.096   0.514  16.882  0.1268  0.6103  0.3262
 7732SOL    HW134832   1.029   0.452  16.851  0.4399  0.3273  0.2231
 7732SOL    HW234833   1.061   0.601  16.862  0.0688  0.9558  1.9571
 7733SOL     OW34834   4.040   2.624   7.342 -0.3604  0.3870 -0.7757
 7733SOL    HW134835   4.103   2.685   7.302 -0.5597  1.2996  0.3180
 7733SOL    HW234836   3.973   2.627   7.274 -0.1344  3.8005 -0.8481
 7734SOL     OW34837   3.283   4.341  17.086  0.4353  0.0991 -0.1774
 7734SOL    HW134838   3.211   4.278  17.082  1.7620 -1.4945  1.1771
 7734SOL    HW234839   3.306   4.367  16.997 -0.4036 -1.3355 -0.8340
 7735SOL     OW34840   1.266   0.865   4.418 -0.3685  0.5439 -0.6668
 7735SOL    HW134841   1.173   0.888   4.407 -0.5922  0.1865  0.3947
 7735SOL    HW234842   1.290   0.923   4.491  0.9566 -1.6029  0.5913
 7736SOL     OW34843   2.061   0.147   5.755 -0.3284  0.1274 -0.4477
 7736SOL    HW134844   2.049   0.242   5.747 -0.3888  0.1246 -0.3926
 7736SOL    HW234845   2.114   0.145   5.676 -0.2443  0.5530 -0.4028
 7737SOL     OW34846   3.703   1.402   6.217  0.1040  0.0713  0.3452
 7737SOL    HW134847   3.704   1.465   6.145  0.0038 -1.9726 -1.4717
 7737SOL    HW234848   3.614   1.414   6.251 -0.9823  0.0695 -2.4475
 7738SOL     OW34849   1.911   3.427  11.496 -0.2153 -0.1252  0.1124
 7738SOL    HW134850   2.000   3.405  11.467  0.0287  0.6702  0.2587
 7738SOL    HW234851   1.921   3.484  11.573  1.9961  2.3471 -2.0024
 7739SOL     OW34852   0.541   3.684   3.879  0.5168 -0.3682  0.0603
 7739SOL    HW134853   0.538   3.724   3.792 -0.6495 -0.7670 -0.0842
 7739SOL    HW234854   0.451   3.658   3.900  1.2125 -1.2598  1.9482
 7740SOL     OW34855   1.405   1.494   8.723  0.0780  0.2567  0.0958
 7740SOL    HW134856   1.318   1.486   8.685  0.8959 -1.3570 -1.4343
 7740SOL    HW234857   1.398   1.577   8.770  2.7803 -0.4505  1.7448
 7741SOL     OW34858   1.173   0.745   7.275 -0.4259  0.4525  0.0901
 7741SOL    HW134859   1.186   0.772   7.185  0.2515 -1.5910 -0.4223
 7741SOL    HW234860   1.114   0.816   7.299 -0.1142 -0.2618  3.0594
 7742SOL     OW34861   3.007   3.492   3.117 -0.3843 -0.3177  0.5650
 7742SOL    HW134862   2.946   3.531   3.054  0.4249  0.4811  0.2668
 7742SOL    HW234863   2.972   3.545   3.189 -1.6727  0.1875 -0.4520
 7743SOL     OW34864   1.848   1.108  15.527  0.0195 -0.1450 -0.0902
 7743SOL    HW134865   1.832   1.143  15.614 -4.7477 -0.1962 -0.9713
 7743SOL    HW234866   1.762   1.077  15.499  1.0403 -1.1203 -2.1689
 7744SOL     OW34867   0.136   1.946   3.803 -0.0981  0.6560  0.1871
 7744SOL    HW134868   0.085   1.867   3.789  1.3778 -0.7593  2.6217
 7744SOL    HW234869   0.101   2.015   3.747 -0.9376  0.8983  1.0116
 7745SOL     OW34870   2.155   2.165   6.452  0.3225  0.0321  0.7096
 7745SOL    HW134871   2.202   2.212   6.521 -2.5592  2.0357  1.3097
 7745SOL    HW234872   2.073   2.135   6.492 -1.0499  1.6242 -0.9287
 7746SOL     OW34873   4.722   1.989   4.945  0.2899  0.6594  0.3111
 7746SOL    HW134874   4.698   1.974   5.036  0.0450  1.0752  0.3136
 7746SOL    HW234875   0.011   2.082   4.944  1.1973  0.4348  2.5708
 7747SOL     OW34876   1.823   3.584   5.413  0.2524 -0.6171 -0.6101
 7747SOL    HW134877   1.800   3.618   5.499  2.4168 -0.7761  0.0319
 7747SOL    HW234878   1.798   3.494   5.434 -0.9108 -0.4795 -1.4184
 7748SOL     OW34879   2.533   2.935  13.945  0.7315 -0.1951 -0.4524
 7748SOL    HW134880   2.561   2.967  13.859 -1.7537 -3.3026 -2.3781
 7748SOL    HW234881   2.445   2.968  13.959  0.9903  1.7262 -3.2636
 7749SOL     OW34882   4.631   1.715   2.255  0.3752  0.2038  0.8281
 7749SOL    HW134883   4.603   1.746   2.169 -1.3392 -1.9342  0.6216
 7749SOL    HW234884   4.552   1.741   2.301  0.6418  1.4505  0.5603
 7750SOL     OW34885   3.070   2.213  11.851  0.0887 -0.8550  0.1363
 7750SOL    HW134886   2.990   2.262  11.872 -2.1889 -1.9988 -5.8787
 7750SOL    HW234887   3.128   2.280  11.813 -0.1052 -1.2767 -0.8987
 7751SOL     OW34888   0.730   4.716  14.872  0.0806 -0.6970 -0.4126
 7751SOL    HW134889   0.650   4.677  14.838  0.5456 -0.8438 -1.3389
 7751SOL    HW234890   0.714   4.733  14.965  0.7397  0.0293 -0.4250
 7752SOL     OW34891   3.776   4.354   2.922  0.2926 -0.3478 -0.4903
 7752SOL    HW134892   3.723   4.432   2.940 -1.6390 -1.9645  0.7185
 7752SOL    HW234893   3.701   4.295   2.923 -0.2144  0.2892 -0.5138
 7753SOL     OW34894   3.376   1.586   2.219 -0.0437  0.3595 -0.1860
 7753SOL    HW134895   3.383   1.649   2.291 -3.7572 -1.0140  1.4270
 7753SOL    HW234896   3.463   1.546   2.220 -0.3453 -0.2074  2.3821
 7754SOL     OW34897   0.738   4.520   9.032  0.1730  0.1853  0.1939
 7754SOL    HW134898   0.710   4.442   8.984  0.6928  0.6898 -0.9210
 7754SOL    HW234899   0.673   4.511   9.101 -0.0899  1.7102  0.1496
 7755SOL     OW34900   2.281   1.584   4.720 -0.1876  0.2236  0.0906
 7755SOL    HW134901   2.274   1.631   4.804 -0.3777 -1.4253  0.9932
 7755SOL    HW234902   2.192   1.587   4.685  0.5193  0.5070 -1.6892
 7756SOL     OW34903   2.888   3.574   9.871 -0.0987 -0.1009  0.2949
 7756SOL    HW134904   2.903   3.659   9.830 -1.0876 -0.6859 -1.3093
 7756SOL    HW234905   2.871   3.598   9.962 -1.4193  2.5051 -0.6186
 7757SOL     OW34906   2.723   4.472   3.566 -0.0626 -0.4525 -0.8212
 7757SOL    HW134907   2.724   4.381   3.593 -0.5983 -0.7210 -1.7067
 7757SOL    HW234908   2.708   4.506   3.654  2.3816  0.5092 -0.7831
 7758SOL     OW34909   1.707   3.133   2.207 -0.3929  0.1112 -0.3576
 7758SOL    HW134910   1.730   3.111   2.116  0.8746 -1.0417  0.2503
 7758SOL    HW234911   1.611   3.125   2.203 -0.2024 -2.3748  0.2112
 7759SOL     OW34912   0.125   4.458   3.706 -0.0122 -0.1340 -0.2158
 7759SOL    HW134913   0.119   4.367   3.734  0.2078  0.2150  0.9770
 7759SOL    HW234914   0.138   4.510   3.785  0.9511 -0.5385 -0.1057
 7760SOL     OW34915   1.293   1.721   6.213 -0.1424  0.3980  0.4799
 7760SOL    HW134916   1.238   1.734   6.290  1.2119 -3.0207  1.9925
 7760SOL    HW234917   1.369   1.777   6.230  0.8300 -0.4043 -1.2965
 7761SOL     OW34918   4.610   3.192   9.250 -0.1962  0.1112 -0.0146
 7761SOL    HW134919   4.604   3.180   9.345  0.0498 -0.0947 -0.0252
 7761SOL    HW234920   4.695   3.152   9.235 -0.1873  1.1952 -2.8858
 7762SOL     OW34921   3.098   2.850   9.309 -0.2273 -0.3228  0.2022
 7762SOL    HW134922   3.176   2.890   9.272 -0.6066  0.3784  0.1555
 7762SOL    HW234923   3.065   2.902   9.382  0.5101  0.0022  0.2978
 7763SOL     OW34924   2.780   3.441   4.383  0.3225 -0.2633 -0.2102
 7763SOL    HW134925   2.748   3.350   4.384 -1.4164  0.3713  1.5209
 7763SOL    HW234926   2.835   3.433   4.460 -0.8993  0.2670  0.7169
 7764SOL     OW34927   0.550   1.626   3.160 -0.0497 -0.0262 -0.2683
 7764SOL    HW134928   0.499   1.705   3.179  1.5147  1.0360 -0.5018
 7764SOL    HW234929   0.623   1.638   3.220 -0.0839 -0.0695 -0.2175
 7765SOL     OW34930   1.486   1.640   4.287 -0.4839  0.6944 -0.0849
 7765SOL    HW134931   1.473   1.665   4.195 -1.2833 -1.7514 -0.6405
 7765SOL    HW234932   1.395   1.623   4.311 -0.5488 -1.1248 -1.5790
 7766SOL     OW34933   4.002   0.106   4.646  0.2135 -0.3175  0.2712
 7766SOL    HW134934   3.994   0.013   4.669  1.1683 -0.3153  0.5830
 7766SOL    HW234935   4.017   0.089   4.553  0.4385 -1.5850  0.5339
 7767SOL     OW34936   0.305   1.904  12.172  0.4842  0.1136  0.1155
 7767SOL    HW134937   0.266   1.835  12.118  1.6598  1.0021 -1.8368
 7767SOL    HW234938   0.366   1.843  12.214  0.2764 -1.6503 -2.1212
 7768SOL     OW34939   4.075   1.735  11.135  0.1175 -0.4219  0.3585
 7768SOL    HW134940   4.044   1.825  11.128  0.6392 -0.1331  1.7538
 7768SOL    HW234941   4.034   1.702  11.215  0.0982  2.3639  1.5071
 7769SOL     OW34942   1.816   3.930  13.172 -0.2695 -0.5948  0.3630
 7769SOL    HW134943   1.883   3.905  13.235 -0.3046  1.7319  1.3174
 7769SOL    HW234944   1.741   3.973  13.212  0.1602  1.3654 -0.9175
 7770SOL     OW34945   4.078   0.837   7.423 -0.5862 -0.0391 -0.0521
 7770SOL    HW134946   4.133   0.914   7.437 -0.8945  0.0928  0.4111
 7770SOL    HW234947   3.988   0.869   7.423 -0.6753 -0.2754  1.4319
 7771SOL     OW34948   0.516   0.533   0.946  0.2641  0.1672 -0.4339
 7771SOL    HW134949   0.439   0.487   0.980  0.7825 -0.0168  0.5105
 7771SOL    HW234950   0.542   0.478   0.873 -0.0466 -1.2951  0.5572
 7772SOL     OW34951   4.240   4.117   1.957  0.4763 -0.6699  0.0482
 7772SOL    HW134952   4.236   4.111   1.861 -2.3041  0.6616  0.0624
 7772SOL    HW234953   4.204   4.029   1.972  2.0797 -1.4478 -0.6165
 7773SOL     OW34954   2.779   2.537   9.192  1.0185  0.0646 -0.5575
 7773SOL    HW134955   2.854   2.563   9.139  1.5704  0.2655  0.3251
 7773SOL    HW234956   2.796   2.543   9.286  0.7187  0.8120 -0.5510
 7774SOL     OW34957   3.932   0.292   6.703 -0.0015  0.2190  0.1716
 7774SOL    HW134958   3.929   0.354   6.630 -0.2110  1.7031  1.4466
 7774SOL    HW234959   3.877   0.222   6.666 -1.1420  0.4170  1.4843
 7775SOL     OW34960   1.949   4.474   9.962 -0.1654 -0.0136 -0.2482
 7775SOL    HW134961   1.944   4.510  10.050 -1.4248 -0.7154 -0.0270
 7775SOL    HW234962   1.999   4.395   9.979  2.6571  1.8309 -0.0435
 7776SOL     OW34963   4.144   0.549  14.754  0.3850  0.1048 -0.1411
 7776SOL    HW134964   4.189   0.548  14.670 -1.8413 -1.8994 -1.2992
 7776SOL    HW234965   4.067   0.497  14.730 -1.4022  2.0446  1.3657
 7777SOL     OW34966   2.336   2.949   2.557 -0.2230  0.0715 -0.5470
 7777SOL    HW134967   2.301   2.863   2.580  0.2109 -0.7810 -3.1818
 7777SOL    HW234968   2.254   2.996   2.540 -0.1152  0.5510  0.2445
 7778SOL     OW34969   3.620   4.051   6.427  0.3291 -0.3162  0.7965
 7778SOL    HW134970   3.625   4.146   6.414  0.4383 -0.3857  0.3508
 7778SOL    HW234971   3.529   4.034   6.454  0.5162 -2.7375 -0.1151
 7779SOL     OW34972   2.968   0.765   3.448  0.2453  0.0038  0.7332
 7779SOL    HW134973   2.995   0.857   3.449 -0.8555  0.3344 -0.3604
 7779SOL    HW234974   2.939   0.757   3.357 -1.0819  1.6712  1.0050
 7780SOL     OW34975   1.814   2.150   4.815 -0.3121  0.0211 -0.1059
 7780SOL    HW134976   1.851   2.221   4.762  2.2988  0.3643  2.1952
 7780SOL    HW234977   1.786   2.209   4.885 -0.3524 -0.1214 -0.0037
 7781SOL     OW34978   4.309   1.612   7.712  0.2781  0.4632  0.2227
 7781SOL    HW134979   4.250   1.540   7.734 -0.4233  0.9899  0.0683
 7781SOL    HW234980   4.255   1.685   7.742  0.1317  1.0681 -1.4795
 7782SOL     OW34981   0.712   1.753   2.321  0.3420 -0.0800  0.2659
 7782SOL    HW134982   0.655   1.680   2.298  0.3591 -0.6331  1.9831
 7782SOL    HW234983   0.734   1.742   2.413 -0.6167  1.1324  0.6344
 7783SOL     OW34984   2.318   4.105   8.057 -0.1613  0.1791  0.2914
 7783SOL    HW134985   2.340   4.022   8.101  0.3168  0.1982  0.0892
 7783SOL    HW234986   2.401   4.127   8.015 -0.7321 -0.0038 -0.9214
 7784SOL     OW34987   4.503   2.833   0.253  0.6485  0.1568  0.4290
 7784SOL    HW134988   4.411   2.810   0.240  1.1195 -0.9591 -0.9161
 7784SOL    HW234989   4.539   2.790   0.175 -0.4292  0.3411 -0.1564
 7785SOL     OW34990   0.073   2.535  17.710 -0.1342  0.0585  0.2981
 7785SOL    HW134991   0.152   2.586  17.726  0.9512 -1.9699  1.2777
 7785SOL    HW234992   0.095   2.446  17.735  0.9755  0.2869  0.1090
 7786SOL     OW34993   3.016   4.283   5.654 -0.6136  0.0493  0.4387
 7786SOL    HW134994   3.056   4.323   5.576 -1.4048  0.3069  0.1654
 7786SOL    HW234995   3.097   4.240   5.680 -0.7877  1.6516  3.6535
 7787SOL     OW34996   2.189   2.398   9.366 -0.1099 -0.0324 -0.3578
 7787SOL    HW134997   2.237   2.475   9.395 -0.2443 -0.4513  0.9630
 7787SOL    HW234998   2.108   2.439   9.338  0.4128  0.0452 -1.7793
 7788SOL     OW34999   0.324   2.589   2.179 -0.3998  0.2827  0.7279
 7788SOL    HW135000   0.308   2.625   2.266 -0.0509 -0.7231  1.2096
 7788SOL    HW235001   0.234   2.582   2.148  0.0230  0.9552 -0.6526
 7789SOL     OW35002   4.512   3.032  15.431  0.3526  0.0289 -0.8270
 7789SOL    HW135003   4.479   3.120  15.416  1.8917  0.7520  0.0124
 7789SOL    HW235004   4.482   3.011  15.520  0.9869  2.3433 -0.0755
 7790SOL     OW35005   0.753   4.396  14.668  0.2597  0.0075 -0.0498
 7790SOL    HW135006   0.773   4.436  14.583 -0.5997  1.8143  0.5951
 7790SOL    HW235007   0.789   4.308  14.669  0.9716  0.2745 -1.8022
 7791SOL     OW35008   4.568   1.115   6.673 -0.0876  0.0489 -0.5967
 7791SOL    HW135009   4.541   1.201   6.639  0.8918 -0.3790 -2.4336
 7791SOL    HW235010   4.659   1.122   6.701 -0.7781  0.6565  1.4750
 7792SOL     OW35011   3.466   1.085  14.885  0.3771  0.2084 -0.0617
 7792SOL    HW135012   3.437   1.047  14.968  0.3433  2.2243  0.8493
 7792SOL    HW235013   3.560   1.088  14.901  0.2480 -3.1235  1.3063
 7793SOL     OW35014   3.887   3.701   3.621 -0.5943 -0.7848  0.5627
 7793SOL    HW135015   3.861   3.792   3.639  0.7651 -0.5297  1.3124
 7793SOL    HW235016   3.803   3.660   3.606 -0.5758 -1.7206  2.9857
 7794SOL     OW35017   1.428   3.604   8.942  0.1151 -0.7424  0.1021
 7794SOL    HW135018   1.410   3.551   8.864  0.6174  2.1584 -2.0230
 7794SOL    HW235019   1.494   3.553   8.989  0.6282 -2.7031 -2.7499
 7795SOL     OW35020   2.578   2.179   5.030  0.3481 -0.2291  0.0634
 7795SOL    HW135021   2.611   2.183   5.119  1.9466  0.5858 -0.5617
 7795SOL    HW235022   2.484   2.187   5.047  0.3912 -2.8931  1.4708
 7796SOL     OW35023   4.275   4.403  17.600 -0.1906  0.2843 -0.2995
 7796SOL    HW135024   4.358   4.368  17.632 -0.6208 -0.3465  0.1214
 7796SOL    HW235025   4.246   4.446  17.681  2.6532 -1.0835  1.4226
 7797SOL     OW35026   2.184   4.699   8.203 -0.3128 -0.1564 -0.0938
 7797SOL    HW135027   2.190   0.056   8.182  1.2327 -0.3202 -0.4241
 7797SOL    HW235028   2.227   4.664   8.125  2.2165  0.8407  0.8536
 7798SOL     OW35029   1.756   0.463   5.711  0.1291 -0.3830  0.1273
 7798SOL    HW135030   1.672   0.458   5.666  0.4084 -1.5080 -0.2518
 7798SOL    HW235031   1.813   0.430   5.642  1.4502  0.9483  0.5892
 7799SOL     OW35032   1.993   0.981  14.812  0.5017  0.1862  0.3879
 7799SOL    HW135033   1.930   1.046  14.783  0.2295  0.3089  1.2636
 7799SOL    HW235034   1.967   0.980  14.903 -0.7376 -1.2360  0.0111
 7800SOL     OW35035   1.004   0.057   1.554  0.1927  0.4729 -0.5162
 7800SOL    HW135036   1.014   0.022   1.643 -1.4333 -2.6971 -1.5987
 7800SOL    HW235037   0.909   0.058   1.548  0.0930 -1.3425  0.7226
 7801SOL     OW35038   0.644   1.540   8.859  0.0247  0.4077  0.0792
 7801SOL    HW135039   0.679   1.573   8.942 -2.0873  1.9779  0.3370
 7801SOL    HW235040   0.723   1.500   8.824  2.0116  2.6621  2.0057
 7802SOL     OW35041   4.682   0.300  11.621 -0.1440 -0.2949 -0.6940
 7802SOL    HW135042   4.714   0.359  11.553 -2.7012  1.8733 -0.0466
 7802SOL    HW235043   4.617   0.352  11.668  0.0177  1.1968 -2.1213
 7803SOL     OW35044   0.617   2.447   3.780 -0.1944  0.0904 -0.4421
 7803SOL    HW135045   0.537   2.499   3.786  2.0097  3.3278  0.6964
 7803SOL    HW235046   0.642   2.484   3.695  0.8716 -0.1469 -0.2186
 7804SOL     OW35047   1.038   2.229  12.365 -0.1819 -0.3818  0.2885
 7804SOL    HW135048   1.016   2.322  12.370  1.3925 -0.0443  0.8314
 7804SOL    HW235049   1.110   2.228  12.429 -1.6524 -1.6987  1.9503
 7805SOL     OW35050   1.214   3.998   6.039 -0.2665  0.0571  0.8169
 7805SOL    HW135051   1.191   4.006   6.132  0.9912  1.4649  1.0025
 7805SOL    HW235052   1.165   3.919   6.014 -0.4662 -0.7062  3.6137
 7806SOL     OW35053   4.637   3.157   9.524 -0.1688 -0.0445  0.4090
 7806SOL    HW135054   4.638   3.093   9.594  1.4087  0.2123  0.6142
 7806SOL    HW235055   4.583   3.229   9.557 -0.4833 -0.4035  0.6708
 7807SOL     OW35056   1.203   0.345   9.287  0.1548  0.1672 -0.4643
 7807SOL    HW135057   1.239   0.391   9.363  0.2972  0.1409 -0.5159
 7807SOL    HW235058   1.282   0.347   9.233  0.8136  0.6527  0.5222
 7808SOL     OW35059   4.111   2.266   6.934 -0.0263 -0.1360 -0.0945
 7808SOL    HW135060   4.070   2.285   7.018 -0.9896 -1.4756 -0.2701
 7808SOL    HW235061   4.198   2.260   6.975  0.1267  1.0142 -0.2440
 7809SOL     OW35062   2.800   3.346   6.527 -0.0827 -0.3540 -0.2046
 7809SOL    HW135063   2.706   3.341   6.513 -0.1653  0.0782  0.1753
 7809SOL    HW235064   2.816   3.437   6.501 -0.8457 -0.4710 -1.0614
 7810SOL     OW35065   4.243   1.397   2.279  0.7359  0.0033 -0.0257
 7810SOL    HW135066   4.225   1.470   2.220  0.8708 -0.8941 -1.1852
 7810SOL    HW235067   4.330   1.426   2.305  0.3061  0.1288  1.2612
 7811SOL     OW35068   4.162   2.681   4.596 -0.0018  0.0154 -0.1180
 7811SOL    HW135069   4.156   2.728   4.513 -2.6638 -0.2920 -0.0954
 7811SOL    HW235070   4.139   2.593   4.569  2.9607 -1.2610  1.4777
 7812SOL     OW35071   0.191   4.499   6.506  0.0913  0.6598 -0.3783
 7812SOL    HW135072   0.099   4.495   6.532  0.3689 -0.4761  0.4533
 7812SOL    HW235073   0.184   4.569   6.441 -0.2583  1.6440  0.7130
 7813SOL     OW35074   2.926   2.435   0.625 -0.6148  0.7085 -0.9135
 7813SOL    HW135075   2.911   2.451   0.718 -1.1793  0.2445 -0.9286
 7813SOL    HW235076   2.986   2.509   0.612  0.6672 -0.1909 -0.1250
 7814SOL     OW35077   3.881   1.309   5.560 -0.0398 -0.0765  0.2092
 7814SOL    HW135078   3.890   1.305   5.464  0.9167 -0.7607  0.3290
 7814SOL    HW235079   3.921   1.229   5.594 -1.7429 -0.5782  1.0103
 7815SOL     OW35080   2.080   1.478   2.673 -0.0052  0.7898 -0.1466
 7815SOL    HW135081   2.168   1.466   2.710  0.6535 -0.2629 -2.0667
 7815SOL    HW235082   2.034   1.457   2.754 -1.0940 -0.2063 -1.0405
 7816SOL     OW35083   3.683   2.836   4.627 -0.4427  0.4185 -0.2481
 7816SOL    HW135084   3.622   2.837   4.700  0.9276 -0.2476  0.8946
 7816SOL    HW235085   3.764   2.819   4.674  0.1082  0.4752 -1.1744
 7817SOL     OW35086   0.349   3.112   4.828 -0.0980 -0.4426 -0.3872
 7817SOL    HW135087   0.276   3.150   4.779 -0.6237 -1.6330 -0.5274
 7817SOL    HW235088   0.320   3.022   4.816 -2.9478  0.5057 -0.6557
 7818SOL     OW35089   1.276   0.550   5.969  0.3239  0.0272 -0.2006
 7818SOL    HW135090   1.206   0.516   5.914  0.4651  2.0832 -1.6356
 7818SOL    HW235091   1.310   0.469   6.007 -2.4792 -0.8983  0.3040
 7819SOL     OW35092   2.781   3.621   2.521 -0.1908 -0.1912 -0.4486
 7819SOL    HW135093   2.856   3.594   2.467  1.4422  1.7725  0.8270
 7819SOL    HW235094   2.727   3.635   2.443  0.8520  0.6178 -1.0325
 7820SOL     OW35095   3.321   3.001   8.014 -0.5567 -0.3179  0.4473
 7820SOL    HW135096   3.257   2.930   8.022  1.0825 -1.9503 -0.7756
 7820SOL    HW235097   3.398   2.960   8.054 -0.2383  1.8185  2.0148
 7821SOL     OW35098   1.157   4.530  15.300  0.0043  0.3478  0.3464
 7821SOL    HW135099   1.229   4.583  15.335  2.5619 -2.5151 -0.5935
 7821SOL    HW235100   1.170   4.444  15.340 -2.0829 -0.1829 -0.1688
 7822SOL     OW35101   4.026   3.690   5.740 -0.2140 -0.7170 -0.3066
 7822SOL    HW135102   4.085   3.695   5.815 -0.5433  0.4702 -0.1241
 7822SOL    HW235103   4.037   3.780   5.711 -1.1090 -0.1345  1.1307
 7823SOL     OW35104   3.518   0.206   6.181  0.3648  0.2931  0.1869
 7823SOL    HW135105   3.541   0.113   6.188  0.2302  0.4719  3.2388
 7823SOL    HW235106   3.465   0.200   6.102  0.9451 -2.5448  0.0163
 7824SOL     OW35107   0.206   0.208   1.829  0.0971  0.1586  0.2344
 7824SOL    HW135108   0.249   0.290   1.807  0.3906  0.0924  0.5685
 7824SOL    HW235109   0.133   0.238   1.883 -0.1535  0.0169 -0.0232
 7825SOL     OW35110   3.576   4.167   2.885  0.2328  0.6587 -0.5517
 7825SOL    HW135111   3.565   4.166   2.790 -2.4581 -3.3440 -0.2224
 7825SOL    HW235112   3.489   4.200   2.910  0.5909  1.5964 -0.5407
 7826SOL     OW35113   0.694   4.434   7.293 -0.8074 -0.2434 -0.1054
 7826SOL    HW135114   0.654   4.404   7.211 -1.8039 -1.2318  0.7476
 7826SOL    HW235115   0.636   4.386   7.353 -2.0301  1.6081  0.1803
 7827SOL     OW35116   4.088   4.300   4.484  0.1320 -0.3693 -0.1045
 7827SOL    HW135117   4.128   4.233   4.428 -0.7711 -0.5148 -0.5817
 7827SOL    HW235118   4.120   4.289   4.574 -0.4685  0.8210  0.2546
 7828SOL     OW35119   1.508   0.725   8.574 -0.3055  0.0743 -0.1776
 7828SOL    HW135120   1.478   0.651   8.626  1.3179  1.0273  2.1129
 7828SOL    HW235121   1.602   0.706   8.574 -0.3568 -0.1806  0.8930
 7829SOL     OW35122   3.239   1.802   4.078 -0.1058  0.1291  0.5364
 7829SOL    HW135123   3.177   1.863   4.119 -0.0905  0.1131  0.5836
 7829SOL    HW235124   3.205   1.809   3.989  0.0582  0.6954  0.5198
 7830SOL     OW35125   0.701   2.591   7.285  0.5234  0.5072 -0.2777
 7830SOL    HW135126   0.659   2.519   7.237 -0.3343 -1.4269  3.2879
 7830SOL    HW235127   0.718   2.651   7.213 -0.5078 -0.8909 -1.7033
 7831SOL     OW35128   1.008   0.933   4.651 -0.2739  0.3817 -0.5587
 7831SOL    HW135129   0.949   0.889   4.712  0.1563  2.0435  1.0472
 7831SOL    HW235130   1.062   0.989   4.707 -1.8637  2.2195 -0.8646
 7832SOL     OW35131   1.795   3.818  13.557 -0.2760 -0.2693  0.1021
 7832SOL    HW135132   1.737   3.798  13.631 -0.0567 -1.3096 -0.0199
 7832SOL    HW235133   1.793   3.913  13.572  1.4102  0.4605 -4.2574
 7833SOL     OW35134   4.440   1.139   3.599 -0.0039  0.3871  0.1108
 7833SOL    HW135135   4.484   1.138   3.514  0.5288  2.1262  0.3696
 7833SOL    HW235136   4.496   1.199   3.649  0.2791 -0.7854  1.2127
 7834SOL     OW35137   1.526   1.082   2.396  0.0962  0.0300 -0.1615
 7834SOL    HW135138   1.556   0.999   2.359 -1.7629 -1.7847  2.4724
 7834SOL    HW235139   1.458   1.102   2.330  0.8324 -0.0657 -0.9498
 7835SOL     OW35140   1.899   1.769   0.182  0.3187 -0.0336 -0.1532
 7835SOL    HW135141   1.991   1.769   0.157  0.1668  0.3738 -0.7155
 7835SOL    HW235142   1.894   1.858   0.218 -1.0091 -0.3325  0.3909
 7836SOL     OW35143   4.300   2.559   4.319 -0.3048  0.0241 -0.3449
 7836SOL    HW135144   4.260   2.641   4.347 -2.3418 -1.6730  1.7868
 7836SOL    HW235145   4.247   2.501   4.375  1.1863 -0.0290  0.9997
 7837SOL     OW35146   2.820   0.905   6.684  0.1843 -0.2449  0.5892
 7837SOL    HW135147   2.725   0.897   6.697  0.2440 -0.9979  0.5697
 7837SOL    HW235148   2.860   0.831   6.730 -0.3065 -1.3953 -0.7872
 7838SOL     OW35149   1.728   1.369  12.697 -0.5202 -0.4255  0.4375
 7838SOL    HW135150   1.727   1.438  12.763 -2.5373  0.2981 -0.3591
 7838SOL    HW235151   1.655   1.316  12.729 -0.8793 -0.5772 -0.6290
 7839SOL     OW35152   3.258   4.561   7.146  0.3339  0.2966  0.0694
 7839SOL    HW135153   3.230   4.520   7.063  1.6108 -1.9978  0.7884
 7839SOL    HW235154   3.335   4.506   7.157  0.6641  1.1127  1.7873
 7840SOL     OW35155   4.368   2.111   6.495  0.4290  0.2336  0.4723
 7840SOL    HW135156   4.413   2.187   6.532  0.6103  0.9342 -1.2018
 7840SOL    HW235157   4.284   2.100   6.540 -0.2478  3.4407  0.0117
 7841SOL     OW35158   4.306   4.134  16.749  0.5088 -0.5566 -0.2121
 7841SOL    HW135159   4.321   4.041  16.730  3.8455  0.2362 -1.5143
 7841SOL    HW235160   4.244   4.124  16.821  1.1710 -2.3512  0.1057
 7842SOL     OW35161   2.957   3.136   6.416 -0.4681 -0.2332  0.4859
 7842SOL    HW135162   2.897   3.187   6.471 -0.3973  0.1168  0.2443
 7842SOL    HW235163   2.918   3.147   6.329  2.8082 -0.4458 -1.0016
 7843SOL     OW35164   1.954   3.930  12.681 -0.7433  0.2106 -0.1309
 7843SOL    HW135165   1.918   3.927  12.769 -0.1243 -3.1233 -0.0000
 7843SOL    HW235166   2.040   3.965  12.705 -1.1666  1.3491 -0.2792
 7844SOL     OW35167   4.573   4.579   4.043 -0.2952  0.3526  0.5662
 7844SOL    HW135168   4.640   4.621   3.988  1.4803 -0.4118  2.1692
 7844SOL    HW235169   4.539   4.646   4.102  0.7766  2.7750 -1.5787
 7845SOL     OW35170   4.532   1.201   3.323  0.1253  0.1926 -0.1288
 7845SOL    HW135171   4.582   1.273   3.360 -0.7150 -0.1284  1.6113
 7845SOL    HW235172   4.450   1.243   3.299  0.9064  1.1869 -1.0904
 7846SOL     OW35173   4.502   4.161   8.750 -0.1133  0.2935 -0.1753
 7846SOL    HW135174   4.595   4.157   8.727  0.1494 -0.1732  0.9476
 7846SOL    HW235175   4.498   4.251   8.782 -0.2159  0.5831 -1.0062
 7847SOL     OW35176   3.755   2.317  15.019 -0.3404 -0.3497 -0.2312
 7847SOL    HW135177   3.834   2.308  15.072  2.0447 -0.6747 -3.8504
 7847SOL    HW235178   3.691   2.298  15.088  2.2333 -0.0062  2.2078
 7848SOL     OW35179   2.106   2.738   1.886 -0.3313  0.5208  0.3557
 7848SOL    HW135180   2.049   2.812   1.905 -0.5351 -0.0936  2.0991
 7848SOL    HW235181   2.105   2.688   1.967 -3.1061  0.1535  0.0927
 7849SOL     OW35182   3.768   1.841   4.685  0.1083  0.2370  0.0499
 7849SOL    HW135183   3.732   1.906   4.624  1.8499  0.3905 -0.8363
 7849SOL    HW235184   3.851   1.817   4.644  0.4488  0.2016  0.7689
 7850SOL     OW35185   4.095   1.041   6.515  0.2846 -0.3372  0.7792
 7850SOL    HW135186   4.144   1.122   6.496 -0.0441 -0.1188  0.8573
 7850SOL    HW235187   4.163   0.987   6.556  1.2630  1.3170  1.3498
 7851SOL     OW35188   2.932   4.380   0.169 -0.3158 -0.2664  0.2551
 7851SOL    HW135189   2.900   4.469   0.182  2.0550  0.5568  0.4378
 7851SOL    HW235190   2.892   4.339   0.245  0.5569 -3.0247 -0.8005
 7852SOL     OW35191   4.004   1.297   1.891  0.4063  0.5874  0.4908
 7852SOL    HW135192   3.915   1.279   1.860  0.7681 -0.6087  0.1706
 7852SOL    HW235193   4.017   1.391   1.875  0.3388  0.5896  0.4474
 7853SOL     OW35194   4.005   4.143   6.646 -0.3965  0.1862 -0.6039
 7853SOL    HW135195   4.066   4.175   6.579 -0.1928 -0.1280 -0.5664
 7853SOL    HW235196   4.065   4.104   6.709 -1.2718 -0.7249 -0.3483
 7854SOL     OW35197   3.586   1.259   9.880 -0.1324  0.3132 -0.0330
 7854SOL    HW135198   3.612   1.206   9.805  0.9826  1.0112 -0.1402
 7854SOL    HW235199   3.492   1.242   9.878  0.1333 -1.2297  0.6440
 7855SOL     OW35200   4.310   3.396  13.481  0.2409 -0.3902  0.3829
 7855SOL    HW135201   4.324   3.453  13.557  0.5880  1.2983 -0.9173
 7855SOL    HW235202   4.372   3.326  13.501  0.7353  0.0269  0.3114
 7856SOL     OW35203   1.212   3.709   3.454 -0.1087 -0.2340  0.0727
 7856SOL    HW135204   1.278   3.658   3.500  0.4285 -0.4782 -0.9555
 7856SOL    HW235205   1.204   3.792   3.502  0.0696  0.5483 -1.2193
 7857SOL     OW35206   0.316   2.480  10.058  0.0307 -0.5503 -0.4411
 7857SOL    HW135207   0.308   2.386  10.072 -0.8739 -0.9629 -3.8958
 7857SOL    HW235208   0.308   2.520  10.145 -0.7949 -2.7035  0.4601
 7858SOL     OW35209   4.080   3.825   8.489 -0.1265  0.5960  0.2213
 7858SOL    HW135210   4.114   3.881   8.559  0.5092  1.3779 -0.7092
 7858SOL    HW235211   4.144   3.753   8.495 -0.2030  0.5916  1.1109
 7859SOL     OW35212   0.674   0.928   3.245  0.3422  0.7848  0.6142
 7859SOL    HW135213   0.654   1.002   3.187 -1.2184  0.3415  0.5959
 7859SOL    HW235214   0.587   0.894   3.262  0.1795  0.6450 -0.5148
 7860SOL     OW35215   3.494   0.948  15.106  0.0316  0.5664 -0.4947
 7860SOL    HW135216   3.527   0.867  15.145  2.1154  0.4758 -2.4963
 7860SOL    HW235217   3.498   1.004  15.183 -2.2410 -0.1469  0.1429
 7861SOL     OW35218   3.940   4.344  10.902 -0.1364  0.6558 -0.4131
 7861SOL    HW135219   3.996   4.268  10.918  0.9895  1.3488 -1.0138
 7861SOL    HW235220   3.941   4.383  10.990 -2.3553 -0.2209 -0.0143
 7862SOL     OW35221   3.487   4.178  14.902 -0.2386  0.3197 -0.2565
 7862SOL    HW135222   3.549   4.110  14.925  2.2927  2.4103 -0.8148
 7862SOL    HW235223   3.535   4.253  14.938  0.1862 -0.1032  0.0581
 7863SOL     OW35224   1.224   1.164   9.562  0.3372  0.6146  0.0421
 7863SOL    HW135225   1.280   1.236   9.535  0.6100  0.1118 -0.7275
 7863SOL    HW235226   1.207   1.118   9.480  1.3882 -0.3157  0.3492
 7864SOL     OW35227   0.578   4.524  11.182  0.5794 -0.7671  0.1007
 7864SOL    HW135228   0.528   4.498  11.260 -2.5544  0.2340 -1.5930
 7864SOL    HW235229   0.651   4.463  11.188  1.6593  0.7978  2.7676
 7865SOL     OW35230   1.771   2.708   2.364  0.0676 -0.4146 -0.5047
 7865SOL    HW135231   1.755   2.663   2.447 -0.4240 -1.6915 -1.2985
 7865SOL    HW235232   1.679   2.732   2.352 -0.3677 -1.3631  0.9568
 7866SOL     OW35233   3.341   0.028  12.723 -0.1367 -0.6206  0.7142
 7866SOL    HW135234   3.379   0.032  12.812 -1.6223  1.5431  1.2538
 7866SOL    HW235235   3.331   0.119  12.696  0.3683 -0.3185  1.5194
 7867SOL     OW35236   3.426   1.558   1.936 -0.1573  0.5195  0.5998
 7867SOL    HW135237   3.357   1.582   1.874  0.5434  2.7750  0.6930
 7867SOL    HW235238   3.392   1.621   1.999 -2.2901  1.9888 -2.0027
 7868SOL     OW35239   3.249   3.433   4.787 -0.4864 -0.5027 -0.2313
 7868SOL    HW135240   3.188   3.382   4.842 -2.5309  1.9160 -0.2526
 7868SOL    HW235241   3.317   3.449   4.852 -0.6566  2.1561 -0.7317
 7869SOL     OW35242   3.070   2.227   2.881  0.4992  0.4142  0.0464
 7869SOL    HW135243   3.061   2.322   2.884 -1.1988  0.2360  0.6742
 7869SOL    HW235244   3.022   2.197   2.959 -2.1454  0.6312 -1.5102
 7870SOL     OW35245   3.160   3.931   7.283 -0.2578  0.2523  0.1210
 7870SOL    HW135246   3.141   4.015   7.241  1.3540  0.9372  0.7722
 7870SOL    HW235247   3.090   3.936   7.349  1.0925  0.5996  1.5321
 7871SOL     OW35248   2.775   1.079   2.573 -0.1688 -0.0450  0.2331
 7871SOL    HW135249   2.742   1.128   2.649  1.9273  0.4250  0.8547
 7871SOL    HW235250   2.723   0.999   2.578 -1.3107  0.8078  1.9692
 7872SOL     OW35251   0.644   3.392   7.083  0.2803 -0.1462  0.5991
 7872SOL    HW135252   0.630   3.393   7.178 -0.0447 -1.7292  0.5799
 7872SOL    HW235253   0.735   3.368   7.065  0.6609  0.4768  1.6984
 7873SOL     OW35254   3.838   4.019   8.779  0.5895 -0.3512 -0.1468
 7873SOL    HW135255   3.777   4.026   8.852  1.3102  0.8506  0.3468
 7873SOL    HW235256   3.787   3.966   8.718  1.2966 -3.9518  2.4202
 7874SOL     OW35257   3.693   1.692  16.189  0.1598 -0.7047 -0.0394
 7874SOL    HW135258   3.616   1.638  16.173  0.9181 -0.3131 -4.9783
 7874SOL    HW235259   3.678   1.715  16.281 -0.7588 -0.4810 -0.2438
 7875SOL     OW35260   0.453   2.914   5.843 -0.0271 -0.0061  0.5361
 7875SOL    HW135261   0.408   2.981   5.895  1.8406  0.8865  1.0062
 7875SOL    HW235262   0.524   2.965   5.804  0.2447 -1.2269 -0.5565
 7876SOL     OW35263   1.492   1.505   9.971  0.4712 -0.1643  0.6775
 7876SOL    HW135264   1.559   1.520  10.039  1.2555 -0.1232 -0.1016
 7876SOL    HW235265   1.447   1.589   9.970 -0.2798 -0.5922 -1.3868
 7877SOL     OW35266   4.253   4.439   8.446  0.1445  0.2842  0.4348
 7877SOL    HW135267   4.271   4.443   8.352  0.1445 -0.0483  0.4205
 7877SOL    HW235268   4.336   4.440   8.492 -0.2734  0.2239  1.1866
 7878SOL     OW35269   0.864   0.627   8.841 -0.2049 -0.5398 -0.2383
 7878SOL    HW135270   0.813   0.703   8.813 -0.7049  0.1309  2.4420
 7878SOL    HW235271   0.906   0.668   8.917  0.6501  0.0427 -1.0300
 7879SOL     OW35272   4.437   0.613  10.108  0.0947  0.3098 -0.1779
 7879SOL    HW135273   4.388   0.663  10.173 -0.5409 -0.2036 -0.2691
 7879SOL    HW235274   4.461   0.679  10.043 -3.0840  0.8696 -0.7479
 7880SOL     OW35275   0.344   3.290   8.464  0.2110  0.1537 -1.0821
 7880SOL    HW135276   0.357   3.362   8.525  0.5193  0.7066 -1.8028
 7880SOL    HW235277   0.249   3.278   8.467 -0.1411  3.1035 -0.2271
 7881SOL     OW35278   2.397   4.059   5.649 -0.2442 -0.3886 -0.3809
 7881SOL    HW135279   2.346   3.978   5.647  1.6115 -1.5492 -0.7112
 7881SOL    HW235280   2.455   4.056   5.573 -0.2698  0.8137 -0.4379
 7882SOL     OW35281   1.813   3.628   3.630 -0.2798  0.0048  0.2054
 7882SOL    HW135282   1.767   3.612   3.713 -1.1708 -0.6258 -0.4109
 7882SOL    HW235283   1.742   3.619   3.567 -1.1610  2.4396  0.8707
 7883SOL     OW35284   1.888   1.794   5.255 -0.3526 -0.1649 -0.1127
 7883SOL    HW135285   1.834   1.865   5.289 -1.1897 -1.3164  0.9504
 7883SOL    HW235286   1.845   1.770   5.173 -2.1823 -0.4151  0.9305
 7884SOL     OW35287   1.965   1.093  17.106  0.2568 -0.2995  0.1544
 7884SOL    HW135288   1.926   1.176  17.077  1.9171  0.6016  0.4726
 7884SOL    HW235289   1.920   1.039  17.041  0.3868 -0.4250  0.1685
 7885SOL     OW35290   4.010   0.282   2.834  0.0125  0.2247 -0.3624
 7885SOL    HW135291   4.056   0.206   2.868 -2.3192 -1.9042 -1.9979
 7885SOL    HW235292   4.083   0.331   2.795  0.1440  0.8031  0.6111
 7886SOL     OW35293   4.368   0.858   4.886  0.4024  0.2488 -0.2169
 7886SOL    HW135294   4.292   0.883   4.939  0.1828 -1.8937  0.4809
 7886SOL    HW235295   4.328   0.857   4.799 -0.1674 -3.1783  0.1110
 7887SOL     OW35296   4.540   0.773   3.190  0.5938  0.3462  0.2560
 7887SOL    HW135297   4.447   0.761   3.210  0.3299  0.4761 -0.8745
 7887SOL    HW235298   4.570   0.802   3.275 -0.4809 -3.7385  2.0147
 7888SOL     OW35299   3.987   3.271   4.196  0.0654 -0.7687 -0.2109
 7888SOL    HW135300   4.054   3.340   4.200 -0.2137 -0.4262 -1.4726
 7888SOL    HW235301   3.963   3.275   4.103 -2.8135 -0.5444  0.5493
 7889SOL     OW35302   0.720   0.870   8.759 -0.1760 -0.2351  0.1405
 7889SOL    HW135303   0.666   0.853   8.681  0.0062  1.8176 -0.4406
 7889SOL    HW235304   0.654   0.859   8.828 -1.8786  0.1552 -1.4034
 7890SOL     OW35305   2.539   3.258   9.319 -0.2439 -0.4160  0.5093
 7890SOL    HW135306   2.537   3.343   9.363  0.7575  0.2678 -0.7695
 7890SOL    HW235307   2.632   3.257   9.295 -0.3102 -0.3063  0.2476
 7891SOL     OW35308   2.718   3.468  16.425 -0.5153 -0.1470 -0.1084
 7891SOL    HW135309   2.650   3.430  16.480 -1.5516  0.6244 -0.8711
 7891SOL    HW235310   2.790   3.404  16.422  0.1794  0.6341 -0.0541
 7892SOL     OW35311   0.817   2.724   8.233 -0.3003  0.7032  0.1956
 7892SOL    HW135312   0.833   2.688   8.146 -0.0844 -1.3433  1.0834
 7892SOL    HW235313   0.728   2.691   8.249 -0.0119 -1.3810 -2.4466
 7893SOL     OW35314   3.860   2.764  10.835  0.3455  0.1586  0.1913
 7893SOL    HW135315   3.951   2.790  10.835  0.1821  0.7223  1.6099
 7893SOL    HW235316   3.882   2.685  10.884  0.1708  1.0711  1.7322
 7894SOL     OW35317   4.678   2.998   4.711  0.3085 -0.4837  0.8716
 7894SOL    HW135318   4.710   2.918   4.668 -0.4925 -0.1488 -0.3282
 7894SOL    HW235319   4.644   2.961   4.792 -2.4416  0.0320 -0.0511
 7895SOL     OW35320   1.498   4.210   3.264  0.0259 -0.0252 -0.1666
 7895SOL    HW135321   1.479   4.297   3.231 -0.7463 -0.6152 -1.2758
 7895SOL    HW235322   1.533   4.222   3.353 -1.6778  2.1334  0.2198
 7896SOL     OW35323   3.017   2.041   5.310  0.2713  0.2171 -0.1658
 7896SOL    HW135324   2.963   2.016   5.235 -1.3674 -0.3382  1.1892
 7896SOL    HW235325   2.977   2.000   5.387 -0.9436  2.2037  0.2655
 7897SOL     OW35326   2.929   3.667   3.307 -0.1424 -0.2266 -0.5091
 7897SOL    HW135327   2.962   3.757   3.309  1.8000 -0.8684 -4.1241
 7897SOL    HW235328   2.962   3.637   3.392 -1.4080  1.8627  0.7356
 7898SOL     OW35329   3.024   4.461   9.769 -0.6305  0.4442  0.1661
 7898SOL    HW135330   3.036   4.491   9.859 -0.8276 -2.8588  1.2788
 7898SOL    HW235331   3.103   4.414   9.744  0.0349  1.3422  0.5942
 7899SOL     OW35332   4.563   2.233   8.680 -0.3239  0.0917  0.4278
 7899SOL    HW135333   4.642   2.190   8.713  0.1287 -0.4816 -1.4100
 7899SOL    HW235334   4.538   2.283   8.758  2.1818  1.2080  0.5388
 7900SOL     OW35335   1.932   3.601   4.484 -0.5309 -0.4641  0.2692
 7900SOL    HW135336   1.908   3.642   4.567 -0.0546  0.6669 -0.1599
 7900SOL    HW235337   1.860   3.643   4.438  2.5625  3.3902 -1.0073
 7901SOL     OW35338   3.874   4.027   1.384  0.5485  0.4029 -0.0103
 7901SOL    HW135339   3.943   4.092   1.372 -0.9365  1.9831  0.1758
 7901SOL    HW235340   3.858   4.008   1.291  0.6204  1.5827 -0.2611
 7902SOL     OW35341   1.867   4.659   8.688  0.2473  0.5400 -0.1229
 7902SOL    HW135342   1.877   0.004   8.638  1.9817 -1.7552 -3.4990
 7902SOL    HW235343   1.948   4.614   8.662 -1.5721 -1.0361 -3.0910
 7903SOL     OW35344   3.999   2.373  12.509  0.1517 -0.7484  0.7825
 7903SOL    HW135345   4.064   2.324  12.459  1.1478  1.6330 -0.2529
 7903SOL    HW235346   3.931   2.390  12.444 -0.5993  1.4945  2.1366
 7904SOL     OW35347   1.165   1.894   3.905 -0.6684  0.0438 -0.2826
 7904SOL    HW135348   1.206   1.820   3.860 -0.0290 -0.8239  1.7112
 7904SOL    HW235349   1.235   1.959   3.914 -0.4394 -0.3451  0.8560
 7905SOL     OW35350   4.141   3.340  15.063 -0.0422 -0.5328 -0.8114
 7905SOL    HW135351   4.053   3.359  15.094  0.3068  0.6410 -0.5406
 7905SOL    HW235352   4.127   3.372  14.974  1.4074  0.5646 -0.6462
 7906SOL     OW35353   3.407   2.466  11.398  0.6912 -0.0014  0.2087
 7906SOL    HW135354   3.341   2.397  11.394  1.5128 -0.8125  0.9989
 7906SOL    HW235355   3.360   2.541  11.360  0.8740 -1.0702 -2.1215
 7907SOL     OW35356   1.740   2.690   5.748 -0.1645  0.5406  0.3202
 7907SOL    HW135357   1.677   2.736   5.802 -3.4746 -1.5232 -1.7971
 7907SOL    HW235358   1.785   2.766   5.710  0.3531 -0.4100 -0.9926
 7908SOL     OW35359   1.167   3.284  12.119  0.0239 -0.0003  0.0593
 7908SOL    HW135360   1.208   3.200  12.137  0.4223  0.2623  0.3605
 7908SOL    HW235361   1.205   3.344  12.183  0.3538  2.5879 -2.5687
 7909SOL     OW35362   1.666   4.628  11.589  0.0342  0.1888 -0.0203
 7909SOL    HW135363   1.633   4.697  11.647 -1.0255  1.0000 -1.6251
 7909SOL    HW235364   1.663   4.553  11.649 -1.9238  0.5620  0.3324
 7910SOL     OW35365   2.770   1.205   5.502 -0.7245 -0.6478  0.3436
 7910SOL    HW135366   2.820   1.213   5.583  0.8279  1.4605 -0.8142
 7910SOL    HW235367   2.756   1.298   5.483 -0.5263 -0.9034 -1.0561
 7911SOL     OW35368   4.111   1.250   4.136 -0.4263 -0.3955  0.5416
 7911SOL    HW135369   4.160   1.264   4.217 -3.3694  0.5121  2.1661
 7911SOL    HW235370   4.064   1.333   4.124 -0.4833 -0.6295 -0.9517
 7912SOL     OW35371   0.040   0.707   2.097 -0.0043  0.0086 -0.1564
 7912SOL    HW135372   0.069   0.623   2.062  0.2038 -0.4600  1.1578
 7912SOL    HW235373   0.049   0.764   2.020 -0.3566  0.1704 -0.0795
 7913SOL     OW35374   3.240   1.670  16.331 -0.2466 -0.6093  0.5034
 7913SOL    HW135375   3.241   1.650  16.424  0.5866  2.3607  1.1132
 7913SOL    HW235376   3.153   1.638  16.305  0.8222 -1.6142 -1.7896
 7914SOL     OW35377   0.843   1.064  17.636  0.0020  0.3113 -0.2056
 7914SOL    HW135378   0.822   0.994  17.574 -0.6542 -0.2843  0.6793
 7914SOL    HW235379   0.929   1.084  17.599 -0.0889 -0.4962 -0.8506
 7915SOL     OW35380   2.742   2.840  14.636  0.4032 -0.0290  0.0443
 7915SOL    HW135381   2.747   2.841  14.731 -2.0942  0.2138  0.1774
 7915SOL    HW235382   2.646   2.846  14.631  0.4168 -0.2663 -0.5724
 7916SOL     OW35383   3.347   4.248   9.565  0.2907 -0.3528  0.6038
 7916SOL    HW135384   3.329   4.234   9.658 -2.4273  1.0160  0.2832
 7916SOL    HW235385   3.414   4.315   9.572 -1.7501  1.8844 -1.3364
 7917SOL     OW35386   0.893   3.240   9.674 -0.2153 -0.1325  0.0419
 7917SOL    HW135387   0.804   3.217   9.648  0.3189 -0.9091 -1.1182
 7917SOL    HW235388   0.909   3.317   9.620 -0.2221 -0.6232 -0.6572
 7918SOL     OW35389   4.628   4.064   4.166 -0.4038  0.2641 -0.4128
 7918SOL    HW135390   4.590   4.055   4.078 -0.4399  1.4242 -0.5102
 7918SOL    HW235391   4.677   4.145   4.173  0.6736 -0.5394  1.2523
 7919SOL     OW35392   0.107   2.430   5.207  0.0279  0.6786 -0.1266
 7919SOL    HW135393   0.016   2.401   5.213  0.0134  0.3244 -2.0324
 7919SOL    HW235394   0.164   2.354   5.215 -0.4785  0.0423 -2.4571
 7920SOL     OW35395   0.748   4.708   0.809  0.4684 -0.2858 -0.6296
 7920SOL    HW135396   0.771   4.615   0.816 -0.5220 -0.3730  1.6183
 7920SOL    HW235397   0.726   4.713   0.716 -0.0840 -0.1335 -0.4928
 7921SOL     OW35398   2.109   2.060  11.254  0.1094  0.2386 -0.0516
 7921SOL    HW135399   2.054   2.062  11.175  0.5126 -0.9453 -0.3598
 7921SOL    HW235400   2.197   2.051  11.217 -0.5607 -2.0792 -1.0621
 7922SOL     OW35401   4.343   0.195   1.697  0.1334 -0.1770 -0.3668
 7922SOL    HW135402   4.268   0.219   1.750  1.0569  0.1467  0.8007
 7922SOL    HW235403   4.385   0.125   1.747 -0.0830  0.2431  0.3971
 7923SOL     OW35404   4.573   2.565   4.383  0.0076 -0.1764  0.8165
 7923SOL    HW135405   4.481   2.541   4.374 -1.0828  3.7349  1.9030
 7923SOL    HW235406   4.615   2.482   4.406 -0.7557 -0.7171  0.2663
 7924SOL     OW35407   2.585   1.897   4.697  0.8245 -0.1737 -0.8792
 7924SOL    HW135408   2.592   1.891   4.792  3.4198  0.7997 -1.0071
 7924SOL    HW235409   2.492   1.879   4.680  0.2088  1.0228  1.2346
 7925SOL     OW35410   2.673   2.869   8.814 -0.0305  0.0949 -0.3395
 7925SOL    HW135411   2.651   2.870   8.721 -0.0890 -2.3192 -0.3397
 7925SOL    HW235412   2.680   2.964   8.829  2.4214 -0.1517  0.1704
 7926SOL     OW35413   2.862   3.934   8.301 -0.5314  0.2451 -0.2651
 7926SOL    HW135414   2.842   3.908   8.391  1.4848  2.0336  0.6972
 7926SOL    HW235415   2.928   4.003   8.307  1.4810 -1.7206  0.3990
 7927SOL     OW35416   0.158   2.715   5.360  0.5389 -0.1242  0.0258
 7927SOL    HW135417   0.159   2.621   5.340 -0.1194 -0.5290  1.9154
 7927SOL    HW235418   0.069   2.749   5.356  1.1347  1.6936  1.9499
 7928SOL     OW35419   3.093   2.603   9.634 -0.1316 -0.1330 -1.2027
 7928SOL    HW135420   3.022   2.590   9.697  0.3043 -2.1238 -1.1347
 7928SOL    HW235421   3.154   2.533   9.654 -2.8376 -1.3235  2.9060
 7929SOL     OW35422   3.259   0.158   1.175  0.2127 -0.1809  0.4975
 7929SOL    HW135423   3.182   0.166   1.233 -0.6933 -0.4166 -0.6748
 7929SOL    HW235424   3.303   0.236   1.208 -0.2603  0.8014 -1.2114
 7930SOL     OW35425   2.256   3.644   2.914 -0.2301 -0.0079  0.0004
 7930SOL    HW135426   2.198   3.598   2.853  1.6084 -0.7349 -1.1873
 7930SOL    HW235427   2.245   3.595   2.995  1.1960 -0.9546 -0.3832
 7931SOL     OW35428   3.691   3.913   4.258  0.2321 -0.5596  0.2622
 7931SOL    HW135429   3.687   3.980   4.190 -2.6417 -1.3352 -0.3550
 7931SOL    HW235430   3.745   3.963   4.319 -1.3317  1.4400 -0.0006
 7932SOL     OW35431   3.488   2.531   8.765  0.5172 -0.3094  0.2593
 7932SOL    HW135432   3.546   2.463   8.801  1.2038  0.7397  1.1324
 7932SOL    HW235433   3.427   2.534   8.839 -3.0771 -1.4471 -2.6682
 7933SOL     OW35434   2.734   0.653   6.243  0.0824  0.4778 -0.2341
 7933SOL    HW135435   2.739   0.745   6.270 -0.6775  0.5949 -0.5130
 7933SOL    HW235436   2.792   0.603   6.301  0.1202  1.8146  0.8915
 7934SOL     OW35437   1.651   1.776   4.788 -0.0629  0.1663 -0.0828
 7934SOL    HW135438   1.610   1.819   4.863 -0.8977  0.2386 -0.5719
 7934SOL    HW235439   1.594   1.699   4.797  1.9235 -1.4502 -1.4506
 7935SOL     OW35440   0.093   3.951  10.978  0.3403 -0.1582 -0.0669
 7935SOL    HW135441   0.044   4.031  10.959  1.0790  0.5191  0.8769
 7935SOL    HW235442   0.032   3.881  10.952  1.0230 -0.6259 -0.4293
 7936SOL     OW35443   4.469   1.585   4.374  0.2766  0.7110  0.1627
 7936SOL    HW135444   4.550   1.561   4.327 -0.3083 -1.2331  0.1428
 7936SOL    HW235445   4.516   1.630   4.444 -1.4557  0.6101  1.3934
 7937SOL     OW35446   4.207   1.794  11.901  0.3858  0.3942 -0.3471
 7937SOL    HW135447   4.281   1.736  11.886 -0.0313 -0.9495  2.7082
 7937SOL    HW235448   4.139   1.727  11.915  1.1968 -0.4053 -0.2655
 7938SOL     OW35449   3.788   1.837  14.501  0.5746  0.3938  0.3545
 7938SOL    HW135450   3.714   1.825  14.442  0.8981 -1.8513  0.3887
 7938SOL    HW235451   3.780   1.931  14.512  1.3838  0.2431  2.2278
 7939SOL     OW35452   0.008   0.380   2.581  0.0292 -0.1017  0.2251
 7939SOL    HW135453   4.657   0.408   2.551  0.9405 -0.4474 -2.7493
 7939SOL    HW235454   0.036   0.463   2.620  0.9435 -0.4616  0.3344
 7940SOL     OW35455   4.025   0.477  16.527 -0.2991  0.1094 -0.1633
 7940SOL    HW135456   4.072   0.547  16.482 -1.3979  0.5566 -0.6114
 7940SOL    HW235457   3.931   0.497  16.528 -0.2691  0.0199  2.6645
 7941SOL     OW35458   2.621   0.900   6.431  0.2249 -0.3290  0.1981
 7941SOL    HW135459   2.527   0.918   6.436  0.1782  0.0083 -2.0211
 7941SOL    HW235460   2.640   0.820   6.480  2.1579  0.3052  0.5057
 7942SOL     OW35461   3.013   0.902   4.502 -0.0990 -0.5849  0.2027
 7942SOL    HW135462   3.097   0.913   4.547 -1.2317 -0.7108  2.3864
 7942SOL    HW235463   2.952   0.900   4.576  0.8549 -0.3584  1.0014
 7943SOL     OW35464   4.673   3.193   2.175  0.1389 -0.0295  0.3202
 7943SOL    HW135465   4.647   3.284   2.164 -1.3127 -0.1801  2.5732
 7943SOL    HW235466   4.646   3.186   2.266 -2.3483 -0.7933 -0.4768
 7944SOL     OW35467   2.945   0.553  14.681 -0.3888 -0.0323  0.0437
 7944SOL    HW135468   2.981   0.570  14.594  3.0227 -1.5023  1.1509
 7944SOL    HW235469   2.988   0.622  14.731  0.0744 -0.9689  0.9408
 7945SOL     OW35470   1.235   4.164  14.664 -0.2179 -0.3592 -0.7524
 7945SOL    HW135471   1.179   4.086  14.669 -0.3911 -0.2828 -1.5474
 7945SOL    HW235472   1.289   4.151  14.742  0.5161  0.3917 -1.1378
 7946SOL     OW35473   0.114   0.103   3.083 -0.5918  0.0288 -0.3605
 7946SOL    HW135474   0.185   0.038   3.092  0.4440  1.0098 -1.4343
 7946SOL    HW235475   0.129   0.112   2.989  0.4674  0.6148 -0.1413
 7947SOL     OW35476   2.351   2.600   3.917  0.0141 -0.2394 -0.1624
 7947SOL    HW135477   2.310   2.568   3.837  0.8460  1.6105 -1.3368
 7947SOL    HW235478   2.271   2.612   3.967  0.4808 -0.6197  0.6870
 7948SOL     OW35479   1.813   2.168   8.505  0.5039  0.1655 -0.0641
 7948SOL    HW135480   1.830   2.074   8.497  3.0959  0.6135 -0.0583
 7948SOL    HW235481   1.817   2.187   8.599 -3.6044  0.8459 -0.0117
 7949SOL     OW35482   0.074   0.372   7.177  0.2583 -0.3818  0.7353
 7949SOL    HW135483   0.072   0.375   7.081  1.2561  2.7256  0.8167
 7949SOL    HW235484   0.105   0.283   7.189 -3.0881 -1.6616 -0.1722
 7950SOL     OW35485   3.762   1.860   7.825 -0.4132 -0.0906  0.1910
 7950SOL    HW135486   3.828   1.868   7.893 -0.9505  0.5385  0.6311
 7950SOL    HW235487   3.820   1.889   7.754 -1.5055  1.6285  0.0086
 7951SOL     OW35488   0.709   1.111   0.477 -0.1407  0.0847 -0.2134
 7951SOL    HW135489   0.798   1.136   0.453  0.5092 -1.0188  1.0178
 7951SOL    HW235490   0.699   1.021   0.445 -0.1666  0.0117 -0.0003
 7952SOL     OW35491   4.560   1.093   7.931  0.2114  0.3664 -0.6075
 7952SOL    HW135492   4.497   1.104   8.003  0.4079  1.2515 -0.5713
 7952SOL    HW235493   4.580   1.184   7.913  0.4515  0.1884 -1.2591
 7953SOL     OW35494   1.723   2.388  17.348  0.3933 -0.1396 -0.0657
 7953SOL    HW135495   1.750   2.383  17.440  2.9150  1.6252 -0.6980
 7953SOL    HW235496   1.715   2.480  17.320 -0.8034 -0.1855  0.1336
 7954SOL     OW35497   3.396   0.353   6.982 -0.4564 -0.1928  0.2795
 7954SOL    HW135498   3.308   0.322   7.002  0.3831 -3.2092 -0.7705
 7954SOL    HW235499   3.382   0.392   6.895 -0.4215  1.8938  1.1936
 7955SOL     OW35500   2.484   2.683   1.155  0.4136  0.8736 -0.0085
 7955SOL    HW135501   2.467   2.719   1.242 -1.4090 -1.4745  0.5873
 7955SOL    HW235502   2.464   2.592   1.176 -3.2484  2.0385  1.4471
 7956SOL     OW35503   1.721   2.152   1.511 -0.1486 -0.0901 -0.5271
 7956SOL    HW135504   1.644   2.116   1.466 -0.5019 -0.1815  0.1536
 7956SOL    HW235505   1.671   2.208   1.571 -0.3086 -0.3882 -0.3818
 7957SOL     OW35506   1.027   3.111   1.340  0.6046 -0.1477 -0.7144
 7957SOL    HW135507   1.052   3.203   1.328  0.5114 -0.1509 -0.9277
 7957SOL    HW235508   0.933   3.121   1.352  0.4872 -0.5142 -1.3561
 7958SOL     OW35509   2.868   4.297  11.373  0.5171  0.1509 -0.0960
 7958SOL    HW135510   2.822   4.215  11.391 -0.2438  0.0403 -2.5527
 7958SOL    HW235511   2.896   4.324  11.460  1.8776 -1.1053 -0.1366
 7959SOL     OW35512   3.506   3.087   6.743  0.0218 -0.4076 -0.1833
 7959SOL    HW135513   3.427   3.131   6.775  1.2511 -0.7289  3.2685
 7959SOL    HW235514   3.577   3.106   6.804  0.9406 -1.2826 -0.9867
 7960SOL     OW35515   0.658   2.189  14.537  0.6696  0.4737 -0.2466
 7960SOL    HW135516   0.619   2.267  14.578  1.0808 -0.0318  1.0855
 7960SOL    HW235517   0.728   2.230  14.486  0.1006  2.1442  0.3106
 7961SOL     OW35518   1.384   2.236   4.287 -0.5012  0.2628 -0.0642
 7961SOL    HW135519   1.334   2.266   4.211  1.2541  0.1737 -1.2663
 7961SOL    HW235520   1.464   2.199   4.248 -0.8354 -4.0064  3.3401
 7962SOL     OW35521   4.212   2.748  10.172  0.0946 -0.1179 -0.3652
 7962SOL    HW135522   4.126   2.787  10.190 -0.6841 -0.9687 -2.2433
 7962SOL    HW235523   4.196   2.707  10.087  1.0080 -0.2103 -0.4883
 7963SOL     OW35524   1.247   3.966   0.304 -0.1494  0.1441 -0.5801
 7963SOL    HW135525   1.193   3.894   0.337  0.1607  0.2466  0.1513
 7963SOL    HW235526   1.284   3.994   0.387 -0.5115 -1.4458  0.1182
 7964SOL     OW35527   1.453   3.816   2.260  0.4752  0.5442  0.2723
 7964SOL    HW135528   1.470   3.819   2.166 -1.3455 -1.0341 -0.1158
 7964SOL    HW235529   1.396   3.739   2.260 -0.9799  1.6215  1.4503
 7965SOL     OW35530   0.344   4.346   4.887 -0.1512 -0.5335 -0.1173
 7965SOL    HW135531   0.323   4.257   4.915 -0.2970 -1.1631 -2.2314
 7965SOL    HW235532   0.361   4.331   4.794  2.8568  2.7354 -0.1283
 7966SOL     OW35533   1.218   2.120   3.313 -0.7139 -0.2379 -0.2729
 7966SOL    HW135534   1.196   2.062   3.386 -1.3493  0.2142 -0.1103
 7966SOL    HW235535   1.140   2.122   3.259 -0.2000  0.7348 -0.9840
 7967SOL     OW35536   3.402   2.467   2.663  0.4622  0.1030  0.3344
 7967SOL    HW135537   3.330   2.422   2.706 -1.4099  2.5208 -0.3016
 7967SOL    HW235538   3.404   2.436   2.572 -1.0121  2.3595 -0.4562
 7968SOL     OW35539   4.249   1.769   5.207  0.0755  0.1657  0.7212
 7968SOL    HW135540   4.326   1.756   5.263  0.2405  0.7435  0.6313
 7968SOL    HW235541   4.267   1.725   5.124  1.2627 -0.1711  1.1519
 7969SOL     OW35542   3.825   3.578   5.874 -0.5194  0.5455 -0.0725
 7969SOL    HW135543   3.885   3.587   5.800 -1.4015 -0.7776 -0.9431
 7969SOL    HW235544   3.817   3.666   5.912 -1.5256  0.3747  0.1262
 7970SOL     OW35545   3.561   3.955   0.711 -0.6165  0.3958 -0.4675
 7970SOL    HW135546   3.495   3.896   0.749 -1.5074  1.7589  0.1366
 7970SOL    HW235547   3.517   4.039   0.727  0.1431  0.3582  1.8449
 7971SOL     OW35548   3.304   2.272  12.199 -0.1169  0.0696  0.3222
 7971SOL    HW135549   3.254   2.351  12.179 -0.6149 -0.1268  0.8024
 7971SOL    HW235550   3.259   2.236  12.275  0.7839 -0.6163  0.5312
 7972SOL     OW35551   4.555   1.269  13.464 -0.4046  0.1283 -0.2476
 7972SOL    HW135552   4.543   1.181  13.499 -0.6867  0.4979  0.5781
 7972SOL    HW235553   4.466   1.304  13.459 -1.0203 -1.3280  0.7606
 7973SOL     OW35554   0.781   3.145  17.273  0.5919  0.4847 -0.7186
 7973SOL    HW135555   0.827   3.143  17.189 -0.8464  0.6139 -1.5103
 7973SOL    HW235556   0.811   3.227  17.311 -0.5496 -0.0552  1.3202
 7974SOL     OW35557   2.803   3.695   6.129  0.1241  0.3171 -0.2886
 7974SOL    HW135558   2.874   3.659   6.075  0.8834  0.0738  0.8705
 7974SOL    HW235559   2.842   3.777   6.159  2.0611 -0.2292 -1.2747
 7975SOL     OW35560   0.053   0.711   3.023  0.0022 -0.1752 -0.1247
 7975SOL    HW135561   4.703   0.711   3.067 -0.7955  0.0735 -1.6747
 7975SOL    HW235562   0.029   0.746   2.937  4.5805  1.0038 -0.9186
 7976SOL     OW35563   0.525   3.316   5.883  0.6896  0.1929 -0.2790
 7976SOL    HW135564   0.472   3.319   5.963  0.2765 -2.4826 -0.4648
 7976SOL    HW235565   0.611   3.335   5.922  0.5252 -0.2037  0.2759
 7977SOL     OW35566   4.421   0.370   9.700  0.6542 -0.3349 -0.2305
 7977SOL    HW135567   4.358   0.299   9.711 -2.0138  2.0374 -0.2049
 7977SOL    HW235568   4.365   0.444   9.722  2.0505  0.5697  0.2520
 7978SOL     OW35569   1.358   3.577   5.095 -0.6965 -0.0271 -0.3253
 7978SOL    HW135570   1.412   3.593   5.173  1.6940  0.0380 -2.0030
 7978SOL    HW235571   1.360   3.482   5.097 -0.4016 -0.0315 -0.9641
 7979SOL     OW35572   2.110   2.256   3.901  0.5714 -0.1417 -0.0095
 7979SOL    HW135573   2.084   2.188   3.839 -0.7759 -0.2453  0.6762
 7979SOL    HW235574   2.193   2.284   3.863  0.4702 -2.7293 -2.1518
 7980SOL     OW35575   2.438   2.216   0.805 -0.0078  0.3874  0.6370
 7980SOL    HW135576   2.481   2.300   0.821 -0.7902  1.3735 -2.5421
 7980SOL    HW235577   2.480   2.194   0.722  1.4764 -0.3482  1.5651
 7981SOL     OW35578   4.171   2.832   3.812  0.2818  0.2180  0.0360
 7981SOL    HW135579   4.165   2.795   3.724 -2.5377  0.0423  0.3236
 7981SOL    HW235580   4.225   2.760   3.845 -0.6223  0.1487  1.3628
 7982SOL     OW35581   2.059   2.776   9.369  0.5461  0.1687  0.3066
 7982SOL    HW135582   2.053   2.802   9.277  1.8387 -2.5565 -0.5260
 7982SOL    HW235583   2.004   2.698   9.363  0.1674  0.5760 -1.4864
 7983SOL     OW35584   0.078   0.212  15.780 -0.4754  0.4485 -0.1720
 7983SOL    HW135585   4.725   0.225  15.747  0.1832 -1.1803 -2.5933
 7983SOL    HW235586   0.126   0.231  15.699 -0.6684 -0.6364 -0.5397
 7984SOL     OW35587   0.935   3.381  11.407 -0.1357  0.0929 -0.5923
 7984SOL    HW135588   0.864   3.327  11.442 -1.2784  1.3013 -1.0631
 7984SOL    HW235589   0.909   3.387  11.315 -0.6010 -2.1332 -0.6078
 7985SOL     OW35590   4.128   3.307   0.997  0.3082 -0.1970 -0.2527
 7985SOL    HW135591   4.052   3.263   1.034 -0.0211  1.9228  1.5855
 7985SOL    HW235592   4.112   3.393   1.036  0.7495 -0.1773 -0.1177
 7986SOL     OW35593   0.960   3.517   1.603  0.5561  0.1362  0.3425
 7986SOL    HW135594   0.990   3.607   1.594 -1.2358  0.7596  0.5197
 7986SOL    HW235595   1.047   3.479   1.613  0.6747  0.7262  1.6358
 7987SOL     OW35596   0.569   0.812  11.208 -0.5920  0.0477  0.5632
 7987SOL    HW135597   0.577   0.730  11.256  1.6415 -1.5336 -2.4809
 7987SOL    HW235598   0.562   0.770  11.122  1.0223  0.2724  0.3332
 7988SOL     OW35599   3.529   1.108   7.352  0.1353 -0.7223  0.3075
 7988SOL    HW135600   3.434   1.097   7.346  0.1017 -0.3948  0.2806
 7988SOL    HW235601   3.538   1.165   7.428 -1.6633  1.0342 -0.7805
 7989SOL     OW35602   3.863   4.284  15.830  0.2676  0.2514 -0.3332
 7989SOL    HW135603   3.818   4.368  15.844 -1.2476 -0.8568  1.5375
 7989SOL    HW235604   3.835   4.275  15.739  1.7721 -1.4340 -0.6130
 7990SOL     OW35605   3.835   4.351   4.179 -0.6035  0.1760 -0.5247
 7990SOL    HW135606   3.927   4.327   4.167 -0.1818  1.2844  0.4797
 7990SOL    HW235607   3.790   4.272   4.150  1.1594 -0.8456 -0.4826
 7991SOL     OW35608   1.761   3.070   5.761 -0.0562  0.0105 -0.4755
 7991SOL    HW135609   1.818   3.140   5.792 -0.7365 -0.1946  1.2606
 7991SOL    HW235610   1.830   3.012   5.730  1.0267  2.5347 -2.7421
 7992SOL     OW35611   0.096   4.015   6.643 -0.2305  0.0406 -0.4175
 7992SOL    HW135612   0.040   4.086   6.612 -0.3620  0.9741  1.9516
 7992SOL    HW235613   0.077   3.953   6.573  0.7776  0.0056 -0.6590
 7993SOL     OW35614   1.877   3.277   3.829 -0.0199  0.5004 -0.7175
 7993SOL    HW135615   1.949   3.298   3.769  0.7696 -2.5465 -0.8178
 7993SOL    HW235616   1.828   3.360   3.830  2.3153  1.8390  2.7349
 7994SOL     OW35617   0.745   2.953   1.138  0.2760 -0.6109 -0.2499
 7994SOL    HW135618   0.713   2.913   1.057 -2.3172 -0.1374  0.5485
 7994SOL    HW235619   0.679   3.020   1.156  1.3421  0.7697 -1.4461
 7995SOL     OW35620   2.361   1.297  11.535  0.3469  0.1031 -0.3716
 7995SOL    HW135621   2.323   1.379  11.568  0.2922 -0.4081  0.8666
 7995SOL    HW235622   2.283   1.241  11.540  0.3491  0.1713  0.4367
 7996SOL     OW35623   4.038   2.449   2.646 -0.3227  0.2243 -0.5154
 7996SOL    HW135624   4.055   2.360   2.618  1.6101  0.8141 -1.2302
 7996SOL    HW235625   4.086   2.448   2.729 -2.7828  0.5300  0.8969
 7997SOL     OW35626   2.003   3.726   6.396  0.1706  0.0943  0.0744
 7997SOL    HW135627   1.942   3.764   6.334  0.7066 -0.0703 -0.5616
 7997SOL    HW235628   1.967   3.703   6.481  0.6828 -0.2712  0.1992
 7998SOL     OW35629   1.365   3.364   8.093 -0.0262  0.1740 -0.1072
 7998SOL    HW135630   1.393   3.348   8.183 -1.0491 -2.1910 -0.2156
 7998SOL    HW235631   1.419   3.299   8.048 -0.5298 -0.1151 -0.2934
 7999SOL     OW35632   2.913   1.013   9.770  0.8308  0.5323 -0.0863
 7999SOL    HW135633   2.834   0.973   9.732 -1.5564  1.6263  3.7810
 7999SOL    HW235634   2.915   0.974   9.857  1.2307  0.9252  0.0778
 8000SOL     OW35635   1.445   0.994   8.530  0.2322  0.2544  0.0835
 8000SOL    HW135636   1.459   0.900   8.523  1.6371  0.3968  0.8129
 8000SOL    HW235637   1.368   1.011   8.477  0.3513 -0.8501 -0.4390
 8001SOL     OW35638   4.214   4.527   4.247  0.1953 -0.5998 -0.1111
 8001SOL    HW135639   4.229   4.580   4.169  2.0414 -0.1160  0.5705
 8001SOL    HW235640   4.184   4.441   4.216 -3.1764  0.4443  0.2858
 8002SOL     OW35641   4.504   1.706   2.674  0.3817  0.8287 -0.0279
 8002SOL    HW135642   4.572   1.738   2.732 -0.8877  1.6211  1.0106
 8002SOL    HW235643   4.458   1.785   2.644  1.8923  1.7567  0.0896
 8003SOL     OW35644   4.035   4.401   0.727  0.2273  0.4420 -0.4184
 8003SOL    HW135645   4.111   4.378   0.781 -0.1609  1.1027  0.4141
 8003SOL    HW235646   4.072   4.395   0.639  2.5858 -0.6218  0.6409
 8004SOL     OW35647   0.245   3.547  12.784 -0.3254  0.0971  0.3088
 8004SOL    HW135648   0.294   3.499  12.717  1.1664 -0.4662  1.7991
 8004SOL    HW235649   0.152   3.544  12.763  0.4064 -0.5639 -2.8347
 8005SOL     OW35650   3.215   2.442   2.856 -0.4053  0.6712 -0.3174
 8005SOL    HW135651   3.165   2.520   2.879 -2.3969 -0.7181  0.1100
 8005SOL    HW235652   3.281   2.440   2.925 -0.6629 -0.8958 -0.1119
 8006SOL     OW35653   0.361   3.717   4.968 -0.1839 -0.6000  0.4372
 8006SOL    HW135654   0.385   3.698   4.877 -0.3905  0.0941  0.2316
 8006SOL    HW235655   0.282   3.662   4.968  1.0426 -2.3352  0.0675
 8007SOL     OW35656   3.946   2.934   9.922  0.3192  0.1476 -0.1763
 8007SOL    HW135657   3.920   2.939   9.830 -0.0257 -0.5977 -0.1166
 8007SOL    HW235658   4.039   2.914   9.913 -0.4748 -5.2228  3.6004
 8008SOL     OW35659   4.576   1.912   7.518 -0.2497  0.4874  0.6838
 8008SOL    HW135660   4.562   1.936   7.426 -1.2832  1.8728  1.2032
 8008SOL    HW235661   4.519   1.977   7.558 -0.0450 -0.5340  2.6217
 8009SOL     OW35662   2.523   3.673  11.034 -0.2457  0.0068 -0.1535
 8009SOL    HW135663   2.485   3.699  11.118  0.3386  0.9241 -0.1730
 8009SOL    HW235664   2.481   3.741  10.982 -0.3075  1.4227  1.7633
 8010SOL     OW35665   2.324   2.876   6.035 -0.6833 -0.4622 -0.3679
 8010SOL    HW135666   2.236   2.845   6.015 -0.6506 -1.9837  1.7505
 8010SOL    HW235667   2.312   2.941   6.104 -1.9818 -1.5454  0.4122
 8011SOL     OW35668   4.031   3.696   6.055  0.2840 -0.1090 -0.3378
 8011SOL    HW135669   3.966   3.653   6.111 -0.0618 -2.0234 -2.2427
 8011SOL    HW235670   4.101   3.631   6.057 -1.1092 -1.6136 -0.4880
 8012SOL     OW35671   3.240   2.830   8.800 -0.2196  0.4382 -0.0415
 8012SOL    HW135672   3.182   2.786   8.738  1.6933 -2.3425  0.1204
 8012SOL    HW235673   3.194   2.807   8.881 -2.1322 -1.4091 -1.6718
 8013SOL     OW35674   3.544   0.098   3.450 -0.0987  0.2528  0.1400
 8013SOL    HW135675   3.565   0.086   3.357  0.0980  0.8033  0.1101
 8013SOL    HW235676   3.524   0.008   3.475  1.6462 -0.2833 -0.3923
 8014SOL     OW35677   3.938   1.751   1.000  0.0146  0.6594 -0.4875
 8014SOL    HW135678   3.943   1.792   1.086 -0.4419  1.0267 -0.6291
 8014SOL    HW235679   3.932   1.830   0.945 -1.5590  1.3034  0.6078
 8015SOL     OW35680   2.410   1.718   4.512  0.2227 -0.4085  0.3382
 8015SOL    HW135681   2.341   1.678   4.564 -0.9502  0.8138 -0.2808
 8015SOL    HW235682   2.363   1.792   4.474 -2.0308 -1.3080  1.4029
 8016SOL     OW35683   1.127   1.040  15.958 -0.2968 -0.5128  0.4284
 8016SOL    HW135684   1.061   1.108  15.940  1.2197  0.3858 -1.8156
 8016SOL    HW235685   1.136   0.979  15.885 -0.8468 -2.1957  1.7860
 8017SOL     OW35686   3.162   0.575   5.562 -0.6439 -0.9414  0.0462
 8017SOL    HW135687   3.167   0.627   5.481  1.0961 -1.2595 -0.0531
 8017SOL    HW235688   3.159   0.643   5.630 -0.8493  1.1578 -2.0376
 8018SOL     OW35689   1.925   4.635   8.342  0.2210  0.0897  0.1691
 8018SOL    HW135690   1.993   4.578   8.379  0.2776 -1.5679 -2.4645
 8018SOL    HW235691   1.980   4.713   8.334 -0.2395  0.4006  0.0554
 8019SOL     OW35692   1.790   3.241   8.994 -0.4419  0.3894  0.7920
 8019SOL    HW135693   1.858   3.302   9.024  0.8978 -1.0232  0.6193
 8019SOL    HW235694   1.800   3.170   9.057 -0.8906 -0.5051 -0.1671
 8020SOL     OW35695   0.752   0.858   8.358  0.1470  0.1534  0.8190
 8020SOL    HW135696   0.803   0.850   8.278  1.4137  3.4585  1.2897
 8020SOL    HW235697   0.717   0.770   8.369  0.2322 -0.0135 -0.2887
 8021SOL     OW35698   2.396   1.702  11.726 -0.3576  0.0222  0.3921
 8021SOL    HW135699   2.454   1.688  11.651  1.0365  1.2075  1.2489
 8021SOL    HW235700   2.436   1.765  11.786 -0.2531  0.6653 -0.3626
 8022SOL     OW35701   1.242   3.041   8.830  0.0522  0.4339  0.6084
 8022SOL    HW135702   1.329   3.034   8.789 -1.5718 -1.2413 -2.5267
 8022SOL    HW235703   1.194   2.995   8.761  0.6263  2.5417 -1.1670
 8023SOL     OW35704   4.453   3.928   6.598 -0.0347 -0.3003  0.1626
 8023SOL    HW135705   4.378   3.881   6.561 -0.5707  1.8006 -1.4607
 8023SOL    HW235706   4.457   3.897   6.688  0.3623 -0.5968  0.0403
 8024SOL     OW35707   4.551   3.806  13.242 -0.4968  0.5815  0.6289
 8024SOL    HW135708   4.489   3.737  13.265  0.7412 -0.4368  0.9038
 8024SOL    HW235709   4.509   3.865  13.180  1.7619  2.3718  0.8191
 8025SOL     OW35710   0.904   4.638   8.826 -0.2490 -0.7447  0.6992
 8025SOL    HW135711   0.859   4.721   8.843 -2.2223 -1.6169 -0.3089
 8025SOL    HW235712   0.846   4.585   8.882  0.4986 -2.1259  0.1704
 8026SOL     OW35713   3.663   2.767   6.846  0.4342 -0.3480  0.8295
 8026SOL    HW135714   3.665   2.672   6.861  3.3104  0.1515  3.6208
 8026SOL    HW235715   3.656   2.807   6.933 -2.1741  0.3579  0.2851
 8027SOL     OW35716   4.647   1.741   8.518  0.1690  0.3870  0.0430
 8027SOL    HW135717   4.721   1.682   8.533 -0.2305 -0.5223 -1.5166
 8027SOL    HW235718   4.673   1.807   8.582  0.2560  0.8231 -0.4559
 8028SOL     OW35719   1.135   2.642   7.683 -0.1429  0.0056 -0.1639
 8028SOL    HW135720   1.154   2.588   7.607 -0.5592 -1.3648  0.6967
 8028SOL    HW235721   1.085   2.576   7.732  0.0522  0.6310  0.8941
 8029SOL     OW35722   1.110   1.865   5.351 -0.5801 -0.3423 -0.2835
 8029SOL    HW135723   1.164   1.794   5.317  0.1379 -1.2406  2.7536
 8029SOL    HW235724   1.169   1.900   5.417  0.2805 -0.9566 -0.7306
 8030SOL     OW35725   0.454   1.275   4.857 -0.2610  0.1931 -0.1647
 8030SOL    HW135726   0.441   1.182   4.839  0.2070 -0.5435  3.2167
 8030SOL    HW235727   0.434   1.309   4.770 -0.8285 -0.2756 -0.2097
 8031SOL     OW35728   0.307   1.638  17.209  0.0237  0.1715  0.0964
 8031SOL    HW135729   0.220   1.603  17.225 -0.7218  2.4469  1.0969
 8031SOL    HW235730   0.338   1.600  17.127  1.2380 -0.0476  0.6546
 8032SOL     OW35731   3.157   4.690   9.016  0.2932 -0.4569  0.0740
 8032SOL    HW135732   3.194   0.041   9.032 -1.6396  0.4034 -0.0817
 8032SOL    HW235733   3.090   4.669   9.081  0.5537 -2.8657 -0.4162
 8033SOL     OW35734   3.065   4.480   2.569  0.1823 -0.1448 -0.2013
 8033SOL    HW135735   2.984   4.532   2.567  1.1511  1.4716  2.7519
 8033SOL    HW235736   3.125   4.531   2.623 -0.5803  2.2985 -1.6327
 8034SOL     OW35737   3.866   2.296   6.676 -0.1927  0.3895  0.4516
 8034SOL    HW135738   3.875   2.250   6.593  1.3404  2.3425 -0.4587
 8034SOL    HW235739   3.908   2.234   6.735 -0.1943 -1.5552 -1.5651
 8035SOL     OW35740   4.657   0.556  10.260  0.1498  0.0456  0.0154
 8035SOL    HW135741   4.648   0.609  10.339 -3.0152 -3.7553  2.1993
 8035SOL    HW235742   4.581   0.571  10.204  1.2090  0.5448 -1.3061
 8036SOL     OW35743   2.050   4.225   9.983  0.6042 -0.3901 -0.2503
 8036SOL    HW135744   1.995   4.161   9.939  2.6575 -2.9679  0.9174
 8036SOL    HW235745   2.134   4.180   9.971 -0.1320 -1.2456 -2.0903
 8037SOL     OW35746   0.664   0.005  12.470 -0.4964  0.0222 -0.0856
 8037SOL    HW135747   0.663   4.658  12.517  0.0913 -0.2570 -0.5714
 8037SOL    HW235748   0.605   0.048  12.532  0.0781  3.3285 -1.8439
 8038SOL     OW35749   1.836   4.388  13.708  0.8264 -0.2108  0.1554
 8038SOL    HW135750   1.908   4.452  13.710  0.7050 -0.0373 -1.6177
 8038SOL    HW235751   1.862   4.345  13.790  0.1465 -0.1867  0.3814
 8039SOL     OW35752   3.663   0.602   7.583 -0.5274  0.6808  0.0781
 8039SOL    HW135753   3.663   0.530   7.520  2.9249 -1.5021  2.6070
 8039SOL    HW235754   3.731   0.567   7.641  0.9394  2.3316 -0.6656
 8040SOL     OW35755   3.909   2.603   7.573 -0.1537  1.0415  0.3662
 8040SOL    HW135756   3.855   2.536   7.532  0.3720  0.7518  0.1490
 8040SOL    HW235757   3.975   2.608   7.504  0.3725 -0.4073  0.7617
 8041SOL     OW35758   3.248   1.900   3.019  0.0217 -0.3355  0.0372
 8041SOL    HW135759   3.152   1.891   3.017  0.1439 -1.2339 -1.5905
 8041SOL    HW235760   3.253   1.934   3.109  1.1387  4.1617 -1.6962
 8042SOL     OW35761   4.429   3.452  16.436  0.5331 -0.0807  0.1890
 8042SOL    HW135762   4.479   3.410  16.366  1.0027 -0.1327  0.5516
 8042SOL    HW235763   4.461   3.542  16.445  0.1241 -0.1186  1.9453
 8043SOL     OW35764   0.693   2.811   4.265 -0.5634 -0.2761  0.5411
 8043SOL    HW135765   0.629   2.810   4.337  2.4502 -0.0406  3.2289
 8043SOL    HW235766   0.755   2.873   4.305  0.4420  0.7105 -2.5774
 8044SOL     OW35767   0.155   1.383  12.380 -0.0318  0.3866  0.1892
 8044SOL    HW135768   0.188   1.413  12.296  0.6231 -0.8075  0.0203
 8044SOL    HW235769   0.235   1.357  12.427 -0.1598  2.2557  1.4282
 8045SOL     OW35770   1.564   1.343  13.907  0.4546 -0.4423  0.0752
 8045SOL    HW135771   1.653   1.377  13.918 -0.0358  0.2866  1.8949
 8045SOL    HW235772   1.560   1.314  13.998 -0.1789  1.2599  0.5905
 8046SOL     OW35773   4.601   4.608  16.257  0.2974  0.0120 -0.2426
 8046SOL    HW135774   4.570   4.550  16.187 -0.1220  1.2442 -1.0862
 8046SOL    HW235775   4.584   4.563  16.340 -0.2092 -0.6668 -0.7143
 8047SOL     OW35776   0.866   0.107   8.554  0.6952 -0.3547 -0.3909
 8047SOL    HW135777   0.897   0.126   8.465 -0.8810  2.2531 -0.4060
 8047SOL    HW235778   0.772   0.128   8.550  0.2078 -2.1765  1.8513
 8048SOL     OW35779   3.826   3.627  13.045  0.6201 -0.0106  0.5624
 8048SOL    HW135780   3.823   3.717  13.078  0.0989 -1.0293  3.2725
 8048SOL    HW235781   3.776   3.582  13.114  0.0748 -3.1710 -1.8730
 8049SOL     OW35782   2.013   0.745   4.576 -0.5237 -0.2683  0.0304
 8049SOL    HW135783   1.959   0.730   4.498 -1.6395 -1.4295  1.0320
 8049SOL    HW235784   1.979   0.832   4.595  0.3603 -0.1772  1.1996
 8050SOL     OW35785   0.725   1.907   7.301 -0.7739 -0.5136 -0.1452
 8050SOL    HW135786   0.651   1.890   7.244 -1.1402 -1.1004  0.5069
 8050SOL    HW235787   0.678   1.937   7.379 -0.8915  0.4848 -0.5914
 8051SOL     OW35788   3.955   4.204   5.707 -0.0752 -0.0970  0.2480
 8051SOL    HW135789   4.003   4.247   5.636  1.0033 -2.5119 -0.4777
 8051SOL    HW235790   3.944   4.268   5.777  1.4224  2.2445 -1.6376
 8052SOL     OW35791   3.035   3.064   7.851  0.0206 -0.1314 -0.2900
 8052SOL    HW135792   3.093   2.990   7.868 -0.3455 -0.4514 -0.4297
 8052SOL    HW235793   2.972   3.058   7.923  0.9760 -1.9451  0.3843
 8053SOL     OW35794   2.498   4.285  13.717  0.0388 -0.1980  0.5606
 8053SOL    HW135795   2.427   4.251  13.772  0.1682 -1.7344 -0.2026
 8053SOL    HW235796   2.447   4.320  13.645 -0.3627 -0.4190  0.7385
 8054SOL     OW35797   4.011   0.073   4.357  0.5669 -0.0480 -0.3735
 8054SOL    HW135798   4.095   0.101   4.321  0.9834  0.7472  1.2259
 8054SOL    HW235799   4.000   4.728   4.307 -0.5043 -1.4691  2.1942
 8055SOL     OW35800   2.282   1.770   1.553  0.1050  0.5066  0.3933
 8055SOL    HW135801   2.232   1.847   1.524  0.3694  0.6012  0.1925
 8055SOL    HW235802   2.336   1.758   1.475 -1.4695 -2.0302 -0.3200
 8056SOL     OW35803   2.405   2.577   1.856 -0.1612 -0.2123 -0.0640
 8056SOL    HW135804   2.460   2.516   1.905 -1.4701 -1.4877 -0.1764
 8056SOL    HW235805   2.320   2.541   1.882 -0.5717  0.5384 -0.3626
 8057SOL     OW35806   2.586   1.790   8.132  0.4881 -0.2050  0.9975
 8057SOL    HW135807   2.562   1.873   8.091 -0.8713 -0.9316  0.3033
 8057SOL    HW235808   2.516   1.735   8.095 -0.8771  1.9307  0.3862
 8058SOL     OW35809   4.481   0.310   8.202  0.0905  0.1171  0.0029
 8058SOL    HW135810   4.560   0.359   8.178 -0.3498 -0.1963 -2.1224
 8058SOL    HW235811   4.434   0.361   8.269  1.9597 -0.2225  1.5542
 8059SOL     OW35812   3.752   1.921   7.297  0.3507 -0.0588 -0.1618
 8059SOL    HW135813   3.701   1.862   7.352  1.1119  0.1612  0.7849
 8059SOL    HW235814   3.790   1.863   7.232 -0.3510 -0.2299 -0.4165
 8060SOL     OW35815   1.205   3.385   9.449 -0.1561 -0.2657 -0.3825
 8060SOL    HW135816   1.232   3.451   9.513 -1.3890  0.5796 -0.7251
 8060SOL    HW235817   1.234   3.401   9.359 -0.3627 -0.4212 -0.4779
 8061SOL     OW35818   2.010   0.238   9.833 -0.0386 -0.1169  0.4425
 8061SOL    HW135819   1.992   0.145   9.819  3.1260 -0.6048 -0.3039
 8061SOL    HW235820   2.105   0.235   9.848  0.0598  1.8796  0.2420
 8062SOL     OW35821   0.257   0.086   7.472 -0.0924  0.0506  0.1447
 8062SOL    HW135822   0.292   0.057   7.556 -1.9282 -0.8693  0.5853
 8062SOL    HW235823   0.290   0.176   7.475 -0.8743  0.3213  0.5713
 8063SOL     OW35824   4.279   0.315   6.495  0.7899 -0.1279 -0.3526
 8063SOL    HW135825   4.230   0.397   6.492 -1.5637 -1.5871 -1.8060
 8063SOL    HW235826   4.353   0.350   6.544  0.0706  1.1248 -0.1783
 8064SOL     OW35827   3.306   0.138  12.304  0.3648 -0.0329 -0.3460
 8064SOL    HW135828   3.226   0.087  12.318  2.1335 -2.2170  1.7374
 8064SOL    HW235829   3.288   0.187  12.223 -2.7177  0.2996  0.5383
 8065SOL     OW35830   0.156   0.939   7.982  0.2173 -0.0205 -0.4366
 8065SOL    HW135831   0.243   0.909   7.955  0.0001  0.7989 -2.0489
 8065SOL    HW235832   0.107   0.922   7.901  1.2111 -1.5066 -0.7385
 8066SOL     OW35833   2.432   1.141   2.062  0.3703  0.0606  0.5161
 8066SOL    HW135834   2.484   1.164   2.139  0.1256  1.9686  0.1122
 8066SOL    HW235835   2.502   1.145   1.996  2.1028  1.5176  2.4254
 8067SOL     OW35836   3.529   2.288  10.339 -0.3708 -0.0724 -0.1443
 8067SOL    HW135837   3.561   2.374  10.312  0.3103 -0.5451 -0.8683
 8067SOL    HW235838   3.588   2.232  10.287 -1.0560  1.4286 -2.5462
 8068SOL     OW35839   3.184   2.406   5.762  0.5700 -0.3281 -0.2296
 8068SOL    HW135840   3.216   2.346   5.694  0.1271 -0.2128 -0.5400
 8068SOL    HW235841   3.139   2.469   5.706 -1.5014 -0.1526  1.6104
 8069SOL     OW35842   3.749   4.473   8.822 -0.0134 -0.5930  0.0121
 8069SOL    HW135843   3.840   4.465   8.849 -0.4220  0.4544  1.7101
 8069SOL    HW235844   3.736   4.406   8.755  2.2625  1.6418 -2.6823
 8070SOL     OW35845   3.324   4.069   6.470  0.1867 -0.2051  0.6221
 8070SOL    HW135846   3.283   4.069   6.557  0.4585  1.5200  0.7534
 8070SOL    HW235847   3.350   4.160   6.455 -0.3967 -0.2141 -0.3887
 8071SOL     OW35848   1.588   2.403   4.019  0.3745 -0.3535  0.5173
 8071SOL    HW135849   1.682   2.386   4.022  0.8894  2.4204  0.1652
 8071SOL    HW235850   1.569   2.334   4.083  0.1350  0.5124  1.3917
 8072SOL     OW35851   1.830   0.268   8.184  0.5945  0.1171  0.0277
 8072SOL    HW135852   1.863   0.334   8.122  0.1576  0.8047  0.5250
 8072SOL    HW235853   1.791   0.205   8.123  2.0779 -0.6098 -0.1696
 8073SOL     OW35854   2.953   2.888  12.455 -0.5028 -0.3362  0.0265
 8073SOL    HW135855   2.982   2.893  12.546  1.5628  1.3759 -0.7219
 8073SOL    HW235856   2.878   2.948  12.458  0.0794  0.3278  1.4923
 8074SOL     OW35857   1.862   2.980   7.652  0.0922 -0.2454 -0.6151
 8074SOL    HW135858   1.806   2.903   7.641  0.5117 -0.6622  0.1573
 8074SOL    HW235859   1.856   3.014   7.563 -2.5521  1.2846  0.1557
 8075SOL     OW35860   1.460   2.892   4.333 -0.4353 -0.0859 -0.0189
 8075SOL    HW135861   1.460   2.930   4.245  0.6100 -1.9057 -0.7957
 8075SOL    HW235862   1.471   2.979   4.373  2.4496 -1.0087  1.2015
 8076SOL     OW35863   4.524   0.638   4.930  0.0313 -0.3792  0.0405
 8076SOL    HW135864   4.513   0.621   5.024 -0.2969  1.9214  0.4191
 8076SOL    HW235865   4.475   0.719   4.915  0.7996  0.3313  1.3328
 8077SOL     OW35866   1.995   0.041   2.526  0.6009  0.0267 -0.0585
 8077SOL    HW135867   1.954   0.106   2.469 -0.0190 -1.6139 -1.4628
 8077SOL    HW235868   1.985   0.084   2.610  1.7325 -1.5380  0.8785
 8078SOL     OW35869   1.394   2.843   3.067 -0.1459 -0.3550  0.3138
 8078SOL    HW135870   1.410   2.937   3.065  0.8041 -0.4995  0.8661
 8078SOL    HW235871   1.300   2.847   3.050 -0.6784 -0.8970  3.1358
 8079SOL     OW35872   1.868   3.121   8.750 -0.2490  0.5510 -0.3468
 8079SOL    HW135873   1.882   3.185   8.680 -0.0917  1.4026  0.4587
 8079SOL    HW235874   1.807   3.172   8.802 -0.5426  0.5184 -0.6598
 8080SOL     OW35875   2.881   0.447   9.398  0.0598  0.1165 -0.2150
 8080SOL    HW135876   2.795   0.483   9.418 -1.3268 -3.4033  0.2374
 8080SOL    HW235877   2.859   0.353   9.394  0.0965  0.0611  0.8632
 8081SOL     OW35878   4.167   1.279   8.220  0.4039  0.0735 -0.2442
 8081SOL    HW135879   4.148   1.345   8.287 -1.3831  0.1724 -0.8604
 8081SOL    HW235880   4.090   1.223   8.216  0.8034 -0.4854 -0.1123
 8082SOL     OW35881   1.042   2.400   5.934  0.4024 -0.3209 -0.6246
 8082SOL    HW135882   0.993   2.483   5.938  2.7229  1.0209 -0.2044
 8082SOL    HW235883   1.131   2.434   5.932  0.6202 -0.9242 -1.1677
 8083SOL     OW35884   2.262   1.292   5.054  0.3898  0.1030 -0.2300
 8083SOL    HW135885   2.213   1.254   5.126 -0.0448 -0.7654 -0.9727
 8083SOL    HW235886   2.227   1.231   4.988 -2.2315 -1.1998  2.3893
 8084SOL     OW35887   4.478   3.202   4.472  0.0618 -0.1519  0.6006
 8084SOL    HW135888   4.574   3.203   4.472  0.0535  0.4011  0.1765
 8084SOL    HW235889   4.467   3.135   4.405 -1.4738 -0.3057  1.0083
 8085SOL     OW35890   0.590   0.919   5.806  0.0119  0.6638  0.0317
 8085SOL    HW135891   0.534   0.961   5.871 -1.0011 -0.4538 -0.1372
 8085SOL    HW235892   0.565   0.967   5.726  0.8127  0.2115 -0.4899
 8086SOL     OW35893   2.141   2.828   8.923 -0.2279 -0.0922  0.3167
 8086SOL    HW135894   2.231   2.861   8.925 -0.0572 -0.4155 -1.8150
 8086SOL    HW235895   2.118   2.856   8.834 -1.1383 -0.4088  0.4569
 8087SOL     OW35896   4.275   2.265  17.571  0.1734  0.1133  0.1814
 8087SOL    HW135897   4.334   2.331  17.534  0.0251  0.9714  1.4793
 8087SOL    HW235898   4.200   2.268  17.512 -0.3360  0.0866  0.8245
 8088SOL     OW35899   0.162   3.454   4.743 -0.3487  0.3790 -0.3384
 8088SOL    HW135900   0.137   3.472   4.834  1.2207 -2.0388  0.6036
 8088SOL    HW235901   0.144   3.361   4.729 -0.2673 -0.0933  2.6646
 8089SOL     OW35902   2.390   4.570   3.539  0.0036  0.1460  0.1201
 8089SOL    HW135903   2.362   4.478   3.537  0.7677 -0.0818 -0.1951
 8089SOL    HW235904   2.405   4.594   3.630  1.9690 -0.9610  0.0810
 8090SOL     OW35905   0.076   0.568  16.989  0.1384 -0.5776 -0.2523
 8090SOL    HW135906   0.082   0.487  17.039 -1.8280  0.3126  1.4165
 8090SOL    HW235907   0.136   0.630  17.029 -1.2428  0.6906 -0.1563
 8091SOL     OW35908   3.989   2.743   7.796 -0.6474 -0.2607 -0.0307
 8091SOL    HW135909   3.968   2.697   7.714 -0.0323  0.4090 -0.5721
 8091SOL    HW235910   3.952   2.689   7.865 -0.2860 -1.2392 -0.6031
 8092SOL     OW35911   1.936   2.842   6.991 -0.5958 -0.2310 -0.2694
 8092SOL    HW135912   1.923   2.768   7.050 -1.5677 -2.7322 -3.6525
 8092SOL    HW235913   1.890   2.823   6.909 -1.2287 -1.0510  0.2743
 8093SOL     OW35914   3.416   3.489   8.478 -0.7482 -0.0972  0.0870
 8093SOL    HW135915   3.413   3.492   8.383  0.7547  0.2408  0.0607
 8093SOL    HW235916   3.453   3.403   8.493 -2.5934 -0.4938  2.4403
 8094SOL     OW35917   4.729   0.075   4.355 -0.3413  0.0451 -0.1143
 8094SOL    HW135918   4.726   0.170   4.349  0.8846  0.1386  0.8085
 8094SOL    HW235919   0.061   0.066   4.287  0.8296  0.5956  0.9838
 8095SOL     OW35920   0.820   0.088   5.746  0.0452  0.2601  0.4032
 8095SOL    HW135921   0.846   0.122   5.831  1.1844  3.2255 -1.1033
 8095SOL    HW235922   0.736   0.129   5.725 -0.3174 -0.7270 -0.0956
 8096SOL     OW35923   3.676   0.404   5.076  0.0807 -0.0602 -0.2339
 8096SOL    HW135924   3.697   0.455   4.998  1.3058  0.0959  0.2003
 8096SOL    HW235925   3.733   0.327   5.070 -0.2723 -0.4171  0.9785
 8097SOL     OW35926   3.812   1.475   4.518  0.2871 -0.7831 -0.3373
 8097SOL    HW135927   3.876   1.405   4.509 -2.9660 -3.9094  0.6345
 8097SOL    HW235928   3.731   1.424   4.528  0.2209 -0.5392  0.3800
 8098SOL     OW35929   0.545   3.956   8.655 -0.8050  0.1199 -0.2274
 8098SOL    HW135930   0.520   3.929   8.566  0.9497 -0.2944 -0.5855
 8098SOL    HW235931   0.493   3.883   8.688 -0.5922 -0.6813 -1.6677
 8099SOL     OW35932   3.112   1.270  12.449  0.6632 -0.2287  0.2192
 8099SOL    HW135933   3.168   1.220  12.507 -0.6718 -1.3630  0.5343
 8099SOL    HW235934   3.118   1.352  12.497 -0.3285  0.0197 -0.0781
 8100SOL     OW35935   4.278   3.965   0.501  0.4382 -0.1097  0.1779
 8100SOL    HW135936   4.308   3.954   0.411  0.4072  1.5909 -0.0473
 8100SOL    HW235937   4.183   3.960   0.493  0.4805 -0.8946  0.2322
 8101SOL     OW35938   3.662   2.036   5.647  0.0157  0.0644 -0.5478
 8101SOL    HW135939   3.652   2.079   5.732 -0.3056  2.1787 -1.6480
 8101SOL    HW235940   3.584   1.980   5.655 -0.1832  0.3090 -0.7854
 8102SOL     OW35941   3.439   3.038   3.326  0.1553 -0.4187 -0.2315
 8102SOL    HW135942   3.399   3.119   3.296 -0.3132  0.2398  2.1549
 8102SOL    HW235943   3.362   2.982   3.332  0.0369 -0.2558 -0.2421
 8103SOL     OW35944   1.517   0.452   7.328 -0.2460  0.8917 -0.3330
 8103SOL    HW135945   1.424   0.458   7.307 -0.3762  0.7666  0.2038
 8103SOL    HW235946   1.524   0.357   7.337  1.8302  1.1013  0.3668
 8104SOL     OW35947   1.869   4.083  16.606 -1.0427 -0.3350  0.3461
 8104SOL    HW135948   1.818   4.114  16.680 -1.8515 -0.3383 -0.2046
 8104SOL    HW235949   1.959   4.095  16.635 -1.7065  1.4081  1.6686
 8105SOL     OW35950   0.229   2.116   3.024  0.2838  0.8712 -0.4345
 8105SOL    HW135951   0.223   2.211   3.027  0.6156  0.8979 -0.6859
 8105SOL    HW235952   0.176   2.084   2.951  0.0352  1.1748 -0.3895
 8106SOL     OW35953   0.778   1.358   6.398 -0.2623  0.4449  0.2870
 8106SOL    HW135954   0.694   1.314   6.409  0.7379 -1.6378 -0.4287
 8106SOL    HW235955   0.739   1.445   6.388 -1.0640  0.3643  2.7224
 8107SOL     OW35956   0.045   2.149   5.758  0.2115  0.3713  0.6114
 8107SOL    HW135957   0.024   2.241   5.744  0.8763  0.4780  0.3437
 8107SOL    HW235958   4.693   2.111   5.758 -0.5733  2.2011  1.6100
 8108SOL     OW35959   3.890   0.149   6.932 -0.5292 -0.2149 -0.1728
 8108SOL    HW135960   3.797   0.152   6.913 -0.6384 -0.3720  0.3287
 8108SOL    HW235961   3.926   0.203   6.861  1.0397 -2.5355 -1.1377
 8109SOL     OW35962   3.001   3.426   1.783  0.1895 -0.2398  0.0165
 8109SOL    HW135963   2.997   3.394   1.873  0.0851  2.4399  0.9638
 8109SOL    HW235964   2.983   3.519   1.798  1.7109 -0.0938  0.9196
 8110SOL     OW35965   4.359   1.345   1.362 -0.1614  0.0149  0.1448
 8110SOL    HW135966   4.353   1.384   1.275 -1.1086 -1.9160 -0.6655
 8110SOL    HW235967   4.452   1.347   1.383  0.2157  0.7862 -1.6118
 8111SOL     OW35968   1.944   4.584   9.035 -0.2235 -0.1329 -0.1043
 8111SOL    HW135969   1.903   4.516   9.089  2.6309 -3.0653 -1.6175
 8111SOL    HW235970   1.874   4.645   9.014  0.8359  0.9309 -0.5679
 8112SOL     OW35971   4.505   2.083   6.045  0.2022  0.1313 -0.1585
 8112SOL    HW135972   4.430   2.084   5.985 -1.8996  1.3935  2.4995
 8112SOL    HW235973   4.568   2.148   6.014  1.6800 -0.8304  0.8441
 8113SOL     OW35974   1.661   3.524   4.929 -0.1058  0.6709  0.0764
 8113SOL    HW135975   1.570   3.502   4.951  0.0097 -0.0827 -0.2084
 8113SOL    HW235976   1.666   3.600   4.988  2.3365  2.2444 -2.1683
 8114SOL     OW35977   4.659   0.483   2.262  1.1824  0.2167 -0.3386
 8114SOL    HW135978   4.615   0.500   2.345  0.6480 -3.8112  0.1772
 8114SOL    HW235979   4.698   0.569   2.244  0.2954  0.9292  1.1185
 8115SOL     OW35980   4.104   4.581  10.508  0.1681  0.8369 -0.3998
 8115SOL    HW135981   4.103   4.589  10.603 -0.4136 -0.4447 -0.3029
 8115SOL    HW235982   4.195   4.607  10.492  0.6100 -0.8731 -0.6600
 8116SOL     OW35983   2.301   3.381   2.359  0.2436  0.0508  0.2691
 8116SOL    HW135984   2.397   3.379   2.362  0.2734 -0.0736 -0.8445
 8116SOL    HW235985   2.287   3.369   2.453 -2.0328  2.0608  0.1819
 8117SOL     OW35986   3.855   2.631   3.752  0.3134  0.4065  0.2380
 8117SOL    HW135987   3.835   2.724   3.740  0.1348  0.5946  2.0347
 8117SOL    HW235988   3.828   2.594   3.668  0.3682  2.0734 -0.5078
 8118SOL     OW35989   2.035   4.729   7.190  0.4753 -0.0404  0.2841
 8118SOL    HW135990   2.036   0.060   7.121 -0.2945  1.6639  1.9222
 8118SOL    HW235991   2.114   4.680   7.164  0.4869  0.0507  0.1474
 8119SOL     OW35992   1.267   0.126   7.490 -0.0671  0.0822 -0.5984
 8119SOL    HW135993   1.177   0.106   7.465 -0.1180 -0.6794  0.2310
 8119SOL    HW235994   1.306   0.039   7.489 -0.7636 -0.2321  0.0278
 8120SOL     OW35995   3.843   4.394   4.443 -0.2019 -0.0099  0.7720
 8120SOL    HW135996   3.829   4.381   4.349  1.9387  1.5790  0.2314
 8120SOL    HW235997   3.925   4.351   4.465 -0.0393 -0.1926 -0.1941
 8121SOL     OW35998   1.950   2.494  15.126  0.5123 -0.0770 -0.2908
 8121SOL    HW135999   2.023   2.434  15.143 -0.3670 -0.7918  0.9841
 8121SOL    HW236000   1.961   2.509  15.032  1.9310  0.8531  0.0409
 8122SOL     OW36001   1.620   2.489   8.968  0.1616  0.5007 -0.2208
 8122SOL    HW136002   1.551   2.424   8.954  1.8649 -1.2157 -0.6318
 8122SOL    HW236003   1.583   2.564   8.921 -1.5818  1.0502  2.0175
 8123SOL     OW36004   4.718   3.529   8.510  1.0377  0.0340 -0.4436
 8123SOL    HW136005   0.071   3.565   8.520  0.9528  0.0784  0.1572
 8123SOL    HW236006   4.681   3.597   8.454 -0.4080  1.5091  2.3084
 8124SOL     OW36007   1.960   2.562   7.678  0.0461 -0.0943 -0.0623
 8124SOL    HW136008   1.907   2.606   7.745 -0.9212  0.4866 -1.1916
 8124SOL    HW236009   1.902   2.568   7.602 -0.5422  1.2353  0.4749
 8125SOL     OW36010   1.918   2.671   4.767  0.0699  0.1983 -0.6003
 8125SOL    HW136011   1.925   2.740   4.832 -0.8087  1.8090 -2.2034
 8125SOL    HW236012   1.922   2.716   4.682 -0.1721 -0.5082 -0.9885
 8126SOL     OW36013   3.409   0.242  16.472 -0.0790 -0.2025  0.2693
 8126SOL    HW136014   3.372   0.328  16.450  1.2899  0.0562 -0.9728
 8126SOL    HW236015   3.343   0.176  16.451 -0.9824  0.7784 -0.0175
 8127SOL     OW36016   0.435   0.168   6.893 -0.5498 -0.1782  0.4058
 8127SOL    HW136017   0.471   0.217   6.819 -0.4149 -0.5098  0.2498
 8127SOL    HW236018   0.342   0.169   6.869 -0.1581  2.9251 -0.9269
 8128SOL     OW36019   1.606   1.961   3.621  0.1486 -0.0690  0.2223
 8128SOL    HW136020   1.644   2.033   3.671 -0.5566  1.1677 -1.0370
 8128SOL    HW236021   1.623   1.995   3.534  0.4881 -1.4269 -0.2383
 8129SOL     OW36022   2.335   1.486   0.881 -0.0520  0.0102  0.2520
 8129SOL    HW136023   2.371   1.418   0.938 -0.2269 -0.3888 -0.1141
 8129SOL    HW236024   2.403   1.497   0.815 -0.9090  1.5856 -0.3553
 8130SOL     OW36025   2.289   3.961   4.100 -0.6162  0.1121  0.0492
 8130SOL    HW136026   2.331   3.905   4.165 -0.7991  0.0505  0.1146
 8130SOL    HW236027   2.303   3.904   4.025  0.1316 -0.1520  0.3898
 8131SOL     OW36028   1.378   3.856   9.072 -0.2921 -1.0891 -0.1604
 8131SOL    HW136029   1.472   3.873   9.074 -0.7080  0.7336  3.5984
 8131SOL    HW236030   1.374   3.763   9.047 -0.4825 -1.7893  2.4706
 8132SOL     OW36031   3.963   1.494   0.998 -0.5490  0.6510  0.9780
 8132SOL    HW136032   4.004   1.511   1.082  0.4583  1.5255  0.3064
 8132SOL    HW236033   3.936   1.584   0.978  1.2506  1.7087  3.2941
 8133SOL     OW36034   0.076   3.840   4.784 -0.5143  0.2697 -0.6687
 8133SOL    HW136035   0.151   3.812   4.732  0.0807  0.1013  0.2822
 8133SOL    HW236036   0.075   3.780   4.859  1.8219 -1.6661 -2.2075
 8134SOL     OW36037   2.238   2.612   8.309 -0.2767 -0.0260  0.0699
 8134SOL    HW136038   2.317   2.657   8.339 -0.2589 -0.4734  0.7234
 8134SOL    HW236039   2.183   2.632   8.385 -1.4659  0.4201 -0.9173
 8135SOL     OW36040   1.365   1.024   4.617  0.2310 -0.3090 -0.0416
 8135SOL    HW136041   1.450   1.068   4.622  0.3785 -0.4960 -0.9140
 8135SOL    HW236042   1.306   1.090   4.654  1.8223  0.9050  0.3485
 8136SOL     OW36043   2.801   0.223   3.051 -0.0372  0.6091  0.4996
 8136SOL    HW136044   2.777   0.260   3.135  4.6240  0.7897  1.7435
 8136SOL    HW236045   2.801   0.307   3.005  0.7698 -1.1001 -2.6036
 8137SOL     OW36046   1.221   2.126  12.812  0.2293 -0.0285 -0.0576
 8137SOL    HW136047   1.239   2.147  12.720  2.3234 -0.2031  0.3034
 8137SOL    HW236048   1.287   2.058  12.828  0.0582 -0.2289 -0.2086
 8138SOL     OW36049   1.944   4.241   2.386 -0.2687 -0.6075 -0.5012
 8138SOL    HW136050   2.008   4.191   2.436  0.9312  1.5762  0.1836
 8138SOL    HW236051   1.887   4.271   2.457  1.3427  1.3207 -0.0291
 8139SOL     OW36052   2.771   3.300   2.041  0.2684 -0.1007  0.2564
 8139SOL    HW136053   2.829   3.371   2.070  1.7565 -1.1450 -0.1722
 8139SOL    HW236054   2.719   3.345   1.974 -1.4811 -2.0296  0.3459
 8140SOL     OW36055   4.030   0.688   8.118  0.1669  0.3613  0.4002
 8140SOL    HW136056   3.947   0.677   8.164  0.1324 -2.0358 -0.2146
 8140SOL    HW236057   3.997   0.688   8.028 -1.5660 -1.0487  1.0304
 8141SOL     OW36058   1.620   1.794   7.202  0.2626  0.6041  0.8789
 8141SOL    HW136059   1.691   1.782   7.265  1.1030 -0.9733 -0.3875
 8141SOL    HW236060   1.584   1.705   7.199 -0.4029  0.9205 -0.4341
 8142SOL     OW36061   0.776   3.128  14.404  0.3156  0.0214 -0.0063
 8142SOL    HW136062   0.850   3.068  14.413 -0.7854 -1.4486 -0.7320
 8142SOL    HW236063   0.821   3.207  14.372  0.8200  0.1597  1.0402
 8143SOL     OW36064   3.409   3.622  11.111 -0.4567 -0.0061 -0.2216
 8143SOL    HW136065   3.461   3.552  11.072  0.0294 -0.3315  1.0007
 8143SOL    HW236066   3.431   3.699  11.059  0.4495 -0.4274 -0.4629
 8144SOL     OW36067   0.455   2.774  12.373 -0.4694  0.3243  0.8131
 8144SOL    HW136068   0.497   2.739  12.452  1.2050 -1.2062 -0.7359
 8144SOL    HW236069   0.518   2.845  12.360 -1.5302  1.2521  0.7077
 8145SOL     OW36070   0.995   0.391  11.371 -0.3260 -0.1004 -0.2406
 8145SOL    HW136071   0.990   0.362  11.462  0.7348 -1.9038 -0.7620
 8145SOL    HW236072   1.089   0.410  11.379  0.0569 -2.1009  0.0702
 8146SOL     OW36073   2.586   2.540   1.485  0.3533  0.0456  0.1477
 8146SOL    HW136074   2.664   2.546   1.541  0.6272  1.0752 -0.3389
 8146SOL    HW236075   2.605   2.453   1.450 -1.6726 -0.2948 -0.0880
 8147SOL     OW36076   3.942   3.396   2.720  0.1925  0.3108  0.2773
 8147SOL    HW136077   3.997   3.445   2.659 -0.8879  1.9444  0.5956
 8147SOL    HW236078   3.954   3.305   2.695  0.9580  0.3669  0.4396
 8148SOL     OW36079   0.121   0.549   1.432 -0.1444  0.3331  0.3778
 8148SOL    HW136080   0.115   0.455   1.412  1.2180  0.6661 -1.5941
 8148SOL    HW236081   0.171   0.573   1.354 -1.4172  1.7505 -0.0077
 8149SOL     OW36082   1.384   3.522  16.240 -0.4294  0.0407  0.1594
 8149SOL    HW136083   1.317   3.590  16.246 -0.6164 -0.2875  1.6417
 8149SOL    HW236084   1.449   3.581  16.279 -0.0800  0.1217 -0.5368
 8150SOL     OW36085   0.557   3.166   5.205 -0.3275 -0.8362 -0.7605
 8150SOL    HW136086   0.627   3.212   5.252 -1.2413 -0.7438  0.5239
 8150SOL    HW236087   0.492   3.237   5.207 -0.9902 -1.3657 -3.0113
 8151SOL     OW36088   2.915   3.156   7.034  0.3993  0.2926 -0.2258
 8151SOL    HW136089   2.863   3.224   7.076  0.6891  0.2922  0.1426
 8151SOL    HW236090   2.906   3.171   6.940  0.8978 -0.4543 -0.3967
 8152SOL     OW36091   1.168   4.498  17.022  0.4152  0.2520  0.1465
 8152SOL    HW136092   1.188   4.411  17.056  1.7132  0.8679  0.9603
 8152SOL    HW236093   1.231   4.500  16.950 -0.2395  2.4464 -0.3802
 8153SOL     OW36094   4.530   3.064   8.558 -0.1910  0.5212 -0.0352
 8153SOL    HW136095   4.474   2.999   8.600 -0.2492  1.2594  1.0212
 8153SOL    HW236096   4.467   3.113   8.506 -0.2962 -0.1378 -0.5301
 8154SOL     OW36097   0.996   0.160  12.894 -0.1078  0.6358 -0.0375
 8154SOL    HW136098   0.960   0.130  12.810  0.2338 -1.8135  0.6756
 8154SOL    HW236099   1.011   0.076  12.939 -1.3949  0.1294 -0.5336
 8155SOL     OW36100   3.393   2.326   2.410  0.3524 -0.7229 -0.8654
 8155SOL    HW136101   3.414   2.306   2.319 -0.4653 -0.7220 -1.0481
 8155SOL    HW236102   3.299   2.339   2.402  0.2565  0.0193  1.4810
 8156SOL     OW36103   2.685   2.630   2.001 -0.4305 -0.5300 -0.3540
 8156SOL    HW136104   2.651   2.718   1.986 -0.7875 -0.8509 -1.4270
 8156SOL    HW236105   2.649   2.618   2.089 -0.5695 -0.2791 -0.3747
 8157SOL     OW36106   2.461   4.689   0.218  0.2360  0.4652 -0.1524
 8157SOL    HW136107   2.440   4.596   0.226 -1.4506  0.8150 -0.6823
 8157SOL    HW236108   2.372   4.722   0.210  0.0951  0.4080  1.2255
 8158SOL     OW36109   0.115   3.145   5.899  0.3144 -0.1189 -0.0526
 8158SOL    HW136110   0.132   3.165   5.807 -1.6963 -2.6485 -0.9869
 8158SOL    HW236111   0.047   3.209   5.920 -0.1907 -0.5820 -0.2752
 8159SOL     OW36112   4.563   3.262  17.003  0.3134 -0.5977  0.5133
 8159SOL    HW136113   4.634   3.311  16.963  2.2435 -2.3296  1.7849
 8159SOL    HW236114   4.551   3.298  17.091 -1.0322  1.1714 -0.3886
 8160SOL     OW36115   0.328   1.488   0.510  0.0950 -0.3303 -0.3247
 8160SOL    HW136116   0.356   1.559   0.568  2.3298 -2.2135  0.9188
 8160SOL    HW236117   0.294   1.418   0.565  1.6470  0.9926  2.3355
 8161SOL     OW36118   3.142   4.041  13.025 -0.2059  0.3193  0.6193
 8161SOL    HW136119   3.214   4.094  13.060  1.7918 -2.0963  0.1662
 8161SOL    HW236120   3.171   4.044  12.934  0.2960 -0.6677  0.7514
 8162SOL     OW36121   1.838   3.773   4.730 -0.2587  0.3287  0.6636
 8162SOL    HW136122   1.820   3.852   4.782 -1.8534  0.7586 -0.5414
 8162SOL    HW236123   1.766   3.763   4.668 -0.2853 -1.8540  1.0608
 8163SOL     OW36124   1.808   2.775   1.092  0.1496 -0.4085  0.0752
 8163SOL    HW136125   1.900   2.759   1.074  0.3810 -0.9323  1.7645
 8163SOL    HW236126   1.791   2.860   1.051 -1.7903  0.1778  2.1011
 8164SOL     OW36127   1.081   1.128   3.031  0.3162  0.4100  0.3096
 8164SOL    HW136128   1.074   1.036   3.007 -0.7874  0.4710  0.3878
 8164SOL    HW236129   1.172   1.133   3.002 -0.2828  1.9249 -1.3264
 8165SOL     OW36130   0.747   4.156  17.371 -0.1354 -0.2758  0.3876
 8165SOL    HW136131   0.698   4.214  17.313 -0.7301  0.5671  1.7266
 8165SOL    HW236132   0.680   4.096  17.403  1.1228 -2.1815 -0.5402
 8166SOL     OW36133   3.766   1.855  11.836 -0.5287  0.0607 -0.0195
 8166SOL    HW136134   3.735   1.772  11.871  1.5096 -0.1748  1.2265
 8166SOL    HW236135   3.837   1.820  11.782  0.0405  0.9213  0.1668
 8167SOL     OW36136   3.597   0.643   1.651 -0.4576 -0.5154  0.3925
 8167SOL    HW136137   3.547   0.706   1.599 -0.4436 -0.5901  0.2878
 8167SOL    HW236138   3.534   0.581   1.689 -0.9712 -0.4533 -0.3588
 8168SOL     OW36139   4.125   1.678  17.450 -0.6382 -0.2377  0.2958
 8168SOL    HW136140   4.208   1.700  17.492  0.2944  0.4847 -1.9322
 8168SOL    HW236141   4.143   1.590  17.417  0.3440  0.6912 -1.6416
 8169SOL     OW36142   0.991   0.898   4.363 -0.1013  0.0820  0.6434
 8169SOL    HW136143   1.019   0.981   4.403  1.6129  0.6780 -1.7640
 8169SOL    HW236144   0.898   0.909   4.380 -0.3536 -0.0070 -0.6746
 8170SOL     OW36145   0.766   3.399   4.414  0.0544  0.2095 -0.6569
 8170SOL    HW136146   0.845   3.421   4.462 -0.2426  1.5331 -0.7684
 8170SOL    HW236147   0.721   3.327   4.459  1.0886  1.1996  1.9401
 8171SOL     OW36148   3.588   2.675   6.014  0.3605  0.3200 -0.0645
 8171SOL    HW136149   3.666   2.725   5.989  1.0655 -1.4589 -1.4323
 8171SOL    HW236150   3.534   2.665   5.936 -1.2876 -0.1425  1.1296
 8172SOL     OW36151   1.857   2.350   9.175 -0.0219 -0.5498  0.1928
 8172SOL    HW136152   1.769   2.380   9.195  0.5070  2.5119 -2.0714
 8172SOL    HW236153   1.863   2.292   9.251  0.4923 -0.5758  0.1331
 8173SOL     OW36154   3.503   0.219   4.907 -0.2596 -0.6558  0.4852
 8173SOL    HW136155   3.582   0.182   4.868  0.2398  1.4365 -0.4561
 8173SOL    HW236156   3.453   0.138   4.915  0.0519 -1.0105 -0.9937
 8174SOL     OW36157   2.140   3.480  14.843 -0.1026  0.2105 -0.1902
 8174SOL    HW136158   2.164   3.447  14.756  1.8311 -1.1453  0.8655
 8174SOL    HW236159   2.044   3.478  14.844 -0.0600  0.1857  2.2091
 8175SOL     OW36160   3.115   2.453   3.773 -0.2100  0.6782 -0.4325
 8175SOL    HW136161   3.099   2.484   3.684 -0.5067 -0.3915 -0.7505
 8175SOL    HW236162   3.040   2.488   3.822  1.3427  0.6446  1.9523
 8176SOL     OW36163   1.371   4.046  14.862  0.5755 -0.3235 -0.0503
 8176SOL    HW136164   1.389   4.021  14.771  0.7671 -0.9343  0.1579
 8176SOL    HW236165   1.460   4.042  14.897  0.8310  1.0270 -0.5644
 8177SOL     OW36166   0.071   0.879   1.480 -0.0819  0.1186 -0.0077
 8177SOL    HW136167   4.732   0.829   1.513 -0.7973  1.4527  0.3819
 8177SOL    HW236168   0.135   0.847   1.543  1.4786 -0.1432 -1.7258
 8178SOL     OW36169   0.541   1.998   4.098 -0.2187 -0.9702  0.3213
 8178SOL    HW136170   0.494   2.013   4.016  0.4765 -0.5712 -0.0012
 8178SOL    HW236171   0.591   1.917   4.091  2.3616  0.7455 -1.0433
 8179SOL     OW36172   1.706   2.529   8.581 -0.0983  0.0134 -0.0258
 8179SOL    HW136173   1.639   2.573   8.633  0.2367  2.2494 -1.4946
 8179SOL    HW236174   1.729   2.462   8.646 -2.8553 -0.3538  0.5645
 8180SOL     OW36175   2.436   1.214   8.011 -0.2500 -0.7124  0.0745
 8180SOL    HW136176   2.476   1.138   7.969 -2.7891 -1.1692 -1.4836
 8180SOL    HW236177   2.349   1.223   7.974  0.1910  2.7385 -0.1950
 8181SOL     OW36178   1.259   4.135   7.435  0.0622 -0.3972  0.3074
 8181SOL    HW136179   1.345   4.160   7.469  0.0726  0.4179 -0.3139
 8181SOL    HW236180   1.265   4.079   7.358  2.2051  1.4719 -0.8961
 8182SOL     OW36181   3.010   3.933   1.779 -0.0170 -0.5043  0.1212
 8182SOL    HW136182   2.924   3.974   1.774  1.3311  2.3311 -0.3401
 8182SOL    HW236183   3.067   4.009   1.795 -1.5537  0.7786 -0.5170
 8183SOL     OW36184   2.825   2.335   0.354 -0.0112  0.1980 -0.0943
 8183SOL    HW136185   2.837   2.381   0.436 -0.5679 -1.6070  1.0017
 8183SOL    HW236186   2.759   2.380   0.302 -1.7778 -2.3622 -0.0929
 8184SOL     OW36187   1.404   3.210   8.335 -0.7713 -0.3035  0.5105
 8184SOL    HW136188   1.342   3.277   8.364  0.3599  1.6800 -1.6925
 8184SOL    HW236189   1.343   3.139   8.315 -2.4287  0.8703  1.3948
 8185SOL     OW36190   3.934   4.591   6.213 -1.3728  0.3497 -0.0003
 8185SOL    HW136191   3.881   4.558   6.141  0.3972 -0.8887 -0.7226
 8185SOL    HW236192   3.905   4.530   6.281  0.8334 -0.3635  0.2998
 8186SOL     OW36193   1.145   4.629   5.259  0.3767 -0.3604  0.0672
 8186SOL    HW136194   1.175   4.632   5.350  0.4730  1.1829 -0.0069
 8186SOL    HW236195   1.050   4.636   5.263  0.4551  0.3194  0.6972
 8187SOL     OW36196   2.276   0.691   8.568  0.4730  0.5846 -0.0971
 8187SOL    HW136197   2.210   0.702   8.637 -0.1780  2.0873 -0.9748
 8187SOL    HW236198   2.233   0.726   8.490  2.0175  0.1527 -1.1400
 8188SOL     OW36199   2.925   3.360   7.585 -0.5017 -0.8457  0.6448
 8188SOL    HW136200   2.969   3.379   7.502  0.2524 -1.0469  0.9978
 8188SOL    HW236201   2.836   3.336   7.560 -1.1558  1.8838  0.3818
 8189SOL     OW36202   2.987   1.610  16.247 -0.2239 -0.0431 -0.0953
 8189SOL    HW136203   2.927   1.577  16.314  0.1068  1.8613  1.1636
 8189SOL    HW236204   2.971   1.549  16.175 -0.2996 -2.2847  1.8137
 8190SOL     OW36205   2.699   0.307   7.693 -0.2089 -0.5106  0.1448
 8190SOL    HW136206   2.749   0.336   7.770 -1.8644 -0.3078  1.1512
 8190SOL    HW236207   2.628   0.370   7.689  0.0412 -0.1931  0.6807
 8191SOL     OW36208   3.991   1.680   2.635 -0.4839  0.5187 -0.5178
 8191SOL    HW136209   4.032   1.603   2.675 -0.1262  1.5944  1.2080
 8191SOL    HW236210   3.954   1.639   2.557  0.3818  0.6634 -1.0077
 8192SOL     OW36211   1.944   4.157   9.075 -0.1119 -0.4728  0.4575
 8192SOL    HW136212   1.943   4.181   9.168  2.3369  2.5640 -0.3020
 8192SOL    HW236213   1.858   4.115   9.075  1.5065 -3.7807 -1.7992
 8193SOL     OW36214   4.367   1.288   9.223 -0.5604  0.2588  0.5210
 8193SOL    HW136215   4.384   1.206   9.177 -0.2486  0.1586  0.8178
 8193SOL    HW236216   4.316   1.254   9.295 -1.7030 -3.1923 -1.9405
 8194SOL     OW36217   3.943   4.605   8.107 -0.2938  0.5031  0.3217
 8194SOL    HW136218   3.982   4.518   8.094 -0.2818  0.4425  0.7502
 8194SOL    HW236219   3.924   4.631   8.017  1.8907  1.3692  0.1294
 8195SOL     OW36220   0.478   4.736   5.512 -0.1789  0.2055 -0.1713
 8195SOL    HW136221   0.402   4.678   5.508 -1.7622  2.2877 -0.2995
 8195SOL    HW236222   0.540   4.687   5.457  0.2739 -1.4749  1.8203
 8196SOL     OW36223   4.443   4.144   3.222  0.5051 -0.0259  0.0637
 8196SOL    HW136224   4.464   4.103   3.306  1.4131 -0.1977 -0.2506
 8196SOL    HW236225   4.476   4.071   3.169 -0.2770 -0.8280  0.6815
 8197SOL     OW36226   0.875   1.187   8.155 -0.4310  0.4086  0.1157
 8197SOL    HW136227   0.839   1.159   8.071  0.3803  2.0764 -0.7762
 8197SOL    HW236228   0.960   1.205   8.114 -0.1456 -1.9902 -0.3822
 8198SOL     OW36229   1.185   0.995   9.267 -0.5933  0.4886  0.6769
 8198SOL    HW136230   1.265   0.986   9.319 -0.6665  0.7909  0.8378
 8198SOL    HW236231   1.222   1.035   9.188  1.3341  0.9504  1.8203
 8199SOL     OW36232   0.231   2.709   2.463 -0.2496 -0.0406  0.0907
 8199SOL    HW136233   0.316   2.735   2.499  0.0981 -3.6890  1.8842
 8199SOL    HW236234   0.195   2.663   2.539 -2.0189  0.5935 -0.3562
 8200SOL     OW36235   4.546   3.912   3.147  0.5770  0.4228  0.2050
 8200SOL    HW136236   4.513   3.841   3.092  1.0766 -0.7755  1.4637
 8200SOL    HW236237   4.591   3.863   3.216 -1.0916 -0.0153  0.9803
 8201SOL     OW36238   1.232   4.257   8.340 -0.2483  0.9361 -0.1581
 8201SOL    HW136239   1.219   4.284   8.249 -2.4574  0.4939  0.0081
 8201SOL    HW236240   1.177   4.181   8.361  1.1954  0.4385  1.7469
 8202SOL     OW36241   1.687   1.174   2.591 -0.8500 -0.0321 -0.2419
 8202SOL    HW136242   1.664   1.266   2.603 -3.1495 -0.5079 -0.8784
 8202SOL    HW236243   1.635   1.147   2.515 -0.5352 -0.8698 -0.1619
 8203SOL     OW36244   1.572   3.825   6.093 -0.2810  0.7992 -0.0048
 8203SOL    HW136245   1.495   3.809   6.148 -1.6676 -0.7501 -2.4218
 8203SOL    HW236246   1.565   3.756   6.027  1.1405 -1.2020  1.9629
 8204SOL     OW36247   1.403   0.197   3.624 -0.3097  0.0418  0.2114
 8204SOL    HW136248   1.462   0.238   3.560 -0.1653 -0.4269  0.0487
 8204SOL    HW236249   1.435   0.107   3.623 -0.5759 -0.0563  0.9262
 8205SOL     OW36250   2.754   3.205  17.215 -0.7934  0.1533  0.0956
 8205SOL    HW136251   2.686   3.172  17.157  0.7330 -1.2983 -0.8941
 8205SOL    HW236252   2.829   3.149  17.194 -0.1393  0.7080  0.9744
 8206SOL     OW36253   0.590   2.289   5.367  0.1606  0.3699  0.0424
 8206SOL    HW136254   0.648   2.314   5.295  0.7730  0.6424  0.6419
 8206SOL    HW236255   0.551   2.376   5.374  0.8390  0.6040  0.8812
 8207SOL     OW36256   2.907   2.300   7.536 -0.6326  0.2281 -0.4839
 8207SOL    HW136257   2.857   2.262   7.608  2.9678 -3.9702 -0.1935
 8207SOL    HW236258   2.915   2.388   7.574  2.0611 -0.7512  1.2220
 8208SOL     OW36259   0.957   0.780   9.571 -0.1942  0.5418 -0.3461
 8208SOL    HW136260   0.963   0.749   9.481  0.5587 -1.4901  0.4137
 8208SOL    HW236261   1.003   0.864   9.564 -0.5718  0.9134  1.5085
 8209SOL     OW36262   1.621   2.361  10.600  0.4061 -0.1149 -0.3088
 8209SOL    HW136263   1.682   2.303  10.554 -1.5086 -1.4204 -1.1677
 8209SOL    HW236264   1.676   2.381  10.676  0.2840  1.5710 -0.6647
 8210SOL     OW36265   4.114   3.211   3.562  0.2603  0.0245 -0.1314
 8210SOL    HW136266   4.026   3.237   3.532  0.0982  1.4774  1.5997
 8210SOL    HW236267   4.088   3.134   3.612  1.8078 -0.4602 -0.0752
 8211SOL     OW36268   2.049   2.219   6.993 -0.1036  0.1538 -0.3927
 8211SOL    HW136269   2.037   2.127   7.018 -0.9229  0.1853 -0.6616
 8211SOL    HW236270   1.982   2.224   6.925 -0.4484  1.2771  0.0328
 8212SOL     OW36271   3.232   4.385  16.797  0.3730 -0.0034  0.2680
 8212SOL    HW136272   3.207   4.478  16.799  2.3358  0.4853  2.6982
 8212SOL    HW236273   3.259   4.373  16.706  0.1496  1.3663  0.0153
 8213SOL     OW36274   3.422   0.555   6.032  0.4641 -0.0861  0.1461
 8213SOL    HW136275   3.430   0.523   5.942  2.1330  0.2565  0.1707
 8213SOL    HW236276   3.510   0.585   6.055  1.3089 -1.6068 -1.1118
 8214SOL     OW36277   1.919   0.196  10.089 -0.4375  0.6624  0.0635
 8214SOL    HW136278   1.951   0.226  10.004 -0.3766  0.5218  0.0368
 8214SOL    HW236279   1.860   0.127  10.060  1.1893 -1.5620  2.0904
 8215SOL     OW36280   3.239   2.891   3.138 -0.2997  0.4455 -0.3511
 8215SOL    HW136281   3.227   2.803   3.103 -0.5949 -0.1063  1.1153
 8215SOL    HW236282   3.252   2.948   3.062  1.1881 -0.0482 -0.4505
 8216SOL     OW36283   2.916   2.016   2.122 -0.3919  0.0809  0.1750
 8216SOL    HW136284   2.890   2.000   2.031 -1.0269  0.4666  0.2883
 8216SOL    HW236285   2.942   1.932   2.159 -0.4834  0.2174  0.5474
 8217SOL     OW36286   4.171   0.125   9.832  0.0816  0.4101  0.2383
 8217SOL    HW136287   4.109   0.080   9.889 -0.7646  1.3410  0.0486
 8217SOL    HW236288   4.254   0.079   9.846  0.1105  1.1972  2.6238
 8218SOL     OW36289   0.280   1.388   7.931 -0.8709 -0.0925  0.1376
 8218SOL    HW136290   0.237   1.323   7.988 -0.7470  1.3955  1.9269
 8218SOL    HW236291   0.290   1.463   7.989 -1.6448  1.1661 -1.3684
 8219SOL     OW36292   3.993   3.797   1.465  0.0416  0.1098  0.1385
 8219SOL    HW136293   3.973   3.891   1.465  2.1517  0.5578  0.5969
 8219SOL    HW236294   3.907   3.765   1.491  0.5680 -2.0022 -0.7392
 8220SOL     OW36295   0.838   1.948   6.164  0.2164 -0.4693  0.7954
 8220SOL    HW136296   0.924   1.908   6.148  1.0806  0.1773  3.8158
 8220SOL    HW236297   0.856   2.042   6.169  0.3709 -0.6198  3.0670
 8221SOL     OW36298   0.566   0.653   2.495  0.6458  0.0617  0.4969
 8221SOL    HW136299   0.542   0.562   2.475 -2.0475  0.7274  0.6673
 8221SOL    HW236300   0.570   0.688   2.406 -1.6929 -0.1341  0.3147
 8222SOL     OW36301   0.693   2.857   2.204  0.3190  0.3099 -0.3419
 8222SOL    HW136302   0.742   2.896   2.276 -0.0708  0.1696 -0.0006
 8222SOL    HW236303   0.606   2.875   2.239  0.8699 -1.8244  2.1927
 8223SOL     OW36304   1.243   2.778  16.474  0.4872  0.2143  0.0880
 8223SOL    HW136305   1.286   2.863  16.473 -0.6610  0.7809 -1.5582
 8223SOL    HW236306   1.314   2.724  16.508  0.8594  1.6781  1.6513
 8224SOL     OW36307   4.527   3.936   5.490 -0.9344  0.1128  0.4647
 8224SOL    HW136308   4.436   3.957   5.509 -1.5116 -1.6404 -0.3870
 8224SOL    HW236309   4.555   4.006   5.431 -3.5480  1.0330  0.3508
 8225SOL     OW36310   2.470   1.905   3.100  0.2932 -0.2266 -0.0987
 8225SOL    HW136311   2.486   1.955   3.020  3.3374 -0.4691  0.3406
 8225SOL    HW236312   2.376   1.918   3.109  0.2402 -0.4611 -0.3467
 8226SOL     OW36313   2.660   4.731   6.761  0.6764  0.2409 -0.0398
 8226SOL    HW136314   2.656   0.050   6.683  2.3662 -0.5845 -0.6850
 8226SOL    HW236315   2.726   0.037   6.817  1.4218  1.6850 -1.9802
 8227SOL     OW36316   3.642   2.885  14.606 -0.2568  0.3882  0.1855
 8227SOL    HW136317   3.691   2.871  14.524 -3.6055 -0.7019 -1.6153
 8227SOL    HW236318   3.705   2.943  14.650 -0.3473  2.2543 -2.1166
 8228SOL     OW36319   0.147   2.085   3.318 -0.0361 -0.6479  0.3266
 8228SOL    HW136320   0.062   2.129   3.328  0.3715  0.1016  0.4819
 8228SOL    HW236321   0.182   2.116   3.235  0.2210 -0.0028  0.6736
 8229SOL     OW36322   1.395   0.517   8.723 -0.0048  0.1369  0.5072
 8229SOL    HW136323   1.374   0.427   8.747 -0.2611 -0.0443 -0.4155
 8229SOL    HW236324   1.313   0.530   8.676 -0.4226 -0.2871  1.1180
 8230SOL     OW36325   0.399   4.171   2.289 -0.3442 -0.2052  0.0187
 8230SOL    HW136326   0.490   4.148   2.309 -0.7189 -1.5804  0.1065
 8230SOL    HW236327   0.394   4.152   2.195 -1.7759  1.3568 -0.2261
 8231SOL     OW36328   3.926   3.244   1.986 -0.4608 -0.2455 -0.1698
 8231SOL    HW136329   3.857   3.305   2.014 -0.9421  0.2913 -2.5235
 8231SOL    HW236330   3.995   3.284   2.039  0.6764 -1.8125 -0.4537
 8232SOL     OW36331   1.547   0.596   7.576  0.0593  0.1722  0.1043
 8232SOL    HW136332   1.504   0.517   7.543 -1.1242 -0.3267  2.8511
 8232SOL    HW236333   1.585   0.569   7.660 -2.2639 -0.6046  0.8913
 8233SOL     OW36334   1.475   3.610  12.434 -1.0031  0.4945  0.0659
 8233SOL    HW136335   1.569   3.592  12.432 -1.4431 -1.7183 -0.7925
 8233SOL    HW236336   1.465   3.636  12.525 -1.0641 -0.2140  0.2651
 8234SOL     OW36337   0.321   1.912  15.211 -0.1140 -0.0350 -0.4937
 8234SOL    HW136338   0.288   1.824  15.229  0.4908  0.0570  1.0603
 8234SOL    HW236339   0.244   1.958  15.246  1.3631  2.0940 -0.0453
 8235SOL     OW36340   3.331   3.865   7.964  0.2151  0.2492  0.7901
 8235SOL    HW136341   3.405   3.863   7.904 -0.6627  1.5626 -0.3403
 8235SOL    HW236342   3.359   3.802   8.030 -2.1171  0.0916  1.6509
 8236SOL     OW36343   2.343   1.486  11.302  0.5156 -0.1034 -0.0981
 8236SOL    HW136344   2.284   1.416  11.330  1.8986 -1.0139  0.5458
 8236SOL    HW236345   2.285   1.561  11.306  1.2131  0.4761 -0.8727
 8237SOL     OW36346   0.252   0.752   7.366 -0.4680  0.0590  0.3282
 8237SOL    HW136347   0.158   0.765   7.354 -0.4540 -0.2408 -0.1219
 8237SOL    HW236348   0.249   0.749   7.461 -0.8623  0.0133  0.3134
 8238SOL     OW36349   2.114   0.797   8.375  0.1396 -0.3599 -0.3534
 8238SOL    HW136350   2.048   0.858   8.410  1.2344  1.0717 -0.7936
 8238SOL    HW236351   2.158   0.851   8.309 -1.4773 -0.3159 -1.3985
 8239SOL     OW36352   1.981   1.015  12.119 -0.4406 -0.1722  0.1730
 8239SOL    HW136353   2.054   0.957  12.140 -0.9727 -0.4430  1.2574
 8239SOL    HW236354   1.953   1.041  12.207  2.6510  2.5906  0.3456
 8240SOL     OW36355   0.644   0.853   2.678 -0.1219  0.1044 -0.0157
 8240SOL    HW136356   0.633   0.798   2.600  0.7795 -1.0123  0.6440
 8240SOL    HW236357   0.643   0.787   2.747  0.5301 -1.2089 -1.2593
 8241SOL     OW36358   4.513   3.224  13.612  0.2090 -0.5647 -0.6881
 8241SOL    HW136359   4.566   3.193  13.685 -1.1780 -0.1868  0.4880
 8241SOL    HW236360   4.452   3.151  13.599 -0.5604  0.2293 -1.5189
 8242SOL     OW36361   1.804   3.113   0.570 -0.1668 -0.3203  0.2850
 8242SOL    HW136362   1.729   3.068   0.608  0.1945 -2.7344 -1.9174
 8242SOL    HW236363   1.794   3.094   0.477  1.1077  0.6403 -0.0459
 8243SOL     OW36364   4.720   2.986   0.933 -0.1197  0.0732 -0.3108
 8243SOL    HW136365   0.078   2.988   0.912 -0.1391 -1.1889 -0.5421
 8243SOL    HW236366   4.728   3.026   1.020  0.8043 -1.1456  0.1681
 8244SOL     OW36367   2.404   0.587   1.190  0.3244  0.6843  0.2212
 8244SOL    HW136368   2.342   0.562   1.259 -1.7693  0.2083 -1.8014
 8244SOL    HW236369   2.370   0.668   1.150  0.8007 -0.1357 -1.8706
 8245SOL     OW36370   4.566   0.714   5.456 -0.0128 -0.6654  0.1105
 8245SOL    HW136371   4.538   0.661   5.530 -0.4140  0.9936  1.1491
 8245SOL    HW236372   4.496   0.780   5.456  0.5189 -0.1088  3.0479
 8246SOL     OW36373   4.560   3.645  12.404  0.2749 -0.9908 -0.1183
 8246SOL    HW136374   4.582   3.700  12.479 -0.1351 -0.3729 -0.4538
 8246SOL    HW236375   4.637   3.648  12.348 -0.7825 -2.9962 -1.6872
 8247SOL     OW36376   3.984   3.579   7.041 -0.2245  0.0805  0.1606
 8247SOL    HW136377   4.029   3.495   7.036  0.2218  0.2982  0.5745
 8247SOL    HW236378   3.893   3.551   7.033 -0.0379 -0.0170 -1.6983
 8248SOL     OW36379   3.937   1.113  15.880 -0.6511 -0.0819  0.2983
 8248SOL    HW136380   4.027   1.081  15.888 -0.7405 -0.5032 -0.4836
 8248SOL    HW236381   3.918   1.145  15.968 -0.9007 -2.0144  0.9423
 8249SOL     OW36382   4.403   2.323   3.098 -0.2289 -0.3500 -0.4098
 8249SOL    HW136383   4.354   2.264   3.156  1.0953 -0.5778  0.4643
 8249SOL    HW236384   4.441   2.393   3.150 -0.0942 -2.5367  2.4442
 8250SOL     OW36385   1.924   0.124  12.815 -0.4611  0.1365  0.0111
 8250SOL    HW136386   1.974   0.058  12.767  0.0267  2.5152 -2.7591
 8250SOL    HW236387   1.978   0.202  12.804 -0.0100 -0.0813  0.6640
 8251SOL     OW36388   1.005   0.880  11.567  0.2849 -0.0481  0.1209
 8251SOL    HW136389   0.920   0.869  11.524  0.6380 -0.4374 -0.4803
 8251SOL    HW236390   0.985   0.937  11.641  2.1262  2.2101 -1.1364
 8252SOL     OW36391   3.438   3.340  17.574  0.0763 -0.1116 -0.6966
 8252SOL    HW136392   3.427   3.268  17.637 -2.6401 -1.6069 -2.9059
 8252SOL    HW236393   3.526   3.362  17.605  0.4680 -0.5513 -1.5076
 8253SOL     OW36394   3.049   0.169   3.922  0.3727 -0.1421  0.3694
 8253SOL    HW136395   3.039   0.264   3.933 -1.0452 -0.1514 -0.9070
 8253SOL    HW236396   3.074   0.159   3.830  3.8528  0.1057  1.3109
 8254SOL     OW36397   3.752   3.062   3.980 -0.3553  0.0300  0.2239
 8254SOL    HW136398   3.702   3.074   4.061 -1.6095  2.0438 -0.8353
 8254SOL    HW236399   3.817   3.130   3.995  1.7831 -1.7151 -1.1321
 8255SOL     OW36400   2.657   0.296   2.097 -0.4553  0.0721  0.5644
 8255SOL    HW136401   2.658   0.217   2.151  0.7253  1.0152  1.9458
 8255SOL    HW236402   2.567   0.325   2.111 -0.0146  0.1031  3.2756
 8256SOL     OW36403   3.531   4.387  16.080 -0.2662  0.4748 -0.0006
 8256SOL    HW136404   3.436   4.385  16.094 -0.1277  0.9926  0.9870
 8256SOL    HW236405   3.561   4.304  16.119  0.2386  0.9338  0.5941
 8257SOL     OW36406   3.726   1.511   3.181 -0.7753 -0.0737 -0.3096
 8257SOL    HW136407   3.673   1.519   3.101  1.4016 -1.8019 -1.9197
 8257SOL    HW236408   3.684   1.441   3.231  1.1350  1.1157  2.9617
 8258SOL     OW36409   0.369   2.921   4.527  0.1417  1.0828 -0.3756
 8258SOL    HW136410   0.436   2.852   4.526 -0.7332  0.1883  1.8358
 8258SOL    HW236411   0.317   2.902   4.605 -1.6993 -0.6947 -2.0498
 8259SOL     OW36412   3.406   3.933   8.531  0.5905  0.1326  0.2597
 8259SOL    HW136413   3.353   3.977   8.598 -0.5091  0.2960 -0.7103
 8259SOL    HW236414   3.340   3.941   8.461  2.3082 -0.5223 -1.4300
 8260SOL     OW36415   3.057   1.098   8.168 -0.3403  0.6243  0.0764
 8260SOL    HW136416   2.988   1.043   8.206  0.3181  1.1909  2.0958
 8260SOL    HW236417   3.009   1.146   8.101 -1.5045 -0.5313  0.0640
 8261SOL     OW36418   4.632   3.781  12.639 -0.3956  0.0118  0.1142
 8261SOL    HW136419   4.719   3.808  12.669 -1.2342  1.0918  1.6047
 8261SOL    HW236420   4.599   3.860  12.596 -0.9076  0.2539  0.9443
 8262SOL     OW36421   0.465   2.912   5.195 -0.8873 -0.2356 -0.5656
 8262SOL    HW136422   0.504   2.998   5.178  0.9609 -0.5379  2.2747
 8262SOL    HW236423   0.544   2.860   5.182 -0.8360 -0.2244 -0.2776
 8263SOL     OW36424   1.776   1.868  12.429  0.9419  0.0909 -0.6017
 8263SOL    HW136425   1.752   1.798  12.368 -0.9678  0.4697 -0.2562
 8263SOL    HW236426   1.811   1.810  12.497 -2.6870  0.8184  1.8350
 8264SOL     OW36427   1.506   2.904   7.490  0.5476  0.5267 -0.2773
 8264SOL    HW136428   1.416   2.876   7.475  0.7129 -0.3759  0.4392
 8264SOL    HW236429   1.515   2.967   7.418  2.2134  0.8245  0.1874
 8265SOL     OW36430   4.464   0.558   5.982 -0.1209  0.8711 -0.4657
 8265SOL    HW136431   4.407   0.634   5.969  1.0231  1.8272  0.1272
 8265SOL    HW236432   4.431   0.478   5.942 -1.2054  1.5401 -0.9281
 8266SOL     OW36433   0.485   0.401   8.423  0.0370 -0.3612 -0.0334
 8266SOL    HW136434   0.495   0.362   8.337 -0.5960 -0.6557  0.0297
 8266SOL    HW236435   0.464   0.321   8.471 -2.7782  0.3992 -0.0344
 8267SOL     OW36436   0.664   4.393   5.857  0.3792 -0.3199 -0.2856
 8267SOL    HW136437   0.586   4.430   5.816  1.3514 -0.2876 -2.1272
 8267SOL    HW236438   0.735   4.431   5.804  1.4534  0.1265  1.4822
 8268SOL     OW36439   3.822   2.915   3.281  0.0470  0.5036 -0.1415
 8268SOL    HW136440   3.837   3.008   3.267 -1.4848  0.3947 -2.6323
 8268SOL    HW236441   3.738   2.903   3.236 -1.7054 -0.8221  3.4573
 8269SOL     OW36442   0.795   0.028   4.479 -0.2845 -0.4405  0.3711
 8269SOL    HW136443   0.854   0.081   4.533  1.1652 -3.6852  2.0091
 8269SOL    HW236444   0.822   0.062   4.394 -1.7541  1.4064  0.6542
 8270SOL     OW36445   4.429   2.034  17.565 -0.4038  0.6660 -0.3532
 8270SOL    HW136446   4.350   1.980  17.560 -2.0714  2.9716  0.6378
 8270SOL    HW236447   4.396   2.124  17.569 -0.7938  0.4987  0.1852
 8271SOL     OW36448   2.057   4.447   8.646  0.0236 -0.3395 -0.3647
 8271SOL    HW136449   2.122   4.450   8.575 -0.1231  2.2985 -0.4054
 8271SOL    HW236450   2.052   4.353   8.660  1.5355 -0.4697 -0.6294
 8272SOL     OW36451   3.693   4.294   5.722 -0.1798  0.1075 -0.3810
 8272SOL    HW136452   3.687   4.338   5.637  0.5820 -2.0174 -1.5407
 8272SOL    HW236453   3.760   4.228   5.702 -0.2919  0.3508 -1.5895
 8273SOL     OW36454   0.143   0.034   2.064  0.1088 -0.3215 -0.1907
 8273SOL    HW136455   0.203   0.056   2.135  0.6878  0.0460 -0.7946
 8273SOL    HW236456   0.151   0.104   1.999  2.1716  0.8695  1.3629
 8274SOL     OW36457   1.776   4.380   6.442 -0.1612 -0.0383 -0.1864
 8274SOL    HW136458   1.847   4.443   6.454 -1.0660  0.8894  0.3493
 8274SOL    HW236459   1.735   4.389   6.528 -1.1596  0.5525 -0.7203
 8275SOL     OW36460   1.123   4.219   6.257  0.1927 -0.1573  0.2963
 8275SOL    HW136461   1.216   4.195   6.258  0.2154 -0.1045 -0.5489
 8275SOL    HW236462   1.119   4.271   6.178 -3.8253 -0.8624  0.0309
 8276SOL     OW36463   3.963   1.260   4.477  0.0018 -0.3247 -0.7507
 8276SOL    HW136464   4.022   1.254   4.403 -1.6539  0.8772 -2.1795
 8276SOL    HW236465   3.892   1.203   4.447 -1.4050  0.6672  0.6478
 8277SOL     OW36466   4.287   1.480   8.102  0.3258 -0.0773  0.0982
 8277SOL    HW136467   4.301   1.531   8.182  0.6292  0.8390 -0.5347
 8277SOL    HW236468   4.250   1.402   8.142  1.3085 -0.3166  0.5474
 8278SOL     OW36469   2.522   1.901  11.522 -0.0270 -0.1266 -0.8578
 8278SOL    HW136470   2.553   1.870  11.437  2.5842  2.9199 -1.0131
 8278SOL    HW236471   2.602   1.901  11.574  2.0413 -0.8375 -4.0997
 8279SOL     OW36472   0.199   0.955  14.965  0.1453  0.0328  0.0441
 8279SOL    HW136473   0.117   0.997  14.989  1.1150  1.8694  0.1865
 8279SOL    HW236474   0.196   0.960  14.870  3.0736 -2.6690 -0.2132
 8280SOL     OW36475   1.276   0.545   1.559 -0.5575 -0.5211 -0.4664
 8280SOL    HW136476   1.230   0.627   1.543  0.5469  0.2822  0.4584
 8280SOL    HW236477   1.219   0.481   1.517 -1.1303 -0.7448  0.6436
 8281SOL     OW36478   0.190   1.185   1.820  0.3531  0.5591  0.1262
 8281SOL    HW136479   0.142   1.111   1.784  0.6944  1.0430 -1.3128
 8281SOL    HW236480   0.204   1.241   1.744 -0.5457 -0.2599 -0.6480
 8282SOL     OW36481   3.666   3.141   1.900  0.4945 -0.5982  0.1878
 8282SOL    HW136482   3.700   3.197   1.829  0.6786 -0.4674  0.3769
 8282SOL    HW236483   3.736   3.151   1.966 -0.2322  0.6446  0.7662
 8283SOL     OW36484   1.404   1.359   2.490  0.3919 -0.0558 -0.4818
 8283SOL    HW136485   1.446   1.371   2.405 -0.7387  0.0101 -1.0392
 8283SOL    HW236486   1.476   1.390   2.545  0.2976  0.6150 -0.7293
 8284SOL     OW36487   2.494   4.467   7.502  0.1464  0.4844 -0.0108
 8284SOL    HW136488   2.502   4.560   7.480  0.2237  0.8929  1.7407
 8284SOL    HW236489   2.562   4.454   7.568 -0.7852  2.2450  1.3013
 8285SOL     OW36490   4.433   1.694   5.400 -0.6867 -0.0687  0.3850
 8285SOL    HW136491   4.427   1.749   5.478  1.5689 -2.1912  2.0641
 8285SOL    HW236492   4.528   1.684   5.392 -0.8635 -0.4307 -1.3166
 8286SOL     OW36493   0.076   2.108   4.533 -0.2022  0.7199 -0.1266
 8286SOL    HW136494   0.070   2.079   4.442 -3.8718 -0.3732  0.4775
 8286SOL    HW236495   0.168   2.082   4.534 -0.8047 -1.4168  0.5913
 8287SOL     OW36496   0.927   2.919   7.208 -0.5159  0.0109 -0.4029
 8287SOL    HW136497   0.992   2.950   7.270  0.7203 -1.7229 -0.8331
 8287SOL    HW236498   0.849   2.963   7.242 -0.5227 -1.0930  0.9733
 8288SOL     OW36499   1.052   0.318   3.192  0.6552  0.5545 -0.2328
 8288SOL    HW136500   1.131   0.357   3.229  0.5262  2.5301 -1.9906
 8288SOL    HW236501   1.083   0.314   3.101 -0.8304 -0.0777 -0.7103
 8289SOL     OW36502   0.083   0.794   5.450  0.3710 -0.3507 -0.1859
 8289SOL    HW136503   0.002   0.744   5.460 -0.0640  0.3653 -0.0468
 8289SOL    HW236504   0.145   0.729   5.481  0.0253  0.6238  2.5812
 8290SOL     OW36505   2.689   3.712  16.818 -0.1991  0.2205  0.1045
 8290SOL    HW136506   2.615   3.654  16.838  0.2048 -0.1849  0.4147
 8290SOL    HW236507   2.744   3.700  16.895 -1.7793 -0.5072  1.1193
 8291SOL     OW36508   2.383   4.066   8.384 -0.6302 -0.1970  0.0110
 8291SOL    HW136509   2.453   4.056   8.319 -2.2001 -1.2040 -1.5428
 8291SOL    HW236510   2.423   4.035   8.465  3.2739  0.9450 -1.5071
 8292SOL     OW36511   2.480   0.928   4.497 -0.2076 -0.1388  0.1060
 8292SOL    HW136512   2.430   1.008   4.483  0.5092  0.2753 -0.1188
 8292SOL    HW236513   2.424   0.867   4.546 -0.0291 -1.3493 -1.1982
 8293SOL     OW36514   3.079   2.006   4.192 -0.0620  0.6100  0.8457
 8293SOL    HW136515   3.087   2.095   4.157  2.2110  0.3038  0.5602
 8293SOL    HW236516   3.026   2.010   4.271  0.2936 -0.0309  1.1130
 8294SOL     OW36517   1.406   4.131   5.467 -0.2291 -0.0658 -0.3864
 8294SOL    HW136518   1.454   4.171   5.539 -0.3805 -2.2583  0.9532
 8294SOL    HW236519   1.324   4.179   5.478 -0.4962 -0.0723 -2.3334
 8295SOL     OW36520   3.749   0.474   3.826 -0.1028  0.2696 -0.6091
 8295SOL    HW136521   3.795   0.482   3.743 -1.5761 -0.0390 -1.4501
 8295SOL    HW236522   3.751   0.562   3.865 -3.4359  0.7881 -1.6200
 8296SOL     OW36523   3.830   4.323   6.717  0.1502  0.0419  0.2409
 8296SOL    HW136524   3.893   4.251   6.717 -0.0475 -0.1295 -2.8831
 8296SOL    HW236525   3.825   4.343   6.624 -0.1022  0.4371  0.3380
 8297SOL     OW36526   3.696   1.705   7.446  0.3896  0.0747 -0.1860
 8297SOL    HW136527   3.733   1.643   7.384  0.0702  0.6596 -0.9539
 8297SOL    HW236528   3.624   1.652   7.482  1.6271 -0.8937  0.8391
 8298SOL     OW36529   3.179   1.296   6.287  0.0877 -0.2321  0.3501
 8298SOL    HW136530   3.229   1.240   6.227  2.0594  0.7495  1.0819
 8298SOL    HW236531   3.099   1.244   6.298 -0.3953  0.1309 -1.4599
 8299SOL     OW36532   1.277   4.471   3.755 -0.3709 -0.1000  0.1699
 8299SOL    HW136533   1.306   4.509   3.673  0.5787  2.3615  1.6393
 8299SOL    HW236534   1.357   4.431   3.788  0.8570  1.1747 -1.2850
 8300SOL     OW36535   4.241   2.922   9.858  0.2475 -0.4469  0.0399
 8300SOL    HW136536   4.293   2.902   9.781 -0.5018 -1.3588 -0.2298
 8300SOL    HW236537   4.260   3.014   9.874  3.0791 -0.7974 -1.3219
 8301SOL     OW36538   2.631   2.307   4.593 -0.3084  0.0919 -0.1623
 8301SOL    HW136539   2.537   2.292   4.600 -0.3004  0.6547  1.1350
 8301SOL    HW236540   2.655   2.224   4.551  1.8801  0.6861 -0.0920
 8302SOL     OW36541   3.660   2.630   5.040  0.1999 -0.6171  0.1931
 8302SOL    HW136542   3.671   2.725   5.043  1.9327 -0.7533 -1.8864
 8302SOL    HW236543   3.715   2.600   5.113  0.9030 -0.0299 -0.0868
 8303SOL     OW36544   0.972   2.279  10.196 -0.0161  0.3524  0.6507
 8303SOL    HW136545   0.877   2.292  10.200 -0.1925 -0.7540  0.0238
 8303SOL    HW236546   0.995   2.267  10.288 -0.3087  1.7960  0.9190
 8304SOL     OW36547   3.533   0.695   4.337  0.4281  0.1494  0.5724
 8304SOL    HW136548   3.484   0.623   4.376  1.2788 -0.3127  0.7923
 8304SOL    HW236549   3.574   0.723   4.419  0.4036 -1.3779  1.1056
 8305SOL     OW36550   0.339   2.782   2.915 -0.1974 -0.1360  0.0583
 8305SOL    HW136551   0.392   2.716   2.960  1.5080  0.6635 -0.7818
 8305SOL    HW236552   0.250   2.768   2.949 -0.8290  0.8521 -1.1838
 8306SOL     OW36553   0.651   2.352   7.165 -0.1875  0.3500 -0.3727
 8306SOL    HW136554   0.562   2.317   7.153 -1.0035  1.9245  1.0248
 8306SOL    HW236555   0.694   2.307   7.092 -0.7666 -0.5083 -0.1959
 8307SOL     OW36556   0.701   2.536   3.072  0.3344 -0.0815  0.1238
 8307SOL    HW136557   0.674   2.473   3.006 -2.3196 -0.0654  1.1920
 8307SOL    HW236558   0.620   2.579   3.101  0.9824 -0.8084  2.9978
 8308SOL     OW36559   1.771   4.248   7.928 -0.6499 -0.7663  0.2629
 8308SOL    HW136560   1.789   4.256   8.021  3.0776 -1.6345 -0.3761
 8308SOL    HW236561   1.731   4.333   7.910  1.5581 -0.1153 -1.6346
 8309SOL     OW36562   0.556   2.228   3.621  0.7822 -0.0300 -0.2254
 8309SOL    HW136563   0.650   2.225   3.603  0.6607 -1.6401 -0.5262
 8309SOL    HW236564   0.554   2.280   3.702  0.3550  0.2824 -0.4377
 8310SOL     OW36565   0.218   3.098   6.154 -0.4426  0.1853 -0.3419
 8310SOL    HW136566   0.187   3.113   6.065  0.0949  1.8507 -0.2393
 8310SOL    HW236567   0.267   3.179   6.168 -0.4493  0.3268 -1.1529
 8311SOL     OW36568   1.718   4.124   6.930 -0.1245 -0.9767  0.1168
 8311SOL    HW136569   1.808   4.147   6.906 -0.2475 -2.6027 -1.8945
 8311SOL    HW236570   1.682   4.209   6.953  0.2036 -0.5695 -0.8778
 8312SOL     OW36571   3.153   4.642  16.843 -0.2004  1.0106  0.3356
 8312SOL    HW136572   3.059   4.624  16.847  0.6967 -3.8487  0.4369
 8312SOL    HW236573   3.146   4.732  16.811 -1.0153 -0.3906 -3.3758
 8313SOL     OW36574   1.176   1.409  10.186 -0.3916 -0.3554 -0.0330
 8313SOL    HW136575   1.247   1.435  10.127  1.8375 -2.8042  1.5787
 8313SOL    HW236576   1.219   1.366  10.260  1.4481  1.0890 -0.2548
 8314SOL     OW36577   3.767   0.097   0.314  0.3582 -0.0552 -0.2978
 8314SOL    HW136578   3.764   0.181   0.360  1.0442 -0.0253 -0.3035
 8314SOL    HW236579   3.676   0.067   0.317 -0.2226  1.6952 -0.2302
 8315SOL     OW36580   0.997   0.348   7.683 -0.2184  0.4379 -0.2400
 8315SOL    HW136581   0.992   0.316   7.773 -2.1067 -1.8871 -1.1516
 8315SOL    HW236582   0.960   0.436   7.684  2.6183  1.5942  0.8060
 8316SOL     OW36583   4.733   3.465   8.944 -0.0867 -0.1507  0.2294
 8316SOL    HW136584   4.678   3.413   9.003  0.4170  1.3280  1.9785
 8316SOL    HW236585   0.029   3.394   8.888  3.0108  1.4562 -0.0652
 8317SOL     OW36586   2.420   1.482   7.379  0.0270 -0.0447  0.1615
 8317SOL    HW136587   2.396   1.467   7.288 -1.1491 -3.3698  1.0001
 8317SOL    HW236588   2.473   1.405   7.401  1.9618  0.4363 -2.8045
 8318SOL     OW36589   4.404   0.220   7.950 -0.1808  0.2092  0.3535
 8318SOL    HW136590   4.454   0.261   7.879  0.1627  3.0274  2.1866
 8318SOL    HW236591   4.442   0.249   8.033  3.1561  1.2605 -1.5777
 8319SOL     OW36592   3.816   3.237   7.739  0.3753  0.2996 -0.7708
 8319SOL    HW136593   3.805   3.299   7.666  1.8430  0.4691 -0.8474
 8319SOL    HW236594   3.750   3.174   7.713 -0.3197  0.0299  1.6515
 8320SOL     OW36595   1.032   3.551  14.309  0.5300  0.3732 -0.5138
 8320SOL    HW136596   1.068   3.633  14.275 -0.8702 -0.1716 -3.3285
 8320SOL    HW236597   0.942   3.575  14.328  0.3134 -1.5018  0.8946
 8321SOL     OW36598   2.844   1.291  15.125  0.0847  0.4415 -0.3987
 8321SOL    HW136599   2.775   1.355  15.143  0.5425  0.4556  1.3553
 8321SOL    HW236600   2.854   1.312  15.032  1.3678  0.4407 -0.2523
 8322SOL     OW36601   4.356   0.515   4.018  0.1137 -0.1431 -0.1229
 8322SOL    HW136602   4.372   0.439   3.962 -0.6011 -0.0337 -0.4679
 8322SOL    HW236603   4.381   0.584   3.956 -0.9336  1.0657  0.8013
 8323SOL     OW36604   4.564   2.213   7.223 -0.1304  0.0023  0.0109
 8323SOL    HW136605   4.631   2.281   7.232  0.2000 -0.3029 -0.1264
 8323SOL    HW236606   4.610   2.137   7.259  0.5362 -0.0227 -0.8969
 8324SOL     OW36607   1.506   3.200   5.729  0.6374 -0.3385 -0.0030
 8324SOL    HW136608   1.520   3.224   5.821 -1.1001 -1.5182  0.5695
 8324SOL    HW236609   1.540   3.111   5.741  1.8253 -0.1540 -2.0501
 8325SOL     OW36610   3.551   0.682  15.184 -0.4454  0.3624  0.1768
 8325SOL    HW136611   3.470   0.647  15.221  0.2067  0.0750  1.3482
 8325SOL    HW236612   3.581   0.609  15.130  2.7513  0.9037  1.1575
 8326SOL     OW36613   3.403   1.195   1.724  0.0029  0.1805  0.4746
 8326SOL    HW136614   3.454   1.224   1.648 -0.8761 -0.8696 -0.5156
 8326SOL    HW236615   3.334   1.157   1.670  0.6250  1.1604 -0.9997
 8327SOL     OW36616   2.683   2.713  13.118  0.1412  0.3237  0.2546
 8327SOL    HW136617   2.769   2.673  13.109  0.3934  0.9140  0.0295
 8327SOL    HW236618   2.667   2.721  13.212  0.0643  0.1332  0.2562
 8328SOL     OW36619   2.221   0.040   8.682  0.0099 -0.0154 -0.1484
 8328SOL    HW136620   2.290   4.724   8.642 -0.3227 -0.3355 -0.3116
 8328SOL    HW236621   2.206   4.726   8.762 -0.9551  0.1941 -0.1899
 8329SOL     OW36622   2.388   1.676   8.002  0.5635 -0.1836 -0.3455
 8329SOL    HW136623   2.359   1.613   7.936  0.9382  0.7049 -1.3615
 8329SOL    HW236624   2.311   1.688   8.058 -1.6221  0.4443 -3.4899
 8330SOL     OW36625   4.401   1.162   6.916 -0.7275 -0.2431 -0.9379
 8330SOL    HW136626   4.355   1.090   6.959  1.0875 -0.8117  0.0531
 8330SOL    HW236627   4.469   1.127   6.859  1.5653 -0.0867  1.6784
 8331SOL     OW36628   2.192   1.799   0.147  0.3299 -0.2900 -0.2161
 8331SOL    HW136629   2.192   1.840   0.233 -0.9464 -0.8770  0.0581
 8331SOL    HW236630   2.285   1.778   0.134 -0.2470 -2.1793 -1.3393
 8332SOL     OW36631   3.918   0.791   8.632 -0.2087  0.1168 -0.1428
 8332SOL    HW136632   3.991   0.794   8.694 -1.1394 -1.5170  1.0527
 8332SOL    HW236633   3.841   0.804   8.686 -0.3678 -1.6566  0.0797
 8333SOL     OW36634   0.821   3.030   1.678  0.2760  0.2185  0.3130
 8333SOL    HW136635   0.756   2.971   1.717  0.3019  0.1839  0.3041
 8333SOL    HW236636   0.820   2.994   1.589  1.0872  1.9491 -0.4014
 8334SOL     OW36637   1.007   0.970   7.269  0.1559 -0.1546  0.3884
 8334SOL    HW136638   0.942   1.027   7.229  0.6360 -1.1802 -1.8504
 8334SOL    HW236639   0.970   0.972   7.358 -0.1654 -0.6991  0.2694
 8335SOL     OW36640   4.600   1.010   4.955 -0.0363 -0.6745  0.2808
 8335SOL    HW136641   4.520   0.959   4.948 -0.1392 -0.5715  0.7542
 8335SOL    HW236642   4.621   0.978   5.042  0.6752 -0.5237  0.1663
 8336SOL     OW36643   2.052   0.220  12.525  0.2246 -0.5111 -0.0945
 8336SOL    HW136644   2.031   0.127  12.530  0.9963 -0.6916 -0.2128
 8336SOL    HW236645   1.964   0.257  12.524  0.0972 -0.7633  1.0612
 8337SOL     OW36646   0.069   1.021  10.031 -0.3890  0.6744  0.8796
 8337SOL    HW136647   4.717   1.052  10.053 -0.7835 -0.1775  0.5013
 8337SOL    HW236648   0.051   1.008   9.938  0.8753  0.2271  0.6998
 8338SOL     OW36649   3.647   2.612  13.695  0.2139  0.6213  0.2102
 8338SOL    HW136650   3.716   2.546  13.693  0.3997  0.8331 -0.3866
 8338SOL    HW236651   3.655   2.631  13.602 -0.7958  0.2126  0.0432
 8339SOL     OW36652   3.210   3.905  13.801  0.2126 -0.6571 -0.0898
 8339SOL    HW136653   3.149   3.832  13.804 -0.4814 -0.0336  1.1373
 8339SOL    HW236654   3.292   3.856  13.791  0.4386 -0.3479  0.2212
 8340SOL     OW36655   0.162   4.732   6.324 -0.7964  0.2250  0.0022
 8340SOL    HW136656   0.251   0.001   6.291 -0.3881 -2.6717  0.7362
 8340SOL    HW236657   0.122   0.082   6.306  1.8142  1.0956 -1.5808
 8341SOL     OW36658   3.618   0.399  12.815  0.1204  0.3128  0.7535
 8341SOL    HW136659   3.600   0.493  12.815  2.0476  0.6751  1.1092
 8341SOL    HW236660   3.535   0.353  12.802 -0.6036  1.8530 -0.1004
 8342SOL     OW36661   2.253   0.243   4.948 -0.0997 -0.0539  0.1026
 8342SOL    HW136662   2.212   0.329   4.943 -1.8692 -0.7929  1.9008
 8342SOL    HW236663   2.330   0.260   5.001  0.1170 -2.2389  0.4911
 8343SOL     OW36664   4.436   3.882  17.161 -0.3140 -0.4912 -0.8374
 8343SOL    HW136665   4.405   3.970  17.183 -1.1710 -0.6182 -1.5344
 8343SOL    HW236666   4.442   3.881  17.066 -3.8340  0.5921 -1.0801
 8344SOL     OW36667   2.884   3.555  15.942 -0.2113 -0.3200 -0.0113
 8344SOL    HW136668   2.842   3.490  15.999  0.0712  1.1527  1.9091
 8344SOL    HW236669   2.966   3.516  15.915  0.1074  0.5260 -0.2616
 8345SOL     OW36670   3.559   1.053   8.297 -0.2676  0.3443  0.4752
 8345SOL    HW136671   3.469   1.036   8.325  0.1574 -2.0755  0.3337
 8345SOL    HW236672   3.576   0.980   8.238 -1.6239 -1.1819  1.9862
 8346SOL     OW36673   0.571   0.266  10.721  0.5470 -0.7309  0.2974
 8346SOL    HW136674   0.652   0.277  10.671 -0.3424  1.9873 -0.5429
 8346SOL    HW236675   0.514   0.321  10.667  2.8774  0.3401 -1.0734
 8347SOL     OW36676   0.233   1.015   0.307  0.6602  0.6062  0.0954
 8347SOL    HW136677   0.237   1.025   0.212 -0.2589 -0.3532 -0.0413
 8347SOL    HW236678   0.283   1.093   0.332 -0.5272  0.4122  3.0343
 8348SOL     OW36679   0.157   3.804  12.050 -0.3002 -0.4666  0.0295
 8348SOL    HW136680   0.178   3.881  11.996  0.5164 -1.9509 -1.7790
 8348SOL    HW236681   0.063   3.809  12.066 -0.3523  0.3620 -0.5248
 8349SOL     OW36682   1.855   3.446   2.141 -1.1686  0.2632  0.6392
 8349SOL    HW136683   1.949   3.428   2.136 -0.9202  1.5981  0.5159
 8349SOL    HW236684   1.846   3.405   2.227 -0.1394  0.1089  0.6744
 8350SOL     OW36685   4.286   0.720   3.280 -0.3195  0.4323  0.3524
 8350SOL    HW136686   4.256   0.642   3.326 -1.4586  1.2095  0.9375
 8350SOL    HW236687   4.211   0.719   3.220 -1.3382  1.8489  1.5820
 8351SOL     OW36688   0.347   0.442   2.605 -0.5711 -0.6626  0.5693
 8351SOL    HW136689   0.389   0.359   2.582 -0.6064 -0.7485  0.8121
 8351SOL    HW236690   0.375   0.458   2.695  0.7530 -0.8635  0.1977
 8352SOL     OW36691   3.029   2.550   9.363 -0.2106 -0.7438 -1.0238
 8352SOL    HW136692   3.065   2.639   9.362  1.6462 -1.4943 -2.4756
 8352SOL    HW236693   3.009   2.534   9.455 -1.6050 -1.5074 -1.4617
 8353SOL     OW36694   4.413   2.452   6.447  0.0102  0.7924  0.0317
 8353SOL    HW136695   4.350   2.431   6.516 -0.4674 -0.4811 -0.7754
 8353SOL    HW236696   4.413   2.547   6.454 -0.5921  0.8283 -0.4692
 8354SOL     OW36697   2.377   3.284   7.507  0.6407  0.4593 -0.1094
 8354SOL    HW136698   2.329   3.211   7.467  1.0535  0.2296 -0.1874
 8354SOL    HW236699   2.309   3.298   7.573 -0.9514 -1.2187 -1.3755
 8355SOL     OW36700   1.591   0.033   2.641 -0.1583 -0.2026 -0.3721
 8355SOL    HW136701   1.517   0.010   2.697 -1.8571 -0.0196 -2.5019
 8355SOL    HW236702   1.637   4.687   2.621  0.2257 -0.4992  1.7903
 8356SOL     OW36703   0.161   0.471   3.288 -0.7941 -0.1896  0.5626
 8356SOL    HW136704   0.130   0.478   3.198 -1.9900 -2.1582  0.8235
 8356SOL    HW236705   0.253   0.492   3.269 -0.9775 -0.5530 -0.7062
 8357SOL     OW36706   2.834   4.301   7.453  0.8103 -0.1141 -0.2650
 8357SOL    HW136707   2.764   4.357   7.420  1.8168  1.0660 -0.4226
 8357SOL    HW236708   2.815   4.225   7.399  0.4606 -0.8592  0.9092
 8358SOL     OW36709   4.475   3.839  16.908 -0.1016 -0.5169  0.7582
 8358SOL    HW136710   4.420   3.864  16.833  3.2713 -1.2731 -1.9548
 8358SOL    HW236711   4.546   3.799  16.858 -0.6416  0.4344 -0.7915
 8359SOL     OW36712   3.137   0.143   4.892 -0.4463 -0.6507  0.0702
 8359SOL    HW136713   3.119   0.236   4.880  0.0054 -0.6126 -0.3125
 8359SOL    HW236714   3.127   0.114   4.801 -0.4665 -3.0739  0.8492
 8360SOL     OW36715   3.817   0.459   6.537 -0.3131 -0.2500 -0.2811
 8360SOL    HW136716   3.755   0.408   6.485 -0.5765 -0.0207 -0.1907
 8360SOL    HW236717   3.758   0.504   6.597 -0.7208 -1.6623  0.3843
 8361SOL     OW36718   3.236   4.215   6.080  0.1629 -0.4236 -0.2990
 8361SOL    HW136719   3.275   4.148   6.137  0.2148 -2.3170 -2.6034
 8361SOL    HW236720   3.247   4.287   6.143  0.6475  0.4580 -1.3730
 8362SOL     OW36721   3.455   3.825   2.810 -0.1968 -0.5663 -0.3147
 8362SOL    HW136722   3.375   3.857   2.850  0.9242  1.9504 -0.0889
 8362SOL    HW236723   3.432   3.823   2.717  0.2836  1.9165 -0.4982
 8363SOL     OW36724   2.853   1.367  14.852 -0.0483  0.2701  0.0744
 8363SOL    HW136725   2.767   1.383  14.813  0.6141  0.6079 -1.2634
 8363SOL    HW236726   2.880   1.295  14.795  0.8615 -0.7072  1.7496
 8364SOL     OW36727   3.980   3.676   8.071 -0.1949 -0.1115  0.0522
 8364SOL    HW136728   3.965   3.592   8.115 -0.7835  0.0200  0.1077
 8364SOL    HW236729   3.909   3.731   8.106 -1.2181 -0.0472 -2.1322
 8365SOL     OW36730   2.159   1.878  11.597 -0.5093  0.3010 -0.1497
 8365SOL    HW136731   2.246   1.842  11.612 -0.5633  0.1651 -0.1648
 8365SOL    HW236732   2.105   1.847  11.670  2.1582 -1.7397  0.9271
 8366SOL     OW36733   1.657   0.022   3.925  0.9847  0.4897  0.0810
 8366SOL    HW136734   1.595   0.018   3.852  0.1792 -0.5468  0.8183
 8366SOL    HW236735   1.697   4.672   3.910  0.0898 -0.0582  0.8920
 8367SOL     OW36736   1.131   3.260   4.951 -0.1553  0.7306 -0.6161
 8367SOL    HW136737   1.086   3.178   4.969  2.3162  0.0812  2.7748
 8367SOL    HW236738   1.073   3.303   4.889 -0.2944  1.5294  0.0592
 8368SOL     OW36739   2.574   3.342   2.421  0.1940 -0.0781  0.7550
 8368SOL    HW136740   2.547   3.252   2.404 -3.3163  0.4248  3.3530
 8368SOL    HW236741   2.618   3.344   2.506  0.6825 -1.0895  0.5190
 8369SOL     OW36742   1.719   1.519   7.580 -0.6578 -0.1523  0.2488
 8369SOL    HW136743   1.729   1.432   7.618 -0.3121 -0.3773 -0.3699
 8369SOL    HW236744   1.789   1.571   7.619 -0.2063  0.5869 -1.5435
 8370SOL     OW36745   3.659   2.397   7.748  0.0410  0.2611 -0.0043
 8370SOL    HW136746   3.712   2.319   7.732  0.9483  0.8412  0.2051
 8370SOL    HW236747   3.637   2.431   7.661  0.4667 -0.4295 -0.3830
 8371SOL     OW36748   1.595   0.504   3.468 -0.2805 -0.3726 -0.3419
 8371SOL    HW136749   1.582   0.553   3.550  3.9773 -1.1520  0.8467
 8371SOL    HW236750   1.690   0.490   3.474 -0.8767 -4.0092  0.2347
 8372SOL     OW36751   1.354   3.719   3.866 -0.3630 -0.6686  0.2037
 8372SOL    HW136752   1.333   3.639   3.916  1.1992 -1.2975 -0.1599
 8372SOL    HW236753   1.267   3.759   3.865 -0.7915 -1.7249 -3.2427
 8373SOL     OW36754   4.421   4.445   4.579 -0.5088 -0.4471 -0.2907
 8373SOL    HW136755   4.430   4.363   4.531  1.1111 -0.3471 -0.1446
 8373SOL    HW236756   4.512   4.459   4.605 -1.0523  0.8873  0.9045
 8374SOL     OW36757   3.739   3.669   7.626 -0.2488  0.3242 -0.2501
 8374SOL    HW136758   3.778   3.610   7.692 -1.7450 -0.2089  0.1500
 8374SOL    HW236759   3.759   3.755   7.663  0.8964  1.3765 -3.3759
 8375SOL     OW36760   2.826   0.380   3.732  0.9919 -0.8731  0.0952
 8375SOL    HW136761   2.746   0.336   3.763  0.8569 -0.7320 -0.0510
 8375SOL    HW236762   2.844   0.455   3.789 -1.7753  0.4133 -0.6998
 8376SOL     OW36763   1.893   0.070  13.089  0.2989 -0.2162  0.2289
 8376SOL    HW136764   1.885   0.087  12.996 -0.0411 -0.0580  0.2879
 8376SOL    HW236765   1.984   0.097  13.101 -0.0798  0.1601  2.3587
 8377SOL     OW36766   3.668   4.083   8.380  0.2333 -0.1107  0.4631
 8377SOL    HW136767   3.612   4.160   8.369 -1.9013 -1.5806  1.1515
 8377SOL    HW236768   3.633   4.032   8.308  2.4089 -0.9445 -0.0166
 8378SOL     OW36769   3.068   4.607  11.707  0.0778  0.2692 -0.2760
 8378SOL    HW136770   3.046   4.570  11.793 -0.3974  2.2994  0.4646
 8378SOL    HW236771   3.024   4.539  11.657  0.4272 -0.8014  0.8686
 8379SOL     OW36772   1.256   3.995   4.953  0.2706 -0.4058 -0.8327
 8379SOL    HW136773   1.292   3.907   4.941  2.0274  0.3015 -0.7819
 8379SOL    HW236774   1.168   3.974   4.924  0.2786 -2.2013  0.3807
 8380SOL     OW36775   2.923   2.161   3.866  0.3737 -0.0881 -0.7694
 8380SOL    HW136776   2.925   2.101   3.940  1.6900 -1.8277 -2.2164
 8380SOL    HW236777   2.865   2.228   3.903 -1.0086 -2.2028  0.9305
 8381SOL     OW36778   4.468   1.908   1.635  0.5871 -0.1157 -0.0924
 8381SOL    HW136779   4.432   1.890   1.722 -2.5809  0.6923 -1.2538
 8381SOL    HW236780   4.535   1.974   1.653  0.4337  0.0270 -0.0483
 8382SOL     OW36781   4.539   1.446   3.051  1.0593 -0.4731 -0.3538
 8382SOL    HW136782   4.514   1.535   3.077  0.1056 -0.2230 -2.1843
 8382SOL    HW236783   4.533   1.404   3.137 -3.3358 -0.3386 -0.6132
 8383SOL     OW36784   3.182   0.911   6.767 -0.5045  0.2399 -0.1666
 8383SOL    HW136785   3.219   0.994   6.738  1.1764 -0.1387  0.8917
 8383SOL    HW236786   3.130   0.938   6.842 -0.5355 -1.3152  0.3774
 8384SOL     OW36787   3.564   1.240   2.544 -0.5441 -0.4184 -0.6706
 8384SOL    HW136788   3.635   1.292   2.581  0.4088 -1.6951 -0.6895
 8384SOL    HW236789   3.598   1.154   2.571  0.8300 -0.2260 -1.7699
 8385SOL     OW36790   4.195   0.168   8.260  0.2715  0.0449  0.3479
 8385SOL    HW136791   4.233   0.174   8.348  0.4635 -1.6412  0.3823
 8385SOL    HW236792   4.218   0.253   8.222  1.2418 -0.5403 -0.3871
 8386SOL     OW36793   1.297   3.154   5.532 -0.1092  0.1043  0.1633
 8386SOL    HW136794   1.356   3.174   5.604  0.1983 -0.0969 -0.0341
 8386SOL    HW236795   1.210   3.148   5.572 -0.8402  0.0094 -1.4364
 8387SOL     OW36796   2.559   1.860  11.908 -0.1236 -0.0223  0.6967
 8387SOL    HW136797   2.618   1.903  11.846 -0.6292  0.3783  0.4923
 8387SOL    HW236798   2.606   1.881  11.988 -0.3292 -0.0841  0.8345
 8388SOL     OW36799   2.707   0.558   1.310  0.1736 -0.4035 -0.0964
 8388SOL    HW136800   2.667   0.497   1.372  0.9647 -0.1465  0.6584
 8388SOL    HW236801   2.675   0.528   1.225 -0.5877 -1.8784  0.7124
 8389SOL     OW36802   1.730   3.708   5.613 -0.0439  0.3030  0.1773
 8389SOL    HW136803   1.666   3.656   5.662 -1.7881  2.2661 -0.0388
 8389SOL    HW236804   1.703   3.799   5.608 -0.6760  0.0149 -1.6230
 8390SOL     OW36805   0.870   4.073   5.046 -0.6222 -0.2863 -0.6113
 8390SOL    HW136806   0.775   4.079   5.058 -0.6206 -3.3289  0.9008
 8390SOL    HW236807   0.887   3.997   5.102  0.4110 -0.8791 -1.7285
 8391SOL     OW36808   0.910   1.039   7.506 -0.2185  0.5262  0.4050
 8391SOL    HW136809   0.821   1.072   7.519 -0.2700  0.9840 -1.0558
 8391SOL    HW236810   0.959   1.087   7.573 -0.4448 -0.4317  1.2595
 8392SOL     OW36811   1.489   1.090   5.715 -0.0777  0.3755  0.3191
 8392SOL    HW136812   1.549   1.073   5.642  0.1024  0.2767  0.4895
 8392SOL    HW236813   1.544   1.065   5.790  0.6187  0.4898 -0.1486
 8393SOL     OW36814   3.178   0.335   7.750  0.3273 -0.0972 -0.4478
 8393SOL    HW136815   3.109   0.401   7.757 -1.9994 -2.3540 -1.7976
 8393SOL    HW236816   3.227   0.327   7.832  0.7735  1.3523 -0.5718
 8394SOL     OW36817   4.585   3.400   6.529  0.3861 -0.0967 -0.0781
 8394SOL    HW136818   4.614   3.340   6.460  1.8203 -0.7032  1.0659
 8394SOL    HW236819   4.666   3.422   6.574  1.1130  0.5641 -1.7162
 8395SOL     OW36820   3.621   0.708   4.959  0.1072  0.2062  0.1978
 8395SOL    HW136821   3.595   0.773   5.024  0.7057 -1.8911  2.5406
 8395SOL    HW236822   3.555   0.714   4.890 -2.8446 -1.0769  2.9497
 8396SOL     OW36823   0.564   0.310   8.181 -0.3652  0.7110 -0.1585
 8396SOL    HW136824   0.516   0.337   8.103  0.2986  1.0429 -0.4530
 8396SOL    HW236825   0.651   0.340   8.153 -0.7250  1.1832 -0.7572
 8397SOL     OW36826   2.767   2.800   1.275  0.0173  0.0863 -0.3591
 8397SOL    HW136827   2.765   2.718   1.324  0.4698  0.0668 -0.3739
 8397SOL    HW236828   2.845   2.785   1.222  0.2193  1.6478 -0.5099
 8398SOL     OW36829   0.373   4.517   2.086  0.2275  0.5520  0.3666
 8398SOL    HW136830   0.309   4.454   2.052  0.1568  1.1615 -0.6173
 8398SOL    HW236831   0.357   4.504   2.179  1.8886  0.6162  0.6554
 8399SOL     OW36832   0.425   2.569   3.082  0.1535  0.3872 -0.2229
 8399SOL    HW136833   0.377   2.495   3.045 -1.0300  1.6159 -1.1638
 8399SOL    HW236834   0.383   2.577   3.167  1.2454  0.9034  0.2603
 8400SOL     OW36835   4.496   1.210   1.669 -0.1797 -0.0071  0.2591
 8400SOL    HW136836   4.410   1.207   1.627  0.1681 -0.5070 -0.4118
 8400SOL    HW236837   4.475   1.250   1.754 -1.2873  0.3918 -0.1993
 8401SOL     OW36838   4.114   0.049   6.279  0.2148  0.5097 -0.2957
 8401SOL    HW136839   4.052   4.719   6.246  1.7851 -0.6638 -0.9060
 8401SOL    HW236840   4.060   0.128   6.280  0.4598  0.6779 -0.5573
 8402SOL     OW36841   2.442   1.890   4.135  0.1493 -0.1848 -0.3159
 8402SOL    HW136842   2.483   1.822   4.188  2.4993 -0.3954 -2.3942
 8402SOL    HW236843   2.509   1.914   4.071 -0.9347  2.6228 -0.4084
 8403SOL     OW36844   1.070   0.988   7.903 -0.1191 -0.2778 -0.3230
 8403SOL    HW136845   1.166   0.989   7.896 -0.0540  0.3402  0.7582
 8403SOL    HW236846   1.039   0.938   7.828  0.9840 -0.3866 -0.7168
 8404SOL     OW36847   3.366   0.980   5.996 -0.4154  0.0734 -0.2650
 8404SOL    HW136848   3.398   1.056   6.045  0.8719 -0.6855  0.0509
 8404SOL    HW236849   3.338   0.923   6.068 -1.1333  2.3629  1.2888
 8405SOL     OW36850   2.488   3.028   5.433  0.5759 -0.2182 -0.0991
 8405SOL    HW136851   2.581   3.038   5.451  1.0014 -1.5897 -1.5571
 8405SOL    HW236852   2.477   2.941   5.472 -0.4191  0.3642  0.9309
 8406SOL     OW36853   3.745   1.870   3.254  0.2633  0.7831  0.3520
 8406SOL    HW136854   3.744   1.798   3.318  1.6704  1.5475  1.2254
 8406SOL    HW236855   3.808   1.932   3.289  1.7447 -0.0600 -0.8387
 8407SOL     OW36856   2.920   2.008   6.441  0.3050 -0.2377 -0.7586
 8407SOL    HW136857   3.000   2.022   6.389  0.8331  2.0179  0.6616
 8407SOL    HW236858   2.881   2.095   6.449  0.3129 -0.3104  0.0664
 8408SOL     OW36859   1.585   4.479   5.556  0.1551 -0.3884 -0.0602
 8408SOL    HW136860   1.533   4.518   5.485 -1.5576 -0.6188  1.0769
 8408SOL    HW236861   1.661   4.445   5.508 -1.4131 -2.8865 -0.7533
 8409SOL     OW36862   0.337   3.319  16.565 -0.2154  0.3049  0.5300
 8409SOL    HW136863   0.335   3.295  16.657  1.4074  1.1878  0.7836
 8409SOL    HW236864   0.387   3.400  16.558 -0.7450  0.4721 -1.4105
 8410SOL     OW36865   4.665   1.765   8.108  0.4323  0.1071 -0.3330
 8410SOL    HW136866   0.021   1.777   8.081  0.7749  0.6426  1.0664
 8410SOL    HW236867   4.619   1.761   8.024 -0.2318  0.2637  0.0319
 8411SOL     OW36868   1.992   3.558   8.455  0.4984  0.0000 -0.1058
 8411SOL    HW136869   1.952   3.641   8.478 -0.5752  0.2480 -2.8066
 8411SOL    HW236870   1.939   3.537   8.378 -0.2970 -0.2918  0.5320
 8412SOL     OW36871   3.348   3.995   4.529  0.3694  0.0294  0.1769
 8412SOL    HW136872   3.336   4.045   4.610  4.0501  1.0820  0.0702
 8412SOL    HW236873   3.433   3.957   4.552  0.5739  1.1331  1.3049
 8413SOL     OW36874   1.892   1.997   6.134 -0.0972  1.1243 -0.4327
 8413SOL    HW136875   1.984   1.974   6.120 -1.6763 -4.8066 -1.1018
 8413SOL    HW236876   1.868   2.027   6.047 -2.0829  0.6513 -0.0514
 8414SOL     OW36877   0.639   3.658   3.517 -0.0372  0.3180 -0.2549
 8414SOL    HW136878   0.702   3.596   3.555  0.0797  0.2885 -0.4938
 8414SOL    HW236879   0.558   3.629   3.558  0.3647 -0.6974 -0.1798
 8415SOL     OW36880   1.178   0.488  13.298 -0.2198  0.2332  0.7696
 8415SOL    HW136881   1.113   0.552  13.327 -1.7389 -2.2127  2.7556
 8415SOL    HW236882   1.157   0.458  13.210  1.5795  0.7484  0.1581
 8416SOL     OW36883   1.800   3.587  13.088 -0.0524  0.1291 -0.1648
 8416SOL    HW136884   1.741   3.642  13.035  0.0110 -0.0447 -0.4133
 8416SOL    HW236885   1.789   3.614  13.180 -1.1207 -0.4331 -0.1285
 8417SOL     OW36886   2.913   3.068  11.618  0.2239 -0.1232  0.0039
 8417SOL    HW136887   2.907   3.155  11.577  1.1587  0.1775  0.4980
 8417SOL    HW236888   2.939   3.094  11.707  1.1807  2.0911 -0.9182
 8418SOL     OW36889   3.453   3.683   8.677  0.3220  0.1533  0.4040
 8418SOL    HW136890   3.455   3.755   8.614 -0.2578  0.8095  1.1438
 8418SOL    HW236891   3.413   3.614   8.623 -0.4269  0.4508  0.5721
 8419SOL     OW36892   4.459   2.170  14.097  0.4739  0.1668  0.3748
 8419SOL    HW136893   4.412   2.229  14.039  1.7064  1.9347  1.1564
 8419SOL    HW236894   4.534   2.154  14.039 -0.9223  0.0783 -1.4103
 8420SOL     OW36895   2.872   1.580   4.369  0.0271  0.2038  0.5511
 8420SOL    HW136896   2.917   1.598   4.286 -0.8176 -0.5501 -0.0837
 8420SOL    HW236897   2.879   1.661   4.419 -1.3998 -0.6024  2.0256
 8421SOL     OW36898   1.978   0.541  11.627 -0.1792 -0.3804 -0.0991
 8421SOL    HW136899   2.065   0.574  11.650  0.9050 -2.8429 -0.6582
 8421SOL    HW236900   1.923   0.614  11.654  2.7220  1.3320  1.2813
 8422SOL     OW36901   2.621   4.570   4.649 -0.3161 -0.2703 -0.2158
 8422SOL    HW136902   2.571   4.593   4.571 -0.2204  0.4634 -0.0628
 8422SOL    HW236903   2.704   4.577   4.603 -0.8279  0.6481 -0.9957
 8423SOL     OW36904   3.920   0.384  12.333 -0.3920 -0.1546  0.0877
 8423SOL    HW136905   3.828   0.373  12.354 -0.6021  1.2613 -0.1247
 8423SOL    HW236906   3.962   0.311  12.380  2.2827  0.6720 -1.0104
 8424SOL     OW36907   3.057   2.770   3.296  0.3363 -0.5122 -0.4225
 8424SOL    HW136908   3.108   2.823   3.235  0.1140 -0.5045 -0.6018
 8424SOL    HW236909   3.102   2.782   3.379 -0.5721 -0.2532  0.0370
 8425SOL     OW36910   3.194   3.172   2.359  0.3725 -0.0385  0.4540
 8425SOL    HW136911   3.138   3.156   2.283  0.6263 -0.7422  0.4110
 8425SOL    HW236912   3.281   3.155   2.322 -0.5455 -0.7277 -1.3962
 8426SOL     OW36913   3.966   0.327   9.599  0.0469 -0.6721 -0.2056
 8426SOL    HW136914   3.910   0.257   9.566  1.5783 -1.0482 -2.0095
 8426SOL    HW236915   4.046   0.322   9.546 -0.2857 -1.4857 -0.6254
 8427SOL     OW36916   3.793   4.185   7.965  0.9141 -0.4142 -0.3343
 8427SOL    HW136917   3.825   4.269   7.996  0.1769  0.3314 -1.6251
 8427SOL    HW236918   3.853   4.174   7.892 -1.2548 -2.3131 -1.8664
 8428SOL     OW36919   2.985   1.396  16.075 -0.7794  0.5255 -0.4019
 8428SOL    HW136920   2.915   1.430  16.020  0.6858  1.5772 -1.6317
 8428SOL    HW236921   2.942   1.338  16.137  2.7884 -1.3597  0.3590
 8429SOL     OW36922   4.358   4.715  10.469 -0.6933  0.0063 -0.1400
 8429SOL    HW136923   4.420   0.000  10.400 -1.0142  1.1017 -0.0952
 8429SOL    HW236924   4.412   4.684  10.542  1.6936  0.2280 -1.8477
 8430SOL     OW36925   1.302   1.858   1.701  0.1794 -0.2514  0.2724
 8430SOL    HW136926   1.386   1.886   1.738  1.1711 -1.7118 -0.8513
 8430SOL    HW236927   1.283   1.784   1.758  0.7260 -0.2742  0.4265
 8431SOL     OW36928   0.977   3.026   6.977  0.1324  0.1962  0.1309
 8431SOL    HW136929   1.032   2.965   6.928 -1.8544 -0.3967 -1.3540
 8431SOL    HW236930   0.953   2.981   7.058 -2.7477 -1.3868 -1.5857
 8432SOL     OW36931   3.980   1.300   2.852  0.4428  0.4435  0.3709
 8432SOL    HW136932   3.989   1.319   2.945 -0.2597 -0.1799  0.5603
 8432SOL    HW236933   4.045   1.363   2.819  0.8354  0.3567  0.9753
 8433SOL     OW36934   1.437   0.972  17.446  0.4325 -0.4184 -0.4747
 8433SOL    HW136935   1.379   0.905  17.409 -0.2823  0.7488 -1.4500
 8433SOL    HW236936   1.369   1.021  17.493 -0.4610 -1.5274 -0.6107
 8434SOL     OW36937   4.019   4.051   3.193  0.0260  0.0119 -0.5525
 8434SOL    HW136938   4.042   3.996   3.267 -0.4642  0.2191 -0.2486
 8434SOL    HW236939   3.925   4.061   3.202  0.3443  3.2313 -0.7963
 8435SOL     OW36940   0.342   1.610   8.080 -0.1803  0.6097  0.5965
 8435SOL    HW136941   0.350   1.624   8.175 -0.6774  1.6853  0.4763
 8435SOL    HW236942   0.280   1.680   8.059 -0.2464  0.8485  1.5589
 8436SOL     OW36943   3.891   4.622   0.451 -0.2677  0.3292 -0.2328
 8436SOL    HW136944   3.839   4.677   0.392  1.0382  1.1075 -0.6581
 8436SOL    HW236945   3.854   4.534   0.445 -0.2572  0.4514 -2.2336
 8437SOL     OW36946   2.431   0.999  17.416  0.3944 -0.0869 -0.1028
 8437SOL    HW136947   2.366   1.065  17.442  2.9284  1.5000  2.1138
 8437SOL    HW236948   2.422   0.986  17.322 -0.4325  0.6338 -0.1241
 8438SOL     OW36949   2.239   4.259   6.948 -0.2500  0.0640  0.6801
 8438SOL    HW136950   2.188   4.252   7.028  2.2182  0.1410  2.2630
 8438SOL    HW236951   2.217   4.170   6.920 -1.4638 -0.2795  2.7592
 8439SOL     OW36952   1.265   4.359  10.496 -0.2601 -0.3818  0.2612
 8439SOL    HW136953   1.335   4.413  10.461  0.6119 -2.5466 -1.3019
 8439SOL    HW236954   1.194   4.411  10.458  0.4212  0.0358 -0.4275
 8440SOL     OW36955   1.690   1.368  14.620  0.4868 -0.2507 -1.0071
 8440SOL    HW136956   1.705   1.424  14.544 -2.5008 -0.2788 -1.6004
 8440SOL    HW236957   1.634   1.429  14.668 -2.2956 -0.3398 -4.1653
 8441SOL     OW36958   1.771   2.952  12.245 -0.0078  0.2463  0.4379
 8441SOL    HW136959   1.793   2.877  12.189 -0.6837 -0.3683  0.9934
 8441SOL    HW236960   1.851   2.954  12.296 -0.1943  0.7384  0.7130
 8442SOL     OW36961   2.223   3.882   8.720  0.2314 -0.2897  0.2203
 8442SOL    HW136962   2.289   3.901   8.787 -0.4289  2.0238  0.2204
 8442SOL    HW236963   2.181   3.813   8.773 -0.1734  0.7950  1.3114
 8443SOL     OW36964   3.301   3.341  11.062  0.2150 -0.2017 -0.1897
 8443SOL    HW136965   3.376   3.364  11.006  0.4293 -1.5242 -0.4555
 8443SOL    HW236966   3.330   3.352  11.152 -1.7832  0.7982  0.3178
 8444SOL     OW36967   1.565   1.365  11.900  0.6851 -0.1484 -0.1684
 8444SOL    HW136968   1.484   1.315  11.899 -1.1897  2.8429  1.4247
 8444SOL    HW236969   1.603   1.326  11.979  0.5505  1.1826  0.5511
 8445SOL     OW36970   1.161   3.868   9.406 -0.0410 -0.7286 -0.0441
 8445SOL    HW136971   1.162   3.925   9.329 -0.4704 -1.4635 -0.5889
 8445SOL    HW236972   1.219   3.796   9.383  1.2407  1.1466 -2.6529
 8446SOL     OW36973   1.975   3.862   1.725  0.7354 -0.2560 -0.0846
 8446SOL    HW136974   1.940   3.946   1.695  0.4872 -0.4983 -0.4818
 8446SOL    HW236975   2.010   3.819   1.646  0.6654  0.5709 -0.5644
 8447SOL     OW36976   1.781   3.784  17.210  0.2026 -0.0473 -0.4831
 8447SOL    HW136977   1.750   3.711  17.265  0.5253 -0.7228 -1.2093
 8447SOL    HW236978   1.870   3.795  17.243  0.5099  2.8393 -2.3074
 8448SOL     OW36979   0.728   3.472   8.367  0.4168 -0.1855 -0.0207
 8448SOL    HW136980   0.711   3.497   8.458  1.2937 -4.4410  1.3180
 8448SOL    HW236981   0.674   3.393   8.365  0.1533 -0.0468  1.2453
 8449SOL     OW36982   2.596   2.179  17.440  0.2330 -0.1181 -0.4621
 8449SOL    HW136983   2.540   2.105  17.419  0.8520 -0.6172 -0.3362
 8449SOL    HW236984   2.685   2.146  17.431  0.9311  0.7910  3.1108
 8450SOL     OW36985   3.546   0.685  12.890  0.0905 -0.1268 -0.2543
 8450SOL    HW136986   3.524   0.776  12.908  0.6453 -0.0283 -0.0775
 8450SOL    HW236987   3.621   0.676  12.948 -1.3441  1.0643  1.7560
 8451SOL     OW36988   4.715   2.505  11.661 -0.1077  0.3185 -0.2584
 8451SOL    HW136989   4.679   2.552  11.737 -1.7461  0.1378 -0.9264
 8451SOL    HW236990   0.073   2.507  11.682  0.3603 -2.4300 -2.1629
 8452SOL     OW36991   3.103   3.853   0.859  0.6015 -0.3878 -0.1025
 8452SOL    HW136992   3.055   3.915   0.913 -2.5785 -3.0726  0.2001
 8452SOL    HW236993   3.189   3.889   0.878  0.8031 -1.1671  0.4719
 8453SOL     OW36994   1.133   0.720   3.330  0.0060 -0.2621  0.2225
 8453SOL    HW136995   1.055   0.716   3.275 -0.7034 -0.3873  1.2393
 8453SOL    HW236996   1.097   0.687   3.412  1.8291 -4.1852 -0.5480
 8454SOL     OW36997   3.363   3.784   1.394  0.8568 -0.5744 -0.1756
 8454SOL    HW136998   3.319   3.807   1.475 -2.7219 -1.0870 -1.9618
 8454SOL    HW236999   3.334   3.693   1.386  1.0034 -0.6959  0.7139
 8455SOL     OW37000   2.610   1.954   1.640 -0.2074 -0.1524  0.1789
 8455SOL    HW137001   2.668   1.982   1.569 -1.5565  0.5372 -0.6559
 8455SOL    HW237002   2.566   2.038   1.653 -3.5778 -1.7871 -0.7430
 8456SOL     OW37003   0.168   3.529   6.393 -0.2491  0.1159  0.1604
 8456SOL    HW137004   0.109   3.511   6.466 -0.8800  1.2864 -0.0758
 8456SOL    HW237005   0.242   3.476   6.426  1.5508  3.7083  1.9157
 8457SOL     OW37006   4.231   1.367  10.236  0.1214  0.4100  0.9150
 8457SOL    HW137007   4.319   1.351  10.270 -0.0989 -3.7289 -0.5073
 8457SOL    HW237008   4.230   1.459  10.209  1.2972 -0.0182 -0.5720
 8458SOL     OW37009   0.161   2.499  15.354  0.3614  0.3786  0.1468
 8458SOL    HW137010   0.131   2.553  15.281  1.8172  1.2445  0.1954
 8458SOL    HW237011   0.217   2.429  15.322  0.8257  1.1923 -0.8047
 8459SOL     OW37012   0.137   4.116   6.055 -0.7620 -0.5091  0.1122
 8459SOL    HW137013   0.135   4.025   6.085 -1.2840 -0.9316 -1.2030
 8459SOL    HW237014   0.058   4.153   6.094 -0.9806 -1.5993  0.7152
 8460SOL     OW37015   0.721   2.090   5.142  0.2088  0.1027  0.1532
 8460SOL    HW137016   0.796   2.149   5.132  0.7337 -1.1613 -3.2265
 8460SOL    HW237017   0.763   2.006   5.129  2.1669  1.1421 -0.2563
 8461SOL     OW37018   4.626   2.688   6.354 -0.2622 -0.3370  0.0685
 8461SOL    HW137019   4.658   2.777   6.370  0.4338 -0.0428 -3.0299
 8461SOL    HW237020   4.624   2.676   6.259  0.9688 -1.7626  0.2222
 8462SOL     OW37021   3.735   0.587   1.293  0.0843  0.5098 -0.1103
 8462SOL    HW137022   3.718   0.672   1.333 -1.6926 -0.2655  0.8075
 8462SOL    HW237023   3.828   0.600   1.308  0.6290 -2.9811 -0.3817
 8463SOL     OW37024   2.280   3.866  12.979 -0.6028 -0.6302 -0.2111
 8463SOL    HW137025   2.255   3.812  13.054  2.0217 -0.0130  1.1434
 8463SOL    HW237026   2.234   3.945  13.008 -2.1908 -1.2197 -1.2090
 8464SOL     OW37027   3.654   2.189  13.498 -0.1267 -0.0115  0.2647
 8464SOL    HW137028   3.746   2.179  13.524 -0.5546  0.1716  1.8237
 8464SOL    HW237029   3.624   2.098  13.493 -2.3801  0.6585  1.8466
 8465SOL     OW37030   1.685   2.470  15.150 -0.2572  0.0897  0.4989
 8465SOL    HW137031   1.778   2.468  15.171 -0.3762 -0.8250  0.9311
 8465SOL    HW237032   1.660   2.538  15.213 -2.7806  0.1960 -0.5986
 8466SOL     OW37033   3.573   1.228   7.597  0.1698 -0.5727  0.3812
 8466SOL    HW137034   3.597   1.158   7.658  0.8345 -2.3885 -1.9539
 8466SOL    HW237035   3.477   1.225   7.592  0.1243  1.4207 -0.0213
 8467SOL     OW37036   2.190   4.039   4.784  0.1346  1.0162  0.4602
 8467SOL    HW137037   2.174   4.104   4.716 -0.0576  0.6647  0.1677
 8467SOL    HW237038   2.115   4.058   4.840 -1.4444 -1.4725 -0.8006
 8468SOL     OW37039   1.554   3.289   3.500  0.3684  0.1621 -0.4865
 8468SOL    HW137040   1.471   3.337   3.497 -0.5015 -1.2864  0.5270
 8468SOL    HW237041   1.592   3.313   3.585 -2.2491 -0.2476  0.7730
 8469SOL     OW37042   1.815   0.506   7.448 -0.5801  0.2554  0.5125
 8469SOL    HW137043   1.856   0.561   7.382 -0.0898 -2.6246 -1.6137
 8469SOL    HW237044   1.732   0.552   7.447 -0.3652  0.6326  0.1573
 8470SOL     OW37045   2.267   2.043  14.979 -0.2867 -0.2892  0.0584
 8470SOL    HW137046   2.264   1.951  14.955  1.6811 -0.7721  1.6381
 8470SOL    HW237047   2.332   2.072  14.915  0.2040 -1.2899  0.1116
 8471SOL     OW37048   0.109   0.317   7.758 -0.3286  0.2807 -0.1819
 8471SOL    HW137049   0.161   0.308   7.838 -1.8774 -0.0847  0.7975
 8471SOL    HW237050   0.172   0.360   7.700 -1.1137 -2.5536 -3.1390
 8472SOL     OW37051   3.733   3.633   5.181 -0.4130  0.3608 -0.0628
 8472SOL    HW137052   3.669   3.703   5.196 -0.9965 -0.5398  1.6149
 8472SOL    HW237053   3.783   3.641   5.262  2.6514 -1.6089 -1.7566
 8473SOL     OW37054   4.380   3.086   0.554  0.2009  0.5499  0.1886
 8473SOL    HW137055   4.452   3.045   0.602  0.0632 -1.0701 -0.9742
 8473SOL    HW237056   4.329   3.122   0.627 -2.0582  2.2878 -2.2428
 8474SOL     OW37057   1.742   0.208   5.029 -0.4084 -0.0095  0.0570
 8474SOL    HW137058   1.710   0.264   5.100  0.1270  2.2207 -1.4491
 8474SOL    HW237059   1.743   0.278   4.963 -0.8788 -0.4455 -0.4087
 8475SOL     OW37060   3.113   3.971   4.962  0.2892 -0.6192  0.1465
 8475SOL    HW137061   3.096   3.877   4.971 -0.4952 -0.5660 -0.7091
 8475SOL    HW237062   3.022   3.999   4.972  1.1014  1.7950  0.6727
 8476SOL     OW37063   0.214   1.380   1.312  0.0989  0.1586  0.0357
 8476SOL    HW137064   0.142   1.319   1.331 -0.8918  0.7863 -1.7249
 8476SOL    HW237065   0.281   1.319   1.282  1.3824  1.1774  0.7942
 8477SOL     OW37066   4.312   4.474   2.268  0.8019  0.1966 -0.5686
 8477SOL    HW137067   4.310   4.382   2.242 -0.3877  0.0488  0.0389
 8477SOL    HW237068   4.249   4.468   2.341  0.0394  1.1631 -1.1400
 8478SOL     OW37069   2.359   4.731   7.616 -0.0333 -0.4315  0.5962
 8478SOL    HW137070   2.330   4.663   7.677 -0.4102 -1.8249 -1.1308
 8478SOL    HW237071   2.279   0.017   7.568  0.0159  2.4048  1.7992
 8479SOL     OW37072   3.525   3.318   5.784 -0.1726 -0.4810  0.0385
 8479SOL    HW137073   3.526   3.405   5.745 -4.3746 -0.2009  0.5094
 8479SOL    HW237074   3.602   3.273   5.750 -0.1983 -1.0161  0.6846
 8480SOL     OW37075   1.773   2.451  14.093  0.6483 -0.2037  0.5236
 8480SOL    HW137076   1.824   2.516  14.044 -0.3701 -0.4308 -0.8382
 8480SOL    HW237077   1.777   2.368  14.045  2.0469  0.3713 -0.3582
 8481SOL     OW37078   0.231   0.514   7.965 -0.0159 -0.6771 -0.5941
 8481SOL    HW137079   0.228   0.546   8.056  1.1221  0.4331 -0.9550
 8481SOL    HW237080   0.151   0.558   7.935 -0.5754 -0.6541  0.9138
 8482SOL     OW37081   1.886   4.284   8.384  0.1982 -0.7845  0.8955
 8482SOL    HW137082   1.887   4.338   8.463  0.8602  0.9173 -0.2770
 8482SOL    HW237083   1.974   4.249   8.372  1.5903  2.5078  1.3639
 8483SOL     OW37084   2.259   1.701  15.235  0.2591  0.2338 -0.5774
 8483SOL    HW137085   2.208   1.714  15.155  1.4643  2.1078 -1.0322
 8483SOL    HW237086   2.239   1.607  15.235 -0.7081  0.4326  1.2486
 8484SOL     OW37087   2.076   1.633   0.378 -0.5513 -0.0218  0.2201
 8484SOL    HW137088   2.128   1.711   0.395 -0.8701  0.2430 -0.0506
 8484SOL    HW237089   2.064   1.632   0.283 -1.3162 -2.0378  0.3272
 8485SOL     OW37090   2.442   2.420   4.077 -0.3288 -0.2231 -0.0132
 8485SOL    HW137091   2.375   2.375   4.027  0.2103  0.1329 -1.0572
 8485SOL    HW237092   2.427   2.511   4.051  1.3630  0.1861  0.4297
 8486SOL     OW37093   2.311   4.629   7.115 -0.3259  0.0939  0.2718
 8486SOL    HW137094   2.363   4.627   7.034  0.6607 -0.8505  0.9390
 8486SOL    HW237095   2.329   4.539   7.141  3.3619  0.6317 -0.3593
 8487SOL     OW37096   2.000   4.113  16.276 -0.2452 -0.2406  0.4585
 8487SOL    HW137097   2.056   4.036  16.274  0.2311  0.0878  1.3367
 8487SOL    HW237098   1.916   4.067  16.281  0.2269 -1.2818 -1.2957
 8488SOL     OW37099   2.573   0.996   5.420  0.0291  0.3030  0.3735
 8488SOL    HW137100   2.633   1.069   5.433  0.6613  0.2733 -2.3839
 8488SOL    HW237101   2.530   0.995   5.506  0.9320  1.2120  0.8337
 8489SOL     OW37102   3.077   4.061   4.474  0.1690 -0.6395 -0.5169
 8489SOL    HW137103   3.150   3.999   4.463  0.3781 -0.4226 -0.3655
 8489SOL    HW237104   3.120   4.146   4.480 -1.1795 -0.0752  0.8689
 8490SOL     OW37105   2.305   2.444   8.637 -0.5033 -0.0526  0.1461
 8490SOL    HW137106   2.320   2.520   8.581 -2.6931  0.3580  0.1127
 8490SOL    HW237107   2.228   2.475   8.686 -0.5899  0.7044 -0.4733
 8491SOL     OW37108   2.752   3.062   5.539  0.4540  1.0391 -0.2765
 8491SOL    HW137109   2.780   3.084   5.628 -0.6956 -1.1108  0.6269
 8491SOL    HW237110   2.840   3.044   5.506 -0.5442 -0.7921 -1.9265
 8492SOL     OW37111   1.554   3.543   4.378 -0.4630 -0.4178 -0.7283
 8492SOL    HW137112   1.483   3.479   4.375 -1.1407  0.2529  0.9712
 8492SOL    HW237113   1.500   3.607   4.332 -1.9597 -1.5157 -0.4815
 8493SOL     OW37114   1.115   2.904   9.047  0.0081 -0.2388  0.1656
 8493SOL    HW137115   1.025   2.934   9.033  1.4086  2.9288 -1.9651
 8493SOL    HW237116   1.147   2.952   8.971  1.4428 -0.7208  0.4699
 8494SOL     OW37117   0.399   0.286   5.049 -0.3441 -0.2259 -0.1593
 8494SOL    HW137118   0.398   0.319   4.959 -2.1156  1.2830  0.4130
 8494SOL    HW237119   0.490   0.310   5.070 -0.5256 -0.6438  1.1308
 8495SOL     OW37120   3.356   1.989   7.637  0.2899  0.1368 -0.0917
 8495SOL    HW137121   3.346   1.903   7.679  2.7374 -0.3463 -0.5238
 8495SOL    HW237122   3.285   2.047   7.666  0.1675  1.2529 -2.6636
 8496SOL     OW37123   4.328   3.947   8.645  0.0491  0.9275  0.3351
 8496SOL    HW137124   4.373   4.030   8.636  0.3930  0.4241 -2.4526
 8496SOL    HW237125   4.391   3.887   8.606 -3.6986 -2.0948 -1.1220
 8497SOL     OW37126   0.528   2.322   7.508  0.3365 -0.9207  0.0935
 8497SOL    HW137127   0.564   2.393   7.561 -2.7369  0.1349  0.7838
 8497SOL    HW237128   0.586   2.325   7.432 -0.1159 -0.4421 -0.2321
 8498SOL     OW37129   3.497   4.151   2.637 -0.9897  0.3652  0.6679
 8498SOL    HW137130   3.559   4.124   2.570 -1.3063  1.3079 -0.0090
 8498SOL    HW237131   3.417   4.178   2.591 -2.6735 -0.2442  3.2241
 8499SOL     OW37132   3.746   4.262   1.128 -0.1791 -0.2190  0.7114
 8499SOL    HW137133   3.757   4.334   1.067 -1.8203 -0.6662 -0.1088
 8499SOL    HW237134   3.799   4.281   1.206  1.1773 -2.2048  0.3007
 8500SOL     OW37135   1.178   0.854  17.725 -0.7215 -0.2189 -0.1952
 8500SOL    HW137136   1.210   0.804   0.059 -1.5908 -0.6821 -0.1196
 8500SOL    HW237137   1.243   0.923  17.711 -1.4804  0.4160 -0.5992
 8501SOL     OW37138   1.497   4.625   4.483  0.2948 -0.2258  0.5866
 8501SOL    HW137139   1.431   4.668   4.430  0.3770  1.9793  2.2866
 8501SOL    HW237140   1.494   4.536   4.448 -1.4033  0.2001 -0.3347
 8502SOL     OW37141   1.898   2.565   0.741 -0.0534  0.5849  0.4828
 8502SOL    HW137142   1.927   2.653   0.764  0.8093  0.8167 -1.5090
 8502SOL    HW237143   1.972   2.542   0.686  0.4511  0.9597  1.0124
 8503SOL     OW37144   0.823   3.979   8.294 -0.2994 -0.1809 -0.3059
 8503SOL    HW137145   0.803   3.887   8.315  1.3399 -0.7143 -1.1089
 8503SOL    HW237146   0.747   4.024   8.330 -0.1676  0.5251 -0.9079
 8504SOL     OW37147   3.361   0.232   6.415  0.2710 -0.0855  0.0863
 8504SOL    HW137148   3.417   0.204   6.342 -2.1786  0.6560 -2.0903
 8504SOL    HW237149   3.340   0.322   6.392 -0.1705  0.7890  3.8842
 8505SOL     OW37150   0.318   1.249  12.545  0.3845  0.4020  0.4228
 8505SOL    HW137151   0.410   1.247  12.517  1.0981 -1.3144  2.9683
 8505SOL    HW237152   0.290   1.164  12.512 -2.5673  0.3004  3.2404
 8506SOL     OW37153   3.059   0.525   9.211  0.4850 -0.4345  0.4371
 8506SOL    HW137154   3.005   0.479   9.275 -0.7988  1.7686  0.9135
 8506SOL    HW237155   3.000   0.520   9.136  1.9566 -2.5011 -0.6012
 8507SOL     OW37156   2.794   3.544  13.482 -0.2211 -0.2697 -0.0853
 8507SOL    HW137157   2.826   3.632  13.501 -0.3258  0.6019 -3.8896
 8507SOL    HW237158   2.823   3.530  13.392 -1.1671 -1.5406 -0.1936
 8508SOL     OW37159   3.709   2.662   9.616 -0.2694 -0.2575  0.1385
 8508SOL    HW137160   3.709   2.662   9.712  3.3513  1.5347  0.1712
 8508SOL    HW237161   3.650   2.735   9.598 -1.0209 -0.5695  1.3966
 8509SOL     OW37162   1.632   1.631   1.559 -0.2221 -0.3781 -0.7362
 8509SOL    HW137163   1.617   1.544   1.598  2.6292 -0.5322  0.0807
 8509SOL    HW237164   1.723   1.644   1.586  0.1059 -0.6358 -1.7565
 8510SOL     OW37165   1.314   0.522   2.644  0.5462  0.2290 -0.3933
 8510SOL    HW137166   1.246   0.528   2.578  1.0598  3.0911 -0.6789
 8510SOL    HW237167   1.388   0.483   2.597  0.4655 -0.5202  0.1063
 8511SOL     OW37168   0.356   1.086  15.893 -0.7328  0.3672 -0.1430
 8511SOL    HW137169   0.393   1.169  15.864  1.0932  0.3963  2.2445
 8511SOL    HW237170   0.376   1.023  15.825  0.8241  0.4606  0.2394
 8512SOL     OW37171   2.307   1.375   3.594 -0.0152 -0.2310 -0.5036
 8512SOL    HW137172   2.242   1.312   3.627  0.0499  0.0508  0.1803
 8512SOL    HW237173   2.261   1.448   3.637 -2.3706 -1.6896 -0.5326
 8513SOL     OW37174   3.193   4.510   9.243 -0.0215  0.0628  0.0541
 8513SOL    HW137175   3.281   4.542   9.224  0.2853 -0.6859  0.1930
 8513SOL    HW237176   3.163   4.585   9.294  1.0136  0.4342  0.1043
 8514SOL     OW37177   2.267   2.813  12.707 -0.2681 -0.4430 -0.1253
 8514SOL    HW137178   2.269   2.718  12.722  1.7431 -0.1521  1.4936
 8514SOL    HW237179   2.297   2.848  12.790 -0.1347 -1.5629  0.3043
 8515SOL     OW37180   4.521   4.042  12.550 -0.4696 -0.6659  0.4793
 8515SOL    HW137181   4.472   4.052  12.468  0.9566  1.4517 -0.1050
 8515SOL    HW237182   4.581   4.116  12.548  1.3862 -2.1927 -0.6501
 8516SOL     OW37183   1.779   1.772   6.983 -0.5639 -0.1591 -0.2737
 8516SOL    HW137184   1.742   1.723   6.910 -2.3076 -0.2568  0.6686
 8516SOL    HW237185   1.707   1.801   7.040 -0.0559 -1.4242  1.0077
 8517SOL     OW37186   2.198   0.141   5.994 -0.7739 -0.0132  0.6705
 8517SOL    HW137187   2.121   0.193   6.017 -0.1122  0.3376  2.0576
 8517SOL    HW237188   2.177   0.123   5.902  0.1542 -0.2878  0.5218
 8518SOL     OW37189   0.460   1.288   8.596  0.2510 -0.2324  0.2845
 8518SOL    HW137190   0.433   1.353   8.661 -3.7593 -1.7607  0.0944
 8518SOL    HW237191   0.534   1.258   8.650 -0.5281 -0.8695  1.0005
 8519SOL     OW37192   0.897   0.993  17.106  0.0327 -0.0996 -0.9494
 8519SOL    HW137193   0.907   0.943  17.025 -2.8342 -2.3090  0.0814
 8519SOL    HW237194   0.957   1.065  17.087  2.0050 -2.1361 -2.5259
 8520SOL     OW37195   1.723   1.714   4.510  0.8566 -0.3637  0.4820
 8520SOL    HW137196   1.715   1.761   4.593  0.0518 -0.9399  0.7332
 8520SOL    HW237197   1.714   1.621   4.528  0.7649 -0.8291 -1.9189
 8521SOL     OW37198   4.504   4.071   3.461  0.2966 -0.2558  0.4531
 8521SOL    HW137199   4.598   4.077   3.481  0.1360 -3.8760  2.3046
 8521SOL    HW237200   4.482   3.983   3.491  0.4522  0.0220  1.3804
 8522SOL     OW37201   2.333   0.287   4.550  0.7496  0.2631 -0.7248
 8522SOL    HW137202   2.250   0.323   4.581  1.0320 -0.9928  1.5620
 8522SOL    HW237203   2.322   0.192   4.556 -0.2644  0.4553  0.4557
 8523SOL     OW37204   1.767   4.323   2.562  0.4109 -0.1868 -0.8917
 8523SOL    HW137205   1.833   4.312   2.631  1.5244  1.4891 -1.7014
 8523SOL    HW237206   1.691   4.297   2.614 -0.5788  1.7866 -1.3726
 8524SOL     OW37207   0.727   1.678   4.667  0.0531  1.0170  0.3279
 8524SOL    HW137208   0.649   1.722   4.635  0.0327  1.3199  0.7906
 8524SOL    HW237209   0.715   1.678   4.762 -0.9280 -2.0849  0.2112
 8525SOL     OW37210   3.287   3.070   5.008  0.8825  0.3643  0.4509
 8525SOL    HW137211   3.275   2.985   4.966  0.6379  1.2223 -1.1967
 8525SOL    HW237212   3.373   3.099   4.977  2.6224 -0.3481  4.6023
 8526SOL     OW37213   2.705   3.404   2.663 -0.9451  0.5235 -0.4167
 8526SOL    HW137214   2.750   3.483   2.633  1.5794 -0.4728  0.8019
 8526SOL    HW237215   2.691   3.433   2.754  0.1756  2.8568 -0.9859
 8527SOL     OW37216   1.371   3.518  17.196  0.0119  0.1826  0.0211
 8527SOL    HW137217   1.339   3.607  17.181 -1.0549 -0.0495  0.8270
 8527SOL    HW237218   1.303   3.468  17.150 -0.9172  1.0573  0.4313
 8528SOL     OW37219   2.398   3.752   0.663  0.6267  0.0593  0.0125
 8528SOL    HW137220   2.415   3.751   0.758 -0.5722  2.3904  0.2650
 8528SOL    HW237221   2.359   3.665   0.664 -0.6751  0.6442  0.8262
 8529SOL     OW37222   2.831   4.165   4.441 -0.5040 -0.1361  0.0984
 8529SOL    HW137223   2.922   4.140   4.460  0.0104 -0.2909 -2.4378
 8529SOL    HW237224   2.793   4.078   4.436  0.3566 -0.4548 -1.0900
 8530SOL     OW37225   1.762   4.486   3.949  0.1851 -0.3284  0.0624
 8530SOL    HW137226   1.853   4.515   3.951 -0.2316  1.1562 -2.5946
 8530SOL    HW237227   1.750   4.467   4.042 -1.4242  0.6167  0.0353
 8531SOL     OW37228   2.496   3.082   2.389 -0.4743  0.3789  0.2421
 8531SOL    HW137229   2.535   3.011   2.440  0.4001 -0.0885 -1.0730
 8531SOL    HW237230   2.405   3.063   2.413 -1.2502  3.3090 -0.3860
 8532SOL     OW37231   2.867   2.333   4.305 -0.2010  0.1956 -0.1583
 8532SOL    HW137232   2.847   2.413   4.352 -0.4556 -1.3448  2.3744
 8532SOL    HW237233   2.789   2.312   4.253 -0.9846 -0.3525  1.2424
 8533SOL     OW37234   0.248   1.890   1.497 -0.1159  0.3996 -0.5986
 8533SOL    HW137235   0.170   1.855   1.539 -0.4592 -0.2895 -1.7989
 8533SOL    HW237236   0.280   1.812   1.451  0.6901 -0.1118  0.8323
 8534SOL     OW37237   4.075   2.085  11.505  0.0551  0.1815 -0.1112
 8534SOL    HW137238   4.146   2.081  11.441 -0.1941 -1.0665 -0.3171
 8534SOL    HW237239   3.997   2.057  11.458  1.1666 -1.3449 -1.0659
 8535SOL     OW37240   2.231   0.294   6.592  0.1868 -0.3707 -0.1164
 8535SOL    HW137241   2.322   0.267   6.608  0.5476 -0.0039 -1.5199
 8535SOL    HW237242   2.225   0.265   6.501  2.5353 -1.5343  0.0742
 8536SOL     OW37243   1.398   4.387   2.700 -0.1024  0.6750 -0.0838
 8536SOL    HW137244   1.371   4.352   2.615 -0.2871 -1.4593  0.8627
 8536SOL    HW237245   1.359   4.326   2.762  1.6401  1.8900  2.1709
 8537SOL     OW37246   2.270   4.203   8.621  0.1161 -0.1992  0.3566
 8537SOL    HW137247   2.261   4.113   8.592 -0.6774 -0.0078  0.0165
 8537SOL    HW237248   2.241   4.195   8.712  0.0612 -0.0395  0.3539
 8538SOL     OW37249   0.026   2.624   3.704 -0.4737  0.1290 -0.1863
 8538SOL    HW137250   4.717   2.594   3.783  2.1719 -0.7464  0.9808
 8538SOL    HW237251   0.080   2.685   3.755 -0.3851  0.2314 -0.4043
 8539SOL     OW37252   0.912   1.122   7.055 -0.2973  0.2869 -0.3753
 8539SOL    HW137253   0.892   1.084   6.969  2.0316  1.4077 -1.4169
 8539SOL    HW237254   0.993   1.168   7.031 -1.2438  2.1103 -0.0215
 8540SOL     OW37255   1.447   0.492   3.166  0.2252 -0.1340  0.1629
 8540SOL    HW137256   1.537   0.461   3.156  1.0837  3.2195 -2.2900
 8540SOL    HW237257   1.426   0.532   3.082 -1.4905  0.2881  0.7762
 8541SOL     OW37258   2.192   1.445  15.250 -0.1132  0.2826 -0.3188
 8541SOL    HW137259   2.139   1.412  15.323 -0.0249  1.5039  0.2988
 8541SOL    HW237260   2.170   1.369  15.195 -0.5205  0.2992 -0.1786
 8542SOL     OW37261   3.405   1.878  15.174  0.5848  0.7028  0.5811
 8542SOL    HW137262   3.428   1.937  15.246  0.2744  0.7661  0.6274
 8542SOL    HW237263   3.446   1.931  15.105 -1.7867 -0.1084 -1.4295
 8543SOL     OW37264   2.162   2.452   3.482 -0.0825  0.0892 -0.1459
 8543SOL    HW137265   2.207   2.373   3.511 -0.9730 -1.0265 -1.7781
 8543SOL    HW237266   2.116   2.411   3.408  0.5294 -1.1970  0.1913
 8544SOL     OW37267   4.183   0.905   8.716  0.5709  0.9185 -0.1094
 8544SOL    HW137268   4.260   0.927   8.663  1.5553 -0.8198  0.6165
 8544SOL    HW237269   4.196   0.952   8.798 -2.3205  1.3342  0.1376
 8545SOL     OW37270   2.688   3.333   5.407  0.3716  0.6052  0.1280
 8545SOL    HW137271   2.604   3.287   5.419 -0.8622  2.1403 -2.6551
 8545SOL    HW237272   2.719   3.331   5.498 -2.5641 -1.5708  1.0822
 8546SOL     OW37273   0.505   4.395   4.666 -0.8889 -0.1360 -0.1457
 8546SOL    HW137274   0.553   4.476   4.653 -0.4650 -0.4842 -0.8046
 8546SOL    HW237275   0.448   4.391   4.589 -0.9403 -1.2898 -0.0534
 8547SOL     OW37276   2.470   2.044   8.028 -0.0430  0.4436 -0.2983
 8547SOL    HW137277   2.428   2.081   7.950  0.3075 -1.9582 -1.6459
 8547SOL    HW237278   2.458   2.104   8.101 -0.0457 -0.1769  0.2201
 8548SOL     OW37279   3.933   2.841  10.183  0.3943  0.1970 -0.4977
 8548SOL    HW137280   3.926   2.880  10.096  0.4754  1.0837 -0.0995
 8548SOL    HW237281   3.884   2.915  10.218  1.6381 -0.0636  1.8332
 8549SOL     OW37282   1.305   4.599   1.640  0.2407 -0.3698 -0.7572
 8549SOL    HW137283   1.262   4.533   1.694  0.6389  1.0701  1.2729
 8549SOL    HW237284   1.264   4.582   1.555 -1.6771  1.0842 -0.1095
 8550SOL     OW37285   0.422   1.495   7.731  0.6616 -0.1789  0.2590
 8550SOL    HW137286   0.489   1.497   7.799  1.6174 -0.2400 -0.6929
 8550SOL    HW237287   0.358   1.472   7.799 -0.2976  0.4650 -0.4292
 8551SOL     OW37288   1.198   2.865   7.807  0.4079  0.6817 -0.0410
 8551SOL    HW137289   1.171   2.780   7.773  0.2587  0.9180 -0.5120
 8551SOL    HW237290   1.293   2.864   7.797  0.5148 -2.0780  1.0783
 8552SOL     OW37291   3.740   0.279   8.737  0.7395 -0.1188 -0.1675
 8552SOL    HW137292   3.754   0.187   8.757  1.8780 -0.5746 -3.0939
 8552SOL    HW237293   3.775   0.322   8.815 -0.5900  1.4770 -0.4378
 8553SOL     OW37294   3.345   2.169   0.300 -0.4975  0.2503 -0.0353
 8553SOL    HW137295   3.270   2.226   0.313 -1.3612 -0.9162  0.1248
 8553SOL    HW237296   3.403   2.219   0.242 -1.2994  1.0502 -0.1359
 8554SOL     OW37297   0.939   0.732  16.840 -0.2903  0.1543  0.2964
 8554SOL    HW137298   0.861   0.684  16.867 -0.3250  0.2652  0.3924
 8554SOL    HW237299   0.944   0.712  16.746 -0.4255 -0.0481  0.3323
 8555SOL     OW37300   1.355   2.669  11.928 -0.8691  0.4482  0.6290
 8555SOL    HW137301   1.298   2.593  11.920 -1.3238  0.7070  1.4398
 8555SOL    HW237302   1.314   2.718  11.856  0.8319  0.7257 -0.1504
 8556SOL     OW37303   3.323   3.259  10.238 -0.1348  0.7457 -0.3155
 8556SOL    HW137304   3.337   3.310  10.159  1.2098 -0.7249 -1.0024
 8556SOL    HW237305   3.237   3.291  10.266  1.1130  3.5540  0.2937
 8557SOL     OW37306   3.767   1.206   1.753  0.0288  0.2574 -0.0182
 8557SOL    HW137307   3.720   1.286   1.731  1.2298  1.1413  0.5794
 8557SOL    HW237308   3.702   1.149   1.795 -0.6901  0.0405 -1.4649
 8558SOL     OW37309   2.268   3.889   1.950  0.2394 -0.0005  0.1486
 8558SOL    HW137310   2.226   3.868   1.867 -0.5553 -2.1502  1.1109
 8558SOL    HW237311   2.231   3.823   2.009  0.4758  0.4939  0.8603
 8559SOL     OW37312   2.923   3.908   2.943  0.1892  0.1220  0.5844
 8559SOL    HW137313   2.887   3.821   2.924 -0.3409  0.3460  0.5713
 8559SOL    HW237314   2.851   3.970   2.954 -0.7171 -0.8703  0.2816
 8560SOL     OW37315   4.113   1.750  13.589 -0.5013  0.1937 -0.2652
 8560SOL    HW137316   4.176   1.687  13.624 -1.5141 -0.8285 -0.2793
 8560SOL    HW237317   4.168   1.811  13.540  1.3756 -0.5398  0.9218
 8561SOL     OW37318   3.304   3.163  11.735  0.0443  0.3037  0.1402
 8561SOL    HW137319   3.328   3.075  11.705  1.2015  1.0104 -1.0179
 8561SOL    HW237320   3.277   3.198  11.650 -1.4133  0.1899  0.5656
 8562SOL     OW37321   1.615   1.506  10.320  0.0086  0.1633  0.0373
 8562SOL    HW137322   1.685   1.461  10.367  0.8247  1.6003  0.2097
 8562SOL    HW237323   1.558   1.516  10.396  1.5497  3.1652  0.8144
 8563SOL     OW37324   0.056   4.007  16.062  0.2147  0.2861 -0.3264
 8563SOL    HW137325   4.735   3.955  16.119 -1.0140  1.9223 -0.0550
 8563SOL    HW237326   0.066   4.090  16.109 -2.5269  0.6326 -0.3547
 8564SOL     OW37327   0.653   3.230   6.594  0.3661  0.3918  0.0740
 8564SOL    HW137328   0.686   3.141   6.607  1.2676  1.0464  2.1217
 8564SOL    HW237329   0.689   3.272   6.672  2.1936  1.0428 -1.1197
 8565SOL     OW37330   4.395   3.460  15.104  0.1120  0.3122  0.0329
 8565SOL    HW137331   4.312   3.417  15.088 -0.1615  1.0090 -0.4391
 8565SOL    HW237332   4.377   3.547  15.067 -0.3060  0.7181  1.2135
 8566SOL     OW37333   0.928   4.260   3.395 -0.4867  0.3767  0.4988
 8566SOL    HW137334   0.833   4.260   3.397 -0.4993 -1.2622 -0.2688
 8566SOL    HW237335   0.937   4.244   3.302 -0.3287  1.9047  0.2449
 8567SOL     OW37336   3.598   4.051   2.375  0.0598 -0.8029  0.0232
 8567SOL    HW137337   3.680   4.089   2.345 -1.7729  0.2026 -3.6959
 8567SOL    HW237338   3.543   4.076   2.301  1.0810 -2.9809 -1.4576
 8568SOL     OW37339   0.022   3.039   0.261 -0.5299 -0.3596 -0.3190
 8568SOL    HW137340   0.050   2.951   0.234  5.1637  1.5964 -0.8443
 8568SOL    HW237341   4.664   3.026   0.269 -0.4087 -0.2106  1.4815
 8569SOL     OW37342   1.138   3.544   0.596  0.2936 -0.3055  0.5300
 8569SOL    HW137343   1.089   3.547   0.678  1.7052 -0.4250  1.3746
 8569SOL    HW237344   1.205   3.477   0.612  0.1385 -0.4279  0.6559
 8570SOL     OW37345   1.671   3.760   4.512  0.0156  0.0720 -0.3570
 8570SOL    HW137346   1.609   3.802   4.573 -0.2981  0.4362 -0.9338
 8570SOL    HW237347   1.619   3.690   4.473  1.2604  0.1642 -2.1605
 8571SOL     OW37348   0.166   3.785   2.255  0.2382 -0.6280 -0.0872
 8571SOL    HW137349   0.159   3.699   2.297 -0.1626 -0.4247  0.2562
 8571SOL    HW237350   0.085   3.825   2.284  2.3731  2.6006  1.4563
 8572SOL     OW37351   3.416   0.684   4.781  0.0194  0.3515 -0.1438
 8572SOL    HW137352   3.408   0.609   4.840  0.5556 -0.3553 -0.9565
 8572SOL    HW237353   3.362   0.648   4.710 -2.2670  1.1907  1.1708
 8573SOL     OW37354   2.541   1.404   5.008 -0.3071 -0.3031  0.0302
 8573SOL    HW137355   2.532   1.481   5.064  1.0654 -1.4368  1.7863
 8573SOL    HW237356   2.470   1.350   5.043  1.3644 -2.0887  0.6206
 8574SOL     OW37357   3.612   1.777   2.086  0.6000 -0.1365 -0.3315
 8574SOL    HW137358   3.627   1.790   2.179  1.2003  0.7505 -0.5499
 8574SOL    HW237359   3.639   1.686   2.072 -0.5532 -0.3735 -1.0424
 8575SOL     OW37360   3.655   3.087   5.685  0.0918  0.6267 -0.2718
 8575SOL    HW137361   3.741   3.118   5.714 -0.7304  0.5817  2.2379
 8575SOL    HW237362   3.690   3.059   5.601 -0.1026 -1.9954  0.5163
 8576SOL     OW37363   3.548   4.493   9.714 -0.7492  0.9667  0.8453
 8576SOL    HW137364   3.606   4.448   9.776 -2.6382 -0.7124  1.3730
 8576SOL    HW237365   3.473   4.495   9.772 -1.4775  3.1586 -0.1856
 8577SOL     OW37366   2.157   4.586   8.849  0.1687  0.1651 -0.1069
 8577SOL    HW137367   2.096   4.594   8.921  1.5726 -1.2583  1.2381
 8577SOL    HW237368   2.103   4.535   8.788  1.0690 -3.5062  2.1734
 8578SOL     OW37369   1.983   1.985  14.111 -0.0535  0.6126  0.6445
 8578SOL    HW137370   1.901   2.006  14.156 -2.3580  1.0635 -3.8029
 8578SOL    HW237371   1.973   1.890  14.105 -3.0072  0.8886  1.0570
 8579SOL     OW37372   2.172   0.290  16.345  0.1519  0.0225 -0.2689
 8579SOL    HW137373   2.210   0.326  16.425  1.1028  0.9429 -1.1297
 8579SOL    HW237374   2.217   0.354  16.290  1.0779  1.3905  2.0587
 8580SOL     OW37375   2.591   0.873   0.137  0.2322  0.1040 -0.2826
 8580SOL    HW137376   2.605   0.809   0.207 -1.4536 -1.8715 -1.7567
 8580SOL    HW237377   2.497   0.869   0.121  0.4037  0.0208 -1.2879
 8581SOL     OW37378   1.698   3.249   3.032  0.3982  0.2133  0.1323
 8581SOL    HW137379   1.648   3.307   2.975  0.8493  1.8832  1.4580
 8581SOL    HW237380   1.628   3.227   3.094  0.2039  0.4683  0.0001
 8582SOL     OW37381   4.236   1.339  10.806 -0.4018 -0.3698 -0.0411
 8582SOL    HW137382   4.231   1.264  10.747 -2.3174  1.3305 -2.0663
 8582SOL    HW237383   4.314   1.320  10.857 -1.3105 -0.4117  1.3387
 8583SOL     OW37384   1.258   0.380   7.579 -0.1189  0.2445 -0.4808
 8583SOL    HW137385   1.170   0.358   7.609  0.9691 -2.8686  0.3990
 8583SOL    HW237386   1.282   0.290   7.558 -1.3488 -0.0246 -0.7107
 8584SOL     OW37387   1.087   1.918   4.810  0.1021  0.0778  0.4297
 8584SOL    HW137388   1.101   1.884   4.898 -0.5191 -0.9207  0.1395
 8584SOL    HW237389   1.171   1.960   4.792  0.0589 -0.1294 -0.2406
 8585SOL     OW37390   3.684   4.025  15.007 -0.5111  0.0808 -0.3741
 8585SOL    HW137391   3.640   3.970  15.073 -1.5523 -0.2723 -1.3666
 8585SOL    HW237392   3.740   4.077  15.065 -1.6599 -1.7231  2.3914
 8586SOL     OW37393   3.835   4.020  14.768  0.6703  0.1123  1.1072
 8586SOL    HW137394   3.799   4.026  14.856 -0.5377  1.1935  0.5454
 8586SOL    HW237395   3.864   4.106  14.739  0.5263  0.5913  2.4092
 8587SOL     OW37396   3.018   0.309   7.278  0.1087 -0.2741  0.1538
 8587SOL    HW137397   2.948   0.329   7.339  2.6097  0.6647  2.7424
 8587SOL    HW237398   3.002   0.217   7.259  3.5510 -1.1482  1.3324
 8588SOL     OW37399   0.592   3.147  13.302 -0.2901  0.6771  0.0109
 8588SOL    HW137400   0.510   3.192  13.282 -1.4096 -0.0700  2.7935
 8588SOL    HW237401   0.618   3.197  13.380  1.5609  1.7981 -1.3408
 8589SOL     OW37402   3.651   1.035   0.020 -0.3867  0.4933 -0.3008
 8589SOL    HW137403   3.559   1.063   0.024  0.0014  2.0465 -1.9812
 8589SOL    HW237404   3.686   1.105   0.075  0.1425 -0.2297  0.2716
 8590SOL     OW37405   1.711   0.952  17.247 -0.5185  0.0757 -0.0043
 8590SOL    HW137406   1.647   0.940  17.177 -1.8093  1.1169  1.0043
 8590SOL    HW237407   1.785   0.952  17.187 -0.6768 -0.0210 -0.2007
 8591SOL     OW37408   2.242   1.355   6.110  0.3941 -0.4074 -0.1273
 8591SOL    HW137409   2.269   1.429   6.165 -1.2122 -0.7620  1.1390
 8591SOL    HW237410   2.152   1.340   6.138 -0.1147  0.5896 -1.2644
 8592SOL     OW37411   1.126   2.346   4.835 -0.4418 -0.0205  0.1280
 8592SOL    HW137412   1.063   2.336   4.764 -0.7718  0.9752  0.2891
 8592SOL    HW237413   1.201   2.306   4.791  0.2150 -0.0757  1.2925
 8593SOL     OW37414   1.237   3.453   9.714  0.0404 -0.3006 -0.4672
 8593SOL    HW137415   1.197   3.540   9.711  1.4075  0.4536  4.5857
 8593SOL    HW237416   1.228   3.419   9.802 -1.2217  1.0194 -0.0835
 8594SOL     OW37417   0.689   1.559   9.136  0.3935  0.2102 -0.0620
 8594SOL    HW137418   0.666   1.620   9.206 -1.6395 -1.2018  0.4994
 8594SOL    HW237419   0.680   1.476   9.183  3.1488  0.6070  1.2176
 8595SOL     OW37420   3.617   0.718   4.079 -0.4261 -0.7942  0.7900
 8595SOL    HW137421   3.607   0.684   4.168 -0.7256 -0.8218  0.7468
 8595SOL    HW237422   3.706   0.753   4.078 -0.7604  0.0605  0.8786
 8596SOL     OW37423   3.629   3.357  11.556 -0.4141 -0.0717 -0.2167
 8596SOL    HW137424   3.555   3.370  11.614 -0.0570 -1.4676  0.5553
 8596SOL    HW237425   3.661   3.272  11.587  1.4050  1.5057  2.3142
 8597SOL     OW37426   3.197   4.173   7.186 -0.1648  0.1850 -0.2566
 8597SOL    HW137427   3.165   4.220   7.110 -0.4610 -3.2515 -2.2872
 8597SOL    HW237428   3.155   4.226   7.253  2.3373  1.2700  0.4766
 8598SOL     OW37429   0.332   0.878   8.764 -0.3366 -0.2002 -0.3173
 8598SOL    HW137430   0.329   0.955   8.822  0.1794 -1.4220  1.3300
 8598SOL    HW237431   0.332   0.924   8.681 -0.8223 -1.2274 -0.8845
 8599SOL     OW37432   4.404   0.062  16.136 -0.8392 -0.2154  0.1817
 8599SOL    HW137433   4.476   0.122  16.116  0.2635 -1.3276  0.8394
 8599SOL    HW237434   4.442   0.004  16.201 -1.3025 -1.5115 -0.7135
 8600SOL     OW37435   1.957   3.927   5.344  0.0747  0.3953 -0.5740
 8600SOL    HW137436   1.869   3.951   5.374  0.0080 -0.4140 -0.1082
 8600SOL    HW237437   2.004   3.930   5.427  0.3607  1.6745 -0.7879
 8601SOL     OW37438   1.115   3.498   4.273  0.9706  0.9804 -0.0192
 8601SOL    HW137439   1.118   3.453   4.188 -0.7889 -1.0842  1.0176
 8601SOL    HW237440   1.083   3.583   4.243  2.7721  0.3650 -3.7375
 8602SOL     OW37441   2.801   4.032   6.499 -0.4442 -0.0931 -0.2808
 8602SOL    HW137442   2.822   4.112   6.548  0.3608 -0.9315  0.7590
 8602SOL    HW237443   2.707   4.046   6.486 -0.6511  0.2442  1.5052
 8603SOL     OW37444   2.930   2.303  17.178  0.6541 -0.1609  0.2607
 8603SOL    HW137445   2.898   2.321  17.090 -1.5458  1.9614  1.5098
 8603SOL    HW237446   2.986   2.380  17.188  0.1516 -0.1330  3.0019
 8604SOL     OW37447   3.376   3.867   2.501 -0.7114 -0.5839  0.3191
 8604SOL    HW137448   3.417   3.795   2.452 -0.5977 -0.7612  0.6787
 8604SOL    HW237449   3.425   3.945   2.477  0.6515 -0.6563  2.9073
 8605SOL     OW37450   4.641   1.466   3.408  0.2691  0.1213  0.0039
 8605SOL    HW137451   4.688   1.533   3.359  0.4998 -1.3228 -1.7578
 8605SOL    HW237452   4.596   1.531   3.463 -1.0619  0.0363 -0.9754
 8606SOL     OW37453   4.468   4.662   1.588 -0.0852 -0.1620  0.8376
 8606SOL    HW137454   4.405   4.638   1.656 -1.9004  0.9373 -0.4743
 8606SOL    HW237455   4.545   4.660   1.645  1.2354  0.8628 -0.9116
 8607SOL     OW37456   1.230   1.909   1.434  0.7916  0.4406 -0.1556
 8607SOL    HW137457   1.268   1.911   1.522  0.6282 -2.6010 -0.0133
 8607SOL    HW237458   1.173   1.985   1.438 -0.9440 -0.8105 -0.7966
 8608SOL     OW37459   1.419   2.790   9.380  0.1966  0.1760 -0.8386
 8608SOL    HW137460   1.460   2.740   9.308  0.3404  1.5130 -1.6831
 8608SOL    HW237461   1.469   2.751   9.452 -0.3147  0.4120 -0.3655
 8609SOL     OW37462   4.133   3.534  13.796  0.4563 -0.3976 -0.4075
 8609SOL    HW137463   4.146   3.628  13.812 -0.4578 -0.2863 -0.2970
 8609SOL    HW237464   4.219   3.504  13.766  1.3564  0.1952  1.5667
 8610SOL     OW37465   0.977   2.640   1.844  0.3000  0.3575 -0.0196
 8610SOL    HW137466   0.905   2.603   1.794 -0.8291  1.4018  0.8600
 8610SOL    HW237467   0.940   2.703   1.905  1.4174 -0.7119  1.7701
 8611SOL     OW37468   1.662   3.065   6.377  0.3637 -0.2396  0.2079
 8611SOL    HW137469   1.583   3.064   6.324  0.6912  0.0247 -0.2797
 8611SOL    HW237470   1.717   2.987   6.366 -1.2726 -1.5972  1.6015
 8612SOL     OW37471   1.496   3.181   0.106 -0.6887 -0.3565 -0.4361
 8612SOL    HW137472   1.591   3.181   0.096 -0.4377  0.6073  1.8538
 8612SOL    HW237473   1.477   3.238   0.181  0.6974 -1.8501  1.0503
 8613SOL     OW37474   1.444   2.094   5.011 -0.1552 -0.1112 -0.1876
 8613SOL    HW137475   1.384   2.144   5.066 -1.0828  0.8078 -2.0191
 8613SOL    HW237476   1.398   2.108   4.928  0.3713  0.5197 -0.3745
 8614SOL     OW37477   1.911   1.670  15.247  0.6722 -0.0767 -0.0930
 8614SOL    HW137478   1.837   1.639  15.299 -0.3701  0.9138 -0.9945
 8614SOL    HW237479   1.912   1.756  15.289 -0.9167 -0.0798 -0.0525
 8615SOL     OW37480   4.730   3.081   5.155 -0.3233  0.3035 -0.3557
 8615SOL    HW137481   4.694   3.030   5.083 -2.6873 -0.1664  1.1665
 8615SOL    HW237482   4.650   3.127   5.178 -1.8993 -2.1867 -0.8286
 8616SOL     OW37483   2.043   2.262   7.263 -0.2471  0.2835 -0.4818
 8616SOL    HW137484   2.059   2.336   7.323 -0.0162  0.5056 -0.8209
 8616SOL    HW237485   2.074   2.294   7.179 -1.4245 -0.0823 -1.0450
 8617SOL     OW37486   3.443   0.915  13.032  0.0304 -0.6561 -0.6268
 8617SOL    HW137487   3.524   0.954  12.998 -0.5333  0.0312 -1.1962
 8617SOL    HW237488   3.447   0.944  13.123 -0.0740 -2.1856 -0.1299
 8618SOL     OW37489   1.047   1.105   2.415 -0.4012  0.0020 -0.2655
 8618SOL    HW137490   0.990   1.117   2.339 -0.5459  0.5777 -0.0637
 8618SOL    HW237491   1.132   1.104   2.369  0.5838 -2.9188  1.5658
 8619SOL     OW37492   3.556   2.706   2.386 -0.1078 -0.6155  0.1346
 8619SOL    HW137493   3.477   2.723   2.335  1.1476  2.2629 -0.8374
 8619SOL    HW237494   3.623   2.678   2.324  0.0722 -0.6595  0.3506
 8620SOL     OW37495   1.179   1.689  14.912  0.1095 -0.9275 -0.3495
 8620SOL    HW137496   1.098   1.728  14.944 -0.4983 -0.8432 -1.9852
 8620SOL    HW237497   1.231   1.769  14.924 -2.0259  0.5832 -1.1645
 8621SOL     OW37498   4.581   0.471   7.062 -0.1240 -0.3592 -0.0848
 8621SOL    HW137499   4.652   0.442   7.121  1.3795 -0.0127 -1.7283
 8621SOL    HW237500   4.570   0.387   7.017 -0.6241  0.8967 -2.2732
 8622SOL     OW37501   3.515   4.178  16.737  0.0525 -0.0907 -0.1837
 8622SOL    HW137502   3.586   4.205  16.795  1.1249 -0.0779 -1.4928
 8622SOL    HW237503   3.544   4.200  16.648  1.3161  0.3988  0.3493
 8623SOL     OW37504   2.401   1.292   3.345 -0.0538 -0.7534  0.7759
 8623SOL    HW137505   2.398   1.202   3.378 -0.2628 -0.8921  0.3912
 8623SOL    HW237506   2.357   1.338   3.416 -0.1472  0.5186 -0.0963
 8624SOL     OW37507   2.347   2.100   2.114 -0.8360 -0.4100 -0.7605
 8624SOL    HW137508   2.347   2.049   2.195 -2.3730  2.4618  1.0517
 8624SOL    HW237509   2.253   2.109   2.096 -0.7432  0.3835 -0.8357
 8625SOL     OW37510   2.615   1.720   8.563  0.4418  0.1791 -0.2217
 8625SOL    HW137511   2.542   1.660   8.547 -0.3611  1.2970 -0.7527
 8625SOL    HW237512   2.571   1.792   8.608 -0.6460 -1.4301  1.3251
 8626SOL     OW37513   1.422   2.667   7.759 -0.2724 -0.1162  0.1871
 8626SOL    HW137514   1.414   2.610   7.683  1.0518  0.7867 -0.6326
 8626SOL    HW237515   1.516   2.655   7.773 -0.1998  0.9869  0.6560
 8627SOL     OW37516   2.393   0.925  17.154  0.8069  0.1225  0.2009
 8627SOL    HW137517   2.422   0.850  17.102 -0.6752 -1.9302  2.3263
 8627SOL    HW237518   2.476   0.973  17.155  1.2565 -0.6780  0.9917
 8628SOL     OW37519   0.527   2.567  15.685 -0.1940  0.3765 -0.4405
 8628SOL    HW137520   0.566   2.563  15.598  1.2725 -1.9950  0.3344
 8628SOL    HW237521   0.564   2.486  15.720  0.3811  2.3429  3.5166
 8629SOL     OW37522   3.120   3.949   3.938  0.5411  0.5098 -0.1360
 8629SOL    HW137523   3.158   3.886   3.877 -0.1013 -0.5346  0.5369
 8629SOL    HW237524   3.074   3.895   4.001 -2.1653 -0.8902 -3.3414
 8630SOL     OW37525   1.628   2.775   7.068  0.4040 -0.1620 -0.5424
 8630SOL    HW137526   1.693   2.763   7.137 -0.0206  2.4499  0.2963
 8630SOL    HW237527   1.591   2.859   7.095 -1.1503 -1.1916  0.5299
 8631SOL     OW37528   2.892   3.626  14.254  0.3717  0.5779  0.0705
 8631SOL    HW137529   2.833   3.627  14.178  0.6225  1.3932 -0.1058
 8631SOL    HW237530   2.974   3.616  14.207  0.4999  0.0192  0.4145
 8632SOL     OW37531   0.780   0.856  11.413  0.3134 -0.2026  0.2725
 8632SOL    HW137532   0.773   0.763  11.390 -2.1950  0.3376 -1.1449
 8632SOL    HW237533   0.725   0.897  11.346 -0.2119  0.4867  1.1190
 8633SOL     OW37534   0.033   0.289   3.843 -0.0967 -0.2592  0.1967
 8633SOL    HW137535   0.087   0.328   3.774  0.2441  3.0760  2.3355
 8633SOL    HW237536   0.050   0.339   3.923  3.5121  1.0787 -1.4366
 8634SOL     OW37537   4.195   2.585   9.369 -0.6209  0.3623 -0.6420
 8634SOL    HW137538   4.178   2.506   9.420 -0.2343  0.9285  0.3626
 8634SOL    HW237539   4.274   2.551   9.327 -1.0806 -0.6166 -0.7138
 8635SOL     OW37540   4.113   3.513   1.987 -0.2647 -0.4866  0.3253
 8635SOL    HW137541   4.059   3.554   1.921 -1.3485 -0.7651  1.0434
 8635SOL    HW237542   4.198   3.533   1.947  0.4147  0.0656  2.0351
 8636SOL     OW37543   3.277   1.710   1.711 -0.3240 -0.1146 -0.0337
 8636SOL    HW137544   3.205   1.761   1.747 -1.6500 -0.2144 -2.5829
 8636SOL    HW237545   3.350   1.768   1.734 -1.2333  1.2958 -0.7375
 8637SOL     OW37546   3.107   0.769   8.517 -0.1778 -0.0360 -0.0574
 8637SOL    HW137547   3.193   0.755   8.557 -0.0449  1.6915  0.2699
 8637SOL    HW237548   3.052   0.794   8.591 -0.9426 -0.5358 -0.4502
 8638SOL     OW37549   3.030   2.958   7.242  0.0472 -1.0102 -0.9815
 8638SOL    HW137550   2.979   3.007   7.177 -2.4370 -1.6891  0.4696
 8638SOL    HW237551   3.116   2.951   7.199 -0.7418 -1.8252 -2.4578
 8639SOL     OW37552   0.689   1.932  14.303  0.3200 -0.2838  0.4119
 8639SOL    HW137553   0.660   1.944  14.213  2.0782 -1.2540 -0.2933
 8639SOL    HW237554   0.687   1.837  14.309 -0.0615 -0.3011  0.0447
 8640SOL     OW37555   2.678   2.787   8.111 -0.3095  0.3701 -0.0562
 8640SOL    HW137556   2.740   2.856   8.086 -0.8389  0.6940 -0.4624
 8640SOL    HW237557   2.607   2.833   8.157 -1.4215 -0.9190 -0.4936
 8641SOL     OW37558   1.172   1.095   7.622 -0.1044 -0.2553  0.7243
 8641SOL    HW137559   1.256   1.122   7.659 -0.1505 -0.0147  0.6563
 8641SOL    HW237560   1.184   1.114   7.529  0.8707  0.1426  0.9314
 8642SOL     OW37561   0.251   0.481   7.348  0.4338 -0.0269 -0.3663
 8642SOL    HW137562   0.175   0.467   7.292  0.4058 -0.9779 -0.0857
 8642SOL    HW237563   0.252   0.577   7.354  1.5291 -0.0416 -0.3983
 8643SOL     OW37564   3.544   2.920   8.114  0.1862 -0.0360 -0.4923
 8643SOL    HW137565   3.625   2.960   8.081 -0.3903  0.8724 -0.7945
 8643SOL    HW237566   3.573   2.886   8.199 -0.2630 -1.9285 -1.1054
 8644SOL     OW37567   1.360   1.817   4.551 -0.1772  0.1825 -0.3304
 8644SOL    HW137568   1.309   1.736   4.554 -2.8716  1.8746 -0.5093
 8644SOL    HW237569   1.300   1.877   4.506 -1.3769 -2.4987 -2.3430
 8645SOL     OW37570   0.962   1.242   3.650 -0.1023  0.2764  0.3865
 8645SOL    HW137571   1.051   1.253   3.619 -1.0063  1.0318 -1.9107
 8645SOL    HW237572   0.909   1.278   3.579 -2.6233 -1.0523  1.5612
 8646SOL     OW37573   2.200   3.488   7.708  0.2339  0.3709  0.7187
 8646SOL    HW137574   2.156   3.554   7.762 -3.3284 -1.9048  0.5420
 8646SOL    HW237575   2.291   3.516   7.719  0.8325  0.4213 -4.3099
 8647SOL     OW37576   2.930   1.906   2.594  0.0332 -0.9692  0.2729
 8647SOL    HW137577   2.913   1.913   2.688  1.0298  2.2845  0.2151
 8647SOL    HW237578   2.962   1.995   2.582 -0.5177 -0.8806 -0.5421
 8648SOL     OW37579   0.097   1.673  17.718 -0.7570  0.5214 -0.4241
 8648SOL    HW137580   0.089   1.739  17.649  3.0914  0.8101 -0.6049
 8648SOL    HW237581   0.185   1.638  17.702 -1.1392 -0.4884 -0.2578
 8649SOL     OW37582   3.859   3.005   9.397  0.0785  0.2242  0.2391
 8649SOL    HW137583   3.936   2.963   9.359 -0.3983 -1.5943  1.2738
 8649SOL    HW237584   3.827   3.059   9.325 -0.5606  2.0622  1.9005
 8650SOL     OW37585   1.811   3.611  17.422  0.0280 -0.0303 -0.2747
 8650SOL    HW137586   1.742   3.561  17.378  1.5357 -1.0658 -1.4604
 8650SOL    HW237587   1.835   3.557  17.497 -1.5751  1.8932  1.6059
 8651SOL     OW37588   1.504   2.015   1.431  0.2343 -0.9451  0.9245
 8651SOL    HW137589   1.421   1.980   1.399  1.1170 -1.2249 -1.0750
 8651SOL    HW237590   1.557   1.951   1.384 -1.0872 -2.6816  1.7899
 8652SOL     OW37591   3.497   0.096   9.142 -0.1874 -0.2119  0.0035
 8652SOL    HW137592   3.513   0.142   9.224 -1.7746  0.8418 -0.2742
 8652SOL    HW237593   3.511   0.171   9.083 -1.1814 -1.6900 -2.1119
 8653SOL     OW37594   1.773   3.454  13.458 -0.1073 -0.2268  0.0378
 8653SOL    HW137595   1.714   3.379  13.448 -0.6813  0.1154  0.8986
 8653SOL    HW237596   1.823   3.425  13.534 -0.2358 -1.0552 -0.1875
 8654SOL     OW37597   1.248   1.026   8.738 -0.3321  0.2192 -0.0547
 8654SOL    HW137598   1.168   1.033   8.686 -0.0814  1.7361 -0.2471
 8654SOL    HW237599   1.314   1.017   8.670  1.1148 -0.4774  1.4347
 8655SOL     OW37600   2.036   4.582   3.872 -0.1178 -0.2489 -0.2105
 8655SOL    HW137601   2.046   4.507   3.930  0.6910  0.0029 -0.0282
 8655SOL    HW237602   2.116   4.632   3.886  0.6691 -1.3947 -0.6647
 8656SOL     OW37603   4.207   2.979  14.993 -0.0730  0.0504 -0.1022
 8656SOL    HW137604   4.208   3.007  15.085 -1.0335  1.2340 -0.4542
 8656SOL    HW237605   4.198   3.057  14.939  1.4094 -1.4054 -2.4343
 8657SOL     OW37606   2.587   3.415  12.087  0.0408 -0.0802 -0.3383
 8657SOL    HW137607   2.645   3.453  12.152 -0.8943 -0.7011  0.8489
 8657SOL    HW237608   2.588   3.327  12.124  0.6895 -0.2374 -0.7207
 8658SOL     OW37609   1.955   0.065   0.153 -0.0189 -0.0842 -0.3796
 8658SOL    HW137610   1.929   0.062   0.061 -0.6152 -0.4661 -0.1974
 8658SOL    HW237611   1.873   0.093   0.193  0.6286  0.9802  0.2111
 8659SOL     OW37612   3.589   2.009   9.478  0.2360  0.7712  0.2750
 8659SOL    HW137613   3.519   1.951   9.509  0.8091  0.0390  0.2133
 8659SOL    HW237614   3.638   2.021   9.559  2.5001  0.9659 -1.1296
 8660SOL     OW37615   3.628   3.314  10.705  0.0376 -0.2783 -0.1456
 8660SOL    HW137616   3.638   3.338  10.612 -0.7826 -0.2291 -0.2208
 8660SOL    HW237617   3.623   3.219  10.693 -0.4467 -0.0594 -1.6928
 8661SOL     OW37618   0.441   2.201   7.029 -0.2850  0.1523 -0.3345
 8661SOL    HW137619   0.444   2.114   7.070  1.2206  1.2871  1.9616
 8661SOL    HW237620   0.353   2.194   6.992 -0.3257  0.4862 -0.3018
 8662SOL     OW37621   2.301   4.492  14.831 -0.4068  0.5437 -0.0370
 8662SOL    HW137622   2.340   4.491  14.918  1.7375 -0.6043 -1.0079
 8662SOL    HW237623   2.325   4.581  14.808 -2.0652  0.1609 -3.2393
 8663SOL     OW37624   1.584   2.689   9.599  0.1428  0.3051 -0.1919
 8663SOL    HW137625   1.655   2.626   9.617 -0.2127 -0.1431 -0.3638
 8663SOL    HW237626   1.549   2.701   9.687 -0.3235  0.9389 -0.4721
 8664SOL     OW37627   2.525   0.861  10.370 -0.4658 -0.3691 -0.3408
 8664SOL    HW137628   2.564   0.778  10.342 -0.2958  0.5796 -2.9103
 8664SOL    HW237629   2.431   0.846  10.378 -0.5998 -0.7430 -2.5364
 8665SOL     OW37630   0.751   3.423   1.763 -0.0319 -0.5020 -0.5690
 8665SOL    HW137631   0.824   3.458   1.712  0.9675  0.7807  1.7526
 8665SOL    HW237632   0.685   3.414   1.694  0.8485 -1.6085 -1.2719
 8666SOL     OW37633   1.262   4.707   2.540 -0.1626 -0.4263  0.3022
 8666SOL    HW137634   1.273   4.645   2.612 -2.6554 -3.7142 -2.1338
 8666SOL    HW237635   1.340   0.024   2.557 -0.1367 -0.3579 -0.0163
 8667SOL     OW37636   1.722   0.482   3.067 -0.3361  0.2710 -0.4546
 8667SOL    HW137637   1.814   0.455   3.073 -1.0941 -1.9247  1.1772
 8667SOL    HW237638   1.681   0.411   3.018 -1.0200 -1.6888  2.9814
 8668SOL     OW37639   3.789   3.320   0.586 -0.0946 -0.2590 -0.0886
 8668SOL    HW137640   3.730   3.247   0.570 -0.8961  0.5859 -1.0448
 8668SOL    HW237641   3.815   3.306   0.677  1.3381  2.6737 -0.0303
 8669SOL     OW37642   1.857   2.773   8.786 -0.7958 -0.1969  0.0214
 8669SOL    HW137643   1.808   2.838   8.835 -2.9256 -0.5453 -1.6591
 8669SOL    HW237644   1.868   2.701   8.848 -0.3925 -1.4184 -1.4601
 8670SOL     OW37645   1.876   0.024   0.523  0.2733  0.2169  0.7047
 8670SOL    HW137646   1.856   0.078   0.447  1.3873 -1.0298 -0.4623
 8670SOL    HW237647   1.818   4.690   0.492 -0.8941  1.7773 -0.5834
 8671SOL     OW37648   4.287   4.566  10.997 -0.3842 -0.1104  0.1600
 8671SOL    HW137649   4.218   4.543  11.060  0.0850  1.2898  1.1878
 8671SOL    HW237650   4.316   4.652  11.026  2.8908 -0.2875 -2.6213
 8672SOL     OW37651   2.377   3.593  13.171  0.0273 -0.0606  0.2823
 8672SOL    HW137652   2.431   3.634  13.238  0.1052 -0.6112  0.5570
 8672SOL    HW237653   2.287   3.602  13.202  0.4840 -2.3865  2.2642
 8673SOL     OW37654   3.543   1.191  12.935 -0.2135  0.2933  0.2910
 8673SOL    HW137655   3.635   1.187  12.959 -0.7156 -0.5861  2.0956
 8673SOL    HW237656   3.533   1.286  12.928  2.7489  0.6294  0.6885
 8674SOL     OW37657   0.251   1.845   7.308 -0.0180  0.2550  0.1350
 8674SOL    HW137658   0.204   1.896   7.374  0.8203  0.7637  0.3285
 8674SOL    HW237659   0.178   1.806   7.260  0.3887  1.0008 -1.0773
 8675SOL     OW37660   1.040   1.412   9.305  0.7612  0.9713 -0.1783
 8675SOL    HW137661   0.974   1.468   9.346  1.3442  2.2062 -0.9345
 8675SOL    HW237662   1.099   1.408   9.381  1.1255  1.3917 -0.4423
 8676SOL     OW37663   0.618   4.026   5.093  0.2777  0.2647 -0.2655
 8676SOL    HW137664   0.558   3.969   5.142 -0.6021  1.3690 -0.0540
 8676SOL    HW237665   0.559   4.048   5.021  1.6397  0.7088 -1.2240
 8677SOL     OW37666   2.636   2.767   2.475 -0.0420 -0.2422 -0.4157
 8677SOL    HW137667   2.632   2.727   2.562 -0.2223 -0.9865 -0.7644
 8677SOL    HW237668   2.567   2.721   2.428 -2.7676 -0.2290  3.5671
 8678SOL     OW37669   0.105   0.828   6.913 -0.4347  0.4234  0.4373
 8678SOL    HW137670   0.119   0.839   6.818  0.1743 -1.7852  0.2803
 8678SOL    HW237671   0.196   0.811   6.938 -0.4345  1.5777  1.2181
 8679SOL     OW37672   1.730   2.175   3.122  0.0668  0.5544 -0.4421
 8679SOL    HW137673   1.709   2.228   3.045  1.6513  0.9343 -0.6107
 8679SOL    HW237674   1.699   2.087   3.098  1.5000  0.9896 -3.8529
 8680SOL     OW37675   2.983   2.360  11.032 -0.3604 -0.4985  0.0624
 8680SOL    HW137676   3.039   2.438  11.027 -1.2180  0.1685  0.7560
 8680SOL    HW237677   3.047   2.305  11.076 -0.2707  1.2436  2.1083
 8681SOL     OW37678   4.243   4.593  17.400 -0.0690 -0.0943 -0.2424
 8681SOL    HW137679   4.252   4.528  17.470 -0.3743 -0.0099 -0.1275
 8681SOL    HW237680   4.332   4.621  17.379  0.4209 -1.0539  0.5245
 8682SOL     OW37681   3.170   2.573   7.571 -0.9096  0.6202 -0.1659
 8682SOL    HW137682   3.232   2.639   7.602 -0.5164 -0.9216  2.3156
 8682SOL    HW237683   3.085   2.616   7.581 -1.5732 -0.5135 -0.9431
 8683SOL     OW37684   2.455   2.051   1.017  0.4013 -0.1410  0.6778
 8683SOL    HW137685   2.469   2.110   0.943  2.4663 -0.0883  1.0911
 8683SOL    HW237686   2.433   1.967   0.976  1.4031  1.0973 -2.4112
 8684SOL     OW37687   3.655   0.807   5.878 -0.0854 -0.2773  0.5070
 8684SOL    HW137688   3.694   0.892   5.897  0.6369 -0.6594  0.7481
 8684SOL    HW237689   3.580   0.823   5.822  0.8976  0.0889 -0.7121
 8685SOL     OW37690   3.038   2.338   5.278  0.0809 -1.0301 -0.2336
 8685SOL    HW137691   2.996   2.329   5.193 -1.7618  0.9237  0.4791
 8685SOL    HW237692   3.040   2.248   5.313  0.4297 -1.0261 -0.2445
 8686SOL     OW37693   2.399   2.364   2.721  0.1152  0.3076  0.1480
 8686SOL    HW137694   2.409   2.312   2.801 -1.2740  1.7103  1.2314
 8686SOL    HW237695   2.335   2.426   2.756 -0.2235 -1.0235  1.8932
 8687SOL     OW37696   0.147   2.891   1.311  0.4307  0.0548  0.0969
 8687SOL    HW137697   0.181   2.818   1.259 -2.4460 -0.3127 -1.2638
 8687SOL    HW237698   0.130   2.953   1.241 -0.1387 -1.3572 -1.0147
 8688SOL     OW37699   2.894   2.472   9.780  0.5333  0.2482 -0.0629
 8688SOL    HW137700   2.882   2.377   9.772  2.7100  0.1964 -2.6756
 8688SOL    HW237701   2.823   2.488   9.717 -0.7008 -2.7182  0.5875
 8689SOL     OW37702   3.800   2.346  17.190 -0.0081 -0.5574 -0.6956
 8689SOL    HW137703   3.735   2.391  17.137 -0.9613  0.4277  1.3096
 8689SOL    HW237704   3.815   2.421  17.249  0.1124 -0.5581 -0.7246
 8690SOL     OW37705   2.463   2.902   9.767 -0.2824 -0.2726  0.4456
 8690SOL    HW137706   2.488   2.940   9.682  2.7879 -4.4456 -0.5437
 8690SOL    HW237707   2.550   2.882   9.803  0.6327  2.2660 -0.3098
 8691SOL     OW37708   2.981   0.192   3.617 -0.2201  0.0570  0.1094
 8691SOL    HW137709   2.941   0.152   3.539  0.3540 -1.0316  0.3686
 8691SOL    HW237710   2.921   0.256   3.654 -1.0439 -1.2337  0.9958
 8692SOL     OW37711   2.343   2.664   0.921 -0.0062  0.1221 -0.0360
 8692SOL    HW137712   2.284   2.603   0.966  0.4237  0.2822  0.7417
 8692SOL    HW237713   2.391   2.697   0.996 -0.6585 -0.4799  0.6426
 8693SOL     OW37714   2.968   1.046  13.397 -0.1177 -0.2564 -0.3448
 8693SOL    HW137715   2.906   1.113  13.369  1.5355  1.2336 -0.4026
 8693SOL    HW237716   3.048   1.075  13.355 -0.2052  1.1343  0.4436
 8694SOL     OW37717   4.595   2.584   5.508  0.0431  0.2665 -0.7477
 8694SOL    HW137718   4.547   2.533   5.444  0.3604 -3.3872  1.8759
 8694SOL    HW237719   4.591   2.669   5.466  0.7023 -0.5218 -2.4260
 8695SOL     OW37720   3.102   1.835   3.839 -0.1977  0.2334 -0.3299
 8695SOL    HW137721   3.146   1.915   3.811  0.7694  0.1839  1.0595
 8695SOL    HW237722   3.115   1.773   3.767 -1.0135 -1.1506  0.7302
 8696SOL     OW37723   3.740   2.021   2.615  0.2996  0.0605 -0.3843
 8696SOL    HW137724   3.825   2.038   2.655  0.8700 -0.2079 -1.4846
 8696SOL    HW237725   3.701   2.109   2.612 -1.4818 -0.7215  0.3154
 8697SOL     OW37726   1.404   1.947  12.178 -0.0378  0.4962  0.1215
 8697SOL    HW137727   1.337   1.879  12.182  0.9458 -0.5323 -1.0318
 8697SOL    HW237728   1.429   1.953  12.086 -1.9145  0.3806 -0.4017
 8698SOL     OW37729   4.567   2.946   0.722  0.4836  0.4002 -0.1752
 8698SOL    HW137730   4.604   2.859   0.704 -1.1361  0.2771 -2.9753
 8698SOL    HW237731   4.615   2.979   0.797 -0.7789  0.9526  0.3936
 8699SOL     OW37732   4.330   4.248   3.653  0.5130  0.1126  0.8312
 8699SOL    HW137733   4.381   4.203   3.585  1.1933 -0.1144  1.4929
 8699SOL    HW237734   4.335   4.337   3.619 -1.2232  0.2047  0.8198
 8700SOL     OW37735   3.668   1.302   7.231  0.7579 -0.5891 -0.0465
 8700SOL    HW137736   3.629   1.222   7.267  0.5030 -0.6862 -0.5414
 8700SOL    HW237737   3.660   1.278   7.139 -4.5038  0.0499  0.2358
 8701SOL     OW37738   3.550   1.546   5.666  0.7002  0.2720  0.6630
 8701SOL    HW137739   3.518   1.457   5.681  0.8921  0.5091  2.4602
 8701SOL    HW237740   3.548   1.550   5.571 -0.8802  0.7030  0.7119
 8702SOL     OW37741   2.252   2.034  17.057 -0.1865  0.1918 -0.3021
 8702SOL    HW137742   2.340   2.066  17.079  0.4469 -3.0180  1.9450
 8702SOL    HW237743   2.261   2.012  16.964  3.4212 -0.4539  0.1890
 8703SOL     OW37744   4.555   1.030   5.694 -0.6445  0.1004  0.0026
 8703SOL    HW137745   4.528   1.079   5.772  0.4441  1.7419 -0.6386
 8703SOL    HW237746   4.562   0.942   5.731 -0.5543  0.4892  0.9377
 8704SOL     OW37747   4.317   3.717   2.722  0.3852 -0.1533  0.0049
 8704SOL    HW137748   4.348   3.745   2.808 -1.4273  1.7124  0.0412
 8704SOL    HW237749   4.231   3.690   2.756  0.0004 -1.1370 -1.7718
 8705SOL     OW37750   4.506   2.199  14.656 -0.5069 -0.3495 -0.0899
 8705SOL    HW137751   4.523   2.177  14.565  0.7196 -0.2878  0.1155
 8705SOL    HW237752   4.445   2.130  14.680 -0.4799 -0.6378 -0.8494
 8706SOL     OW37753   0.298   4.087   5.005 -0.2894  0.4375  0.1965
 8706SOL    HW137754   0.298   4.025   5.079 -2.5195  1.0448  0.6909
 8706SOL    HW237755   0.225   4.059   4.950  1.0878 -0.9408 -0.9578
 8707SOL     OW37756   3.978   1.639   3.123 -0.4554 -0.1089 -0.2430
 8707SOL    HW137757   3.884   1.644   3.138 -0.4508 -0.5230 -0.0884
 8707SOL    HW237758   3.994   1.546   3.140 -3.0379 -0.6035 -0.5912
 8708SOL     OW37759   2.950   1.802   4.874  0.1951 -0.2539 -0.3463
 8708SOL    HW137760   2.925   1.730   4.816 -1.3329  0.0858 -0.1070
 8708SOL    HW237761   3.043   1.783   4.891 -0.1202  1.0811  2.9964
 8709SOL     OW37762   4.176   3.991   6.283  0.0617 -0.1993  0.5017
 8709SOL    HW137763   4.197   3.901   6.308 -0.7676 -0.7757 -0.8909
 8709SOL    HW237764   4.091   3.987   6.238 -0.0893  1.1450  0.6807
 8710SOL     OW37765   0.430   2.818  16.008  0.0927 -0.4750 -0.2893
 8710SOL    HW137766   0.400   2.908  16.003 -1.4509 -1.0718 -1.5611
 8710SOL    HW237767   0.522   2.830  15.983 -0.3867 -0.1552 -1.8667
 8711SOL     OW37768   3.260   3.029  11.504 -0.4856  0.0786 -0.4277
 8711SOL    HW137769   3.272   2.936  11.487  0.4911  0.1404 -0.0609
 8711SOL    HW237770   3.194   3.063  11.443 -2.9334 -1.1807  1.4957
 8712SOL     OW37771   4.405   0.939  11.549 -0.0164  0.1834 -0.3106
 8712SOL    HW137772   4.374   0.986  11.626 -0.9512  0.7655 -1.0534
 8712SOL    HW237773   4.486   0.900  11.583 -0.1818 -1.9729 -2.3880
 8713SOL     OW37774   1.685   3.722   7.188  0.4421  0.3084 -0.2476
 8713SOL    HW137775   1.775   3.688   7.184  0.8843  1.3389  0.9537
 8713SOL    HW237776   1.661   3.759   7.103  0.8647 -0.2042 -0.5903
 8714SOL     OW37777   3.389   1.491   4.313 -0.4998  0.3085  0.0882
 8714SOL    HW137778   3.337   1.445   4.247 -1.0794  1.1395 -0.0375
 8714SOL    HW237779   3.321   1.535   4.366 -0.8976  0.8505 -0.8696
 8715SOL     OW37780   2.304   3.913   6.060  0.1371  0.8969 -0.1192
 8715SOL    HW137781   2.375   3.874   6.010 -1.3372  1.0549 -2.3270
 8715SOL    HW237782   2.281   3.862   6.138  1.7058 -0.5126 -0.5821
 8716SOL     OW37783   0.976   1.674   8.157  0.2750  0.4956  0.1798
 8716SOL    HW137784   0.962   1.621   8.079 -1.4796 -0.9225  1.4689
 8716SOL    HW237785   0.919   1.749   8.145 -1.0193 -0.6251 -0.6884
 8717SOL     OW37786   4.596   3.462   7.172 -0.3321  0.5102  0.2447
 8717SOL    HW137787   4.512   3.438   7.212 -0.1306 -1.8417 -0.7146
 8717SOL    HW237788   4.618   3.378   7.131  1.3615 -0.2538  2.7457
 8718SOL     OW37789   0.001   3.700   7.185  0.4210 -0.3010 -0.4767
 8718SOL    HW137790   4.690   3.620   7.159  1.3593 -1.1079  0.3536
 8718SOL    HW237791   4.662   3.761   7.181  0.0077 -0.9055 -2.1991
 8719SOL     OW37792   1.900   4.488   5.389 -0.3177  0.7383 -0.5424
 8719SOL    HW137793   1.898   4.406   5.339 -0.1341  0.0175  0.6430
 8719SOL    HW237794   1.977   4.482   5.445 -2.5178 -2.1780  2.1964
 8720SOL     OW37795   0.394   2.567   3.871  0.3066  0.4489 -0.0546
 8720SOL    HW137796   0.341   2.638   3.832 -0.2670  1.5150  2.6686
 8720SOL    HW237797   0.449   2.601   3.941  0.2886  1.4892 -0.5277
 8721SOL     OW37798   4.033   1.698  15.129  0.1380 -0.4298 -0.2861
 8721SOL    HW137799   4.096   1.770  15.130  0.3701 -0.6215 -1.0708
 8721SOL    HW237800   4.057   1.650  15.050  1.1287  1.3107 -1.0431
 8722SOL     OW37801   1.074   3.839   0.794 -0.2854  0.5737 -0.1633
 8722SOL    HW137802   1.028   3.829   0.710  1.3169 -0.2070 -0.9417
 8722SOL    HW237803   1.157   3.794   0.778 -0.4820  0.1618 -0.0200
 8723SOL     OW37804   0.945   0.532   6.408  0.3515 -0.0689 -0.7569
 8723SOL    HW137805   0.969   0.448   6.447  4.2599  1.1091 -0.5254
 8723SOL    HW237806   1.023   0.555   6.357 -0.0128 -0.3348 -1.4275
 8724SOL     OW37807   0.645   4.154   1.951  0.1726  0.0460 -0.2928
 8724SOL    HW137808   0.673   4.205   2.027  0.1977  0.3979 -0.5369
 8724SOL    HW237809   0.550   4.140   1.954  0.2595 -0.2359  0.8243
 8725SOL     OW37810   0.872   1.096   5.978  0.4692 -0.2576 -0.0338
 8725SOL    HW137811   0.864   1.082   6.072  0.6316 -1.6813 -0.2401
 8725SOL    HW237812   0.919   1.022   5.939  1.0159 -0.7609  1.5908
 8726SOL     OW37813   3.792   3.565   0.408  0.5047  0.6155  0.4193
 8726SOL    HW137814   3.767   3.475   0.432 -0.2773  0.9661  0.8913
 8726SOL    HW237815   3.716   3.615   0.437  1.0000  0.6656  1.6226
 8727SOL     OW37816   1.824   4.121   1.695 -0.1786 -0.0062  0.1269
 8727SOL    HW137817   1.799   4.213   1.687 -1.0689 -0.4925 -2.8805
 8727SOL    HW237818   1.750   4.079   1.653 -0.5554  0.9497 -0.1748
 8728SOL     OW37819   0.924   3.143   8.938 -0.3162 -0.3297  0.2683
 8728SOL    HW137820   0.997   3.206   8.933 -0.2648 -0.3120  1.3251
 8728SOL    HW237821   0.903   3.125   8.846 -0.8133  0.3794  0.2455
 8729SOL     OW37822   4.705   4.264   9.958 -0.0997  0.5015  0.2518
 8729SOL    HW137823   0.021   4.275  10.037  0.4630 -1.0244  0.0821
 8729SOL    HW237824   4.701   4.357   9.935  1.4876  0.9472  1.7586
 8730SOL     OW37825   1.836   2.342  12.632  0.0766 -0.0289  0.7153
 8730SOL    HW137826   1.768   2.398  12.596 -1.2996 -2.6682 -0.7597
 8730SOL    HW237827   1.824   2.262  12.582  0.5972  0.0963  0.3883
 8731SOL     OW37828   0.105   0.239   4.757  0.2498  0.3232 -0.1321
 8731SOL    HW137829   0.053   0.180   4.810 -2.0756  0.1885 -2.5506
 8731SOL    HW237830   0.041   0.310   4.747  0.0458  0.0328 -0.8815
 8732SOL     OW37831   3.788   2.384   2.790  0.3375  0.4085  0.5334
 8732SOL    HW137832   3.751   2.333   2.719 -2.9655  0.9952  1.8579
 8732SOL    HW237833   3.870   2.414   2.750  0.9454  0.7323  2.0115
 8733SOL     OW37834   4.391   4.240   5.186 -0.4850  0.4513  0.1589
 8733SOL    HW137835   4.448   4.202   5.252 -1.5173  1.2353  1.5146
 8733SOL    HW237836   4.346   4.161   5.158 -1.7338  1.9870 -2.2217
 8734SOL     OW37837   1.135   3.215   1.853  0.1691 -0.4093 -0.0229
 8734SOL    HW137838   1.128   3.161   1.774 -0.5504 -0.3624  0.0076
 8734SOL    HW237839   1.047   3.204   1.890 -0.2614 -1.8279 -1.4667
 8735SOL     OW37840   1.084   1.509   3.882  0.4731  0.5479 -0.5294
 8735SOL    HW137841   1.110   1.588   3.929  0.2340 -0.4684  1.3125
 8735SOL    HW237842   1.104   1.440   3.946  0.3003  0.2469 -0.7976
 8736SOL     OW37843   3.189   3.125   7.015  0.4829  0.0511  0.2381
 8736SOL    HW137844   3.190   3.150   6.922  1.8515 -1.2483 -0.0928
 8736SOL    HW237845   3.101   3.147   7.044 -0.1801 -2.2768  0.0144
 8737SOL     OW37846   2.869   0.620   1.795 -0.3630 -0.0155  0.1574
 8737SOL    HW137847   2.963   0.633   1.810 -0.2778 -0.3630 -0.0631
 8737SOL    HW237848   2.829   0.705   1.812  1.0135  0.7116 -0.2215
 8738SOL     OW37849   3.091   4.288   9.361 -0.2697  0.4328  0.0426
 8738SOL    HW137850   3.176   4.291   9.405  0.9840 -1.0444 -2.3255
 8738SOL    HW237851   3.105   4.361   9.301  2.2167  0.6622  0.8885
 8739SOL     OW37852   4.107   3.402   8.137  0.3332  0.3196  0.1819
 8739SOL    HW137853   4.032   3.369   8.087 -1.2357  1.7130  1.6324
 8739SOL    HW237854   4.116   3.338   8.207 -1.1174  0.6524  0.6743
 8740SOL     OW37855   4.400   0.007   2.198 -0.3607  0.6164  0.4573
 8740SOL    HW137856   4.392   4.648   2.212 -0.0336  0.6869  1.1230
 8740SOL    HW237857   4.321   0.041   2.241 -0.5113  0.1467  0.5595
 8741SOL     OW37858   0.498   3.610   6.585 -0.6138 -0.6623  0.0954
 8741SOL    HW137859   0.580   3.630   6.541 -1.0075  0.8811  0.0638
 8741SOL    HW237860   0.524   3.638   6.673 -0.0968  0.8970 -0.5489
 8742SOL     OW37861   4.096   2.766   2.625  0.7050 -0.0124  0.2184
 8742SOL    HW137862   4.033   2.772   2.553 -0.6341  1.0944  1.4822
 8742SOL    HW237863   4.094   2.673   2.647 -1.5009 -0.0402 -0.0560
 8743SOL     OW37864   4.519   3.773   1.561  0.1190 -0.0497  0.3320
 8743SOL    HW137865   4.555   3.861   1.572  1.3393 -0.5461  0.2943
 8743SOL    HW237866   4.494   3.747   1.650  1.4659 -0.3090  0.6378
 8744SOL     OW37867   1.008   0.030   1.832  0.3938  0.1432  0.0548
 8744SOL    HW137868   1.085   4.730   1.876  0.9678 -0.0035 -1.0769
 8744SOL    HW237869   1.001   0.118   1.870 -0.5164 -0.1444  0.5697
 8745SOL     OW37870   0.958   3.114   2.153  0.1754  0.1568 -0.0682
 8745SOL    HW137871   0.914   3.156   2.079  0.3845 -1.7359 -1.2504
 8745SOL    HW237872   0.891   3.086   2.215 -0.1802  0.5392 -0.2778
 8746SOL     OW37873   1.503   3.298   1.864 -0.5595 -0.1568  0.0891
 8746SOL    HW137874   1.485   3.205   1.879  1.8034 -0.2740  2.1460
 8746SOL    HW237875   1.593   3.290   1.833 -0.9386 -0.0855 -1.0318
 8747SOL     OW37876   1.089   2.179   6.323 -0.6272 -0.1119  0.3310
 8747SOL    HW137877   1.105   2.127   6.402 -0.7466 -0.3435  0.2015
 8747SOL    HW237878   1.179   2.187   6.292 -0.4245 -1.5259  0.5309
 8748SOL     OW37879   1.303   0.894   4.132 -0.0356  0.4009  0.1234
 8748SOL    HW137880   1.386   0.852   4.157  0.1682  2.5569  3.1589
 8748SOL    HW237881   1.254   0.880   4.213  2.5661  0.2942  1.7091
 8749SOL     OW37882   3.307   2.485   5.339 -0.0510  0.7558  0.3001
 8749SOL    HW137883   3.267   2.451   5.419  0.0234 -2.1417 -0.9181
 8749SOL    HW237884   3.228   2.496   5.287  0.6067  2.4680 -0.3377
 8750SOL     OW37885   2.986   3.006   4.576  0.6876 -0.1376  0.2088
 8750SOL    HW137886   3.048   2.961   4.519  1.2039  1.0524 -0.1781
 8750SOL    HW237887   3.034   2.990   4.657 -1.6057  0.3327  1.6671
 8751SOL     OW37888   3.869   2.627   4.039  0.1781 -0.3785  0.0855
 8751SOL    HW137889   3.843   2.604   3.950  1.6332 -1.9388  0.0640
 8751SOL    HW237890   3.789   2.676   4.057  0.9026  0.7790  0.1436
 8752SOL     OW37891   2.445   1.791   7.710  0.3284  0.0592 -0.1873
 8752SOL    HW137892   2.398   1.785   7.793  1.5866 -3.6741  0.2411
 8752SOL    HW237893   2.390   1.738   7.652 -3.7141  0.9357  2.8561
 8753SOL     OW37894   3.372   1.313   1.120  0.0258 -0.5058  0.1378
 8753SOL    HW137895   3.304   1.251   1.092 -0.2597  0.1622 -0.6537
 8753SOL    HW237896   3.449   1.265   1.150 -0.8079 -1.0852  1.3668
 8754SOL     OW37897   2.701   3.295  13.584 -0.7667  0.4730  0.3235
 8754SOL    HW137898   2.714   3.389  13.573 -1.4614  0.4844 -0.3752
 8754SOL    HW237899   2.787   3.274  13.547 -1.3837 -0.6547 -0.4405
 8755SOL     OW37900   2.608   4.616   3.365 -0.1697  0.5424 -0.1792
 8755SOL    HW137901   2.531   4.629   3.419  0.3563  1.7145  0.2833
 8755SOL    HW237902   2.651   4.559   3.428  0.9337  1.5288 -0.0485
 8756SOL     OW37903   4.032   4.168   2.530 -0.2255  0.0352  0.3697
 8756SOL    HW137904   4.040   4.098   2.595  1.0847  0.6456  0.8783
 8756SOL    HW237905   3.969   4.129   2.470  1.3441 -0.5609 -0.8870
 8757SOL     OW37906   4.188   1.477   2.746  0.4187 -0.3594 -1.0136
 8757SOL    HW137907   4.248   1.544   2.714  0.6388  0.2993  0.7947
 8757SOL    HW237908   4.213   1.397   2.699  1.2662 -1.1605  0.7897
 8758SOL     OW37909   1.045   0.064  13.360 -1.0113  0.4009  0.3523
 8758SOL    HW137910   1.092   0.127  13.305  0.8204 -1.4207 -0.1829
 8758SOL    HW237911   1.030   4.730  13.296  0.6275  0.1667  0.2246
 8759SOL     OW37912   3.409   4.493   0.596  0.2313  0.1589  0.0001
 8759SOL    HW137913   3.357   4.521   0.520 -1.0460  1.5362  1.3878
 8759SOL    HW237914   3.353   4.513   0.670  0.6954 -0.1732  0.4404
 8760SOL     OW37915   3.916   2.091  15.632 -0.2832  0.5515 -0.2684
 8760SOL    HW137916   3.906   2.082  15.727 -2.0687 -0.1845 -0.5206
 8760SOL    HW237917   3.991   2.033  15.623 -0.4829 -0.0687  1.9488
 8761SOL     OW37918   0.501   2.364  10.724 -0.1500 -0.0027  0.1979
 8761SOL    HW137919   0.511   2.438  10.665  0.9757 -0.3060  0.0190
 8761SOL    HW237920   0.466   2.408  10.802 -0.9822  0.0114 -0.1835
 8762SOL     OW37921   4.556   1.459  11.210 -0.1837 -1.0490 -0.2252
 8762SOL    HW137922   4.467   1.493  11.201  0.9383  1.8045 -0.3645
 8762SOL    HW237923   4.587   1.471  11.120  2.2588  3.8996  1.3204
 8763SOL     OW37924   1.780   2.910  12.923 -1.0494 -0.3192 -0.3759
 8763SOL    HW137925   1.766   2.831  12.975  2.4805 -0.4293  0.3783
 8763SOL    HW237926   1.686   2.930  12.918 -1.2656 -1.4116 -0.6418
 8764SOL     OW37927   3.714   4.450   6.114 -0.2751 -0.3347 -0.2061
 8764SOL    HW137928   3.746   4.360   6.115 -1.6796 -0.8362  0.7968
 8764SOL    HW237929   3.648   4.441   6.045 -0.8762  1.8851  0.0819
 8765SOL     OW37930   2.421   2.291   3.429  0.4179  0.7066  0.0229
 8765SOL    HW137931   2.492   2.258   3.373  2.2111  1.9242  1.6154
 8765SOL    HW237932   2.366   2.338   3.366 -0.6570  0.3227  0.6758
 8766SOL     OW37933   0.747   0.526  14.363  0.3095  0.2117  0.7244
 8766SOL    HW137934   0.790   0.486  14.438  0.2390 -0.7795  0.2420
 8766SOL    HW237935   0.812   0.492  14.301  1.2512  0.9806  1.2857
 8767SOL     OW37936   3.574   4.252   9.262 -0.3215 -0.2374  0.0174
 8767SOL    HW137937   3.499   4.278   9.315 -0.1867  0.9893 -0.3898
 8767SOL    HW237938   3.567   4.320   9.196 -5.2711 -0.6206  0.1054
 8768SOL     OW37939   2.828   1.520   6.976  0.1849  0.0666 -0.2445
 8768SOL    HW137940   2.835   1.483   7.064 -1.7036  0.1736 -0.0666
 8768SOL    HW237941   2.918   1.549   6.961  0.0756  0.3366 -0.3677
 8769SOL     OW37942   4.236   2.759   5.211  0.4660  0.1341 -0.0341
 8769SOL    HW137943   4.239   2.687   5.273 -0.8405 -1.1914 -1.5077
 8769SOL    HW237944   4.168   2.733   5.149 -0.2956 -0.6297  1.1273
 8770SOL     OW37945   0.737   3.634   1.948  0.5368  0.1490 -0.2893
 8770SOL    HW137946   0.763   3.556   1.900 -0.7745 -0.0973 -0.5961
 8770SOL    HW237947   0.686   3.592   2.018 -0.8041  0.7276 -0.9072
 8771SOL     OW37948   3.949   4.384   9.569 -0.4440  0.1475 -0.1522
 8771SOL    HW137949   3.997   4.408   9.649 -0.8200  2.4343 -0.6071
 8771SOL    HW237950   4.019   4.335   9.526 -0.8637 -1.0774  0.5502
 8772SOL     OW37951   3.747   2.464   3.532 -0.4816  0.4805  0.2733
 8772SOL    HW137952   3.679   2.423   3.478  0.1428  0.5750 -0.5793
 8772SOL    HW237953   3.741   2.552   3.494  0.1419  0.5662  0.3778
 8773SOL     OW37954   1.635   2.895  11.393  0.3428  0.8471  0.5868
 8773SOL    HW137955   1.585   2.874  11.472  1.2144  4.9614  2.2746
 8773SOL    HW237956   1.718   2.922  11.434 -0.5273  0.6445  2.4464
 8774SOL     OW37957   2.475   0.048  11.366  0.2985  0.1328 -0.2878
 8774SOL    HW137958   2.473   4.696  11.329  0.2876 -0.8122  1.9613
 8774SOL    HW237959   2.556   0.043  11.417  0.6951 -2.1092 -1.1594
 8775SOL     OW37960   1.077   4.355  12.800  0.0552 -0.2858  0.3364
 8775SOL    HW137961   1.112   4.405  12.874  1.2676 -0.8689  0.1543
 8775SOL    HW237962   0.998   4.402  12.774  0.0108 -0.3080  0.4333
 8776SOL     OW37963   2.572   3.112   4.274 -0.4593 -0.9635 -0.6895
 8776SOL    HW137964   2.565   3.105   4.369  0.4329  1.4218 -0.4466
 8776SOL    HW237965   2.499   3.172   4.257  0.6486  0.2158 -1.2863
 8777SOL     OW37966   1.370   3.224   5.289  0.3992  0.1064 -0.4921
 8777SOL    HW137967   1.421   3.291   5.333 -0.0037  0.2866 -0.2948
 8777SOL    HW237968   1.340   3.172   5.364 -0.0801  1.0131 -0.0577
 8778SOL     OW37969   1.702   1.886   3.107  0.0313  0.1367  0.2600
 8778SOL    HW137970   1.646   1.893   3.030  0.0352  0.5216  0.2927
 8778SOL    HW237971   1.787   1.864   3.068 -1.1590 -1.2542 -1.5343
 8779SOL     OW37972   0.985   2.007   8.164 -0.3619 -0.6639 -0.0637
 8779SOL    HW137973   0.991   2.074   8.095 -2.6268  0.3227  0.6754
 8779SOL    HW237974   0.898   1.968   8.153 -0.2204 -0.4746 -1.9080
 8780SOL     OW37975   1.972   2.899   9.600  0.1164  0.0261 -0.5655
 8780SOL    HW137976   1.953   2.980   9.552 -0.5149  1.0558  1.4375
 8780SOL    HW237977   2.021   2.857   9.529 -0.4442 -3.0584  0.8674
 8781SOL     OW37978   1.216   0.695   5.117  0.4104 -0.4215 -0.3922
 8781SOL    HW137979   1.205   0.682   5.212 -1.5809  0.3436 -0.5100
 8781SOL    HW237980   1.307   0.684   5.092  0.2355 -0.0653 -1.1920
 8782SOL     OW37981   0.516   2.361   9.267  0.0285 -0.5237  0.1432
 8782SOL    HW137982   0.482   2.379   9.179 -0.0376 -2.9129 -0.3316
 8782SOL    HW237983   0.514   2.444   9.314 -4.5994  0.2619 -1.4151
 8783SOL     OW37984   1.287   1.292  15.734 -0.1730  0.1347  0.7465
 8783SOL    HW137985   1.369   1.243  15.744  0.9374  1.9168  0.2474
 8783SOL    HW237986   1.311   1.343  15.657 -2.1290  0.1748  0.1647
 8784SOL     OW37987   2.717   4.336  12.512 -0.1658  0.2064 -0.3209
 8784SOL    HW137988   2.627   4.364  12.527 -0.5479 -1.1939  0.0152
 8784SOL    HW237989   2.765   4.413  12.543 -0.7754 -0.0857  1.3194
 8785SOL     OW37990   1.908   2.510  11.052  0.0703 -0.4426 -0.3946
 8785SOL    HW137991   1.997   2.542  11.068 -1.4587  1.6986  3.7490
 8785SOL    HW237992   1.875   2.532  11.139 -0.0320 -1.3352 -0.2147
 8786SOL     OW37993   2.661   0.245   8.026 -0.1463  0.6826  0.8548
 8786SOL    HW137994   2.716   0.218   8.099  0.9940  0.4685 -0.0878
 8786SOL    HW237995   2.713   0.305   7.972 -1.4363 -0.5001 -1.7503
 8787SOL     OW37996   2.471   3.762   8.429  0.6853  0.4053  0.1356
 8787SOL    HW137997   2.452   3.820   8.503  2.8775 -0.2031  1.1682
 8787SOL    HW237998   2.394   3.705   8.424  0.3895  0.9121 -1.1574
 8788SOL     OW37999   2.383   4.493   4.937  0.4881 -0.0499  0.0105
 8788SOL    HW138000   2.388   4.431   4.865  0.1614  1.2574 -1.1431
 8788SOL    HW238001   2.289   4.514   4.937  0.4231 -0.3351 -1.2737
 8789SOL     OW38002   1.362   0.493   4.018 -0.0452 -0.3006  0.1640
 8789SOL    HW138003   1.374   0.421   3.956 -1.9229 -0.3328 -0.1563
 8789SOL    HW238004   1.286   0.543   3.988  0.3009 -0.8679 -1.6426
 8790SOL     OW38005   4.511   1.537   4.657  0.2108  0.1780 -0.0176
 8790SOL    HW138006   4.599   1.569   4.679 -0.6877  2.2256  0.6232
 8790SOL    HW238007   4.516   1.447   4.690  0.3330  0.5555  0.9981
 8791SOL     OW38008   4.260   1.075  10.192 -0.4445 -0.2261  0.5654
 8791SOL    HW138009   4.309   1.157  10.204  1.5535 -1.0757 -1.6511
 8791SOL    HW238010   4.218   1.062  10.277  1.5097  1.4883  1.7902
 8792SOL     OW38011   0.382   1.790   7.538  0.4487 -0.2152  0.3427
 8792SOL    HW138012   0.339   1.779   7.453  1.0644 -1.2016  0.1534
 8792SOL    HW238013   0.464   1.741   7.527 -1.5390 -3.3191 -0.9797
 8793SOL     OW38014   1.316   3.413   3.519  1.1123  0.1110 -0.2961
 8793SOL    HW138015   1.239   3.405   3.463 -0.1413 -2.6810  1.8162
 8793SOL    HW238016   1.286   3.366   3.597  3.0645 -0.6086  0.0312
 8794SOL     OW38017   4.126   2.556   3.379  0.6366  0.2553  0.0767
 8794SOL    HW138018   4.114   2.577   3.286 -0.5164  0.6199  0.3089
 8794SOL    HW238019   4.207   2.507   3.367 -0.4792 -1.4019 -0.7270
 8795SOL     OW38020   1.688   4.460   9.456 -0.2837 -0.1966 -0.0049
 8795SOL    HW138021   1.619   4.410   9.499 -2.3810  1.5360 -1.3696
 8795SOL    HW238022   1.723   4.489   9.541 -0.4117 -1.8391  0.6257
 8796SOL     OW38023   2.838   2.891   8.400  0.4068 -0.3753  0.3621
 8796SOL    HW138024   2.833   2.986   8.384  1.5988 -0.4197 -0.2918
 8796SOL    HW238025   2.912   2.865   8.345 -0.5015 -0.7950 -0.6601
 8797SOL     OW38026   0.568   4.352  12.819 -0.8052  0.2360 -0.0119
 8797SOL    HW138027   0.570   4.259  12.796 -1.3004  0.1543  0.2774
 8797SOL    HW238028   0.541   4.387  12.734  0.0342  1.5055  0.2371
 8798SOL     OW38029   0.297   3.445  15.616 -0.3618  0.1667 -0.3623
 8798SOL    HW138030   0.379   3.410  15.650 -0.6833 -0.5616 -0.3402
 8798SOL    HW238031   0.300   3.445  15.521  0.3696  1.1806 -0.3425
 8799SOL     OW38032   2.619   2.565   8.284  0.0430 -0.8070 -0.1724
 8799SOL    HW138033   2.675   2.492   8.258  1.7587  0.3509  0.2227
 8799SOL    HW238034   2.652   2.641   8.236  0.8345 -0.5234  0.8191
 8800SOL     OW38035   2.068   2.345  11.330  0.0549 -0.4279  0.6390
 8800SOL    HW138036   2.126   2.268  11.329  2.5562  1.4522  0.2054
 8800SOL    HW238037   2.133   2.414  11.320  0.0757 -0.7366 -1.3092
 8801SOL     OW38038   2.477   1.909   6.927 -0.4789 -0.3412  0.1957
 8801SOL    HW138039   2.448   1.898   7.017  0.9386 -0.4147  0.6512
 8801SOL    HW238040   2.438   1.835   6.881  2.1620 -0.5531 -1.7594
 8802SOL     OW38041   4.407   0.493   4.700 -0.1269  0.7469  0.3870
 8802SOL    HW138042   4.490   0.459   4.669 -0.9351 -0.1191 -0.8160
 8802SOL    HW238043   4.441   0.526   4.783 -0.0868 -0.8436  0.9985
 8803SOL     OW38044   0.080   4.242   9.694  0.0797 -0.1260  0.1109
 8803SOL    HW138045   0.095   4.210   9.783  1.8264 -1.6967 -0.7361
 8803SOL    HW238046   4.721   4.247   9.706 -0.0281 -2.5518  0.2589
 8804SOL     OW38047   3.500   3.350   3.604 -0.3647  0.0844 -0.1528
 8804SOL    HW138048   3.494   3.410   3.677 -0.0132  0.4234 -0.4019
 8804SOL    HW238049   3.527   3.401   3.527  1.7255  0.6942  0.9838
 8805SOL     OW38050   1.532   3.211   6.024  0.0361 -0.5895 -0.4007
 8805SOL    HW138051   1.523   3.301   6.054 -0.1770 -0.2297 -1.5169
 8805SOL    HW238052   1.474   3.173   6.090 -1.5183  0.6760 -1.0293
 8806SOL     OW38053   1.718   1.791  12.944 -0.4794  0.3907  0.2361
 8806SOL    HW138054   1.768   1.824  13.019  1.6427 -2.7854  0.2374
 8806SOL    HW238055   1.702   1.871  12.894 -3.3093 -1.3677 -1.6459
 8807SOL     OW38056   0.569   0.091   2.709  0.6843 -0.2260  0.3614
 8807SOL    HW138057   0.479   0.070   2.736  0.7392 -1.9924 -0.7833
 8807SOL    HW238058   0.553   0.145   2.631 -0.5246  0.3165  0.9945
 8808SOL     OW38059   2.610   2.840   8.559 -0.1066 -0.2409  0.5860
 8808SOL    HW138060   2.571   2.919   8.521  0.2447 -0.6072 -0.5204
 8808SOL    HW238061   2.688   2.825   8.505  0.9214  2.1624  1.3551
 8809SOL     OW38062   2.729   1.347   0.859  0.1876  0.0639  0.8715
 8809SOL    HW138063   2.819   1.335   0.830 -0.4140 -1.2242 -0.4166
 8809SOL    HW238064   2.733   1.432   0.903  2.1294  0.8929 -0.9423
 8810SOL     OW38065   1.414   2.707   8.643  0.1902  0.4649 -0.1914
 8810SOL    HW138066   1.393   2.800   8.632  0.5160  0.4011 -1.3321
 8810SOL    HW238067   1.469   2.707   8.722  3.5988  1.4235 -2.5624
 8811SOL     OW38068   2.985   4.009   5.467 -0.5383  0.1180  0.2780
 8811SOL    HW138069   3.059   4.065   5.487 -0.7975  0.3790  0.5076
 8811SOL    HW238070   2.946   4.061   5.396  0.5750  1.1038  0.4051
 8812SOL     OW38071   0.812   1.193   2.231  0.7997  0.5925  0.1872
 8812SOL    HW138072   0.888   1.237   2.193  0.9189 -0.1246 -0.4076
 8812SOL    HW238073   0.784   1.260   2.293 -0.7510  0.2915 -0.1940
 8813SOL     OW38074   2.941   2.113   4.417 -0.6451  0.0482  0.1931
 8813SOL    HW138075   2.924   2.184   4.356 -0.8343 -0.3660 -0.2348
 8813SOL    HW238076   2.858   2.110   4.464 -1.9563 -2.2225 -2.2666
 8814SOL     OW38077   0.270   4.101   8.732 -0.1488  0.1647  0.3030
 8814SOL    HW138078   0.347   4.055   8.766 -0.1273  0.9984  1.3892
 8814SOL    HW238079   0.246   4.043   8.660 -0.0481  0.1234  0.3028
 8815SOL     OW38080   4.491   3.014   3.651  0.1859 -0.1796 -0.3703
 8815SOL    HW138081   4.457   3.103   3.657 -1.9329 -0.9206 -1.4390
 8815SOL    HW238082   4.442   2.969   3.719 -0.0338 -1.9556 -1.6968
 8816SOL     OW38083   0.709   3.518  12.164  0.2779  1.1582 -0.3839
 8816SOL    HW138084   0.786   3.570  12.182  0.1813  1.3717 -0.5946
 8816SOL    HW238085   0.663   3.563  12.093 -0.9307  1.6358  0.6915
 8817SOL     OW38086   3.701   4.516   2.633 -0.4921  0.0089  0.7049
 8817SOL    HW138087   3.666   4.429   2.647  1.2846 -0.7254  0.6255
 8817SOL    HW238088   3.625   4.572   2.617  0.5346  1.2191  0.0456
 8818SOL     OW38089   1.417   0.823  15.108 -0.6679 -0.3178  0.2871
 8818SOL    HW138090   1.475   0.839  15.034 -1.8537 -2.6511 -1.1477
 8818SOL    HW238091   1.411   0.727  15.108  1.0522 -0.4204 -0.4483
 8819SOL     OW38092   3.198   0.358   3.796 -0.3662  0.1909 -0.5304
 8819SOL    HW138093   3.282   0.397   3.822 -0.5770  0.3016 -0.0215
 8819SOL    HW238094   3.156   0.439   3.768 -2.4517 -0.5250  0.5534
 8820SOL     OW38095   0.979   3.207   5.912  0.4385  0.5193  0.0938
 8820SOL    HW138096   1.066   3.230   5.943  0.6250  0.9902 -0.7912
 8820SOL    HW238097   0.983   3.172   5.823  1.0817  1.0525 -0.0855
 8821SOL     OW38098   4.096   4.083   8.837  0.3575 -0.1252 -0.4068
 8821SOL    HW138099   4.017   4.054   8.792 -0.0604 -0.8954  0.8184
 8821SOL    HW238100   4.097   4.178   8.824 -0.1102 -0.2100 -1.0598
 8822SOL     OW38101   2.613   3.126   7.149  0.1943 -0.3955 -0.1444
 8822SOL    HW138102   2.521   3.103   7.165 -0.1379 -0.4827 -2.0980
 8822SOL    HW238103   2.608   3.163   7.060 -0.2116  0.3653  0.1989
 8823SOL     OW38104   2.811   1.088   8.378  0.1166  0.0679 -0.2062
 8823SOL    HW138105   2.790   1.089   8.471  2.9499 -0.5236  0.4346
 8823SOL    HW238106   2.858   1.005   8.366  0.8072  0.6107 -1.3438
 8824SOL     OW38107   1.514   2.416  14.245 -0.1200  0.3528 -0.0581
 8824SOL    HW138108   1.503   2.479  14.316 -0.7274  1.4745 -1.1331
 8824SOL    HW238109   1.607   2.428  14.227 -0.1297  0.4659 -0.0302
 8825SOL     OW38110   1.051   4.035   2.099 -0.4831  0.6355 -0.0174
 8825SOL    HW138111   1.018   3.986   2.023 -0.3833  0.3779  0.1073
 8825SOL    HW238112   1.069   4.116   2.051  1.6535 -0.8721 -1.7287
 8826SOL     OW38113   0.354   1.046   2.041 -0.1764  0.9170  0.0914
 8826SOL    HW138114   0.337   1.008   2.127 -1.0037  0.8151 -0.1202
 8826SOL    HW238115   0.370   0.960   2.002  0.8498 -0.1201  2.8427
 8827SOL     OW38116   4.401   0.541   1.522 -0.5136 -0.2873 -0.3797
 8827SOL    HW138117   4.373   0.609   1.584  2.8125  3.0216 -2.5883
 8827SOL    HW238118   4.413   0.595   1.444  0.1826  0.4674  0.2410
 8828SOL     OW38119   0.735   3.313   5.348 -0.2171  0.0045 -0.0106
 8828SOL    HW138120   0.813   3.258   5.347 -1.2137 -1.4094  1.3174
 8828SOL    HW238121   0.722   3.328   5.441 -3.9838 -1.3214 -0.3159
 8829SOL     OW38122   3.382   1.895   0.318  1.0340  0.2417  0.5882
 8829SOL    HW138123   3.336   1.879   0.400 -1.5034 -2.5808 -1.4217
 8829SOL    HW238124   3.365   1.988   0.302  0.1258 -0.0739 -0.2727
 8830SOL     OW38125   1.350   4.035  10.743  0.5881 -0.4294  0.2406
 8830SOL    HW138126   1.427   4.082  10.709 -1.0194  1.6489 -0.5064
 8830SOL    HW238127   1.388   3.973  10.806  1.5728 -0.8235 -0.7205
 8831SOL     OW38128   2.402   2.039   2.363 -0.2868  0.5975 -0.5793
 8831SOL    HW138129   2.427   1.952   2.394 -0.5237  1.6386  2.5784
 8831SOL    HW238130   2.347   2.064   2.437 -0.4672  1.0002 -0.8486
 8832SOL     OW38131   1.522   3.025   3.616 -0.5680 -0.0321  0.2990
 8832SOL    HW138132   1.520   3.094   3.550 -0.2413  0.6116  0.9665
 8832SOL    HW238133   1.499   3.070   3.697 -1.2534  1.0019 -0.4805
 8833SOL     OW38134   2.514   3.034   5.759 -0.0789 -0.0522  0.1613
 8833SOL    HW138135   2.588   3.000   5.809  1.7004  1.3766 -1.4780
 8833SOL    HW238136   2.494   2.956   5.706  0.9479 -0.4424  0.3469
 8834SOL     OW38137   3.003   2.100  14.343  0.0857  0.1934 -0.6293
 8834SOL    HW138138   3.064   2.104  14.270  0.3608 -2.0633 -0.5025
 8834SOL    HW238139   3.048   2.045  14.407  0.9640  2.5735  0.7943
 8835SOL     OW38140   1.649   2.200  15.509  0.1368 -0.1975  0.7264
 8835SOL    HW138141   1.699   2.122  15.532  0.6702 -0.4217 -1.1721
 8835SOL    HW238142   1.699   2.206  15.427 -1.9706 -0.6400 -0.6023
 8836SOL     OW38143   1.315   1.160   4.316 -0.0687  0.5961  0.1295
 8836SOL    HW138144   1.369   1.137   4.392 -1.5680 -1.3473  0.6024
 8836SOL    HW238145   1.233   1.168   4.365 -0.2745  0.4443 -0.1903
 8837SOL     OW38146   3.573   0.376   8.426 -0.0404  0.1039 -0.1501
 8837SOL    HW138147   3.580   0.445   8.492  1.4523 -0.7050  0.5379
 8837SOL    HW238148   3.525   0.305   8.468  0.0821  0.4372  0.5438
 8838SOL     OW38149   2.923   0.599  12.940  0.4470  0.3834  0.2529
 8838SOL    HW138150   2.889   0.619  13.027 -1.2713  1.3063 -0.6150
 8838SOL    HW238151   2.947   0.687  12.912 -2.7451  0.6567 -1.6380
 8839SOL     OW38152   3.396   0.599   7.953  0.1674  0.0949 -0.1902
 8839SOL    HW138153   3.384   0.530   7.888 -0.6558  0.8765 -0.8669
 8839SOL    HW238154   3.401   0.545   8.032  3.2515 -2.0525 -1.8718
 8840SOL     OW38155   3.848   1.895  16.063  0.3140 -0.2049  0.5687
 8840SOL    HW138156   3.799   1.817  16.088 -0.7979  0.0623 -0.7231
 8840SOL    HW238157   3.794   1.954  16.114  0.6904 -0.1050  0.8494
 8841SOL     OW38158   2.750   2.703   4.981 -0.1275 -0.2331 -0.2403
 8841SOL    HW138159   2.718   2.633   5.039  0.9541  0.0075  0.6561
 8841SOL    HW238160   2.694   2.700   4.904 -0.8370  0.0596  0.2575
 8842SOL     OW38161   2.432   1.595  12.277  0.9471  0.0385  0.1506
 8842SOL    HW138162   2.442   1.594  12.182 -2.2100 -2.7113 -0.1185
 8842SOL    HW238163   2.376   1.518  12.279 -1.3073  1.7247  1.8567
 8843SOL     OW38164   4.169   2.949   1.505 -0.3734  0.2711 -0.6128
 8843SOL    HW138165   4.251   2.904   1.485 -1.1502 -0.2055 -2.6975
 8843SOL    HW238166   4.195   2.997   1.584 -1.6571 -1.8427  1.0683
 8844SOL     OW38167   4.568   1.002  10.323  0.0053  0.1532  0.3143
 8844SOL    HW138168   4.571   0.950  10.403 -1.3512  0.3856  0.5253
 8844SOL    HW238169   4.618   0.944  10.266 -0.4553 -0.7393  0.8164
 8845SOL     OW38170   3.819   2.985  16.367 -0.5238 -0.1728  0.5417
 8845SOL    HW138171   3.765   2.934  16.428  0.6009  0.7311  2.3003
 8845SOL    HW238172   3.775   2.973  16.283 -1.3048  1.2971  0.7525
 8846SOL     OW38173   1.785   0.192  11.667 -0.0801 -0.3243 -0.3563
 8846SOL    HW138174   1.710   0.193  11.606  0.2307 -0.1422 -0.7353
 8846SOL    HW238175   1.853   0.222  11.607  2.0373 -1.5481  1.4488
 8847SOL     OW38176   4.209   4.241   5.530 -0.1374  0.8779 -0.5821
 8847SOL    HW138177   4.162   4.209   5.452 -0.6247 -0.9827  0.4617
 8847SOL    HW238178   4.250   4.157   5.548  0.0569  1.0243 -0.3572
 8848SOL     OW38179   2.510   3.348   6.431 -0.0278  0.1739 -0.0145
 8848SOL    HW138180   2.531   3.436   6.463 -0.8091  0.6105 -0.6964
 8848SOL    HW238181   2.500   3.369   6.338 -2.7278 -1.3831 -0.0661
 8849SOL     OW38182   1.573   4.340   4.169  0.6023  0.8946 -0.6166
 8849SOL    HW138183   1.515   4.335   4.245 -0.1010  2.4678 -1.0481
 8849SOL    HW238184   1.658   4.339   4.212  1.6706  0.7106 -2.7226
 8850SOL     OW38185   1.273   3.231   3.732  0.2825 -0.0222 -0.0268
 8850SOL    HW138186   1.306   3.231   3.821 -0.3310  1.2154  0.2011
 8850SOL    HW238187   1.257   3.137   3.719  1.2132 -0.2446  0.4981
 8851SOL     OW38188   0.352   0.895   1.147 -0.6857  0.2753  0.8158
 8851SOL    HW138189   0.433   0.860   1.184 -0.5086 -0.4002 -0.2297
 8851SOL    HW238190   0.371   0.934   1.062  0.4557 -1.5251  0.2546
 8852SOL     OW38191   2.275   1.646   7.553 -0.3440  0.1779  0.3634
 8852SOL    HW138192   2.333   1.591   7.501 -1.3827 -0.4725 -0.1193
 8852SOL    HW238193   2.201   1.584   7.559  0.5013 -0.8902 -0.3388
 8853SOL     OW38194   1.579   1.467   2.316 -0.0823  0.3609  0.4255
 8853SOL    HW138195   1.608   1.420   2.238  0.2908  2.1565 -0.5227
 8853SOL    HW238196   1.629   1.548   2.304 -0.8188  0.7775  0.1608
 8854SOL     OW38197   4.029   3.641   0.513 -0.4816  0.2886  0.7158
 8854SOL    HW138198   3.937   3.637   0.486 -0.1995  1.3686 -0.4046
 8854SOL    HW238199   4.069   3.706   0.455 -1.1815  0.9510  0.9704
 8855SOL     OW38200   1.471   3.428   5.494 -0.0911 -0.1342  0.5656
 8855SOL    HW138201   1.390   3.456   5.537 -0.2501 -0.7752  0.6902
 8855SOL    HW238202   1.506   3.366   5.558 -0.9611  1.1134  2.2574
 8856SOL     OW38203   0.221   0.067  11.225 -0.5003 -0.2561 -0.1197
 8856SOL    HW138204   0.253   0.004  11.289 -0.2241 -1.0146 -1.0067
 8856SOL    HW238205   0.297   0.070  11.167 -1.3073  3.2653 -1.0352
 8857SOL     OW38206   2.292   2.810   7.260  0.0400  0.0612 -0.0772
 8857SOL    HW138207   2.359   2.766   7.207 -0.6743 -0.5118 -0.4983
 8857SOL    HW238208   2.312   2.766   7.342 -1.4628 -0.0445  0.2206
 8858SOL     OW38209   1.280   1.250  10.409  0.2837 -0.3315  0.3098
 8858SOL    HW138210   1.256   1.205  10.490 -0.3889 -0.4657  0.0333
 8858SOL    HW238211   1.374   1.234  10.410  0.5691  1.3610 -0.9079
 8859SOL     OW38212   4.263   0.626   8.989 -0.0139  0.5397  0.5221
 8859SOL    HW138213   4.239   0.561   9.055 -2.5954 -0.1285 -1.0958
 8859SOL    HW238214   4.355   0.605   8.971 -0.3930  0.6280 -1.4832
 8860SOL     OW38215   2.508   2.597  13.810  0.0282 -0.7104  1.1975
 8860SOL    HW138216   2.506   2.537  13.885 -3.5095 -1.0642  0.8392
 8860SOL    HW238217   2.580   2.655  13.834  2.6439 -3.7907  0.8119
 8861SOL     OW38218   2.266   4.531   4.681 -0.3556  0.6445 -0.3210
 8861SOL    HW138219   2.201   4.502   4.745  0.8721  0.9470  1.0652
 8861SOL    HW238220   2.219   4.506   4.601 -0.5923 -0.1163  0.0526
 8862SOL     OW38221   3.969   0.298   2.514  0.2225 -0.1311  0.5561
 8862SOL    HW138222   3.964   0.291   2.419 -3.1850 -2.1340  0.9009
 8862SOL    HW238223   3.895   0.352   2.538  0.7121  1.0675 -0.6364
 8863SOL     OW38224   3.892   3.402   1.495 -0.1693  0.7496  0.5961
 8863SOL    HW138225   3.867   3.494   1.497  2.2041  1.4114  0.1234
 8863SOL    HW238226   3.838   3.357   1.430  1.5073  0.5154 -0.6375
 8864SOL     OW38227   1.208   2.283   5.485  0.4924 -0.2043 -0.4512
 8864SOL    HW138228   1.128   2.310   5.528  1.2536  0.5248  0.4952
 8864SOL    HW238229   1.257   2.254   5.562 -1.2391 -0.3206  0.5939
 8865SOL     OW38230   2.676   1.655   7.819  0.2395  0.2804 -0.0053
 8865SOL    HW138231   2.632   1.593   7.876 -0.7570  1.1021  0.1069
 8865SOL    HW238232   2.603   1.705   7.783 -0.5441  1.2132  2.9321
 8866SOL     OW38233   3.955   4.280  14.397 -0.5502 -0.6373 -0.2466
 8866SOL    HW138234   4.001   4.212  14.445 -0.9954 -1.2772 -0.7307
 8866SOL    HW238235   4.012   4.300  14.324  0.6746 -2.9744  0.0815
 8867SOL     OW38236   0.400   0.753  11.615 -0.8678 -0.4616 -0.3945
 8867SOL    HW138237   0.431   0.714  11.697 -1.9973 -1.4413 -0.4348
 8867SOL    HW238238   0.434   0.841  11.629  0.5545 -0.8051 -1.6579
 8868SOL     OW38239   4.580   4.562   7.806 -0.0092 -0.1473 -0.5092
 8868SOL    HW138240   4.504   4.611   7.837  1.4914  1.0117  1.3859
 8868SOL    HW238241   4.610   4.633   7.749  0.1697  0.8129  0.7605
 8869SOL     OW38242   3.652   1.469   1.812 -0.1786 -0.1808 -0.1772
 8869SOL    HW138243   3.570   1.496   1.853 -0.6247 -0.6494 -0.7730
 8869SOL    HW238244   3.639   1.498   1.722  2.4340 -1.2555 -0.9220
 8870SOL     OW38245   1.312   2.195  12.553  0.6509  0.7524  0.1959
 8870SOL    HW138246   1.383   2.133  12.534 -0.6100  0.0739 -2.3394
 8870SOL    HW238247   1.352   2.282  12.549 -0.6806  1.3254 -0.5886
 8871SOL     OW38248   2.001   2.300   5.577  0.2237 -0.0740  0.7710
 8871SOL    HW138249   2.045   2.366   5.629 -2.7787  1.2981  1.5979
 8871SOL    HW238250   1.912   2.335   5.568 -0.4293 -1.9774 -0.3743
 8872SOL     OW38251   2.915   1.217   7.976 -0.1202  1.1292 -0.5258
 8872SOL    HW138252   2.883   1.168   7.900 -2.5381  1.6370  0.1690
 8872SOL    HW238253   2.871   1.300   7.960 -0.7655  0.5500 -1.7814
 8873SOL     OW38254   1.291   0.079   4.363 -0.1737 -0.5225  1.1108
 8873SOL    HW138255   1.327   0.086   4.275  0.4530 -0.3348  1.3762
 8873SOL    HW238256   1.294   0.173   4.384  0.9210 -0.1414 -0.7334
 8874SOL     OW38257   1.846   1.139   3.732 -0.1478 -0.0092 -0.2390
 8874SOL    HW138258   1.794   1.218   3.743  0.9073  0.8800 -1.7389
 8874SOL    HW238259   1.889   1.148   3.817  1.5207 -0.9004 -0.9754
 8875SOL     OW38260   3.395   1.419   5.329  0.1330 -0.4828 -0.0303
 8875SOL    HW138261   3.333   1.464   5.387  1.2971  0.9017  0.1419
 8875SOL    HW238262   3.472   1.473   5.349  2.2752 -3.7685  0.5379
 8876SOL     OW38263   0.556   4.436   4.034  0.7734  0.2803 -0.2461
 8876SOL    HW138264   0.525   4.474   3.952 -0.8394  2.3014  1.2784
 8876SOL    HW238265   0.643   4.478   4.034  0.6607  0.5116 -0.9413
 8877SOL     OW38266   4.105   4.137   6.895  0.2793 -0.2782  0.1577
 8877SOL    HW138267   4.075   4.046   6.900 -1.5970  0.2864 -0.9084
 8877SOL    HW238268   4.101   4.169   6.985  1.0445  1.7762 -0.5415
 8878SOL     OW38269   2.221   0.111   5.537  0.1808 -0.2682 -0.0999
 8878SOL    HW138270   2.298   0.054   5.536 -1.6303 -2.7424  1.0010
 8878SOL    HW238271   2.216   0.130   5.443 -1.3815  1.7655  0.3854
 8879SOL     OW38272   0.185   2.265  17.150 -0.9569  0.0377  0.4707
 8879SOL    HW138273   0.128   2.200  17.108 -1.9640  0.8222  0.6395
 8879SOL    HW238274   0.143   2.292  17.232  1.0695  0.5235  1.3675
 8880SOL     OW38275   0.460   3.813   8.444  0.4442  0.2526 -0.5734
 8880SOL    HW138276   0.481   3.862   8.365  1.5417  1.4325  0.4488
 8880SOL    HW238277   0.490   3.726   8.419 -2.3755 -1.1261  0.8071
 8881SOL     OW38278   2.159   4.479   5.484  0.0466  0.5089  0.1792
 8881SOL    HW138279   2.219   4.553   5.473  1.1752 -0.3740  0.3467
 8881SOL    HW238280   2.222   4.407   5.477 -0.4973  0.3711 -3.0179
 8882SOL     OW38281   4.034   3.339  13.500  0.1192 -0.1279  0.0761
 8882SOL    HW138282   4.107   3.399  13.488 -0.5036  0.4471 -0.8142
 8882SOL    HW238283   4.065   3.267  13.446  0.7881 -0.2167  0.5817
 8883SOL     OW38284   3.280   3.244   3.484  0.2911  0.0971  0.0863
 8883SOL    HW138285   3.351   3.301   3.514  0.7240 -0.1257 -0.5133
 8883SOL    HW238286   3.251   3.296   3.409  0.9463 -1.4538 -1.2324
 8884SOL     OW38287   0.992   4.098   4.809 -0.0072  0.0760 -0.3950
 8884SOL    HW138288   0.941   4.084   4.889  1.7054 -0.6358  0.5918
 8884SOL    HW238289   0.980   4.192   4.794 -0.4542 -0.0104 -0.5544
 8885SOL     OW38290   3.962   1.548   2.394 -0.3310 -0.0747  0.1394
 8885SOL    HW138291   4.000   1.461   2.380 -2.9003 -1.0861 -0.6293
 8885SOL    HW238292   3.873   1.532   2.426 -0.9785  0.8795 -1.1378
 8886SOL     OW38293   3.662   1.745   6.244 -0.1458  0.4784  0.4045
 8886SOL    HW138294   3.569   1.734   6.222 -0.7778  1.4947  2.4955
 8886SOL    HW238295   3.681   1.838   6.229 -0.8488  0.6582  0.6211
 8887SOL     OW38296   4.220   1.502   7.187 -0.0840  0.2224  0.4954
 8887SOL    HW138297   4.146   1.496   7.127  1.7974 -1.7252 -1.6414
 8887SOL    HW238298   4.261   1.415   7.185  1.0338  0.7414  0.8793
 8888SOL     OW38299   3.108   3.580  17.548 -0.4243  0.1195 -0.3696
 8888SOL    HW138300   3.178   3.625  17.596 -2.2170  2.4945 -0.0294
 8888SOL    HW238301   3.036   3.585  17.611  1.8964  0.8781  2.2280
 8889SOL     OW38302   1.989   0.241   7.900 -0.8494 -0.1078  0.4492
 8889SOL    HW138303   2.042   0.241   7.820  0.0562  0.6638  1.0443
 8889SOL    HW238304   1.982   0.149   7.926 -0.5959  0.4988  2.6903
 8890SOL     OW38305   1.579   0.192  14.704  0.1899 -0.9104  0.2719
 8890SOL    HW138306   1.494   0.153  14.722 -0.2975 -0.0915 -0.2679
 8890SOL    HW238307   1.631   0.141  14.767  1.3746  2.6804  2.1922
 8891SOL     OW38308   3.322   0.489   6.290  0.5329  0.0879 -0.3744
 8891SOL    HW138309   3.350   0.523   6.206 -0.3250 -1.1013 -1.1487
 8891SOL    HW238310   3.332   0.575   6.330  2.1365 -0.6377  0.7673
 8892SOL     OW38311   2.345   2.157  15.215  0.0406 -0.3781 -0.3247
 8892SOL    HW138312   2.404   2.107  15.271 -0.4248 -2.0908 -1.3928
 8892SOL    HW238313   2.366   2.129  15.126 -0.1342 -2.2402  0.2263
 8893SOL     OW38314   1.962   3.954  10.861 -0.2921 -0.2958  0.4555
 8893SOL    HW138315   1.924   3.902  10.789 -0.6405 -1.4243  1.4446
 8893SOL    HW238316   1.955   4.046  10.838  0.4170  0.0006  1.4512
 8894SOL     OW38317   2.826   4.424  17.101  0.3500 -0.0715  0.7949
 8894SOL    HW138318   2.913   4.385  17.110 -0.0911 -1.5306 -1.3158
 8894SOL    HW238319   2.777   4.367  17.160  0.2912 -1.2355 -0.3875
 8895SOL     OW38320   1.732   4.375  11.731 -0.2937 -0.3123  0.0040
 8895SOL    HW138321   1.826   4.362  11.731 -0.2200  0.2098 -1.8125
 8895SOL    HW238322   1.709   4.399  11.821 -3.0688 -0.9655 -0.5075
 8896SOL     OW38323   2.446   0.022  14.304  0.6028  0.3195 -0.7437
 8896SOL    HW138324   2.462   4.681  14.359 -0.6075  0.1732 -0.5963
 8896SOL    HW238325   2.501   0.082  14.355  0.6885  0.2834 -0.7935
 8897SOL     OW38326   0.975   1.432   5.304  0.0438 -0.6224  0.1712
 8897SOL    HW138327   0.962   1.337   5.309 -2.0760 -0.3662 -0.5054
 8897SOL    HW238328   1.070   1.434   5.292  0.0804 -1.6481  0.2687
 8898SOL     OW38329   2.181   3.061   1.307 -0.0443  0.5208  0.2122
 8898SOL    HW138330   2.176   2.968   1.329  1.3147  0.2583 -0.5410
 8898SOL    HW238331   2.106   3.058   1.248 -0.5739  0.1037  0.9096
 8899SOL     OW38332   2.900   2.223   1.218 -0.0641 -0.5849  0.1692
 8899SOL    HW138333   2.972   2.285   1.223 -1.1154  0.7877 -1.9466
 8899SOL    HW238334   2.922   2.169   1.142  0.1042  1.3430 -1.1365
 8900SOL     OW38335   1.983   4.348   2.724  0.4126 -0.6117 -0.3847
 8900SOL    HW138336   1.996   4.305   2.809  2.4894  2.1373  0.7097
 8900SOL    HW238337   2.032   4.428   2.745 -0.5841  0.0564 -0.6377
 8901SOL     OW38338   1.428   2.289  15.165  0.1087 -0.7219  0.3559
 8901SOL    HW138339   1.506   2.343  15.175  0.2965 -1.2139  1.6054
 8901SOL    HW238340   1.369   2.356  15.131  1.3114  0.0214 -0.2796
 8902SOL     OW38341   3.856   2.363   2.058 -0.1576 -0.1764  0.4837
 8902SOL    HW138342   3.844   2.404   1.973  0.8984 -1.8858 -0.4812
 8902SOL    HW238343   3.950   2.366   2.075 -0.0700 -1.6025  0.2447
 8903SOL     OW38344   0.331   2.071  10.539 -0.0569  0.1489 -0.1627
 8903SOL    HW138345   0.422   2.100  10.537 -0.0989  0.2045 -1.2518
 8903SOL    HW238346   0.290   2.155  10.518 -1.2833 -0.6641 -1.0037
 8904SOL     OW38347   0.309   4.344   6.023  1.0169 -0.3280 -0.5247
 8904SOL    HW138348   0.300   4.249   6.031  1.0622 -0.1497  1.6798
 8904SOL    HW238349   0.271   4.372   6.106  1.8791 -0.2563 -0.1510
 8905SOL     OW38350   2.612   2.382   2.556 -0.3463 -0.7997  0.0329
 8905SOL    HW138351   2.559   2.325   2.499 -1.4103 -0.1029  0.3278
 8905SOL    HW238352   2.543   2.431   2.601 -1.1877 -0.1319 -1.9586
 8906SOL     OW38353   2.642   0.970  13.559  0.4353  0.5357  0.2183
 8906SOL    HW138354   2.586   1.036  13.518 -1.9321 -0.7721  1.3605
 8906SOL    HW238355   2.602   0.968  13.646 -1.4009 -1.5459 -0.6571
 8907SOL     OW38356   3.601   1.484  12.861  0.3223 -0.8263 -0.8196
 8907SOL    HW138357   3.661   1.548  12.824 -2.2445  2.2292  0.2637
 8907SOL    HW238358   3.621   1.502  12.953 -1.2063  1.1965 -0.8852
 8908SOL     OW38359   3.439   1.758   3.554 -0.4538  0.4654  0.2661
 8908SOL    HW138360   3.430   1.843   3.596  0.1827 -0.4828  2.3726
 8908SOL    HW238361   3.347   1.734   3.555 -0.0138 -1.3155 -1.3737
 8909SOL     OW38362   3.478   1.960   4.601  0.2033  0.6205  0.6613
 8909SOL    HW138363   3.545   1.950   4.534 -2.4215 -2.4150 -1.4758
 8909SOL    HW238364   3.424   2.029   4.561  0.9972  2.0174  1.9895
 8910SOL     OW38365   3.416   0.898   9.429 -0.1599 -0.0741 -0.3117
 8910SOL    HW138366   3.447   0.810   9.448 -1.4187 -0.6339 -0.9229
 8910SOL    HW238367   3.326   0.873   9.408 -0.4308 -0.8796  1.7892
 8911SOL     OW38368   1.954   2.407  14.372 -0.4106  0.2430 -0.2052
 8911SOL    HW138369   1.913   2.430  14.289 -1.7199 -3.1971 -0.5045
 8911SOL    HW238370   1.943   2.492  14.415  1.7951  0.7841 -0.6741
 8912SOL     OW38371   2.476   1.831   5.813  0.3873 -0.2423 -1.0188
 8912SOL    HW138372   2.428   1.794   5.739 -0.2843  0.5738 -0.9887
 8912SOL    HW238373   2.539   1.760   5.827  0.1645 -0.2361  0.0556
 8913SOL     OW38374   1.765   3.839  14.918 -0.2497 -0.5672 -0.0848
 8913SOL    HW138375   1.738   3.918  14.871 -2.6697 -1.0695  0.4342
 8913SOL    HW238376   1.681   3.824  14.962  1.5283  1.1121  3.9422
 8914SOL     OW38377   2.133   3.968   9.134 -0.7204  0.1578 -0.6701
 8914SOL    HW138378   2.151   4.031   9.203 -0.8693 -0.1276 -0.3652
 8914SOL    HW238379   2.056   4.011   9.097 -0.8403  1.6163  1.2668
 8915SOL     OW38380   2.172   1.069   2.710  0.2965 -0.3951 -0.4161
 8915SOL    HW138381   2.129   1.050   2.626  0.1750 -2.9989  0.2461
 8915SOL    HW238382   2.264   1.064   2.684 -0.2544  0.1773 -2.5204
 8916SOL     OW38383   3.872   3.791   4.965  0.3402 -0.1200 -0.0797
 8916SOL    HW138384   3.869   3.757   5.054  2.3496 -0.9480 -0.3234
 8916SOL    HW238385   3.838   3.881   4.968 -0.5295 -0.4163 -1.1885
 8917SOL     OW38386   2.277   0.125   6.240  0.1574 -0.2182  0.2211
 8917SOL    HW138387   2.312   0.045   6.280  2.2060  0.0406 -1.0278
 8917SOL    HW238388   2.246   0.103   6.153  1.7072  0.4132 -0.4986
 8918SOL     OW38389   3.431   0.961   2.120 -0.0096  0.4458 -0.0581
 8918SOL    HW138390   3.341   0.977   2.092  0.0107 -0.3833 -0.6069
 8918SOL    HW238391   3.436   0.865   2.126  0.0905  0.2958 -2.7772
 8919SOL     OW38392   0.480   0.317   3.035  0.4206 -0.3256  0.7655
 8919SOL    HW138393   0.475   0.230   3.075 -0.8396 -0.8974 -0.6175
 8919SOL    HW238394   0.559   0.311   2.981  1.5949 -1.0466  2.5685
 8920SOL     OW38395   3.608   2.284   6.357 -0.0724 -0.0744  0.3636
 8920SOL    HW138396   3.619   2.378   6.370  3.4772 -0.1709 -1.6708
 8920SOL    HW238397   3.700   2.260   6.369  0.1897  0.8870  0.3312
 8921SOL     OW38398   1.428   1.152   1.765 -0.0398 -0.7891 -0.2927
 8921SOL    HW138399   1.443   1.061   1.789  0.5594 -0.1523  1.6947
 8921SOL    HW238400   1.395   1.144   1.675  1.4449  0.0176 -0.9145
 8922SOL     OW38401   4.532   3.698  16.572  0.7520 -0.0431  0.3401
 8922SOL    HW138402   4.508   3.616  16.614 -0.2825 -1.7805 -3.7092
 8922SOL    HW238403   4.595   3.734  16.635 -0.7299  1.8414  0.7603
 8923SOL     OW38404   3.563   1.182   2.196  0.1516  0.7706  0.3571
 8923SOL    HW138405   3.491   1.232   2.159  0.8596  1.2403 -0.3774
 8923SOL    HW238406   3.527   1.093   2.196  0.8645  0.4704  1.7061
 8924SOL     OW38407   0.698   2.825  11.256 -0.2823  0.1995  0.0835
 8924SOL    HW138408   0.730   2.842  11.344 -0.5695 -1.6320  0.5509
 8924SOL    HW238409   0.700   2.730  11.246  0.8486  0.5010 -2.7372
 8925SOL     OW38410   4.668   1.348   1.440 -0.3012  0.4524  0.4593
 8925SOL    HW138411   4.641   1.314   1.525  0.2384  1.2535  0.9534
 8925SOL    HW238412   4.683   1.264   1.396  0.9107  0.6047  0.5728
 8926SOL     OW38413   3.205   3.427   2.240  0.6030  0.1830 -0.6509
 8926SOL    HW138414   3.206   3.331   2.240 -0.5092  0.1931  2.5212
 8926SOL    HW238415   3.259   3.445   2.162  2.0398  0.6358  0.4552
 8927SOL     OW38416   0.565   1.662   7.034  0.3546 -0.0569  0.5362
 8927SOL    HW138417   0.494   1.653   6.970 -0.8629  0.2105  1.8436
 8927SOL    HW238418   0.548   1.583   7.086 -0.5052  0.0249  0.3733
 8928SOL     OW38419   1.250   4.380   8.570 -0.3983 -0.2495 -0.1829
 8928SOL    HW138420   1.254   4.351   8.479 -0.3602 -0.5123 -0.1005
 8928SOL    HW238421   1.231   4.297   8.614  1.7635 -0.7126 -0.1201
 8929SOL     OW38422   3.840   2.128   6.452 -0.3891 -0.1051  0.3540
 8929SOL    HW138423   3.795   2.067   6.510 -0.8023  0.0705  0.2201
 8929SOL    HW238424   3.866   2.069   6.382  1.1230 -2.7489  3.1319
 8930SOL     OW38425   3.583   4.049   7.864 -0.8541  0.3948  0.0686
 8930SOL    HW138426   3.572   4.109   7.790 -0.1387 -0.7426 -0.9790
 8930SOL    HW238427   3.644   4.098   7.919  1.7120 -1.2897 -1.2151
 8931SOL     OW38428   3.838   1.176   6.909 -0.6361 -0.1210  0.1970
 8931SOL    HW138429   3.882   1.153   6.991  0.3699  2.4502  0.3715
 8931SOL    HW238430   3.746   1.179   6.935 -0.7290 -0.0638 -0.1354
 8932SOL     OW38431   2.722   4.111   7.270 -0.4832 -0.0814 -0.3665
 8932SOL    HW138432   2.662   4.102   7.196 -0.5107  2.1324 -0.5880
 8932SOL    HW238433   2.696   4.040   7.330 -2.4503  2.5505  1.8719
 8933SOL     OW38434   4.543   0.273   2.121  0.0622 -0.0523  0.4973
 8933SOL    HW138435   4.586   0.328   2.185 -2.3979 -0.3615  2.4218
 8933SOL    HW238436   4.548   0.186   2.161  0.9735 -0.7652 -1.1629
 8934SOL     OW38437   2.171   0.046  13.761 -0.1875  0.6214 -0.3101
 8934SOL    HW138438   2.126   4.709  13.805 -1.8882  0.9429 -1.4969
 8934SOL    HW238439   2.211   0.000  13.687 -1.0041  0.4144 -0.6237
 8935SOL     OW38440   4.646   1.556   2.485 -0.0255  0.1808 -0.1512
 8935SOL    HW138441   4.591   1.597   2.552  0.1989  2.0960 -1.1488
 8935SOL    HW238442   4.633   1.620   2.416 -1.2684 -0.3197 -0.3706
 8936SOL     OW38443   2.428   1.633   2.663  0.3750 -0.2212  0.5919
 8936SOL    HW138444   2.501   1.578   2.694  0.8272  0.0143 -0.0663
 8936SOL    HW238445   2.377   1.649   2.743  1.5296  1.2634  1.0331
 8937SOL     OW38446   3.965   3.254   3.930  0.7490  0.0740  0.2492
 8937SOL    HW138447   3.917   3.319   3.878  0.8180  0.0739  0.1859
 8937SOL    HW238448   3.962   3.180   3.870 -0.4265 -0.3373  0.8164
 8938SOL     OW38449   0.992   0.730  17.260  0.3330 -0.2794 -0.1904
 8938SOL    HW138450   0.973   0.642  17.229  0.0301  0.1503 -1.2285
 8938SOL    HW238451   0.939   0.787  17.205  0.8785 -1.0436 -1.5132
 8939SOL     OW38452   1.477   0.006   6.221 -0.0654 -0.1064 -0.1140
 8939SOL    HW138453   1.512   4.698   6.144  1.7265  1.6631 -0.3064
 8939SOL    HW238454   1.384   0.025   6.210 -0.4457 -0.7848  1.8441
 8940SOL     OW38455   0.069   0.248   2.335  0.1118  0.7387 -0.1671
 8940SOL    HW138456   0.065   0.284   2.423  1.6915 -0.5900  0.4441
 8940SOL    HW238457   0.100   0.328   2.293  0.9605 -0.8603 -2.6142
 8941SOL     OW38458   4.262   3.475   4.693 -0.2774 -0.6181  0.5337
 8941SOL    HW138459   4.253   3.449   4.601  0.0383  0.0109  0.3270
 8941SOL    HW238460   4.357   3.463   4.699 -0.4251 -2.3006 -0.3905
 8942SOL     OW38461   0.180   3.977   8.132  0.0882  0.4633 -0.1095
 8942SOL    HW138462   0.126   3.932   8.197  0.4211  0.3714  0.1088
 8942SOL    HW238463   0.138   3.954   8.050 -0.7459  0.1468  0.4071
 8943SOL     OW38464   0.253   2.892  11.241  0.5589 -0.5136  0.4299
 8943SOL    HW138465   0.220   2.888  11.331  2.6541  0.9454  1.2577
 8943SOL    HW238466   0.248   2.798  11.224 -1.3184 -0.2416 -0.5811
 8944SOL     OW38467   2.002   1.701   1.821 -0.4598  0.0716 -0.8721
 8944SOL    HW138468   1.952   1.762   1.767  0.4679  1.5023 -0.1058
 8944SOL    HW238469   2.062   1.764   1.860 -0.8412  0.6526 -1.2304
 8945SOL     OW38470   3.994   0.751  13.630  0.0140  0.0272  0.1554
 8945SOL    HW138471   4.061   0.818  13.619 -0.5166  0.5332  0.0164
 8945SOL    HW238472   4.013   0.698  13.552 -0.3137 -0.4486  0.3994
 8946SOL     OW38473   2.579   4.339   8.809 -0.0794  0.1737 -0.2377
 8946SOL    HW138474   2.548   4.341   8.718 -1.4187  0.2794  0.2231
 8946SOL    HW238475   2.524   4.409   8.844  0.3213  0.5809 -0.4235
 8947SOL     OW38476   0.761   3.814   7.168  0.3053 -0.5304 -0.3597
 8947SOL    HW138477   0.703   3.780   7.236 -0.2906 -0.2926 -0.7515
 8947SOL    HW238478   0.712   3.796   7.088  1.2864  1.1405 -1.3303
 8948SOL     OW38479   3.770   2.311   3.064 -0.5586  0.2079  0.0482
 8948SOL    HW138480   3.775   2.405   3.083 -0.2202  0.5341 -1.6823
 8948SOL    HW238481   3.764   2.321   2.969 -0.3393  1.3534  0.1458
 8949SOL     OW38482   2.767   2.438   2.284 -0.7937  0.0071  0.0757
 8949SOL    HW138483   2.711   2.371   2.323 -0.6280  0.3433  0.8875
 8949SOL    HW238484   2.827   2.449   2.357  0.7681  1.3209 -1.4024
 8950SOL     OW38485   1.719   0.619  16.420 -0.4073 -0.0734 -0.2986
 8950SOL    HW138486   1.804   0.597  16.383  0.3712  0.5293  1.1178
 8950SOL    HW238487   1.658   0.556  16.381 -1.1963 -0.1607  1.0619
 8951SOL     OW38488   4.596   0.271  16.124 -0.7846 -0.0388  0.5370
 8951SOL    HW138489   4.586   0.345  16.064 -1.0224 -0.2192  0.3560
 8951SOL    HW238490   4.526   0.279  16.189 -0.1190 -1.5918  1.4379
 8952SOL     OW38491   0.516   1.539  11.030 -0.1849 -0.4275 -0.7097
 8952SOL    HW138492   0.584   1.587  11.078 -1.8001  0.9545  0.2153
 8952SOL    HW238493   0.554   1.454  11.051  0.1908  0.0622  0.5894
 8953SOL     OW38494   3.766   2.623   5.311 -0.3467 -0.6467 -0.3010
 8953SOL    HW138495   3.672   2.630   5.332 -0.7983 -4.6420 -0.9472
 8953SOL    HW238496   3.805   2.569   5.380  0.8127 -0.6388 -0.9648
 8954SOL     OW38497   2.148   4.548   6.120 -0.2777 -0.3900 -0.1374
 8954SOL    HW138498   2.069   4.563   6.171  0.1306  0.8497  0.1407
 8954SOL    HW238499   2.129   4.604   6.045  1.8829 -0.1413 -0.5064
 8955SOL     OW38500   1.310   3.366   2.633 -0.2067  0.4087 -0.3989
 8955SOL    HW138501   1.305   3.457   2.602 -0.7368  1.6141  3.2261
 8955SOL    HW238502   1.228   3.360   2.681  0.1238 -0.4794  0.0512
 8956SOL     OW38503   4.600   3.171  14.713  0.2167 -0.2962 -0.2682
 8956SOL    HW138504   4.660   3.239  14.682 -0.6922  0.3043 -0.7121
 8956SOL    HW238505   4.562   3.200  14.795 -0.7739  0.7610 -1.1007
 8957SOL     OW38506   0.251   4.667   5.944  0.6466 -0.2503  0.5086
 8957SOL    HW138507   0.208   4.637   5.864  0.9583  1.0403 -0.1402
 8957SOL    HW238508   0.289   4.583   5.968  0.2613 -0.2682  1.0562
 8958SOL     OW38509   2.174   2.148   8.730  0.6395  0.7842 -0.0393
 8958SOL    HW138510   2.119   2.147   8.809 -2.2241  0.1797 -2.0428
 8958SOL    HW238511   2.241   2.084   8.754 -0.8224 -0.8224 -0.2608
 8959SOL     OW38512   1.086   3.539  13.574  0.2122  0.5834 -0.1340
 8959SOL    HW138513   1.179   3.523  13.591  0.3311 -0.0921 -1.4378
 8959SOL    HW238514   1.076   3.621  13.623 -2.7859  0.7541 -1.0274
 8960SOL     OW38515   1.431   3.658   5.781  0.2138  0.1559 -0.1724
 8960SOL    HW138516   1.450   3.751   5.789  1.3659 -0.2291  1.4950
 8960SOL    HW238517   1.497   3.619   5.838  0.0782  1.6301  0.9834
 8961SOL     OW38518   2.243   3.044   9.249  0.4224  0.3514 -0.2547
 8961SOL    HW138519   2.212   3.085   9.168 -0.8328  0.4398  0.2703
 8961SOL    HW238520   2.212   3.107   9.313  4.1059  0.6519  1.2533
 8962SOL     OW38521   3.178   2.005  13.095  0.0264 -0.4678  0.0983
 8962SOL    HW138522   3.149   2.022  13.185 -0.0591 -2.1908  0.3944
 8962SOL    HW238523   3.264   1.968  13.113  0.2617 -0.4422 -1.0314
 8963SOL     OW38524   1.460   4.179   6.183 -0.4686 -0.4359  0.1373
 8963SOL    HW138525   1.547   4.172   6.144 -1.5750  0.8301 -2.5359
 8963SOL    HW238526   1.457   4.093   6.225 -0.1291 -1.0175 -1.0115
 8964SOL     OW38527   3.059   3.463   8.775 -0.4759  0.6179  0.3229
 8964SOL    HW138528   3.091   3.471   8.685  0.8764  2.6546  1.0101
 8964SOL    HW238529   3.007   3.382   8.771 -1.2391  1.0499  1.6842
 8965SOL     OW38530   0.474   1.981   5.686 -0.5469  0.4168 -0.1564
 8965SOL    HW138531   0.530   2.058   5.686 -0.9143  0.6868  0.9249
 8965SOL    HW238532   0.499   1.945   5.601  0.5582 -0.2331  0.4526
 8966SOL     OW38533   4.093   1.536   5.512 -0.4953  0.2545  0.1427
 8966SOL    HW138534   4.066   1.607   5.454 -0.2332  0.1668 -0.0843
 8966SOL    HW238535   4.005   1.508   5.537 -0.7221  1.1902  0.4160
 8967SOL     OW38536   0.626   0.701   8.098  0.2018  0.2823  0.0197
 8967SOL    HW138537   0.621   0.666   8.187  1.6774  0.4367  0.1681
 8967SOL    HW238538   0.595   0.791   8.112 -0.9848  0.3740 -3.1551
 8968SOL     OW38539   2.212   4.200   5.804  0.5921 -0.9580  0.4102
 8968SOL    HW138540   2.291   4.151   5.783  2.1583  1.1052  1.4745
 8968SOL    HW238541   2.243   4.264   5.868 -2.2973 -0.5988  1.4856
 8969SOL     OW38542   3.605   2.114   0.504  0.0107 -0.0562 -0.0637
 8969SOL    HW138543   3.529   2.155   0.462 -0.4647  0.3143  1.1453
 8969SOL    HW238544   3.629   2.051   0.436 -0.4929  0.3461 -0.6114
 8970SOL     OW38545   0.278   0.792   3.665 -0.3460  0.3938 -0.2433
 8970SOL    HW138546   0.245   0.787   3.576  2.5746 -1.0319 -1.2404
 8970SOL    HW238547   0.244   0.878   3.690 -1.2723 -0.0185 -0.0721
 8971SOL     OW38548   2.314   4.016   2.223  0.8995 -0.5674  0.2929
 8971SOL    HW138549   2.345   3.992   2.136 -0.8707  4.0726 -1.6509
 8971SOL    HW238550   2.281   4.104   2.202  1.9045 -0.1833  0.3329
 8972SOL     OW38551   3.824   4.176  15.212  1.0128 -0.1439  0.2934
 8972SOL    HW138552   3.890   4.244  15.195 -0.1721  0.5762 -1.4428
 8972SOL    HW238553   3.865   4.144  15.292 -0.5229  0.9374  1.5015
 8973SOL     OW38554   2.738   0.574   7.649 -1.3228 -0.4801  0.2474
 8973SOL    HW138555   2.774   0.634   7.583  2.8928 -1.6609  1.4913
 8973SOL    HW238556   2.654   0.551   7.610 -1.6769 -1.4731  1.6245
 8974SOL     OW38557   0.187   2.860   6.331 -0.4101  0.1971  0.5356
 8974SOL    HW138558   0.110   2.887   6.382  0.3567 -0.2011  1.8702
 8974SOL    HW238559   0.204   2.943   6.286  1.0681 -0.1086  0.5541
 8975SOL     OW38560   1.541   1.846   6.326  0.7386  0.0417 -0.4383
 8975SOL    HW138561   1.510   1.863   6.414  1.9909  0.0259 -0.0007
 8975SOL    HW238562   1.576   1.930   6.297  0.6189  0.3569  0.3458
 8976SOL     OW38563   1.535   1.167  17.295 -0.2144  0.6070  0.4253
 8976SOL    HW138564   1.609   1.120  17.256 -2.4776 -1.3497 -1.4480
 8976SOL    HW238565   1.506   1.094  17.350 -0.0447  0.4182  0.2639
 8977SOL     OW38566   1.646   0.207   4.496 -0.2565 -0.0219  0.3797
 8977SOL    HW138567   1.571   0.257   4.526  1.1933  1.0564  2.2048
 8977SOL    HW238568   1.625   0.168   4.411  0.7304 -0.0876  0.1591
 8978SOL     OW38569   3.158   1.232   6.601  0.3354  0.2894 -0.5512
 8978SOL    HW138570   3.195   1.157   6.555 -1.5268  0.0548 -1.7060
 8978SOL    HW238571   3.075   1.198   6.635  0.8519  0.1724  0.5879
 8979SOL     OW38572   3.429   3.855   8.917  0.6220 -0.0944  0.3241
 8979SOL    HW138573   3.409   3.877   9.008 -1.9044 -2.6066  0.3574
 8979SOL    HW238574   3.360   3.794   8.890 -0.7539  1.9854 -0.8260
 8980SOL     OW38575   0.801   3.258   9.962 -0.4793  0.3673  0.3195
 8980SOL    HW138576   0.850   3.238   9.883 -1.4259  0.8504 -0.3911
 8980SOL    HW238577   0.854   3.330   9.998 -0.6407  0.2131  0.8705
 8981SOL     OW38578   0.586   0.058   8.552 -0.5157  0.4668 -0.5566
 8981SOL    HW138579   0.589   4.717   8.610  0.7851  2.1811  1.6491
 8981SOL    HW238580   0.513   0.110   8.586  0.7616  1.4239  0.7240
 8982SOL     OW38581   3.314   0.548   9.645 -0.3354  0.0297  0.3326
 8982SOL    HW138582   3.398   0.518   9.610 -0.6829  1.0361 -1.3421
 8982SOL    HW238583   3.280   0.598   9.571 -1.4267  1.2945  1.6899
 8983SOL     OW38584   1.055   4.010   2.371  0.0278 -0.2910  0.1195
 8983SOL    HW138585   1.051   4.051   2.285  2.3157 -0.8545 -0.2503
 8983SOL    HW238586   1.148   4.017   2.390  0.0495 -0.2147 -0.0175
 8984SOL     OW38587   1.889   3.702   3.993  0.1102  0.3809  0.6933
 8984SOL    HW138588   1.924   3.772   4.048  0.2002 -0.3296  1.5380
 8984SOL    HW238589   1.973   3.665   3.967  0.3918  1.7926 -0.4200
 8985SOL     OW38590   0.196   1.536   8.482 -0.2437 -0.1166  0.3399
 8985SOL    HW138591   0.159   1.454   8.451  0.5694  0.1965 -1.4560
 8985SOL    HW238592   0.258   1.551   8.411  0.3120 -0.8825  0.6710
 8986SOL     OW38593   0.281   3.965   6.992 -0.4718 -0.2243 -0.5923
 8986SOL    HW138594   0.259   3.932   7.079  0.9830 -0.4256 -0.3157
 8986SOL    HW238595   0.225   3.909   6.938 -0.0436 -0.9585 -0.2748
 8987SOL     OW38596   1.704   1.850   7.795  0.1621  0.1629 -0.0913
 8987SOL    HW138597   1.620   1.895   7.795 -0.4283 -0.9309  2.7892
 8987SOL    HW238598   1.746   1.863   7.711  0.2458  1.2287  0.1254
 8988SOL     OW38599   3.229   1.771   5.500 -0.2436  0.2578  0.2830
 8988SOL    HW138600   3.207   1.750   5.410 -2.3039 -3.0573  1.5713
 8988SOL    HW238601   3.260   1.683   5.524  0.2392 -0.3052 -2.4172
 8989SOL     OW38602   3.548   2.318  11.585 -0.1780  0.4247  0.5569
 8989SOL    HW138603   3.483   2.372  11.540  2.8253  1.2062 -2.8043
 8989SOL    HW238604   3.499   2.307  11.666 -2.4711  1.2204 -0.7233
 8990SOL     OW38605   4.026   2.104   5.411  0.2270  0.0590 -0.4846
 8990SOL    HW138606   4.034   2.023   5.461  2.1841  1.0788  0.8913
 8990SOL    HW238607   3.940   2.090   5.373 -0.0034 -1.4412  0.5905
 8991SOL     OW38608   0.441   1.446   7.120  0.2102 -0.3690 -0.3073
 8991SOL    HW138609   0.348   1.426   7.107 -0.1216  2.2811 -2.0677
 8991SOL    HW238610   0.478   1.359   7.105  0.9855  0.2190 -1.7685
 8992SOL     OW38611   0.985   2.210  12.690  0.2355 -0.3332  0.0627
 8992SOL    HW138612   1.056   2.205  12.755 -0.1080 -0.4079  0.4324
 8992SOL    HW238613   1.020   2.279  12.633 -1.4335 -0.0158 -0.5779
 8993SOL     OW38614   4.327   0.103   4.759 -0.6891 -0.3296 -0.5756
 8993SOL    HW138615   4.418   0.087   4.735 -0.7559 -0.7855 -0.5207
 8993SOL    HW238616   4.304   0.015   4.788  0.1944  0.0341  1.2099
 8994SOL     OW38617   2.683   3.098   2.710 -0.1039  0.1546 -0.7964
 8994SOL    HW138618   2.688   3.190   2.683 -0.6235  0.1061 -1.0637
 8994SOL    HW238619   2.596   3.089   2.750  0.2124 -0.7739 -0.3308
 8995SOL     OW38620   1.301   2.514  15.935  0.1872  0.2694 -0.7554
 8995SOL    HW138621   1.260   2.585  15.983  0.5205  0.7030 -1.1154
 8995SOL    HW238622   1.226   2.455  15.931 -0.8560  1.7085 -2.1094
 8996SOL     OW38623   0.469   2.318   4.259  0.3305  0.3283 -0.0565
 8996SOL    HW138624   0.410   2.325   4.184  0.2463 -3.1075 -0.2968
 8996SOL    HW238625   0.557   2.336   4.224 -0.2589  3.0315 -0.2004
 8997SOL     OW38626   1.056   4.508  11.893  0.4142  0.2198  0.3239
 8997SOL    HW138627   1.147   4.480  11.896  0.8744  1.6840 -0.0904
 8997SOL    HW238628   1.061   4.578  11.828 -2.0345 -0.5757 -0.7271
 8998SOL     OW38629   4.454   1.245   4.597 -0.1356 -0.2186  0.0522
 8998SOL    HW138630   4.541   1.275   4.571  0.5367 -1.5369  0.7927
 8998SOL    HW238631   4.480   1.185   4.667  1.1544  2.0483  1.4731
 8999SOL     OW38632   2.307   4.674   9.724 -0.6240 -0.1373 -0.1697
 8999SOL    HW138633   2.396   4.669   9.758  0.4962  0.4480 -2.9932
 8999SOL    HW238634   2.312   4.729   9.645  1.9525 -0.1399 -0.0170
 9000SOL     OW38635   4.294   3.092   7.957  0.2059  0.2710  0.2069
 9000SOL    HW138636   4.258   3.012   7.994  0.2405 -0.2119 -0.7842
 9000SOL    HW238637   4.352   3.118   8.028 -1.3413  0.2043  1.4839
 9001SOL     OW38638   1.590   3.240   7.674 -0.2302 -0.2876 -0.0346
 9001SOL    HW138639   1.556   3.152   7.691 -1.0382  0.3767  1.6966
 9001SOL    HW238640   1.642   3.254   7.753  0.8151  1.1872 -0.9769
 9002SOL     OW38641   2.182   4.605   2.473  0.4340 -1.1815  0.4060
 9002SOL    HW138642   2.100   4.651   2.488  1.2950  0.7757 -0.9093
 9002SOL    HW238643   2.251   4.657   2.516  2.1347 -1.3458 -2.1297
 9003SOL     OW38644   4.701   0.153  11.245  0.3193 -0.6070 -0.1560
 9003SOL    HW138645   0.047   0.104  11.236 -0.6973 -2.8033  2.4662
 9003SOL    HW238646   4.642   0.086  11.209 -0.8829 -0.8130  2.1956
 9004SOL     OW38647   0.777   4.349  13.044 -0.2111  0.2421  0.6587
 9004SOL    HW138648   0.790   4.442  13.062 -0.0459  0.1615  0.9679
 9004SOL    HW238649   0.691   4.345  13.002  0.1052  0.7664 -0.0486
 9005SOL     OW38650   2.575   1.431   3.655 -0.0989  0.6233 -0.5324
 9005SOL    HW138651   2.482   1.431   3.630  0.1675  2.4069 -1.5102
 9005SOL    HW238652   2.619   1.467   3.579 -0.1193  0.6125 -0.5494
 9006SOL     OW38653   0.445   1.024   2.675  0.0810  0.0572  0.2968
 9006SOL    HW138654   0.398   1.040   2.757 -2.3914 -2.2541 -0.6884
 9006SOL    HW238655   0.523   0.971   2.694  0.4289  0.8363  1.0597
 9007SOL     OW38656   0.318   0.232   5.463  0.4836  0.7923 -0.6781
 9007SOL    HW138657   0.243   0.177   5.443  0.2903 -0.4705  3.5944
 9007SOL    HW238658   0.383   0.163   5.475 -2.4782 -1.8133  0.4638
 9008SOL     OW38659   2.433   4.131   6.746  0.1700  0.1202 -0.4908
 9008SOL    HW138660   2.499   4.093   6.689  0.0203  0.5296 -0.9437
 9008SOL    HW238661   2.382   4.185   6.684  0.1746 -0.8391 -1.3265
 9009SOL     OW38662   1.587   1.835  13.277 -0.5514  0.0742 -0.2199
 9009SOL    HW138663   1.515   1.825  13.215 -0.9231 -1.2703  0.4131
 9009SOL    HW238664   1.664   1.810  13.225 -0.2767  0.5381 -0.0304
 9010SOL     OW38665   0.083   2.771  14.255 -0.1982 -0.6037  0.0335
 9010SOL    HW138666   0.134   2.831  14.309  0.5653 -2.2016  1.0969
 9010SOL    HW238667   0.124   2.790  14.171 -0.6961 -0.8666 -0.2701
 9011SOL     OW38668   0.627   0.671   6.148  0.7274  0.2513 -0.4890
 9011SOL    HW138669   0.635   0.609   6.076 -1.9689 -1.1795  0.4371
 9011SOL    HW238670   0.537   0.704   6.138  1.0526  1.0816 -0.6659
 9012SOL     OW38671   0.827   2.197   3.609 -0.1448  0.2261 -0.4787
 9012SOL    HW138672   0.876   2.279   3.602 -1.6071  1.2975  1.4684
 9012SOL    HW238673   0.884   2.120   3.618  0.1883  0.3825 -1.3020
 9013SOL     OW38674   3.960   0.018   8.353 -0.2075 -0.0504 -0.1341
 9013SOL    HW138675   4.028   0.079   8.325  0.0164 -0.9677 -1.5885
 9013SOL    HW238676   3.944   4.696   8.279 -1.6639  1.1134 -0.7409
 9014SOL     OW38677   1.253   4.200   2.833  0.1516 -0.1772 -0.7745
 9014SOL    HW138678   1.275   4.167   2.920 -1.6407 -1.1417 -0.6898
 9014SOL    HW238679   1.236   4.115   2.792  1.7053 -1.6306  1.5554
 9015SOL     OW38680   4.489   1.360   8.492  0.1305 -0.0183 -0.0083
 9015SOL    HW138681   4.508   1.419   8.419 -0.9482  0.5548  0.1746
 9015SOL    HW238682   4.396   1.348   8.476  0.7584 -2.3326 -1.8890
 9016SOL     OW38683   0.600   3.667   9.078 -0.3500  0.4247 -0.7586
 9016SOL    HW138684   0.529   3.603   9.080  0.0216 -0.0049 -1.3477
 9016SOL    HW238685   0.646   3.641   9.158 -1.6035 -0.3258 -0.2801
 9017SOL     OW38686   4.674   4.528   5.391 -0.1598 -0.5826 -0.5205
 9017SOL    HW138687   4.671   4.460   5.458 -0.6293  0.0456  0.1027
 9017SOL    HW238688   4.699   4.479   5.313  0.5694 -2.0258  0.6092
 9018SOL     OW38689   0.702   0.580  16.869 -0.0682 -0.4023 -0.1904
 9018SOL    HW138690   0.670   0.532  16.792 -1.1476  1.4495 -0.8827
 9018SOL    HW238691   0.635   0.560  16.934  1.3895  1.3225  1.8202
 9019SOL     OW38692   0.688   0.674   4.225  0.5889 -0.4670  0.2218
 9019SOL    HW138693   0.717   0.716   4.144 -2.3353 -1.2908 -1.2655
 9019SOL    HW238694   0.750   0.716   4.285  0.3203 -2.1382  1.6802
 9020SOL     OW38695   1.042   3.844  14.487  0.2026 -0.2113 -0.0853
 9020SOL    HW138696   1.043   3.877  14.576 -0.8729  0.5952 -0.3813
 9020SOL    HW238697   0.950   3.820  14.476  0.5330 -0.6891 -1.8619
 9021SOL     OW38698   3.910   0.659  10.286  0.4481 -0.1678 -0.1795
 9021SOL    HW138699   3.826   0.628  10.319  1.1811  0.3921  2.2017
 9021SOL    HW238700   3.885   0.739  10.241  0.3059  1.6930  3.2327
 9022SOL     OW38701   4.718   3.483   3.616  0.1028 -0.0025 -0.1064
 9022SOL    HW138702   0.007   3.574   3.604  2.0187 -0.7214 -1.6267
 9022SOL    HW238703   0.063   3.433   3.604 -0.2738 -0.3897 -1.0398
 9023SOL     OW38704   1.057   3.018   5.675  0.5337 -0.6526 -0.4439
 9023SOL    HW138705   0.997   2.951   5.709 -1.0050  1.2996  0.7050
 9023SOL    HW238706   1.140   2.976   5.696  0.0820 -0.6514  1.3266
 9024SOL     OW38707   2.208   4.002   3.812 -0.7581 -0.4419  0.3839
 9024SOL    HW138708   2.257   3.926   3.846  0.6331  0.1029 -0.4084
 9024SOL    HW238709   2.271   4.035   3.748  0.9790 -0.3213  2.1579
 9025SOL     OW38710   3.192   3.393   5.347  0.2314  0.0414  0.0178
 9025SOL    HW138711   3.287   3.377   5.343  0.0816 -0.8024 -0.2440
 9025SOL    HW238712   3.167   3.361   5.434 -0.2537  0.9208  0.1992
 9026SOL     OW38713   3.691   3.292   2.538  0.2432  0.1869 -0.2782
 9026SOL    HW138714   3.667   3.356   2.606  0.4011  0.8036 -0.8073
 9026SOL    HW238715   3.759   3.342   2.493  0.0450 -0.0679 -0.8493
 9027SOL     OW38716   2.664   2.209  12.182 -0.3330  0.5426  0.2196
 9027SOL    HW138717   2.654   2.113  12.182  0.2346  0.4847  1.0047
 9027SOL    HW238718   2.757   2.220  12.162 -0.1009  0.2910  1.1409
 9028SOL     OW38719   4.540   4.499   0.861  0.4663 -0.0801  0.0262
 9028SOL    HW138720   4.450   4.470   0.872  1.3580 -3.2364 -1.0505
 9028SOL    HW238721   4.567   4.482   0.951  2.1353  0.8401 -0.3022
 9029SOL     OW38722   2.914   4.683   9.585 -0.0199  0.3753 -0.1403
 9029SOL    HW138723   2.983   4.692   9.520  0.0045 -1.1563 -0.3395
 9029SOL    HW238724   2.959   4.630   9.652 -1.6029 -1.8607 -0.8378
 9030SOL     OW38725   3.415   1.786   2.758  0.7810 -1.2005  0.2088
 9030SOL    HW138726   3.375   1.851   2.816  1.2964 -0.5625 -0.1463
 9030SOL    HW238727   3.343   1.767   2.698  1.1142 -0.2732 -0.4873
 9031SOL     OW38728   0.068   4.071   3.084  0.4121  0.1376 -0.1583
 9031SOL    HW138729   0.008   4.001   3.059  1.3305 -1.4102  1.9574
 9031SOL    HW238730   0.028   4.144   3.036  0.8741  0.1661 -0.5090
 9032SOL     OW38731   3.566   2.859   6.501 -0.2371  0.9967 -0.7271
 9032SOL    HW138732   3.537   2.777   6.542  2.1662  0.2298 -0.5251
 9032SOL    HW238733   3.493   2.919   6.515 -0.2673  0.7405  0.2576
 9033SOL     OW38734   0.296   4.530   7.758  0.2823 -0.2024  0.2744
 9033SOL    HW138735   0.361   4.587   7.715  0.6467 -0.1379  0.9141
 9033SOL    HW238736   0.267   4.571   7.839  2.2501  1.8815 -0.0617
 9034SOL     OW38737   4.647   3.266   9.799  0.4022 -0.1122  0.0864
 9034SOL    HW138738   4.671   3.195   9.859  2.4443  0.6486  0.1760
 9034SOL    HW238739   4.734   3.292   9.767 -0.0539 -1.4360 -2.1790
 9035SOL     OW38740   0.521   2.332  10.185  0.3026 -0.0039 -0.3648
 9035SOL    HW138741   0.483   2.405  10.137  1.2388  0.3029 -0.6465
 9035SOL    HW238742   0.442   2.278  10.184  0.9330 -0.9278 -2.7617
 9036SOL     OW38743   2.792   0.083   4.786  0.0554 -0.7836  0.1175
 9036SOL    HW138744   2.865   0.086   4.724 -0.2324 -1.1084 -0.2447
 9036SOL    HW238745   2.726   0.122   4.728  2.3810 -0.3027 -2.1974
 9037SOL     OW38746   0.610   1.884   4.415 -0.1623  0.5289 -0.7113
 9037SOL    HW138747   0.516   1.888   4.400  0.2651 -1.9308 -4.1336
 9037SOL    HW238748   0.615   1.789   4.405 -1.0219  0.4130 -0.0277
 9038SOL     OW38749   2.162   1.926   2.919 -0.5072  0.0339  0.2117
 9038SOL    HW138750   2.183   1.975   2.840 -1.2178  0.6687  0.4120
 9038SOL    HW238751   2.191   1.835   2.915 -0.2821  0.0853  0.6720
 9039SOL     OW38752   1.616   1.693   8.453 -0.3726  0.0868 -0.0378
 9039SOL    HW138753   1.561   1.717   8.378  0.7049  0.8904 -0.5608
 9039SOL    HW238754   1.704   1.721   8.427 -0.3807  0.5799  0.4745
 9040SOL     OW38755   3.617   2.857  10.833  0.6075  0.2133 -0.1854
 9040SOL    HW138756   3.579   2.769  10.832  1.3385 -0.1076 -1.2645
 9040SOL    HW238757   3.709   2.838  10.815  1.1233  0.3855  2.2717
 9041SOL     OW38758   1.003   1.564  12.265 -0.0863  0.3846  0.3246
 9041SOL    HW138759   0.925   1.596  12.219 -0.6291 -0.4888  0.6575
 9041SOL    HW238760   0.990   1.470  12.254 -2.6820  0.8887 -0.9568
 9042SOL     OW38761   2.839   3.509   8.348  0.1502  0.4204 -0.3893
 9042SOL    HW138762   2.841   3.494   8.442  1.4337  1.6540 -0.2299
 9042SOL    HW238763   2.774   3.443   8.324 -1.4673  1.7423  0.3792
 9043SOL     OW38764   4.101   4.511   9.776  0.9556 -0.0205 -0.3264
 9043SOL    HW138765   4.188   4.497   9.737  1.1060  2.1795 -0.7592
 9043SOL    HW238766   4.111   4.454   9.852  1.2802 -0.7593 -0.9247
 9044SOL     OW38767   4.723   3.212   6.358 -0.1933  0.5331  0.4361
 9044SOL    HW138768   0.070   3.221   6.405  0.6649 -3.4035 -0.3163
 9044SOL    HW238769   4.700   3.119   6.363  2.6771 -0.3410 -2.6651
 9045SOL     OW38770   1.566   4.718  14.279  0.0716 -0.0634  0.1798
 9045SOL    HW138771   1.572   0.077  14.264 -1.5586  0.0890  0.4943
 9045SOL    HW238772   1.639   4.689  14.224  0.9985  1.2421  0.7162
 9046SOL     OW38773   4.073   1.164   5.137 -0.4202 -0.0357  0.5831
 9046SOL    HW138774   4.100   1.251   5.109  1.4886 -0.3082  1.6122
 9046SOL    HW238775   4.114   1.153   5.223 -2.1207  1.5607  1.6094
 9047SOL     OW38776   2.052   4.094   5.151 -0.2488 -0.0124 -0.0217
 9047SOL    HW138777   2.140   4.081   5.187 -1.1484 -1.2813  1.7369
 9047SOL    HW238778   2.002   4.022   5.189  1.2414 -1.4370 -0.7949
 9048SOL     OW38779   2.997   4.724   5.435  0.2473 -0.4537  0.1752
 9048SOL    HW138780   2.957   4.695   5.517  0.6513  1.9211  1.2054
 9048SOL    HW238781   2.930   0.030   5.380  1.6721  1.5952 -0.0043
 9049SOL     OW38782   1.841   0.057   6.235 -0.4581 -0.3528 -0.1538
 9049SOL    HW138783   1.886   4.732   6.293 -1.4281 -0.9294  0.0048
 9049SOL    HW238784   1.782   4.734   6.187  0.8099 -0.5377 -1.4967
 9050SOL     OW38785   2.146   2.941   4.275  0.2955 -0.2103  0.6499
 9050SOL    HW138786   2.133   3.005   4.205  3.2585 -0.4490 -0.1060
 9050SOL    HW238787   2.057   2.912   4.295  0.5379 -1.4374 -0.0089
 9051SOL     OW38788   1.933   4.152   2.106  0.3993  0.1629 -0.2859
 9051SOL    HW138789   1.937   4.186   2.195 -0.1441 -2.0186  0.5676
 9051SOL    HW238790   2.025   4.159   2.083  0.7521 -1.4246  0.6596
 9052SOL     OW38791   2.910   4.646   9.136  0.0514  0.7468 -0.1574
 9052SOL    HW138792   2.877   4.594   9.063  0.6698 -0.4300  0.4073
 9052SOL    HW238793   2.873   4.604   9.214 -0.7065  1.2570 -0.2403
 9053SOL     OW38794   3.015   2.386  16.722 -0.0346 -0.3703 -0.7620
 9053SOL    HW138795   3.077   2.434  16.777  0.2242  0.5505 -1.8387
 9053SOL    HW238796   2.944   2.450  16.711  0.5874 -0.1994 -3.7805
 9054SOL     OW38797   3.877   3.599   6.485 -0.2203  0.1352  0.1204
 9054SOL    HW138798   3.949   3.625   6.542 -0.6390  1.1054  0.2005
 9054SOL    HW238799   3.867   3.504   6.495 -0.3674  0.0934 -0.4139
 9055SOL     OW38800   2.317   1.789   6.715 -0.2767  0.0151  0.4635
 9055SOL    HW138801   2.225   1.773   6.695 -0.5541  0.9656  0.9508
 9055SOL    HW238802   2.341   1.838   6.637 -3.5977 -0.1394 -0.6433
 9056SOL     OW38803   0.917   2.643  12.415  0.1026  0.3567  0.0463
 9056SOL    HW138804   0.826   2.673  12.423 -0.2292  0.1801 -2.9300
 9056SOL    HW238805   0.968   2.700  12.358 -1.6306 -0.1307 -2.0088
 9057SOL     OW38806   4.375   0.097   6.361 -0.6092 -0.0736 -0.2807
 9057SOL    HW138807   4.348   0.167   6.420 -1.6947  0.3594 -1.2951
 9057SOL    HW238808   4.291   0.087   6.316  0.2087 -1.1636 -1.5714
 9058SOL     OW38809   4.083   2.422   2.341 -0.4505  0.2312 -0.3440
 9058SOL    HW138810   4.121   2.395   2.424  0.1633  1.0343 -0.3601
 9058SOL    HW238811   4.159   2.400   2.286  1.6481  3.5933  1.2274
 9059SOL     OW38812   2.299   3.143   8.819 -0.6882  0.3052 -0.0240
 9059SOL    HW138813   2.333   3.057   8.844  0.5852  0.9960  0.6259
 9059SOL    HW238814   2.288   3.180   8.906 -0.3054 -0.4629  0.3502
 9060SOL     OW38815   0.420   0.402  12.022  0.2779 -0.9048  0.6105
 9060SOL    HW138816   0.379   0.322  12.055  0.5631 -2.3908 -2.6582
 9060SOL    HW238817   0.407   0.455  12.101  0.4814 -0.0471  0.0674
 9061SOL     OW38818   1.158   2.572  10.763 -0.0679  0.0371 -0.0667
 9061SOL    HW138819   1.160   2.581  10.859 -1.5616 -1.4574  0.1027
 9061SOL    HW238820   1.245   2.535  10.744 -0.5095 -0.0302 -1.9314
 9062SOL     OW38821   2.631   0.708  12.617 -0.0035  0.3976 -0.6039
 9062SOL    HW138822   2.600   0.678  12.531 -1.1408 -0.1261 -0.0034
 9062SOL    HW238823   2.685   0.784  12.596 -2.3646  2.6021  1.4107
 9063SOL     OW38824   2.501   0.957   5.141 -0.1973  0.1435  0.4778
 9063SOL    HW138825   2.586   0.969   5.098 -1.2250 -0.4992 -1.7662
 9063SOL    HW238826   2.523   0.988   5.229 -2.6992  1.6028  0.5914
 9064SOL     OW38827   2.103   2.581  13.007 -0.4443 -0.1625 -0.2114
 9064SOL    HW138828   2.032   2.525  12.975  0.3232  0.1123 -2.4184
 9064SOL    HW238829   2.163   2.559  12.936 -1.2759  3.0736 -1.8788
 9065SOL     OW38830   4.167   0.342   3.845  0.0991  0.2735 -0.1990
 9065SOL    HW138831   4.150   0.288   3.922 -1.4068 -0.8413 -1.3050
 9065SOL    HW238832   4.102   0.408   3.871 -0.9819 -0.7827 -0.1853
 9066SOL     OW38833   1.214   3.859   4.561 -0.1195 -0.3996  0.3463
 9066SOL    HW138834   1.181   3.933   4.509  0.1284  0.0325  0.8065
 9066SOL    HW238835   1.139   3.840   4.617 -0.7834  0.3083 -0.2909
 9067SOL     OW38836   2.505   0.552   7.529 -0.0480  0.0813  0.0666
 9067SOL    HW138837   2.511   0.529   7.436 -1.0632 -0.6748  0.1817
 9067SOL    HW238838   2.411   0.571   7.539  0.0349  0.9129 -0.7071
 9068SOL     OW38839   0.028   2.377  13.054  0.2723  0.1229 -0.1436
 9068SOL    HW138840   0.030   2.289  13.015  3.1214  1.2792 -2.6340
 9068SOL    HW238841   4.730   2.358  13.141 -0.5163 -0.2011 -0.5210
 9069SOL     OW38842   4.193   3.047   3.140  0.5301  0.3213 -0.4962
 9069SOL    HW138843   4.238   3.101   3.205 -1.0169  2.0117 -0.8293
 9069SOL    HW238844   4.134   2.997   3.197 -0.0422  3.3416  1.5456
 9070SOL     OW38845   1.931   0.817   3.842  0.1432  0.1054 -0.5286
 9070SOL    HW138846   2.025   0.796   3.840  0.0422 -0.0354 -3.8045
 9070SOL    HW238847   1.932   0.899   3.891  2.6140 -0.3316  0.1822
 9071SOL     OW38848   1.369   3.393   8.745 -0.2050 -0.0826 -0.0278
 9071SOL    HW138849   1.310   3.367   8.674 -1.3027 -1.3597  1.3461
 9071SOL    HW238850   1.317   3.362   8.820  2.1374 -2.4445  0.6101
 9072SOL     OW38851   2.779   3.180   4.561 -0.2738  0.5626 -0.2831
 9072SOL    HW138852   2.725   3.135   4.626 -0.5947 -0.0791 -0.9855
 9072SOL    HW238853   2.848   3.115   4.544 -0.1483  0.8648 -0.9252
 9073SOL     OW38854   2.872   2.607   6.418  0.0136  0.0358  0.4386
 9073SOL    HW138855   2.801   2.630   6.478 -0.2193 -4.4449  1.9145
 9073SOL    HW238856   2.949   2.628   6.471 -1.7175 -2.2814  3.8793
 9074SOL     OW38857   2.449   3.073   3.417  0.2114 -0.4229  0.7076
 9074SOL    HW138858   2.530   3.036   3.382 -1.1307 -0.9179 -1.8914
 9074SOL    HW238859   2.468   3.068   3.511 -0.5920  1.2766  0.9586
 9075SOL     OW38860   0.751   2.207   3.167  0.1466  0.1803 -0.0717
 9075SOL    HW138861   0.756   2.112   3.172 -0.1502  0.0628 -2.1693
 9075SOL    HW238862   0.684   2.229   3.102 -1.4069  1.8533  2.0822
 9076SOL     OW38863   2.054   0.564  11.132  0.5467  0.1315  0.2423
 9076SOL    HW138864   2.104   0.487  11.156 -0.3443 -0.1517  1.2127
 9076SOL    HW238865   1.989   0.547  11.201 -0.6265 -1.0225 -1.1680
 9077SOL     OW38866   2.446   3.767   9.265 -0.0476  0.3467  0.1358
 9077SOL    HW138867   2.433   3.853   9.304  1.5903  1.0063 -0.7922
 9077SOL    HW238868   2.356   3.741   9.247 -0.6627  1.9307  0.9280
 9078SOL     OW38869   2.167   4.430   3.340 -0.0627 -0.9423  0.1469
 9078SOL    HW138870   2.091   4.488   3.341  0.9208  0.3489 -0.6922
 9078SOL    HW238871   2.160   4.388   3.426 -1.3091 -1.7828 -0.3621
 9079SOL     OW38872   2.458   1.016   3.729  0.3185  0.2736 -0.3550
 9079SOL    HW138873   2.523   0.992   3.795  2.6778  0.3729 -2.6639
 9079SOL    HW238874   2.514   1.041   3.656  1.1875  0.1428  0.2677
 9080SOL     OW38875   2.585   4.717   7.463 -0.0254 -0.0695 -0.0069
 9080SOL    HW138876   2.658   0.026   7.506  1.5748 -0.6664 -2.0760
 9080SOL    HW238877   2.520   4.733   7.531 -1.6526  2.8087 -2.2305
 9081SOL     OW38878   0.734   1.589   6.789 -0.2699  0.4456  0.9243
 9081SOL    HW138879   0.790   1.665   6.769 -0.1337  0.0820 -0.0890
 9081SOL    HW238880   0.703   1.602   6.878 -0.6940  1.3633  0.6441
 9082SOL     OW38881   4.277   4.719   7.185  0.5399  0.0375  0.5896
 9082SOL    HW138882   4.285   4.680   7.098 -0.3907 -1.3469  1.1302
 9082SOL    HW238883   4.328   4.658   7.238 -0.4056 -1.3835 -0.1631
 9083SOL     OW38884   0.338   2.719   5.718  0.3937 -0.0037 -0.2399
 9083SOL    HW138885   0.390   2.750   5.644  2.0092  0.5913  1.1351
 9083SOL    HW238886   0.363   2.782   5.786  1.4746  0.6787 -1.2711
 9084SOL     OW38887   3.754   0.505   5.667 -0.2306  0.3413 -0.3869
 9084SOL    HW138888   3.789   0.580   5.714  0.2827 -0.6503  0.7901
 9084SOL    HW238889   3.831   0.464   5.628  0.1048 -0.3350  1.0083
 9085SOL     OW38890   3.451   1.242  11.336  0.3556  0.4158  0.3588
 9085SOL    HW138891   3.450   1.148  11.350 -5.2141  0.4897  0.2774
 9085SOL    HW238892   3.515   1.255  11.266  0.2017  0.1949  0.1791
 9086SOL     OW38893   0.913   4.613   2.446  0.2991 -0.1340 -0.0543
 9086SOL    HW138894   0.962   4.677   2.498 -0.1289  1.6765 -1.9059
 9086SOL    HW238895   0.828   4.616   2.491 -0.1967 -0.0662 -1.0046
 9087SOL     OW38896   1.477   4.279  11.420 -0.3825 -0.2293 -0.1130
 9087SOL    HW138897   1.563   4.257  11.455 -0.0163 -1.5189 -1.7831
 9087SOL    HW238898   1.484   4.373  11.405 -0.3650 -0.4819 -1.7186
 9088SOL     OW38899   3.761   0.112   6.486 -0.2816  0.1147  0.1961
 9088SOL    HW138900   3.810   0.034   6.512  1.4191  1.4698  1.1013
 9088SOL    HW238901   3.810   0.149   6.412  0.2183 -1.5610 -0.3037
 9089SOL     OW38902   3.637   0.337  17.330  0.2830  0.1885 -0.5272
 9089SOL    HW138903   3.566   0.299  17.278 -0.4571  0.1313  0.5233
 9089SOL    HW238904   3.632   0.271  17.399 -0.3619  0.8122  0.0184
 9090SOL     OW38905   0.213   2.573   6.092 -0.9027  0.4870 -0.0387
 9090SOL    HW138906   0.122   2.598   6.108 -0.6214  0.4109  1.6395
 9090SOL    HW238907   0.222   2.580   5.997 -1.6227  1.0778 -0.0609
 9091SOL     OW38908   0.559   1.024  10.971  0.6955  0.5311 -0.3020
 9091SOL    HW138909   0.583   0.954  11.032  0.7150 -0.0818 -1.0069
 9091SOL    HW238910   0.547   0.979  10.887  0.3971 -2.8478  1.5530
 9092SOL     OW38911   0.074   3.339  15.757  0.2098 -0.4523  0.0175
 9092SOL    HW138912   0.096   3.251  15.727 -0.7097 -0.1595 -1.5166
 9092SOL    HW238913   0.145   3.395  15.726 -0.8128  1.4539  1.1474
 9093SOL     OW38914   3.590   2.776   7.458  0.2872 -0.3326 -0.2703
 9093SOL    HW138915   3.557   2.717   7.390 -1.5458  2.0720 -1.5011
 9093SOL    HW238916   3.541   2.857   7.446  1.1379  0.1280 -0.6869
 9094SOL     OW38917   3.346   3.305   9.444 -0.0464  0.3238 -0.1440
 9094SOL    HW138918   3.392   3.367   9.387 -3.0910  3.3664  0.7105
 9094SOL    HW238919   3.341   3.233   9.381  0.4679  0.3144 -0.1744
 9095SOL     OW38920   4.525   2.751   5.848 -0.1240 -0.4858  0.0184
 9095SOL    HW138921   4.473   2.680   5.810 -0.5066  0.4829 -1.2502
 9095SOL    HW238922   4.471   2.824   5.820  1.6242  0.0200 -1.9580
 9096SOL     OW38923   0.026   2.719   2.284  0.3128 -0.2526  0.1893
 9096SOL    HW138924   0.104   2.713   2.339 -0.2257  0.1877  1.0082
 9096SOL    HW238925   4.716   2.788   2.332  1.0826  0.2510  0.2008
 9097SOL     OW38926   0.625   2.846   0.921  0.1599 -0.8716  0.2563
 9097SOL    HW138927   0.534   2.850   0.950  0.7028  1.0290  1.7206
 9097SOL    HW238928   0.623   2.795   0.840  0.9037 -0.8948  0.2547
 9098SOL     OW38929   0.688   3.898  12.004 -0.0965  0.2089 -0.3056
 9098SOL    HW138930   0.745   3.913  11.929 -1.8067  0.3460 -1.5775
 9098SOL    HW238931   0.658   3.808  11.989 -1.7521  0.3481  2.0767
 9099SOL     OW38932   2.070   4.452   4.466 -0.1381 -0.3339  0.3541
 9099SOL    HW138933   1.981   4.485   4.450  0.5395  1.4919  0.4073
 9099SOL    HW238934   2.123   4.499   4.401 -1.8117  0.6088 -0.3498
 9100SOL     OW38935   2.020   0.661   3.507  0.6517 -0.0858  0.0197
 9100SOL    HW138936   2.022   0.752   3.535  3.0569  0.5980 -2.3820
 9100SOL    HW238937   2.085   0.638   3.573 -1.1117  0.1466  1.8169
 9101SOL     OW38938   0.979   2.636  17.183 -0.1985 -0.1371 -0.0369
 9101SOL    HW138939   1.004   2.559  17.234  0.8084  0.2221  0.0179
 9101SOL    HW238940   0.884   2.625  17.181 -0.2558  0.3241  0.1737
 9102SOL     OW38941   4.100   1.434  13.806 -0.7250  0.7598  0.4525
 9102SOL    HW138942   4.164   1.504  13.816 -0.5765  0.8428 -1.1053
 9102SOL    HW238943   4.030   1.485  13.848  0.0502  1.7125  0.5688
 9103SOL     OW38944   4.494   3.353   5.334 -0.3199  0.1543 -0.0668
 9103SOL    HW138945   4.449   3.276   5.297 -1.3343  1.2649 -1.1408
 9103SOL    HW238946   4.564   3.360   5.268 -0.8584 -0.2923 -0.6834
 9104SOL     OW38947   2.984   1.880  12.971 -0.6052  0.1835  0.1729
 9104SOL    HW138948   2.915   1.922  13.022  1.1844  2.6270  0.5238
 9104SOL    HW238949   3.063   1.923  13.004 -0.4249 -0.1577  0.1850
 9105SOL     OW38950   2.553   3.464   6.911  0.7504  0.0844 -0.3519
 9105SOL    HW138951   2.613   3.525   6.868  0.0770 -0.2012 -1.7057
 9105SOL    HW238952   2.493   3.431   6.844  1.8748  1.9178 -2.2891
 9106SOL     OW38953   1.948   4.140   3.823 -0.9103  0.4807 -0.5245
 9106SOL    HW138954   1.903   4.055   3.819  0.0557 -0.0817  0.7046
 9106SOL    HW238955   2.039   4.110   3.820 -0.5939  1.5068 -0.9990
 9107SOL     OW38956   0.652   1.236   8.778 -0.8150 -0.1765  0.2687
 9107SOL    HW138957   0.670   1.300   8.847  0.9647 -0.5164  0.0984
 9107SOL    HW238958   0.734   1.189   8.765 -0.9096 -0.3974  0.4814
 9108SOL     OW38959   0.064   0.640   2.607  0.0294 -0.1481 -0.3295
 9108SOL    HW138960   0.146   0.659   2.653 -0.6653  1.3878  0.2624
 9108SOL    HW238961   0.062   0.720   2.556 -3.2664 -0.5242 -0.7325
 9109SOL     OW38962   1.673   3.338   4.528  0.7609  0.2231 -0.6289
 9109SOL    HW138963   1.592   3.324   4.578  1.6150  0.6550  0.8964
 9109SOL    HW238964   1.647   3.413   4.475 -0.8872  0.0950 -0.0076
 9110SOL     OW38965   2.112   2.038   5.588 -0.3805 -0.5860 -0.2736
 9110SOL    HW138966   2.050   2.102   5.622 -1.4498  0.1809 -3.6249
 9110SOL    HW238967   2.184   2.049   5.650  1.1252 -1.2541 -1.9048
 9111SOL     OW38968   1.805   1.077   2.247 -0.1932 -0.6818 -0.4730
 9111SOL    HW138969   1.796   1.059   2.153 -0.9962 -1.6709 -0.1988
 9111SOL    HW238970   1.721   1.116   2.272  1.9167  1.8727  2.5874
 9112SOL     OW38971   0.234   3.634   6.923  0.2893  0.3370 -0.3081
 9112SOL    HW138972   0.181   3.556   6.939  1.8061 -1.1656 -2.5571
 9112SOL    HW238973   0.175   3.698   6.883 -0.2459 -1.3056 -2.1253
 9113SOL     OW38974   1.126   4.541   7.129  0.0194 -0.0733  0.3093
 9113SOL    HW138975   1.127   4.614   7.067 -0.5486 -0.7669 -0.5162
 9113SOL    HW238976   1.035   4.548   7.157  0.1197  1.4080  0.2726
 9114SOL     OW38977   2.984   3.621   5.925  0.1873 -0.3268 -0.0134
 9114SOL    HW138978   2.993   3.705   5.880  2.7265 -0.0781  0.9243
 9114SOL    HW238979   3.076   3.599   5.941  1.1483  1.8579 -2.7010
 9115SOL     OW38980   1.846   2.808   3.924  0.3428 -0.0287  0.0286
 9115SOL    HW138981   1.816   2.749   3.855  1.1250  0.3760 -0.6672
 9115SOL    HW238982   1.863   2.748   3.997  1.0680  1.6166  1.2083
 9116SOL     OW38983   0.189   2.531   7.662 -0.1315  0.2294 -0.7243
 9116SOL    HW138984   0.099   2.508   7.643  0.5682 -2.2575 -0.9800
 9116SOL    HW238985   0.193   2.619   7.625  0.2643 -0.0412 -1.3400
 9117SOL     OW38986   3.960   2.637   6.440 -0.0073 -0.7636 -0.2027
 9117SOL    HW138987   3.933   2.680   6.358  1.5968  0.9012  0.1521
 9117SOL    HW238988   4.016   2.569   6.402  2.3243  0.3030  1.3870
 9118SOL     OW38989   3.707   1.523   2.497  0.2318 -0.9698  0.5230
 9118SOL    HW138990   3.738   1.467   2.568 -1.0237 -3.8794 -1.2335
 9118SOL    HW238991   3.670   1.588   2.556 -0.2683 -0.6154 -0.1905
 9119SOL     OW38992   2.539   0.140  13.697  0.3740  0.4700  0.4223
 9119SOL    HW138993   2.523   0.169  13.607  0.7179 -0.5917  0.0091
 9119SOL    HW238994   2.509   0.050  13.685 -1.7560  1.0856  1.2239
 9120SOL     OW38995   2.143   2.822   5.029 -0.2528 -0.2802  0.2164
 9120SOL    HW138996   2.069   2.783   5.075 -1.5244  0.2734 -1.3443
 9120SOL    HW238997   2.156   2.892   5.093 -0.8228  0.7315 -0.7709
 9121SOL     OW38998   3.816   0.795   6.847 -0.3699 -0.2859  0.3195
 9121SOL    HW138999   3.897   0.846   6.844  0.2949 -1.5347 -2.9705
 9121SOL    HW239000   3.805   0.776   6.940 -1.7386 -0.0496  0.2125
 9122SOL     OW39001   3.245   3.517   3.780 -0.1470 -0.4502  0.1644
 9122SOL    HW139002   3.178   3.468   3.733  0.0158 -0.6894  0.1797
 9122SOL    HW239003   3.201   3.536   3.863 -0.4813 -0.1365 -0.0909
 9123SOL     OW39004   3.924   4.656   1.977 -0.1506 -0.4865  0.5317
 9123SOL    HW139005   4.006   4.659   2.027 -1.0692 -0.6839  2.0585
 9123SOL    HW239006   3.873   4.653   2.057  0.5857  1.4530  1.0753
 9124SOL     OW39007   3.006   1.097   5.846 -0.7636 -0.1388 -0.8200
 9124SOL    HW139008   2.961   1.169   5.802 -0.8524  0.8136  0.8221
 9124SOL    HW239009   2.925   1.068   5.890 -0.0174 -2.4033 -0.9247
 9125SOL     OW39010   1.775   4.412   2.097  0.2009 -0.7050  0.3466
 9125SOL    HW139011   1.760   4.349   2.167 -2.4520 -1.1336 -0.5886
 9125SOL    HW239012   1.821   4.480   2.146 -3.2831  1.5064  0.5922
 9126SOL     OW39013   1.809   1.768  14.347 -0.0638 -0.3881 -0.5426
 9126SOL    HW139014   1.762   1.845  14.315 -0.2922 -0.9576 -1.5908
 9126SOL    HW239015   1.853   1.736  14.268  1.0724 -0.4208  0.0923
 9127SOL     OW39016   0.590   2.165  10.566  0.6839  0.7088 -0.3092
 9127SOL    HW139017   0.620   2.083  10.605  0.8127  0.9348  0.0675
 9127SOL    HW239018   0.549   2.212  10.638 -3.2748  0.5209 -2.4054
 9128SOL     OW39019   3.222   0.906   4.837 -0.1541  0.2776 -0.0340
 9128SOL    HW139020   3.275   0.829   4.814  0.0704 -0.4232  2.8360
 9128SOL    HW239021   3.279   0.973   4.800 -0.0805 -1.5920 -3.3648
 9129SOL     OW39022   1.884   3.720   3.276 -0.0144  0.1543 -0.6794
 9129SOL    HW139023   1.804   3.700   3.325 -0.6343  0.7597 -1.4660
 9129SOL    HW239024   1.871   3.814   3.286  1.2945  0.0634  1.9848
 9130SOL     OW39025   4.314   4.485   3.575  0.2001  0.7054 -0.2871
 9130SOL    HW139026   4.246   4.549   3.597  1.8317  2.9630 -1.8297
 9130SOL    HW239027   4.358   4.531   3.504 -0.1432  0.2007 -0.8250
 9131SOL     OW39028   1.446   4.555  12.023  0.0147  0.0308 -0.1768
 9131SOL    HW139029   1.456   4.486  11.958  3.7546 -0.0906  0.5657
 9131SOL    HW239030   1.475   4.518  12.107 -1.0802  0.0986  0.2409
 9132SOL     OW39031   3.586   2.952  15.758  0.0573 -0.2366  0.3058
 9132SOL    HW139032   3.674   2.943  15.720 -0.1372 -3.3151  0.5243
 9132SOL    HW239033   3.554   3.024  15.704 -1.2948 -0.0787  1.3243
 9133SOL     OW39034   2.838   1.535   9.045  0.1447  0.2261 -0.1082
 9133SOL    HW139035   2.839   1.440   9.055  0.7374  0.1787 -0.6322
 9133SOL    HW239036   2.875   1.548   8.958 -1.2580 -1.1118 -0.9038
 9134SOL     OW39037   3.916   2.043  13.177 -0.3219 -0.3118  0.0182
 9134SOL    HW139038   4.000   2.050  13.223  1.4075 -1.9907 -2.8044
 9134SOL    HW239039   3.942   2.002  13.094 -1.4159 -0.3659 -0.2996
 9135SOL     OW39040   3.681   0.596   6.733  0.0233 -0.6243 -0.3211
 9135SOL    HW139041   3.719   0.677   6.765 -0.3704  1.1511 -4.3370
 9135SOL    HW239042   3.684   0.554   6.819 -1.3642 -0.8495 -0.3729
 9136SOL     OW39043   3.376   0.833   9.156 -0.1310  0.0126 -0.2063
 9136SOL    HW139044   3.455   0.852   9.207 -0.3468  1.7084 -0.4957
 9136SOL    HW239045   3.365   0.918   9.114 -1.7523  0.3978  0.9802
 9137SOL     OW39046   2.399   4.685   2.579  0.3712  0.3077  0.2854
 9137SOL    HW139047   2.414   0.035   2.619  0.3255  1.0168 -1.2210
 9137SOL    HW239048   2.480   4.638   2.598  0.5932  0.9903  0.9880
 9138SOL     OW39049   0.640   1.954  14.692  0.7126  0.4755 -0.1775
 9138SOL    HW139050   0.637   2.015  14.765  2.2133 -3.5579  3.2581
 9138SOL    HW239051   0.637   2.014  14.617 -1.2312 -0.8873 -1.1786
 9139SOL     OW39052   2.219   0.560   9.391 -0.1130  0.1213  0.2384
 9139SOL    HW139053   2.200   0.468   9.372  1.3244 -0.0524 -0.3349
 9139SOL    HW239054   2.140   0.584   9.440  0.0187 -2.6518  1.8197
 9140SOL     OW39055   1.764   0.153   2.075  0.0373 -0.0933  0.4103
 9140SOL    HW139056   1.758   0.077   2.016 -1.5403  1.4968 -1.4981
 9140SOL    HW239057   1.733   0.220   2.014 -0.9058 -1.4317 -0.5915
 9141SOL     OW39058   3.709   1.993   4.136 -0.4132  0.1266  0.5583
 9141SOL    HW139059   3.646   1.922   4.140 -0.7757  0.3043 -1.8444
 9141SOL    HW239060   3.655   2.059   4.093 -0.1768  1.1853  1.8657
 9142SOL     OW39061   3.173   1.477   6.483 -1.0141 -0.4974 -0.2106
 9142SOL    HW139062   3.171   1.430   6.399  1.0813 -2.4135  0.8271
 9142SOL    HW239063   3.181   1.394   6.530  3.0510 -1.8947 -3.4424
 9143SOL     OW39064   3.493   3.036   0.748  0.1269  0.0435 -0.6032
 9143SOL    HW139065   3.551   2.994   0.811 -1.7484 -0.3149  0.8965
 9143SOL    HW239066   3.541   3.027   0.666 -1.0548  2.9237 -1.6158
 9144SOL     OW39067   1.367   2.618   6.563 -0.0992  0.0394 -0.0043
 9144SOL    HW139068   1.401   2.601   6.651 -0.6767 -1.6226 -0.1103
 9144SOL    HW239069   1.273   2.625   6.579 -0.2018 -1.9578  0.2507
 9145SOL     OW39070   3.521   2.781   4.850  0.4652 -1.0633  0.0502
 9145SOL    HW139071   3.425   2.787   4.850  0.4810 -0.7319 -2.0951
 9145SOL    HW239072   3.541   2.702   4.899 -0.3037 -1.1424  0.2454
 9146SOL     OW39073   0.904   3.915  17.347  1.0392  0.7294  0.2654
 9146SOL    HW139074   0.929   3.922  17.255 -0.3632 -0.0445 -0.1796
 9146SOL    HW239075   0.855   3.997  17.354 -0.5995 -0.1739 -0.6672
 9147SOL     OW39076   4.526   2.609   7.158 -0.3212  0.3996 -0.1509
 9147SOL    HW139077   4.476   2.635   7.235  0.2770  1.7296 -0.2099
 9147SOL    HW239078   4.592   2.557   7.202  1.4652  0.1489 -3.0864
 9148SOL     OW39079   3.500   2.256   5.304  0.2821  0.2664 -0.1011
 9148SOL    HW139080   3.449   2.175   5.308  0.7329  0.1397  3.3178
 9148SOL    HW239081   3.438   2.319   5.267 -1.3765 -0.7256  1.0284
 9149SOL     OW39082   4.002   1.880   6.450  0.2492  0.0029 -0.1448
 9149SOL    HW139083   4.033   1.811   6.391  0.2619  0.0767 -0.2232
 9149SOL    HW239084   3.926   1.841   6.493 -0.1286  3.8687  2.6443
 9150SOL     OW39085   2.306   2.772   2.919  0.7803 -0.3339  0.3444
 9150SOL    HW139086   2.239   2.790   2.853  2.4298  0.1823 -1.1713
 9150SOL    HW239087   2.264   2.738   2.998  0.9900  0.5206  0.8305
 9151SOL     OW39088   2.127   1.660   0.848  0.1665  0.0192 -0.2751
 9151SOL    HW139089   2.210   1.612   0.848  1.5753  2.5036 -0.8783
 9151SOL    HW239090   2.071   1.595   0.891  0.1056 -0.0335 -0.4344
 9152SOL     OW39091   1.385   1.625   7.155  0.0573 -0.4344 -0.3537
 9152SOL    HW139092   1.369   1.640   7.249 -1.2604  1.3013 -0.8544
 9152SOL    HW239093   1.310   1.568   7.137 -0.7015  0.6529 -0.6708
 9153SOL     OW39094   0.020   2.368   4.427  0.6923 -0.0149 -0.6439
 9153SOL    HW139095   0.086   2.427   4.465 -0.5811  1.3183 -0.5199
 9153SOL    HW239096   0.019   2.301   4.495 -3.0253  0.8988  0.1736
 9154SOL     OW39097   2.480   1.715   6.342  0.0313 -0.3208  0.1700
 9154SOL    HW139098   2.486   1.785   6.277 -2.0186  0.2620  0.6231
 9154SOL    HW239099   2.461   1.770   6.418  0.4286 -0.0263  0.0584
 9155SOL     OW39100   2.886   2.673   2.721 -0.0621  0.0339 -0.6822
 9155SOL    HW139101   2.856   2.764   2.725  0.4030  0.1767 -0.3677
 9155SOL    HW239102   2.975   2.695   2.694  0.9259 -1.1102  1.6728
 9156SOL     OW39103   3.745   3.423   6.090 -0.6100 -0.2494  0.0148
 9156SOL    HW139104   3.758   3.482   6.016  2.5243  1.4001  1.8486
 9156SOL    HW239105   3.782   3.480   6.158 -1.7356  0.0894  0.3364
 9157SOL     OW39106   0.597   4.339  16.298  0.1193  0.3978 -0.1879
 9157SOL    HW139107   0.680   4.360  16.256  0.1801 -1.2222 -0.8872
 9157SOL    HW239108   0.617   4.336  16.392 -0.3954  3.0554  0.0044
 9158SOL     OW39109   4.006   2.906  11.302  0.3423 -0.4012  0.5600
 9158SOL    HW139110   4.058   2.831  11.330  0.8978 -0.6313 -1.0911
 9158SOL    HW239111   4.038   2.930  11.215 -1.8394 -0.6321 -0.3032
 9159SOL     OW39112   3.034   2.305   0.177 -0.7993  0.5499  0.0131
 9159SOL    HW139113   2.975   2.306   0.253 -2.5462 -3.1012 -1.3158
 9159SOL    HW239114   3.113   2.336   0.222 -2.8081  1.8316  2.6923
 9160SOL     OW39115   2.416   1.093   2.584 -0.2437  0.0382  0.5227
 9160SOL    HW139116   2.413   1.171   2.528 -1.6879  1.9013  3.1814
 9160SOL    HW239117   2.404   1.017   2.528 -0.5516  0.8944 -0.5849
 9161SOL     OW39118   0.866   4.205   2.737 -0.1686  0.1950  0.6721
 9161SOL    HW139119   0.929   4.266   2.699  0.7424 -0.5798  0.9544
 9161SOL    HW239120   0.827   4.271   2.794 -2.4270 -0.3144 -0.2939
 9162SOL     OW39121   1.809   1.594   8.203 -0.2348 -0.2946  0.3484
 9162SOL    HW139122   1.735   1.536   8.185  0.2584 -0.5169 -0.9482
 9162SOL    HW239123   1.812   1.650   8.126 -2.4196 -1.4395 -0.5744
 9163SOL     OW39124   2.421   3.472   7.960  0.1498 -0.0891 -0.2813
 9163SOL    HW139125   2.369   3.394   7.941  2.3477 -1.6539  0.1098
 9163SOL    HW239126   2.491   3.443   8.019 -0.0482 -0.5914 -0.2938
 9164SOL     OW39127   3.440   1.911   6.023  0.3465 -0.1711  0.0897
 9164SOL    HW139128   3.498   1.860   5.968  0.0892 -0.6641  0.2732
 9164SOL    HW239129   3.497   1.949   6.090 -2.7723  4.0567  0.3959
 9165SOL     OW39130   1.515   1.097   5.194 -0.0675  0.1109  0.1646
 9165SOL    HW139131   1.601   1.094   5.236 -0.7274  3.2732  1.7087
 9165SOL    HW239132   1.454   1.059   5.257  0.5254  0.2665  0.8252
 9166SOL     OW39133   0.198   3.586   5.554 -0.1489 -0.3499  0.0616
 9166SOL    HW139134   0.275   3.639   5.531 -0.6068  0.3751  0.2031
 9166SOL    HW239135   0.220   3.510   5.500  4.5637 -2.0094  4.2648
 9167SOL     OW39136   1.478   0.046   0.475  0.0474 -0.5857 -0.0177
 9167SOL    HW139137   1.384   0.061   0.483 -0.0361 -1.3353  0.3786
 9167SOL    HW239138   1.519   0.092   0.548 -0.2722 -2.4882  1.3392
 9168SOL     OW39139   1.816   1.973   4.047 -0.2172 -0.3043 -0.0880
 9168SOL    HW139140   1.762   1.938   3.976 -0.1570 -0.7188  0.0722
 9168SOL    HW239141   1.751   2.033   4.085  1.2127  1.4780 -0.4797
 9169SOL     OW39142   1.353   2.391   6.234 -0.3668  0.3393 -0.3690
 9169SOL    HW139143   1.277   2.438   6.268  0.5958  0.1786  1.9682
 9169SOL    HW239144   1.392   2.344   6.307 -0.1446  0.2700 -0.5311
 9170SOL     OW39145   1.234   3.038   5.176 -0.0550 -0.2263  0.0478
 9170SOL    HW139146   1.279   2.990   5.246 -0.3028 -1.0793 -0.3765
 9170SOL    HW239147   1.265   3.126   5.198  0.6551 -1.0257  2.2986
 9171SOL     OW39148   4.708   0.214   6.583  0.6942  0.1552 -0.2456
 9171SOL    HW139149   4.729   0.307   6.578 -2.9848  0.8656 -1.9231
 9171SOL    HW239150   4.674   0.194   6.496  0.8828  1.0746 -0.5259
 9172SOL     OW39151   2.916   4.497   5.791 -0.4602 -0.0578  0.1491
 9172SOL    HW139152   2.838   4.445   5.814 -1.6026  1.4448 -0.3696
 9172SOL    HW239153   2.969   4.422   5.763 -2.4723 -1.1232 -0.8160
 9173SOL     OW39154   1.653   2.160   8.045 -0.4865 -0.0215 -0.4935
 9173SOL    HW139155   1.698   2.201   8.119 -0.1944  0.7913 -1.1241
 9173SOL    HW239156   1.639   2.071   8.077  0.5823  0.1816  0.5579
 9174SOL     OW39157   1.067   4.290   3.809 -0.0158  0.0094  0.3627
 9174SOL    HW139158   1.139   4.350   3.787  1.4823 -0.6384  3.6655
 9174SOL    HW239159   1.024   4.271   3.725 -1.9433 -1.1103  1.6326
 9175SOL     OW39160   4.275   1.902   7.021 -0.3159 -0.2390  0.0668
 9175SOL    HW139161   4.199   1.861   6.981 -1.6229  1.5703  0.6830
 9175SOL    HW239162   4.282   1.864   7.108  1.4746  0.2116  0.1225
 9176SOL     OW39163   1.557   4.642   5.773  0.0807  0.0309  0.0411
 9176SOL    HW139164   1.634   4.676   5.728  0.6636 -1.3649 -0.0027
 9176SOL    HW239165   1.548   4.565   5.716  0.8649  1.9568 -2.6852
 9177SOL     OW39166   2.375   3.796   4.306  0.0530  0.3601  0.1399
 9177SOL    HW139167   2.437   3.755   4.367 -0.8110 -2.4715 -0.8665
 9177SOL    HW239168   2.293   3.769   4.346  0.6875 -0.9334  0.5857
 9178SOL     OW39169   3.412   3.215   7.875  0.0315 -0.4438  0.1786
 9178SOL    HW139170   3.335   3.254   7.834 -0.6786 -1.1923  0.7998
 9178SOL    HW239171   3.360   3.144   7.912  1.5750 -0.4775  2.3123
 9179SOL     OW39172   3.765   3.745  12.813  0.6344  0.1969 -0.2510
 9179SOL    HW139173   3.803   3.694  12.884  0.6380 -0.5378 -0.7761
 9179SOL    HW239174   3.747   3.674  12.750 -0.8346  0.3659 -0.0191
 9180SOL     OW39175   2.212   2.627   2.187 -0.1144 -0.2099  0.0108
 9180SOL    HW139176   2.143   2.592   2.243 -2.3807  0.9101 -2.0589
 9180SOL    HW239177   2.187   2.719   2.197  0.4068 -0.0852  0.1599
 9181SOL     OW39178   2.689   2.983   3.302  0.2826  0.1298 -0.0797
 9181SOL    HW139179   2.644   3.008   3.222  2.9174  2.1771 -0.9214
 9181SOL    HW239180   2.766   2.943   3.260  0.0880 -1.3887  0.9918
 9182SOL     OW39181   2.491   4.657   9.271 -0.1970 -0.4835  0.7428
 9182SOL    HW139182   2.516   0.001   9.224  1.3438  0.7799  3.6536
 9182SOL    HW239183   2.401   4.684   9.292 -1.2407 -1.0411 -3.1218
 9183SOL     OW39184   2.062   3.145   8.411  0.3649  0.2074 -0.3049
 9183SOL    HW139185   2.058   3.210   8.341 -0.8006  0.2491 -0.1979
 9183SOL    HW239186   2.004   3.187   8.475  0.3160 -1.2814  0.6128
 9184SOL     OW39187   2.008   1.337  15.846 -0.3288 -0.0835  0.1075
 9184SOL    HW139188   1.993   1.389  15.767 -1.9540  0.0159  0.4773
 9184SOL    HW239189   2.055   1.258  15.821 -2.3433 -1.4878  0.7451
 9185SOL     OW39190   2.811   1.463   4.969  0.4756  0.0926 -0.0143
 9185SOL    HW139191   2.716   1.465   4.963  0.5609 -0.3990 -1.5903
 9185SOL    HW239192   2.822   1.369   4.987  0.0123 -0.1322 -0.8990
 9186SOL     OW39193   3.303   3.347   6.204  0.1123  0.9835 -0.7054
 9186SOL    HW139194   3.295   3.255   6.228 -0.1441  1.3090  0.4582
 9186SOL    HW239195   3.378   3.351   6.144 -0.8071 -0.6499 -1.9477
 9187SOL     OW39196   1.880   0.021   4.123  0.0176  0.4580 -0.3063
 9187SOL    HW139197   1.798   0.068   4.133  0.4891  1.3903 -0.8461
 9187SOL    HW239198   1.903   0.032   4.031 -1.3456  0.5277 -0.6285
 9188SOL     OW39199   0.730   3.389   2.211 -0.1816  0.1860  0.1374
 9188SOL    HW139200   0.678   3.322   2.254  1.2385 -0.6103  0.5986
 9188SOL    HW239201   0.662   3.452   2.187 -0.2333  0.6636  1.5635
 9189SOL     OW39202   1.661   0.793   6.712 -0.0532  0.6166  0.3888
 9189SOL    HW139203   1.747   0.767   6.680  0.6338  1.1049  1.8413
 9189SOL    HW239204   1.614   0.710   6.715 -0.7012  0.9349 -0.7895
 9190SOL     OW39205   4.211   2.211   3.615 -0.0334  0.2626 -0.0844
 9190SOL    HW139206   4.140   2.240   3.558  0.8439  0.2494 -1.1754
 9190SOL    HW239207   4.207   2.285   3.675  2.1193 -0.6008  1.1268
 9191SOL     OW39208   3.550   1.488   0.058 -0.1960  0.2306 -0.1729
 9191SOL    HW139209   3.530   1.545   0.132 -2.4757 -0.8987  0.0921
 9191SOL    HW239210   3.479   1.504  17.737 -0.9450  0.7129  0.8034
 9192SOL     OW39211   1.370   0.294   6.048 -0.1616 -0.4028 -0.0613
 9192SOL    HW139212   1.458   0.332   6.054 -0.7193  0.5995  1.5687
 9192SOL    HW239213   1.381   0.231   5.976 -0.1034 -1.9980  1.3572
 9193SOL     OW39214   2.534   4.507   5.693  0.3636  0.1102  0.5025
 9193SOL    HW139215   2.522   4.602   5.689 -2.5227 -0.2517  0.5011
 9193SOL    HW239216   2.528   4.486   5.600  0.8274 -3.7490  1.3458
 9194SOL     OW39217   2.034   4.516  14.935 -0.6372 -0.3186 -0.2401
 9194SOL    HW139218   2.121   4.495  14.901 -1.0771 -0.4306 -1.3298
 9194SOL    HW239219   1.995   4.556  14.857 -0.2627  0.4486 -0.0301
 9195SOL     OW39220   2.680   0.035   3.632 -0.0200  0.2423  0.2616
 9195SOL    HW139221   2.674   0.126   3.662  0.4803  0.5259 -0.4840
 9195SOL    HW239222   2.724   4.727   3.704  2.8850 -0.3777 -1.8886
 9196SOL     OW39223   3.482   2.619   3.773  0.1720 -0.1297 -0.1991
 9196SOL    HW139224   3.551   2.562   3.805 -1.0990 -0.7260  1.4874
 9196SOL    HW239225   3.469   2.683   3.843  0.9098 -1.1342  0.8363
 9197SOL     OW39226   0.457   1.923   7.166  0.4192 -0.5606 -0.3702
 9197SOL    HW139227   0.377   1.901   7.214 -0.3619 -0.3534 -1.5794
 9197SOL    HW239228   0.453   1.859   7.096  0.3970 -2.1464  1.0895
 9198SOL     OW39229   2.900   0.847   6.381 -0.2564 -0.3029  0.5578
 9198SOL    HW139230   2.960   0.829   6.453  0.5927 -0.6287 -0.2234
 9198SOL    HW239231   2.826   0.878   6.433  0.9851  1.0237  1.5370
 9199SOL     OW39232   3.139   0.314   6.060 -0.0164  0.1388 -0.2452
 9199SOL    HW139233   3.117   0.354   5.976 -0.8660 -0.8317 -0.4885
 9199SOL    HW239234   3.220   0.265   6.042  0.9644  2.0068 -0.8648
 9200SOL     OW39235   2.010   3.113  10.342 -0.5555 -0.1387 -0.4453
 9200SOL    HW139236   1.997   3.050  10.271 -0.2988  0.9191 -1.4397
 9200SOL    HW239237   1.936   3.087  10.397 -1.4890  4.5265  0.5317
 9201SOL     OW39238   4.044   0.900   5.875 -0.1413  0.5508 -0.6102
 9201SOL    HW139239   4.041   0.808   5.901 -0.1970  0.1850 -1.9034
 9201SOL    HW239240   3.957   0.930   5.903 -0.2346  1.0018 -1.3622
 9202SOL     OW39241   1.861   0.792   6.309 -0.4748 -0.0982  0.1632
 9202SOL    HW139242   1.835   0.737   6.383  0.2528 -4.1280 -2.5298
 9202SOL    HW239243   1.846   0.731   6.237  1.2397  0.9569 -1.0734
 9203SOL     OW39244   1.999   1.035   4.012 -0.0423 -0.5689  0.3880
 9203SOL    HW139245   1.944   1.113   4.010  0.2888 -0.3255  0.7691
 9203SOL    HW239246   2.086   1.055   4.048 -0.1460 -2.3294  1.5778
 9204SOL     OW39247   2.542   0.080   8.994  0.2345 -0.2389  0.2848
 9204SOL    HW139248   2.629   0.103   9.028  0.3244 -0.7202  0.3837
 9204SOL    HW239249   2.571   0.066   8.904 -0.6048  0.8943 -0.1512
 9205SOL     OW39250   1.911   2.335  11.615 -0.4259 -0.1237 -0.2696
 9205SOL    HW139251   1.942   2.363  11.529 -0.8985 -1.1771 -0.7815
 9205SOL    HW239252   1.975   2.270  11.642  0.7212  1.2209  0.2719
 9206SOL     OW39253   2.637   0.464   6.038  0.2703 -0.3146 -0.2833
 9206SOL    HW139254   2.547   0.490   6.015  1.1064  2.5481 -0.2901
 9206SOL    HW239255   2.646   0.530   6.106 -1.3228 -0.1089 -0.2768
 9207SOL     OW39256   2.231   3.877  17.638 -0.3719 -0.0370 -0.2919
 9207SOL    HW139257   2.153   3.884  17.583 -0.2453  1.8584 -0.2303
 9207SOL    HW239258   2.296   3.937  17.602 -0.8757 -0.0332 -1.1868
 9208SOL     OW39259   3.454   2.050   3.989 -0.2604  0.7087 -0.1518
 9208SOL    HW139260   3.439   2.134   3.946 -0.0845  0.9026  0.1675
 9208SOL    HW239261   3.437   1.993   3.914  0.6286  0.3948 -0.1194
 9209SOL     OW39262   1.687   1.041  17.535  0.2916 -0.3053  0.2205
 9209SOL    HW139263   1.611   0.987  17.513  1.8734 -2.3988 -0.1040
 9209SOL    HW239264   1.735   1.050  17.453  3.2458 -2.3569  1.7314
 9210SOL     OW39265   2.199   2.740  13.856  0.1419  0.3005 -0.8312
 9210SOL    HW139266   2.269   2.699  13.806  0.1488  2.0548 -2.2899
 9210SOL    HW239267   2.229   2.829  13.876 -2.2242  0.3933  2.3428
 9211SOL     OW39268   0.283   3.055   4.007 -0.1514 -0.7611  0.6052
 9211SOL    HW139269   0.224   2.998   4.054 -0.9654  0.2347  0.7871
 9211SOL    HW239270   0.277   3.137   4.056  0.6481 -1.2222  1.4804
 9212SOL     OW39271   0.213   3.852   3.646  0.2854 -0.4459  0.0382
 9212SOL    HW139272   0.145   3.846   3.579  1.6971  2.6517 -1.6748
 9212SOL    HW239273   0.264   3.772   3.633 -0.5623 -0.7740 -1.2941
 9213SOL     OW39274   2.466   0.807   3.532 -0.0830 -0.0616 -0.1318
 9213SOL    HW139275   2.423   0.845   3.608 -2.1373  0.1176 -1.3717
 9213SOL    HW239276   2.556   0.836   3.550 -0.3272 -0.1750  1.2547
 9214SOL     OW39277   1.555   1.407   9.708 -0.3452  0.1561  0.6977
 9214SOL    HW139278   1.507   1.471   9.656 -0.6015 -0.9691 -0.4563
 9214SOL    HW239279   1.518   1.425   9.794 -0.8414 -0.8041  0.6909
 9215SOL     OW39280   3.342   4.706   6.545  0.3136 -0.7546 -0.2486
 9215SOL    HW139281   3.427   4.691   6.503  0.5858  0.7957 -0.2524
 9215SOL    HW239282   3.354   0.064   6.563  2.1642 -0.8926 -0.7966
 9216SOL     OW39283   1.857   1.078  12.895  0.3182 -0.4386  0.5610
 9216SOL    HW139284   1.890   1.129  12.968 -0.1657 -2.3199  2.1036
 9216SOL    HW239285   1.761   1.088  12.898  0.3805  0.2859  0.0344
 9217SOL     OW39286   0.913   2.776   5.657  0.1364  0.2449  0.0511
 9217SOL    HW139287   0.880   2.720   5.727  0.1344  0.4705  0.2266
 9217SOL    HW239288   0.840   2.813   5.608  0.1530  1.5162  1.0122
 9218SOL     OW39289   1.524   2.755   3.611 -0.1545  0.0094 -0.1617
 9218SOL    HW139290   1.509   2.840   3.651  1.5747  0.6807 -0.9736
 9218SOL    HW239291   1.476   2.762   3.528 -1.6076  0.4521  0.7060
 9219SOL     OW39292   3.265   4.008  12.793  0.0991  0.6218  0.0233
 9219SOL    HW139293   3.360   4.000  12.780  0.2315 -0.1222  1.4754
 9219SOL    HW239294   3.245   3.916  12.780 -2.8685  1.0399  1.8263
 9220SOL     OW39295   3.475   3.163   2.929 -0.2390  1.1595 -0.0052
 9220SOL    HW139296   3.561   3.136   2.897 -1.9224 -0.7594 -2.9803
 9220SOL    HW239297   3.433   3.077   2.933 -2.0447  1.9802 -0.9635
 9221SOL     OW39298   3.563   0.146   5.776 -0.3344  0.2360 -0.2563
 9221SOL    HW139299   3.539   0.169   5.687 -0.2744  0.8779 -0.1069
 9221SOL    HW239300   3.656   0.167   5.773 -0.4843  0.9754  0.2090
 9222SOL     OW39301   4.143   1.413  17.388  0.1827 -0.0953 -0.2679
 9222SOL    HW139302   4.153   1.377  17.476 -2.1214  1.0974  0.5013
 9222SOL    HW239303   4.194   1.355  17.331 -0.0476  0.2163 -0.7919
 9223SOL     OW39304   1.895   1.060   5.163 -0.3004 -0.3898  0.5814
 9223SOL    HW139305   1.856   1.125   5.104  2.7822 -0.8290 -1.9103
 9223SOL    HW239306   1.850   0.982   5.130  0.8877 -0.3618 -1.0900
 9224SOL     OW39307   2.973   1.117   6.309  0.1178 -0.2873 -0.4661
 9224SOL    HW139308   2.887   1.150   6.283 -0.1136  1.2227  2.2073
 9224SOL    HW239309   2.950   1.026   6.293 -0.3779 -0.0985 -0.8444
 9225SOL     OW39310   3.444   3.360   6.887 -0.2963 -0.3192 -0.5418
 9225SOL    HW139311   3.361   3.327   6.855 -0.4510 -1.3406  0.8990
 9225SOL    HW239312   3.431   3.455   6.894 -0.1780 -0.2360 -1.4428
 9226SOL     OW39313   4.354   3.867   0.747 -0.3163 -0.3804  0.7098
 9226SOL    HW139314   4.277   3.861   0.804 -1.3069 -1.8463 -0.7931
 9226SOL    HW239315   4.321   3.894   0.661  0.6547  0.3921  0.5877
 9227SOL     OW39316   3.423   1.057   6.789 -0.2678  0.2781 -0.1257
 9227SOL    HW139317   3.408   1.022   6.877 -0.0732 -0.6483 -0.4680
 9227SOL    HW239318   3.496   1.006   6.755 -1.4803 -1.0768 -0.7056
 9228SOL     OW39319   0.621   2.641  10.321  0.5107  0.2359 -0.0123
 9228SOL    HW139320   0.711   2.659  10.292  0.6113  0.0074  0.1521
 9228SOL    HW239321   0.639   2.598  10.405 -2.2167  1.3910  1.1323
 9229SOL     OW39322   1.029   4.270  16.684 -0.1396  0.1206 -0.5027
 9229SOL    HW139323   0.987   4.211  16.620 -1.4463  0.5533 -0.0528
 9229SOL    HW239324   0.979   4.262  16.766  0.3606  0.1046 -0.2026
 9230SOL     OW39325   0.793   1.008   1.019  0.1722 -0.2449  0.1624
 9230SOL    HW139326   0.783   1.016   0.924 -1.3417  2.7075  0.5652
 9230SOL    HW239327   0.713   1.051   1.050  0.4850 -1.9406  3.2324
 9231SOL     OW39328   0.339   3.732  10.684 -0.2463  0.5048  0.2475
 9231SOL    HW139329   0.336   3.729  10.780 -1.3401  0.4653  0.2177
 9231SOL    HW239330   0.252   3.717  10.647  0.4163  0.6281 -1.3379
 9232SOL     OW39331   4.205   4.674   1.952  0.1179 -0.4175  0.2619
 9232SOL    HW139332   4.199   4.598   2.009  1.1529  0.2617  1.2572
 9232SOL    HW239333   4.297   4.676   1.928  0.4969  2.0351  1.8827
 9233SOL     OW39334   3.358   0.372  12.672  0.4377 -0.0951 -0.1650
 9233SOL    HW139335   3.263   0.380  12.660  0.5251 -0.2479 -0.9415
 9233SOL    HW239336   3.370   0.306  12.605  1.9822 -0.4126  0.4163
 9234SOL     OW39337   1.398   1.611   5.845  0.6998 -0.4097 -0.2526
 9234SOL    HW139338   1.462   1.545   5.818  0.8914 -0.6950  0.8753
 9234SOL    HW239339   1.354   1.554   5.908 -1.1928  0.8801 -0.3881
 9235SOL     OW39340   3.943   3.679   4.310 -0.0396  0.4276  0.0440
 9235SOL    HW139341   3.954   3.704   4.219 -0.1224 -0.6986 -0.2788
 9235SOL    HW239342   3.854   3.644   4.315  0.4326 -0.9606 -1.1614
 9236SOL     OW39343   1.190   1.945   5.594 -0.2703 -0.1644 -0.4787
 9236SOL    HW139344   1.155   2.023   5.637 -0.8666 -1.0777  0.6753
 9236SOL    HW239345   1.135   1.877   5.631  0.4474 -0.5329 -0.0910
 9237SOL     OW39346   1.111   1.996   4.341 -0.3282 -0.0609  0.1391
 9237SOL    HW139347   1.090   1.938   4.268  2.1735 -1.8933  0.8792
 9237SOL    HW239348   1.097   1.941   4.418 -1.4088 -0.6047 -0.4359
 9238SOL     OW39349   0.577   2.251   1.073  0.4544 -0.5613 -0.7318
 9238SOL    HW139350   0.516   2.186   1.106 -1.3952  1.1091 -0.8660
 9238SOL    HW239351   0.526   2.328   1.097  1.8046  0.4195 -1.0131
 9239SOL     OW39352   1.195   1.814  14.592 -0.4651  0.1843 -0.0376
 9239SOL    HW139353   1.166   1.830  14.502 -0.3193  1.4998  0.1498
 9239SOL    HW239354   1.162   1.891  14.639  0.7404  1.0119 -0.5179
 9240SOL     OW39355   0.178   2.585   7.967 -0.4448 -0.4289  0.5918
 9240SOL    HW139356   0.174   2.649   7.896  1.3327 -1.3918 -0.3604
 9240SOL    HW239357   0.273   2.578   7.966 -0.4249  0.1565 -0.7517
 9241SOL     OW39358   0.275   3.699   4.672 -0.3171  0.4207 -0.6142
 9241SOL    HW139359   0.333   3.672   4.601 -0.8106 -1.6932 -0.2129
 9241SOL    HW239360   0.238   3.615   4.697  1.2267  0.0933  0.5667
 9242SOL     OW39361   0.841   3.325  13.125 -0.3477  0.1391 -0.3519
 9242SOL    HW139362   0.892   3.373  13.191  2.7665 -0.2888 -2.4289
 9242SOL    HW239363   0.751   3.346  13.150 -0.1683 -1.2454  1.4666
 9243SOL     OW39364   0.380   0.933   5.440  0.2033  0.1664  0.6336
 9243SOL    HW139365   0.423   0.996   5.499 -0.1508  0.6749  0.3443
 9243SOL    HW239366   0.374   0.862   5.504 -1.3831  0.3043  0.6384
 9244SOL     OW39367   2.014   2.553   6.673 -0.7305  0.3504  0.0256
 9244SOL    HW139368   1.981   2.568   6.761 -1.5445  0.1178 -0.2475
 9244SOL    HW239369   1.985   2.464   6.654 -0.7852  0.4351 -0.2950
 9245SOL     OW39370   3.543   1.958  11.274  0.4463  0.0788 -0.5129
 9245SOL    HW139371   3.575   1.977  11.362 -0.8818 -0.9581  0.2017
 9245SOL    HW239372   3.476   2.027  11.265  1.7301  1.7688  2.7893
 9246SOL     OW39373   3.577   1.090   4.066  0.3404  0.2642 -0.4387
 9246SOL    HW139374   3.630   1.024   4.110  1.6124  0.0470 -2.3159
 9246SOL    HW239375   3.616   1.163   4.114 -0.8645  0.5942  0.0255
 9247SOL     OW39376   1.892   1.874   8.428 -0.2750  0.2551  0.2194
 9247SOL    HW139377   1.905   1.909   8.339 -0.0966 -0.9683 -0.2336
 9247SOL    HW239378   1.970   1.821   8.440 -1.1391 -1.0437  0.1468
 9248SOL     OW39379   0.037   2.066   6.764  0.0073 -0.6279 -0.0034
 9248SOL    HW139380   0.015   2.065   6.671  1.8352  0.8240 -0.4725
 9248SOL    HW239381   4.690   2.047   6.808 -0.1539 -0.0225 -0.0436
 9249SOL     OW39382   3.458   1.328   1.503 -0.6112 -0.4251  0.1197
 9249SOL    HW139383   3.515   1.403   1.520 -1.4003  0.1278  0.3187
 9249SOL    HW239384   3.378   1.374   1.528 -2.1040 -2.2705 -1.3713
 9250SOL     OW39385   0.679   0.746  15.017  0.1670  0.3351  0.1496
 9250SOL    HW139386   0.585   0.733  15.010  0.6704 -2.6438 -1.1184
 9250SOL    HW239387   0.677   0.805  15.092  2.1733  0.6432 -0.0370
 9251SOL     OW39388   4.140   1.976   9.396 -0.0938  0.2462  0.3243
 9251SOL    HW139389   4.092   1.894   9.384 -1.3936  1.2222 -1.0766
 9251SOL    HW239390   4.084   2.032   9.450 -2.1816  1.0572 -2.7029
 9252SOL     OW39391   1.707   1.683   2.240  0.0573  0.3160 -0.6632
 9252SOL    HW139392   1.723   1.766   2.195 -0.4218  0.1569 -1.1331
 9252SOL    HW239393   1.745   1.624   2.175  3.7054 -0.4141  2.1887
 9253SOL     OW39394   4.257   2.504   5.823 -0.1992 -0.2047  0.2246
 9253SOL    HW139395   4.318   2.443   5.863  1.7430  1.1244 -0.7368
 9253SOL    HW239396   4.203   2.526   5.899  1.1839  0.3076  1.0395
 9254SOL     OW39397   0.833   0.337   1.871 -0.1549  0.2821  0.4890
 9254SOL    HW139398   0.849   0.325   1.965  1.6786  2.2253  0.4326
 9254SOL    HW239399   0.739   0.322   1.870 -0.1738  0.0808  3.8565
 9255SOL     OW39400   2.392   2.015   9.141  0.7442 -0.3996  0.5773
 9255SOL    HW139401   2.447   2.070   9.197  0.3308  1.8919 -1.2114
 9255SOL    HW239402   2.314   2.070   9.127  0.8374 -0.2031  0.8375
 9256SOL     OW39403   2.877   2.254   8.858  0.2685 -0.1037 -0.6871
 9256SOL    HW139404   2.971   2.265   8.873 -0.0135 -0.0982  1.0808
 9256SOL    HW239405   2.876   2.258   8.763  0.0676  0.4346 -0.6581
 9257SOL     OW39406   2.466   1.253   3.999 -0.0538 -0.0761  0.1188
 9257SOL    HW139407   2.557   1.228   4.012  0.1732  0.2744 -0.7596
 9257SOL    HW239408   2.423   1.181   4.045 -0.3803 -1.0837 -1.7466
 9258SOL     OW39409   2.072   1.542   3.650 -0.4014  0.5080  0.0494
 9258SOL    HW139410   2.009   1.482   3.610  1.9059 -1.9455  0.1094
 9258SOL    HW239411   2.041   1.543   3.741  0.9157 -0.7376  0.5147
 9259SOL     OW39412   0.587   3.884   1.513 -0.1793  0.3043 -0.0639
 9259SOL    HW139413   0.640   3.879   1.592  0.0031 -0.0863 -0.2122
 9259SOL    HW239414   0.644   3.850   1.444  0.2804 -0.3240  0.6276
 9260SOL     OW39415   0.294   4.443   0.369 -0.2415  0.4969 -0.4889
 9260SOL    HW139416   0.305   4.481   0.282  0.0299 -0.2703 -0.7970
 9260SOL    HW239417   0.237   4.507   0.410 -1.8078 -1.9435  1.1820
 9261SOL     OW39418   2.073   1.413   1.948 -0.1751  0.2008  0.0054
 9261SOL    HW139419   2.104   1.329   1.980 -2.4269 -0.3628  0.6579
 9261SOL    HW239420   2.098   1.402   1.856 -0.8036 -0.7102 -0.0529
 9262SOL     OW39421   0.326   2.372   3.518  0.0630 -0.0380 -0.2147
 9262SOL    HW139422   0.390   2.301   3.514  0.2215  0.1279 -0.7131
 9262SOL    HW239423   0.379   2.450   3.533 -1.7148  1.5362 -2.2667
 9263SOL     OW39424   2.779   4.718  11.345  0.2086 -0.4526  0.6536
 9263SOL    HW139425   2.744   4.641  11.301  0.4219 -0.8176  1.1240
 9263SOL    HW239426   2.854   4.699  11.402  1.0031 -2.2437 -0.9775
 9264SOL     OW39427   3.251   4.301   7.623  0.0064  0.8940 -0.1570
 9264SOL    HW139428   3.268   4.373   7.684  1.2336  0.0460  0.5136
 9264SOL    HW239429   3.230   4.349   7.543 -0.7426  0.8988  0.0448
 9265SOL     OW39430   2.928   3.293   4.033 -0.4628  0.0791  0.0832
 9265SOL    HW139431   2.986   3.233   4.081 -0.0804  0.6270  0.3052
 9265SOL    HW239432   2.969   3.275   3.949 -0.7223  0.0030 -0.0285
 9266SOL     OW39433   4.515   0.286   4.194  0.4932  0.4879 -0.0127
 9266SOL    HW139434   4.481   0.199   4.215  0.7015  0.4860  0.3142
 9266SOL    HW239435   4.485   0.282   4.103 -1.0246  0.1840  0.4948
 9267SOL     OW39436   0.611   4.315  16.855  0.3801 -0.4476 -0.0862
 9267SOL    HW139437   0.612   4.336  16.761  0.0814 -0.2306 -0.0395
 9267SOL    HW239438   0.703   4.320  16.878  0.3223  1.7770 -0.3583
 9268SOL     OW39439   3.127   4.353   8.370 -0.5538  0.1342 -0.7494
 9268SOL    HW139440   3.121   4.330   8.463  0.8924 -1.4273 -1.0453
 9268SOL    HW239441   3.202   4.412   8.378 -1.2975  0.8925  0.8511
 9269SOL     OW39442   3.661   3.445   4.062 -0.1038  0.0388 -0.1831
 9269SOL    HW139443   3.656   3.355   4.095 -0.0022  0.6188  1.4078
 9269SOL    HW239444   3.698   3.440   3.974  0.1161 -0.8612 -0.0395
 9270SOL     OW39445   3.807   0.027   3.855 -0.4776 -0.3075  1.0865
 9270SOL    HW139446   3.792   4.702   3.928 -1.0516 -0.7844  0.5723
 9270SOL    HW239447   3.805   4.700   3.783 -0.2817 -0.6378  1.3672
 9271SOL     OW39448   2.345   0.473   5.969 -0.0751  0.1937 -0.6151
 9271SOL    HW139449   2.254   0.471   5.998 -0.8494  0.5580 -2.9624
 9271SOL    HW239450   2.352   0.568   5.962 -0.9276  0.2973 -0.0304
 9272SOL     OW39451   3.212   2.965   1.591 -0.4106  0.0874 -0.0340
 9272SOL    HW139452   3.232   3.040   1.647  0.7516  0.4949 -0.9710
 9272SOL    HW239453   3.290   2.915   1.616 -0.0794  1.0037  0.7577
 9273SOL     OW39454   4.346   3.512   5.488  0.2129 -1.1653 -0.1318
 9273SOL    HW139455   4.393   3.535   5.568  0.9411 -3.3576  0.0557
 9273SOL    HW239456   4.395   3.446   5.439 -1.3178 -1.2921 -1.4965
 9274SOL     OW39457   2.301   1.771  12.462  0.0767  0.2677 -0.1348
 9274SOL    HW139458   2.351   1.729  12.392  1.3559  0.9819  0.3355
 9274SOL    HW239459   2.374   1.785  12.523 -0.0118 -2.0693  0.5072
 9275SOL     OW39460   2.462   0.558   6.808 -0.0926  0.0807  0.5319
 9275SOL    HW139461   2.434   0.639   6.763 -1.0558  0.5207  1.9410
 9275SOL    HW239462   2.557   0.566   6.797 -0.2189  1.4883  0.3680
 9276SOL     OW39463   4.427   0.036  17.282  0.0358  0.5412 -0.6286
 9276SOL    HW139464   4.385   0.092  17.216 -0.2466  0.5709 -0.4257
 9276SOL    HW239465   4.420   0.098  17.354  0.9689  0.4554 -0.4662
 9277SOL     OW39466   0.369   2.933   7.301 -0.0968 -0.6484 -0.0971
 9277SOL    HW139467   0.407   3.005   7.350 -1.5704  0.5496 -0.7074
 9277SOL    HW239468   0.410   2.865   7.355 -0.8266 -0.0612  1.1973
 9278SOL     OW39469   4.114   2.217   2.544  0.1036 -0.2372 -0.0335
 9278SOL    HW139470   4.102   2.126   2.573 -2.1047  0.4290  1.1451
 9278SOL    HW239471   4.119   2.202   2.449 -1.0438  1.9447 -0.4423
 9279SOL     OW39472   2.873   1.502   6.132  0.3153 -0.0863  0.5770
 9279SOL    HW139473   2.810   1.440   6.095  1.1574 -0.6536  0.0780
 9279SOL    HW239474   2.838   1.508   6.221 -0.9659  1.9178 -0.0654
 9280SOL     OW39475   2.272   2.643   7.004  0.6952 -0.0953  0.7748
 9280SOL    HW139476   2.223   2.675   7.080 -1.1600 -0.4267 -0.2773
 9280SOL    HW239477   2.252   2.716   6.945  2.3106  0.2933  0.7259
 9281SOL     OW39478   3.854   3.489   4.608  0.1001 -0.0631 -0.5256
 9281SOL    HW139479   3.838   3.566   4.554  0.8561  1.7229  1.7648
 9281SOL    HW239480   3.826   3.525   4.692  2.2283 -1.5424  0.8354
 9282SOL     OW39481   0.113   4.563   5.716 -0.5745 -0.3661 -0.2259
 9282SOL    HW139482   0.156   4.548   5.632 -0.4450  0.5523 -0.3332
 9282SOL    HW239483   0.025   4.599   5.701 -0.1927  0.5934 -0.1940
 9283SOL     OW39484   1.308   2.730   7.146  1.1677  0.4767 -0.2663
 9283SOL    HW139485   1.358   2.803   7.110  2.3767 -0.8370 -1.2868
 9283SOL    HW239486   1.341   2.727   7.236 -1.3003  0.4438  0.6276
 9284SOL     OW39487   2.335   2.629   4.949  0.1106  0.6556  0.1284
 9284SOL    HW139488   2.265   2.689   4.977 -1.0742 -0.0083 -1.3788
 9284SOL    HW239489   2.389   2.633   5.028  0.9183  0.2854 -0.4056
 9285SOL     OW39490   1.156   1.880   7.735 -0.3324  0.0389  0.4175
 9285SOL    HW139491   1.138   1.956   7.680 -0.3305 -1.5895 -1.8260
 9285SOL    HW239492   1.112   1.809   7.688  0.1876  2.2155 -3.3256
 9286SOL     OW39493   2.934   3.230   8.456 -0.3270 -0.6064 -0.2696
 9286SOL    HW139494   2.918   3.222   8.362  0.1631 -0.2415 -0.3857
 9286SOL    HW239495   2.965   3.321   8.456 -1.0912 -0.3352 -1.8521
 9287SOL     OW39496   1.472   1.624  15.509  0.7138 -0.3483 -0.0313
 9287SOL    HW139497   1.536   1.644  15.578 -1.1051  1.4443  1.1483
 9287SOL    HW239498   1.433   1.711  15.499 -0.7840 -0.6688  2.9728
 9288SOL     OW39499   4.430   1.049   4.347  0.3259 -0.5267 -0.0625
 9288SOL    HW139500   4.347   1.092   4.368 -0.7279 -1.7801 -1.6012
 9288SOL    HW239501   4.462   1.116   4.287  2.2685 -2.6009 -1.3803
 9289SOL     OW39502   2.405   3.423   8.341 -0.3212  0.1610  0.2786
 9289SOL    HW139503   2.351   3.480   8.396 -2.7976 -1.0456 -0.9233
 9289SOL    HW239504   2.472   3.411   8.408 -0.9649  0.9341  1.0646
 9290SOL     OW39505   4.662   0.275  10.288  0.1897  0.1811  0.0072
 9290SOL    HW139506   4.702   0.289  10.374  2.2968 -0.5913 -0.8451
 9290SOL    HW239507   4.702   0.340  10.231  2.2717 -1.2565 -0.1544
 9291SOL     OW39508   4.050   4.476   3.868  0.1524  0.3467 -0.2711
 9291SOL    HW139509   4.112   4.540   3.901 -1.2044  1.3310  0.3776
 9291SOL    HW239510   4.108   4.401   3.859  0.7982  0.8601 -0.3452
 9292SOL     OW39511   4.544   4.315   4.014 -0.2682  0.1476 -0.6245
 9292SOL    HW139512   4.632   4.293   4.043 -0.4236  1.7516  1.0409
 9292SOL    HW239513   4.538   4.403   4.050 -3.1964 -0.8234  1.2367
 9293SOL     OW39514   0.296   1.587   1.925  0.4567  0.5329 -0.6083
 9293SOL    HW139515   0.303   1.560   1.833  2.0200 -2.0321  0.2333
 9293SOL    HW239516   0.345   1.513   1.962 -0.8156  0.4885  0.9929
 9294SOL     OW39517   3.933   2.827   8.322  0.4699 -0.4986  0.0609
 9294SOL    HW139518   3.982   2.887   8.379  0.7145 -0.4564 -0.1945
 9294SOL    HW239519   3.932   2.880   8.242  0.7742  0.5501  0.7521
 9295SOL     OW39520   2.314   0.275  13.731  0.0499  0.1895 -0.0674
 9295SOL    HW139521   2.250   0.204  13.734 -0.2058  0.3631 -1.5460
 9295SOL    HW239522   2.402   0.238  13.740  0.1521 -0.3240 -3.1844
 9296SOL     OW39523   4.207   1.002   2.867  0.5590  0.5786  0.0118
 9296SOL    HW139524   4.274   0.958   2.919  3.7563  1.4500 -3.3473
 9296SOL    HW239525   4.254   1.016   2.784 -0.7565 -0.7921 -0.9712
 9297SOL     OW39526   0.283   0.185  12.180  0.8328 -0.3210 -0.3035
 9297SOL    HW139527   0.351   0.123  12.204 -1.0365 -1.9405  0.7577
 9297SOL    HW239528   0.232   0.121  12.129 -2.4736  2.4803 -0.5593
 9298SOL     OW39529   0.094   1.215  10.398 -0.2264 -0.1667  0.5353
 9298SOL    HW139530   0.081   1.182  10.487  4.1640  1.2328  1.6699
 9298SOL    HW239531   0.078   1.131  10.355  2.7277  0.2355 -1.3650
 9299SOL     OW39532   0.802   1.951   3.113 -0.1737 -0.2518 -0.0533
 9299SOL    HW139533   0.818   1.862   3.080  0.6918 -0.6159  1.3194
 9299SOL    HW239534   0.736   1.973   3.047 -1.3655 -0.4854  1.0673
 9300SOL     OW39535   4.146   0.604   4.159  0.5500 -0.3487 -1.0383
 9300SOL    HW139536   4.178   0.679   4.209 -0.2691 -0.8217  0.1991
 9300SOL    HW239537   4.230   0.584   4.119  0.9364 -0.1400 -0.3345
 9301SOL     OW39538   4.689   1.260  10.986  0.3566  0.0996 -0.0686
 9301SOL    HW139539   0.001   1.267  10.903  0.2371 -0.5529 -0.1892
 9301SOL    HW239540   0.031   1.251  11.042 -0.6940 -1.2712  1.1526
 9302SOL     OW39541   2.302   1.026  11.944 -0.0991 -0.1861 -0.3371
 9302SOL    HW139542   2.235   0.957  11.940 -1.0732  0.6965  1.0224
 9302SOL    HW239543   2.319   1.058  11.855 -2.2130  0.7372 -0.4029
 9303SOL     OW39544   0.631   1.347   2.383  0.2648  0.4982 -0.3191
 9303SOL    HW139545   0.581   1.268   2.400  0.0190  1.2922  2.6463
 9303SOL    HW239546   0.693   1.357   2.456  0.6916 -0.4293 -0.5614
 9304SOL     OW39547   4.015   0.562   5.314  0.0812  0.2004  0.7940
 9304SOL    HW139548   3.983   0.485   5.361  1.2439 -0.4678  0.4834
 9304SOL    HW239549   3.947   0.610   5.266  0.1472 -0.0020  0.5020
 9305SOL     OW39550   4.274   0.920   4.655 -0.0485  0.6576  0.0598
 9305SOL    HW139551   4.240   0.889   4.571  1.3459 -0.3248 -0.1362
 9305SOL    HW239552   4.245   1.011   4.662  1.5274  1.1378  0.4833
 9306SOL     OW39553   3.628   4.479   6.492 -0.2878 -0.0065 -0.6864
 9306SOL    HW139554   3.714   4.446   6.466 -0.1755 -0.0970 -0.1860
 9306SOL    HW239555   3.651   4.536   6.566 -1.8686 -0.5801  0.2371
 9307SOL     OW39556   3.773   4.228   3.563 -0.0786  0.3970 -0.3294
 9307SOL    HW139557   3.833   4.287   3.517 -0.7542  0.2128 -1.4627
 9307SOL    HW239558   3.750   4.284   3.637  1.1188  1.9947 -1.1691
 9308SOL     OW39559   3.810   0.100   3.512  0.2593  0.0298  0.6357
 9308SOL    HW139560   3.750   0.125   3.441  2.1108  0.1905 -0.8975
 9308SOL    HW239561   3.768   0.018   3.537  2.3275 -0.6332  1.8960
 9309SOL     OW39562   0.351   4.675  16.867  0.0664  0.1765  0.1655
 9309SOL    HW139563   0.347   4.595  16.920  0.0999  1.1712  1.6654
 9309SOL    HW239564   0.273   4.672  16.812 -0.0937  0.3311  0.3847
 9310SOL     OW39565   1.152   3.951  15.001  0.8222 -0.0536 -0.7833
 9310SOL    HW139566   1.232   3.923  14.956  0.1941 -2.6568 -0.2633
 9310SOL    HW239567   1.162   4.046  14.996 -0.9235  0.1451 -0.1196
 9311SOL     OW39568   0.058   2.863   1.746 -0.1302  0.4997 -0.0656
 9311SOL    HW139569   0.042   2.819   1.830 -0.8718  1.9309  0.5536
 9311SOL    HW239570   0.097   2.944   1.780 -1.7903  1.3077 -0.1086
 9312SOL     OW39571   3.677   0.708   2.816  0.5304 -0.2866  0.3634
 9312SOL    HW139572   3.628   0.680   2.739  1.2157 -0.4710  0.0015
 9312SOL    HW239573   3.674   0.626   2.865  0.7938 -0.4585  0.0828
 9313SOL     OW39574   1.322   2.692   2.124 -0.1021  0.0474 -0.0231
 9313SOL    HW139575   1.251   2.629   2.114 -0.4989  0.4951 -0.0060
 9313SOL    HW239576   1.280   2.774   2.099 -2.6762 -0.1241  3.7874
 9314SOL     OW39577   2.852   1.888   3.937 -0.1915 -0.2286 -0.2209
 9314SOL    HW139578   2.943   1.881   3.909 -0.1463 -1.2087  0.1686
 9314SOL    HW239579   2.833   1.795   3.947 -1.0980 -0.0178  0.0019
 9315SOL     OW39580   3.670   4.321  14.392  1.2715 -0.1905 -0.6923
 9315SOL    HW139581   3.653   4.393  14.453 -1.1206 -0.9144 -0.5234
 9315SOL    HW239582   3.753   4.295  14.432 -0.0221  1.7464  3.2578
 9316SOL     OW39583   2.863   0.373   5.708 -0.3705 -0.3884  0.6627
 9316SOL    HW139584   2.879   0.333   5.622 -0.7548 -1.6652  1.1821
 9316SOL    HW239585   2.953   0.385   5.738 -0.6441 -0.3362  1.4544
 9317SOL     OW39586   2.929   0.189   1.348  0.0061 -0.6589  0.2832
 9317SOL    HW139587   2.910   0.269   1.397 -1.5117 -1.4935  1.0614
 9317SOL    HW239588   2.978   0.141   1.415 -1.2841 -2.6222 -0.1776
 9318SOL     OW39589   4.021   2.307   9.930 -0.1273  0.2780  0.2346
 9318SOL    HW139590   4.062   2.391   9.951 -2.5790  1.5308  0.0853
 9318SOL    HW239591   4.094   2.246   9.939 -1.2353 -1.1992 -0.7768
 9319SOL     OW39592   2.004   3.190   1.932  0.1819 -0.7918  0.6695
 9319SOL    HW139593   2.091   3.174   1.895  0.0083  1.0240 -0.5125
 9319SOL    HW239594   2.019   3.267   1.986  1.8132  0.3230 -1.3892
 9320SOL     OW39595   0.766   3.993   6.322 -0.0422  0.1956  0.0780
 9320SOL    HW139596   0.749   4.072   6.373 -0.6131 -0.1740  0.4589
 9320SOL    HW239597   0.703   3.928   6.353 -0.8357  0.0377 -1.8447
 9321SOL     OW39598   0.298   1.184   6.670  0.0833 -0.2276  0.2065
 9321SOL    HW139599   0.218   1.169   6.720  0.2912 -0.2451  0.5402
 9321SOL    HW239600   0.267   1.200   6.581 -1.0376 -0.9596  0.4709
 9322SOL     OW39601   2.319   2.660   3.408 -0.2626  0.2604 -0.1108
 9322SOL    HW139602   2.267   2.707   3.343 -1.6228 -0.8374  0.1861
 9322SOL    HW239603   2.256   2.592   3.432 -0.5064  0.9580  1.1993
 9323SOL     OW39604   0.764   3.536   1.249 -0.3846 -0.5620 -0.2367
 9323SOL    HW139605   0.761   3.580   1.164 -0.3141  0.1846  0.1482
 9323SOL    HW239606   0.829   3.590   1.294 -0.4323 -0.7118  0.0096
 9324SOL     OW39607   0.530   4.734  11.025 -0.0077 -0.2837 -0.2590
 9324SOL    HW139608   0.542   4.648  11.067  2.1644 -0.7068 -1.7733
 9324SOL    HW239609   0.553   0.060  11.095  0.2948 -0.8156  0.1087
 9325SOL     OW39610   1.811   1.558   0.746  0.3556  0.0357 -0.6634
 9325SOL    HW139611   1.852   1.499   0.809 -1.5128  1.0540  1.4861
 9325SOL    HW239612   1.756   1.619   0.795  0.7470 -0.1267 -0.0110
 9326SOL     OW39613   1.841   1.914   1.779 -0.2514 -0.2866  0.4886
 9326SOL    HW139614   1.756   1.912   1.735  0.4660  2.6651 -1.0429
 9326SOL    HW239615   1.870   2.004   1.766  2.3374 -1.2606 -0.4065
 9327SOL     OW39616   3.106   2.439  13.290 -0.0910  0.3272  0.6162
 9327SOL    HW139617   3.183   2.495  13.280 -0.2446  0.0653 -1.8999
 9327SOL    HW239618   3.116   2.377  13.218 -0.1809  0.1479  0.7606
 9328SOL     OW39619   4.429   2.857  14.503 -0.5241  0.1073 -0.4624
 9328SOL    HW139620   4.399   2.772  14.536  2.3631 -0.5429  0.4492
 9328SOL    HW239621   4.497   2.870  14.569 -0.7182  1.6417 -0.5629
 9329SOL     OW39622   3.273   0.700   3.881 -0.0301  0.3297  0.4367
 9329SOL    HW139623   3.333   0.773   3.894  1.3185 -0.3079 -2.3293
 9329SOL    HW239624   3.323   0.618   3.881 -0.9129 -0.2111 -0.6321
 9330SOL     OW39625   4.260   2.686   7.604  0.4663  0.2294  0.4504
 9330SOL    HW139626   4.235   2.767   7.561  1.7019  0.2833 -0.1597
 9330SOL    HW239627   4.210   2.687   7.686  1.4925  1.9189  1.0557
 9331SOL     OW39628   1.637   0.703   4.662 -0.1247  0.0909 -0.4987
 9331SOL    HW139629   1.593   0.716   4.578  1.3115  1.0973 -1.0997
 9331SOL    HW239630   1.705   0.647   4.625  0.0156 -1.9807  2.9235
 9332SOL     OW39631   4.470   1.650   1.516 -0.1478  0.5336  0.0815
 9332SOL    HW139632   4.464   1.745   1.530  0.4818  0.8075 -1.5272
 9332SOL    HW239633   4.392   1.617   1.561  1.3769 -0.9618  1.5986
 9333SOL     OW39634   2.281   4.617  11.627  0.0709 -0.5651  0.0915
 9333SOL    HW139635   2.348   4.575  11.681  0.3635 -2.6597 -1.9194
 9333SOL    HW239636   2.314   4.707  11.625 -0.1527 -0.4502  1.5305
 9334SOL     OW39637   3.652   1.718   9.922 -0.3416  0.6857  0.4284
 9334SOL    HW139638   3.668   1.624   9.923 -1.5098  0.5015  1.3783
 9334SOL    HW239639   3.557   1.730   9.926 -0.4751 -0.4970  0.9311
 9335SOL     OW39640   4.340   3.005  13.585 -0.0671  0.1794  0.3349
 9335SOL    HW139641   4.247   3.010  13.606  0.3575  0.0458  2.2966
 9335SOL    HW239642   4.328   2.926  13.533 -0.1137  0.0603  0.5265
 9336SOL     OW39643   1.417   1.786   3.555 -0.0217  0.5877  0.0293
 9336SOL    HW139644   1.489   1.846   3.577  0.6495 -0.0145 -0.5451
 9336SOL    HW239645   1.430   1.773   3.461 -0.4462 -1.7799  0.3069
 9337SOL     OW39646   3.535   2.133   2.868 -0.0650  0.8009 -0.1281
 9337SOL    HW139647   3.457   2.132   2.813 -1.0785 -0.1061  1.3380
 9337SOL    HW239648   3.543   2.224   2.898 -0.0583  0.0071  2.2480
 9338SOL     OW39649   1.589   3.879   6.557 -0.4887 -0.0354  0.3260
 9338SOL    HW139650   1.576   3.940   6.630 -1.8872  0.6522 -0.4875
 9338SOL    HW239651   1.630   3.944   6.500  0.4714  0.9901  2.1805
 9339SOL     OW39652   2.258   2.233   7.496  0.0822  0.0219 -0.2380
 9339SOL    HW139653   2.293   2.259   7.411 -0.7521  1.2343 -0.2209
 9339SOL    HW239654   2.188   2.169   7.486  0.1296 -0.2717  1.2070
 9340SOL     OW39655   3.897   1.843   1.694  0.4321 -0.6041 -0.0334
 9340SOL    HW139656   3.876   1.892   1.774  1.0857  0.6184 -0.6054
 9340SOL    HW239657   3.886   1.907   1.623  0.9107 -2.1691 -1.5143
 9341SOL     OW39658   3.230   1.752   4.915  0.0476  0.1166 -0.2270
 9341SOL    HW139659   3.302   1.734   4.855  2.4029 -3.2805  3.6402
 9341SOL    HW239660   3.190   1.669   4.940  2.0501 -0.2379  1.7482
 9342SOL     OW39661   4.338   1.585   6.838  0.5634  0.0531 -0.0479
 9342SOL    HW139662   4.248   1.556   6.857  0.6450  0.2169  0.5741
 9342SOL    HW239663   4.388   1.529   6.897  0.2618  0.2988  0.4415
 9343SOL     OW39664   1.391   2.324   8.514 -0.0819  0.7836  0.0056
 9343SOL    HW139665   1.462   2.347   8.453  1.8916 -0.9710  1.6515
 9343SOL    HW239666   1.339   2.400   8.486  1.1059  1.0656 -1.4206
 9344SOL     OW39667   2.143   0.027   0.582 -0.4297  0.3298  0.3180
 9344SOL    HW139668   2.124   0.060   0.669 -1.7464  1.6738 -0.4675
 9344SOL    HW239669   2.056   0.029   0.541 -0.0083 -1.7191 -0.6850
 9345SOL     OW39670   0.177   2.431   2.652 -0.2087  0.1851  0.3380
 9345SOL    HW139671   0.146   2.405   2.565  0.1055  0.3966  0.1641
 9345SOL    HW239672   0.108   2.497   2.661 -0.2200  0.2341 -0.1202
 9346SOL     OW39673   0.388   4.380   7.407 -0.1930  0.1444 -0.4774
 9346SOL    HW139674   0.356   4.459   7.363  2.8173  1.0175 -1.1460
 9346SOL    HW239675   0.330   4.362   7.480  2.7095  2.0735  2.3184
 9347SOL     OW39676   3.729   0.035  13.327 -1.2602 -0.6999  0.0803
 9347SOL    HW139677   3.758   0.076  13.409 -0.2710  1.5813 -1.3941
 9347SOL    HW239678   3.795   4.702  13.322  1.2524  1.8460 -2.1235
 9348SOL     OW39679   2.301   1.970  16.797  0.7058  0.1418  0.4337
 9348SOL    HW139680   2.246   1.999  16.724 -2.5108  1.5341  3.4000
 9348SOL    HW239681   2.278   1.878  16.786 -1.0715  0.6777 -0.3087
 9349SOL     OW39682   3.692   2.490  11.251  0.1682 -0.1748 -0.0674
 9349SOL    HW139683   3.768   2.442  11.284  1.1579  2.6850  1.8064
 9349SOL    HW239684   3.625   2.422  11.258  0.0439 -0.0610 -0.1425
 9350SOL     OW39685   4.072   4.411   2.455  0.5444 -0.2069  0.6097
 9350SOL    HW139686   4.097   4.452   2.538  1.0321  1.2809 -0.2774
 9350SOL    HW239687   4.046   4.323   2.483 -0.5485 -0.4017 -1.0111
 9351SOL     OW39688   2.092   2.148  15.596  0.0006  0.0915 -0.2671
 9351SOL    HW139689   2.038   2.221  15.565 -0.5822  0.2936  1.2365
 9351SOL    HW239690   2.176   2.189  15.577  0.3970 -1.4769 -1.9333
 9352SOL     OW39691   0.313   3.592   3.636  0.7600 -0.3711 -0.1367
 9352SOL    HW139692   0.385   3.545   3.678  2.5733  2.3897 -0.1652
 9352SOL    HW239693   0.258   3.516   3.617  2.0477 -0.7366 -2.3811
 9353SOL     OW39694   4.641   0.869   8.102  0.2944  0.0783  0.3194
 9353SOL    HW139695   4.735   0.877   8.088  0.6873 -1.7994  1.8170
 9353SOL    HW239696   4.608   0.956   8.081 -1.6017 -1.4274 -2.8664
 9354SOL     OW39697   4.619   0.051   8.236  0.2772 -0.1514  0.2030
 9354SOL    HW139698   4.553   0.109   8.275 -0.3718 -0.7366 -0.0216
 9354SOL    HW239699   4.582   4.700   8.255  0.7602 -0.6436 -1.1074
 9355SOL     OW39700   3.272   0.035   2.000 -0.6395 -0.3277  0.1539
 9355SOL    HW139701   3.269   0.021   2.095  0.3656  1.8999  0.5085
 9355SOL    HW239702   3.353   0.085   1.997  0.7607 -2.6684 -0.5311
 9356SOL     OW39703   0.052   2.105   3.596 -0.2631 -0.4137  0.4276
 9356SOL    HW139704   0.116   2.100   3.525 -0.5112  0.6395  0.1393
 9356SOL    HW239705   0.025   2.196   3.597  1.1620  0.0054  1.6472
 9357SOL     OW39706   3.578   3.199  10.301  0.0608 -0.4368  0.2248
 9357SOL    HW139707   3.595   3.286  10.337  1.3967 -0.5045 -0.2717
 9357SOL    HW239708   3.484   3.208  10.282  0.7712  2.1940 -2.0409
 9358SOL     OW39709   1.245   4.299   6.975 -0.1361  0.9056 -0.8385
 9358SOL    HW139710   1.213   4.222   7.023 -1.0005  0.6167 -1.8784
 9358SOL    HW239711   1.202   4.367   7.027 -0.2208 -0.9378  1.5339
 9359SOL     OW39712   0.542   2.695   7.843 -0.4404 -0.6634  0.0306
 9359SOL    HW139713   0.523   2.620   7.899  1.8053  0.4888  2.3266
 9359SOL    HW239714   0.594   2.753   7.898 -0.6905  0.9138 -1.3814
 9360SOL     OW39715   4.606   0.389   8.481  0.3689 -0.2353  0.1672
 9360SOL    HW139716   4.583   0.419   8.569  2.9409 -0.4136  0.9061
 9360SOL    HW239717   4.635   0.471   8.440 -0.7176  0.5171  0.8977
 9361SOL     OW39718   2.589   1.669   1.889  0.0991  0.2514  0.6119
 9361SOL    HW139719   2.501   1.675   1.927  0.1795 -0.1301  0.8674
 9361SOL    HW239720   2.586   1.576   1.867  0.2301 -0.3182  2.9326
 9362SOL     OW39721   3.820   1.767   9.624  0.2014  0.1766 -0.5585
 9362SOL    HW139722   3.903   1.777   9.670  0.9410 -0.8186 -1.6897
 9362SOL    HW239723   3.764   1.812   9.688 -0.1319 -1.1068  0.0556
 9363SOL     OW39724   0.855   2.269  16.376  0.0461 -0.4489 -0.0322
 9363SOL    HW139725   0.900   2.210  16.436  1.1931 -0.1581 -0.6066
 9363SOL    HW239726   0.887   2.355  16.404  1.2322 -0.8601 -0.0927
 9364SOL     OW39727   0.849   0.860  17.474  0.6040 -0.9269  0.2063
 9364SOL    HW139728   0.880   0.782  17.521  3.3757  0.2845  0.3987
 9364SOL    HW239729   0.853   0.840  17.381  1.3032  0.2219 -0.0066
 9365SOL     OW39730   1.691   1.327  15.196 -0.4766 -0.5113  0.2596
 9365SOL    HW139731   1.637   1.265  15.245 -0.3914 -1.9440 -1.4921
 9365SOL    HW239732   1.724   1.386  15.265 -0.5992 -0.3564  0.1855
 9366SOL     OW39733   1.593   2.694  10.443  0.2274 -0.0683  0.1373
 9366SOL    HW139734   1.650   2.647  10.504  2.0406 -0.4157 -1.8269
 9366SOL    HW239735   1.523   2.716  10.505  0.2213  0.3201 -0.0085
 9367SOL     OW39736   0.430   0.038   9.619 -0.1847 -0.0256 -0.1370
 9367SOL    HW139737   0.445   4.702   9.557  1.8713  0.1475  0.1555
 9367SOL    HW239738   0.516   0.078   9.632 -0.6872  1.8283 -2.6053
 9368SOL     OW39739   1.829   3.388  17.567  0.0647  0.1858  0.2016
 9368SOL    HW139740   1.759   3.378  17.503  1.0845 -0.0794 -0.8688
 9368SOL    HW239741   1.775   3.366  17.642 -0.6032 -2.2412 -0.9947
 9369SOL     OW39742   0.986   4.030   7.718  0.2909  0.2575 -0.0587
 9369SOL    HW139743   0.996   4.034   7.623  0.2859 -0.2240 -0.0800
 9369SOL    HW239744   0.921   3.961   7.730 -0.3691  0.8838 -0.0228
 9370SOL     OW39745   2.016   4.516   2.275  0.3878 -0.0753 -0.4583
 9370SOL    HW139746   2.090   4.538   2.330  0.9625 -1.4140 -0.6850
 9370SOL    HW239747   1.996   4.434   2.320  1.5918  1.2583  2.4419
 9371SOL     OW39748   0.150   4.017  11.900 -0.5728 -0.2500 -0.2264
 9371SOL    HW139749   0.067   4.027  11.853 -0.1302  0.9086 -0.7499
 9371SOL    HW239750   0.129   4.060  11.983 -0.3464 -1.0947  0.2731
 9372SOL     OW39751   1.725   4.288   8.907  0.4396 -0.4952  0.1016
 9372SOL    HW139752   1.714   4.347   8.833 -3.3944 -1.5953 -0.1872
 9372SOL    HW239753   1.799   4.327   8.954  0.1354  0.4483 -0.2035
 9373SOL     OW39754   1.797   2.738   8.420 -0.0498  0.7248  0.3881
 9373SOL    HW139755   1.766   2.664   8.472 -2.3466  1.3779 -0.0347
 9373SOL    HW239756   1.889   2.716   8.432 -0.1278  1.1229  1.7216
 9374SOL     OW39757   3.674   0.794  16.591  0.1708  0.2468  0.7492
 9374SOL    HW139758   3.580   0.790  16.603 -0.2249 -0.2700 -2.4905
 9374SOL    HW239759   3.677   0.890  16.589 -2.1502  0.2382 -2.3662
 9375SOL     OW39760   4.527   4.343   9.636 -0.7478  0.0647 -0.0217
 9375SOL    HW139761   4.479   4.288   9.699  1.1398 -2.3102 -0.6641
 9375SOL    HW239762   4.513   4.294   9.555  0.4860  0.4830 -0.4845
 9376SOL     OW39763   1.522   1.006  14.296 -0.2866  0.2229 -0.1627
 9376SOL    HW139764   1.529   1.021  14.390  2.0768 -2.0936  0.0423
 9376SOL    HW239765   1.429   0.987  14.286 -0.2946  0.5132 -0.6518
 9377SOL     OW39766   1.091   2.296  13.264 -0.3955 -0.0853  0.5115
 9377SOL    HW139767   1.074   2.286  13.170 -0.3741  2.0551  0.2921
 9377SOL    HW239768   1.042   2.218  13.292 -0.3748 -0.0792  0.5630
 9378SOL     OW39769   1.041   1.155   4.409 -0.0641 -0.0193  0.0534
 9378SOL    HW139770   0.955   1.176   4.372 -0.4252 -3.2651 -0.9985
 9378SOL    HW239771   1.036   1.189   4.498  1.2898  2.4317 -0.8029
 9379SOL     OW39772   3.365   3.084   4.736  0.3932 -0.2313 -0.2503
 9379SOL    HW139773   3.329   3.078   4.648 -1.6846  0.7061  0.5480
 9379SOL    HW239774   3.289   3.058   4.789  1.1669  0.8665  1.3923
 9380SOL     OW39775   1.289   3.491   3.976 -0.4121 -0.1733  0.5105
 9380SOL    HW139776   1.196   3.472   3.971 -0.4564  0.4917 -1.4089
 9380SOL    HW239777   1.348   3.415   3.970 -1.3582 -0.7330 -1.9883
 9381SOL     OW39778   4.525   4.685  14.512 -0.2270  0.5776  0.2864
 9381SOL    HW139779   4.542   4.631  14.435 -1.0969  1.5574 -0.5948
 9381SOL    HW239780   4.431   4.680  14.528 -0.2817 -0.3591 -0.3084
 9382SOL     OW39781   0.770   1.691   1.306 -0.8231 -0.4324 -0.3272
 9382SOL    HW139782   0.805   1.715   1.220  1.0488  1.5694  0.9806
 9382SOL    HW239783   0.854   1.683   1.351 -0.2352 -0.7733 -1.4885
 9383SOL     OW39784   1.284   0.273   1.876 -0.4531 -0.0575 -0.2307
 9383SOL    HW139785   1.322   0.198   1.921 -0.5456 -0.0969 -0.2178
 9383SOL    HW239786   1.249   0.231   1.797  1.0320 -0.0533 -0.9053
 9384SOL     OW39787   2.740   2.123   2.324  0.5953 -0.4281  0.6883
 9384SOL    HW139788   2.684   2.131   2.247  0.2073 -1.2844  0.8810
 9384SOL    HW239789   2.804   2.060   2.290  1.5752  1.1379 -0.3593
 9385SOL     OW39790   3.121   2.953   7.501 -0.3089 -0.5560  0.1893
 9385SOL    HW139791   3.093   2.928   7.413  0.7976  0.2044 -0.3994
 9385SOL    HW239792   3.137   3.046   7.481  0.4186 -0.8223 -0.4752
 9386SOL     OW39793   3.634   2.180   7.299  0.1592 -0.0169  0.2393
 9386SOL    HW139794   3.658   2.089   7.279  0.0509 -0.4484  2.0813
 9386SOL    HW239795   3.556   2.163   7.351 -0.3782 -0.3356 -0.6602
 9387SOL     OW39796   1.245   0.346   6.659 -0.3009 -0.3075 -0.0676
 9387SOL    HW139797   1.279   0.422   6.612 -0.2751  0.5035  1.2342
 9387SOL    HW239798   1.313   0.321   6.722 -1.0487  0.5188  1.0837
 9388SOL     OW39799   0.752   2.092   4.271  0.3961  0.0743 -0.2282
 9388SOL    HW139800   0.686   2.086   4.202 -1.5444  1.4781  1.5083
 9388SOL    HW239801   0.731   2.014   4.323  0.3444  0.6414  0.6089
 9389SOL     OW39802   3.684   4.159   4.095 -0.2584 -0.1766 -0.1905
 9389SOL    HW139803   3.718   4.176   4.007  0.9093  0.5948  0.4057
 9389SOL    HW239804   3.606   4.213   4.085 -0.0107 -0.1909 -2.3482
 9390SOL     OW39805   4.021   0.155  12.461 -0.3967 -0.1218  0.6388
 9390SOL    HW139806   3.974   0.074  12.445 -1.7634  1.2731 -2.4220
 9390SOL    HW239807   4.019   0.159  12.556  2.8059  0.5321  0.6885
 9391SOL     OW39808   3.453   3.132  15.573 -0.1788  0.2926 -0.2068
 9391SOL    HW139809   3.515   3.195  15.535  0.0361 -0.5082 -1.1841
 9391SOL    HW239810   3.405   3.105  15.495 -0.0707 -0.2966 -0.0664
 9392SOL     OW39811   2.845   2.053   5.905 -0.0272 -0.0274  0.9332
 9392SOL    HW139812   2.880   1.973   5.944 -2.0400 -1.7570 -0.7427
 9392SOL    HW239813   2.783   2.071   5.976 -0.1744 -0.1301  0.8321
 9393SOL     OW39814   0.249   3.766   2.634  0.2635 -0.0403 -0.4069
 9393SOL    HW139815   0.243   3.714   2.554  0.6662  0.8987 -1.0433
 9393SOL    HW239816   0.261   3.853   2.596  1.6672  0.7048  1.7127
 9394SOL     OW39817   2.455   2.919   8.188  0.0581  0.0564 -0.1979
 9394SOL    HW139818   2.430   3.008   8.214 -0.4287 -0.2311  0.3162
 9394SOL    HW239819   2.401   2.878   8.256 -1.1833 -1.0159 -1.8480
 9395SOL     OW39820   2.906   1.160   6.688 -0.2678  0.0892  0.2501
 9395SOL    HW139821   2.884   1.067   6.679  2.6409 -0.5434 -0.3187
 9395SOL    HW239822   2.825   1.207   6.672 -0.9557 -1.9543 -2.3613
 9396SOL     OW39823   3.841   2.613   9.356  1.4023  0.1704  0.0465
 9396SOL    HW139824   3.772   2.648   9.412  1.0949  0.2881 -0.4065
 9396SOL    HW239825   3.901   2.572   9.419  0.3167 -0.2924  0.7708
 9397SOL     OW39826   3.384   1.390   7.733 -0.2055 -0.3101 -0.2634
 9397SOL    HW139827   3.429   1.384   7.817  1.6802 -3.0590 -1.4764
 9397SOL    HW239828   3.298   1.352   7.754 -0.9738 -0.3911 -3.6455
 9398SOL     OW39829   0.711   3.794   9.595  0.0666  0.1777  0.1552
 9398SOL    HW139830   0.755   3.825   9.516 -0.5201  0.6216  0.0094
 9398SOL    HW239831   0.627   3.836   9.582  0.0147 -0.1851 -0.6879
 9399SOL     OW39832   1.620   2.981   5.490 -0.0555 -0.4248 -0.0774
 9399SOL    HW139833   1.654   3.003   5.577  1.8740 -0.0017 -0.9328
 9399SOL    HW239834   1.700   2.985   5.437  1.1434  1.1817  1.8360
 9400SOL     OW39835   0.040   1.519   1.622  0.6142 -0.4073 -0.2605
 9400SOL    HW139836   4.713   1.491   1.555 -0.6621 -1.3065  1.2943
 9400SOL    HW239837   0.112   1.465   1.589 -0.0646 -0.9685 -0.8155
 9401SOL     OW39838   0.370   3.426  12.557  0.4224 -0.4101  0.1182
 9401SOL    HW139839   0.437   3.441  12.491  0.9870  0.2885  0.8367
 9401SOL    HW239840   0.402   3.359  12.617 -0.3185  0.9705  2.0769
 9402SOL     OW39841   1.333   4.573  17.573 -0.7159 -0.5429  0.6744
 9402SOL    HW139842   1.363   4.489  17.607  1.0300  1.0250  3.0810
 9402SOL    HW239843   1.410   4.617  17.609 -1.1213 -0.5432  1.5397
 9403SOL     OW39844   3.860   2.945   8.940 -0.2037  0.0175  0.6331
 9403SOL    HW139845   3.899   2.885   9.004  0.4116 -1.4481 -1.1130
 9403SOL    HW239846   3.801   2.887   8.892 -1.1362  0.9159  0.6951
 9404SOL     OW39847   0.211   0.686   7.623  0.3035 -0.0487  1.0316
 9404SOL    HW139848   0.201   0.592   7.610 -2.4279  0.1870  1.3663
 9404SOL    HW239849   0.125   0.713   7.655 -0.2250 -1.4779  0.8381
 9405SOL     OW39850   1.662   4.276   2.310  1.0357 -0.2624 -0.5613
 9405SOL    HW139851   1.678   4.286   2.403  2.0932  1.9797 -1.0001
 9405SOL    HW239852   1.660   4.180   2.303  0.3075 -0.2571 -0.4410
 9406SOL     OW39853   2.931   1.491   9.339  0.3120 -0.5405 -0.6877
 9406SOL    HW139854   2.961   1.531   9.257 -0.2332  3.4730  1.0744
 9406SOL    HW239855   2.835   1.492   9.332  0.3518  0.6692 -0.9946
 9407SOL     OW39856   3.391   0.469   4.945 -0.2270  0.6352  0.1757
 9407SOL    HW139857   3.427   0.385   4.916 -0.8924  0.5367 -0.3486
 9407SOL    HW239858   3.457   0.503   5.006  0.3217  2.1122 -1.2512
 9408SOL     OW39859   4.679   3.456  13.667  0.3081  0.2220 -0.6541
 9408SOL    HW139860   4.636   3.459  13.753 -0.1919  0.2032 -0.9055
 9408SOL    HW239861   4.602   3.462  13.611  0.1909  1.0555 -0.4001
 9409SOL     OW39862   4.423   3.328  10.970  0.6445 -0.0490 -0.2758
 9409SOL    HW139863   4.353   3.393  10.966 -0.1490 -0.9291 -0.6832
 9409SOL    HW239864   4.371   3.251  10.948  1.4060 -1.9777  4.6603
 9410SOL     OW39865   2.360   1.544   1.693 -0.2770  0.2096  0.0784
 9410SOL    HW139866   2.303   1.591   1.633  3.2000  3.1361 -0.9439
 9410SOL    HW239867   2.347   1.454   1.663  1.5913 -0.5845  1.6313
 9411SOL     OW39868   2.016   3.582  13.655 -0.4144  0.5710  0.3035
 9411SOL    HW139869   2.102   3.558  13.623 -1.0308  0.8407 -1.5894
 9411SOL    HW239870   1.973   3.598  13.571 -0.6900  0.8288  0.4908
 9412SOL     OW39871   4.478   0.920   6.186 -0.0719 -0.0514  0.0976
 9412SOL    HW139872   4.430   0.921   6.269 -1.3385  0.2618 -0.6296
 9412SOL    HW239873   4.409   0.889   6.126  2.8522 -2.3197 -2.1067
 9413SOL     OW39874   0.560   0.731   4.800  0.1353  0.4419  0.0080
 9413SOL    HW139875   0.492   0.767   4.857  0.9850  1.9907  0.0332
 9413SOL    HW239876   0.506   0.693   4.730  2.5147 -1.1112 -0.9632
 9414SOL     OW39877   0.633   0.884   3.726 -0.3423  0.2977  0.3089
 9414SOL    HW139878   0.619   0.940   3.649  1.0215  0.0996 -0.0865
 9414SOL    HW239879   0.723   0.912   3.741 -0.2092  0.5165 -0.8943
 9415SOL     OW39880   2.639   3.971   9.542  0.1595  1.2924  0.2144
 9415SOL    HW139881   2.561   3.924   9.573  1.2347  0.0795  1.0455
 9415SOL    HW239882   2.597   4.041   9.492  0.1728  1.6075  0.6414
 9416SOL     OW39883   0.630   3.826  17.109  0.3431 -0.0938  0.6210
 9416SOL    HW139884   0.709   3.876  17.089  1.0353 -0.7501  1.6786
 9416SOL    HW239885   0.563   3.891  17.087 -0.5179 -1.8063 -1.7257
 9417SOL     OW39886   2.100   1.784   6.158  0.3469 -0.3339  0.0131
 9417SOL    HW139887   2.059   1.716   6.105  0.3101 -1.7220  1.8017
 9417SOL    HW239888   2.138   1.724   6.223 -0.9686 -1.7114 -0.4893
 9418SOL     OW39889   0.522   3.463   2.919 -0.5164 -0.1076  0.7565
 9418SOL    HW139890   0.509   3.555   2.942 -1.1821  0.0651 -0.2678
 9418SOL    HW239891   0.546   3.421   3.001  4.1172 -0.9372 -1.0449
 9419SOL     OW39892   3.935   3.984   0.467  0.8804 -0.2481 -0.2723
 9419SOL    HW139893   3.940   4.035   0.387 -0.5955  2.3490  1.2923
 9419SOL    HW239894   3.847   3.949   0.462  1.1767 -1.3284  1.9766
 9420SOL     OW39895   2.586   2.837   7.163 -0.3845  0.1777 -0.5374
 9420SOL    HW139896   2.665   2.805   7.205 -0.7041 -2.6497 -2.1222
 9420SOL    HW239897   2.600   2.932   7.164 -2.2413  0.4709 -1.7755
 9421SOL     OW39898   0.052   0.127   1.181  0.8399 -0.0774 -0.1349
 9421SOL    HW139899   0.016   0.208   1.144  0.6512  0.1182  0.4709
 9421SOL    HW239900   0.038   0.068   1.107  0.3173  1.3591 -1.1819
 9422SOL     OW39901   3.308   4.224   2.424 -0.0577 -0.2559  0.2194
 9422SOL    HW139902   3.246   4.202   2.354 -0.1545  1.4897 -0.2530
 9422SOL    HW239903   3.359   4.300   2.394 -0.1629  0.0742  0.8802
 9423SOL     OW39904   1.118   3.314   8.611  0.4095 -0.1205 -0.3190
 9423SOL    HW139905   1.041   3.260   8.627  0.4484  0.4563  1.7144
 9423SOL    HW239906   1.096   3.388   8.667 -0.4278  0.3063 -1.2123
 9424SOL     OW39907   2.382   3.947   8.911  0.4397  0.1252  0.3430
 9424SOL    HW139908   2.472   3.921   8.928 -0.5881 -2.0030  2.6650
 9424SOL    HW239909   2.332   3.945   8.993 -0.2933 -0.0260 -0.1087
 9425SOL     OW39910   3.096   0.978   0.470  0.3091 -0.2506  0.7524
 9425SOL    HW139911   3.064   0.900   0.425 -0.4386  1.0702 -1.0007
 9425SOL    HW239912   3.113   1.037   0.396 -1.3448  1.1335  1.4845
 9426SOL     OW39913   0.332   4.671   3.095  0.0063  0.0340 -0.3298
 9426SOL    HW139914   0.309   4.586   3.056 -0.3691  0.5026 -1.1217
 9426SOL    HW239915   0.428   4.671   3.096  0.0133 -0.9061 -0.6733
 9427SOL     OW39916   1.422   1.761   9.966  0.0427  0.6642  0.1477
 9427SOL    HW139917   1.449   1.848   9.938 -0.0592  0.9727  1.0118
 9427SOL    HW239918   1.328   1.778   9.971 -0.2809 -1.5710  1.6695
 9428SOL     OW39919   2.501   4.407   9.176  0.0130 -0.0354 -0.0997
 9428SOL    HW139920   2.507   4.480   9.239 -1.6817 -0.5556  0.6720
 9428SOL    HW239921   2.477   4.453   9.095  1.6872  0.9881 -0.0211
 9429SOL     OW39922   0.667   4.551   2.204 -0.6495  0.3128 -0.1392
 9429SOL    HW139923   0.612   4.546   2.126  1.2478 -0.1655 -1.4558
 9429SOL    HW239924   0.715   4.633   2.193 -1.4945  1.1075  2.0393
 9430SOL     OW39925   2.254   0.390   6.311 -0.6033  0.6361  0.4769
 9430SOL    HW139926   2.190   0.423   6.248  0.1364  1.3862  0.1228
 9430SOL    HW239927   2.277   0.304   6.275 -3.3726  0.4216 -0.8066
 9431SOL     OW39928   2.858   0.999   8.872  0.0897  0.1168  0.2991
 9431SOL    HW139929   2.922   1.002   8.943  0.3999 -1.6628  0.1002
 9431SOL    HW239930   2.908   1.049   8.807  0.6862  1.0877  1.4989
 9432SOL     OW39931   1.230   0.870   6.737 -0.3917 -0.2602  0.4514
 9432SOL    HW139932   1.166   0.917   6.683  1.2765  0.4839 -0.8831
 9432SOL    HW239933   1.268   0.802   6.681  0.9914 -0.2751  1.4144
 9433SOL     OW39934   0.432   4.513   3.551 -0.5979  0.0686 -0.1070
 9433SOL    HW139935   0.340   4.488   3.561 -0.0953 -1.5270  0.6168
 9433SOL    HW239936   0.478   4.429   3.547  0.0028  0.4677 -1.5133
 9434SOL     OW39937   1.731   1.481   9.498 -0.1440 -0.2950  0.1527
 9434SOL    HW139938   1.695   1.416   9.438  1.1545 -1.4907  0.6660
 9434SOL    HW239939   1.686   1.462   9.580 -1.7232 -3.3454 -1.4392
 9435SOL     OW39940   0.388   1.391  16.304 -0.6080  0.5237 -0.5176
 9435SOL    HW139941   0.414   1.439  16.225  1.2318  3.0919  1.6495
 9435SOL    HW239942   0.299   1.367  16.277 -0.1216 -1.7926 -0.0791
 9436SOL     OW39943   0.499   3.736  13.986  0.0827 -0.0215 -0.4453
 9436SOL    HW139944   0.502   3.782  13.902  0.2415 -1.3816 -1.1828
 9436SOL    HW239945   0.408   3.707  13.987  0.5391 -1.4240 -0.1679
 9437SOL     OW39946   3.728   3.470   7.021 -0.3673 -0.0843 -0.0090
 9437SOL    HW139947   3.664   3.471   7.092 -0.5209  0.9240 -0.1667
 9437SOL    HW239948   3.683   3.489   6.938  1.5940  2.4251 -0.4719
 9438SOL     OW39949   0.475   3.142   7.473  0.0312  0.3006  0.0080
 9438SOL    HW139950   0.390   3.175   7.500 -0.3850  0.6530 -1.6923
 9438SOL    HW239951   0.501   3.228   7.439  1.1341 -0.3962 -0.9324
 9439SOL     OW39952   3.802   0.094  11.109 -0.8969 -0.1438  0.1786
 9439SOL    HW139953   3.869   0.089  11.177 -1.8237 -1.5195  0.9743
 9439SOL    HW239954   3.854   0.121  11.033 -0.1297 -1.5585  0.2036
 9440SOL     OW39955   4.535   4.031   1.680  0.3566  0.2740 -0.7900
 9440SOL    HW139956   4.585   4.100   1.722  0.1331 -0.0497  0.0087
 9440SOL    HW239957   4.479   4.079   1.618  0.2741  3.3508  1.7137
 9441SOL     OW39958   4.220   4.353   8.846 -0.4767 -0.2821  0.1092
 9441SOL    HW139959   4.278   4.284   8.815  0.3961  1.5462 -2.2595
 9441SOL    HW239960   4.263   4.371   8.929  0.5573 -0.5796 -0.3700
 9442SOL     OW39961   0.052   0.860  11.114  0.4140 -0.0720 -0.3427
 9442SOL    HW139962   0.128   0.856  11.172  0.8313 -0.1984 -0.8957
 9442SOL    HW239963   0.014   0.937  11.158 -1.4315 -0.5089 -1.1840
 9443SOL     OW39964   0.840   2.798   2.007  0.3278  0.0268  0.4235
 9443SOL    HW139965   0.799   2.848   1.937  2.6314 -0.7311 -1.4848
 9443SOL    HW239966   0.782   2.829   2.076  0.0753  0.2510  0.1070
 9444SOL     OW39967   3.463   1.532  16.185  0.6588 -0.2343 -1.0636
 9444SOL    HW139968   3.405   1.518  16.111 -0.5268  0.4658 -0.2615
 9444SOL    HW239969   3.412   1.576  16.253  1.2120 -1.6011  0.2313
 9445SOL     OW39970   0.729   0.922  13.679 -0.0119 -0.0700  0.6137
 9445SOL    HW139971   0.815   0.911  13.721  1.5032 -0.5905 -2.6295
 9445SOL    HW239972   0.686   0.837  13.694  1.5091 -1.3315 -2.1845
 9446SOL     OW39973   2.592   3.821   3.626 -0.7504 -0.0596  0.4400
 9446SOL    HW139974   2.668   3.835   3.570 -0.2002  0.9380  1.4230
 9446SOL    HW239975   2.546   3.753   3.577  1.6125 -0.3800 -1.3267
 9447SOL     OW39976   4.547   4.336   1.657 -0.1643  0.2261  0.1055
 9447SOL    HW139977   4.561   4.426   1.688  1.7906 -1.1461  3.1240
 9447SOL    HW239978   4.457   4.339   1.624  0.1151 -2.0008 -0.8542
 9448SOL     OW39979   1.530   1.604  11.080  0.4198 -0.3586  0.2541
 9448SOL    HW139980   1.617   1.642  11.095  0.0456  0.7263 -0.2788
 9448SOL    HW239981   1.515   1.568  11.167 -0.2460  0.8518  0.6409
 9449SOL     OW39982   4.430   1.432  17.260  0.4378  0.1722 -0.4207
 9449SOL    HW139983   4.469   1.387  17.185  2.0544 -0.7838  1.0036
 9449SOL    HW239984   4.356   1.477  17.218  1.4020  1.4011 -0.7699
 9450SOL     OW39985   0.205   3.395   3.044  0.1111 -0.2164 -0.6341
 9450SOL    HW139986   0.294   3.372   3.017  0.6059  0.8185  0.1146
 9450SOL    HW239987   0.216   3.403   3.139  0.7640 -1.5934 -0.5924
 9451SOL     OW39988   1.597   3.199  12.759  0.1131 -0.5329 -0.0628
 9451SOL    HW139989   1.518   3.161  12.720 -0.2840 -0.5839  0.8121
 9451SOL    HW239990   1.560   3.281  12.792 -1.1560 -2.1690  2.5266
 9452SOL     OW39991   1.346   1.396  12.493  0.6301  0.1240 -0.5457
 9452SOL    HW139992   1.317   1.487  12.499 -2.3342 -0.8865  0.7908
 9452SOL    HW239993   1.383   1.380  12.580  0.9524  3.5296 -0.0650
 9453SOL     OW39994   1.879   2.874   5.536 -0.1178  0.0063  0.0558
 9453SOL    HW139995   1.843   2.872   5.447  1.1750 -1.5174 -0.4280
 9453SOL    HW239996   1.972   2.885   5.516  0.1603 -1.4649  0.5626
 9454SOL     OW39997   4.375   2.196   3.409 -0.1195  0.1512 -0.6228
 9454SOL    HW139998   4.308   2.180   3.343 -3.3577  3.2708  1.8830
 9454SOL    HW239999   4.327   2.209   3.491 -0.5213  0.8052 -0.9594
 9455SOL     OW40000   1.534   0.514   8.340 -0.2942 -0.4825 -0.1835
 9455SOL    HW140001   1.465   0.537   8.403 -1.3612 -0.4650 -1.3461
 9455SOL    HW240002   1.565   0.432   8.377 -0.1147 -1.1720 -1.8539
 9456SOL     OW40003   4.196   0.113   2.931  0.1660 -0.3844 -0.4317
 9456SOL    HW140004   4.262   0.107   2.862  0.3375 -2.2398 -0.1083
 9456SOL    HW240005   4.251   0.143   3.003  0.0507 -0.0798 -0.4698
 9457SOL     OW40006   0.527   4.520  14.823 -0.7057  0.5151 -0.4332
 9457SOL    HW140007   0.481   4.489  14.745  1.2418  0.0153 -1.3876
 9457SOL    HW240008   0.604   4.465  14.829  0.2762  1.9381  0.0335
 9458SOL     OW40009   4.074   0.510   6.493  0.3088 -0.1067  0.2754
 9458SOL    HW140010   3.986   0.477   6.508  0.8012 -1.2870  0.4966
 9458SOL    HW240011   4.079   0.573   6.566 -2.3123 -0.4247  0.7329
 9459SOL     OW40012   3.594   1.264   0.198 -0.5842 -0.7270  0.2193
 9459SOL    HW140013   3.589   1.333   0.133  2.0929 -1.2441 -0.5210
 9459SOL    HW240014   3.541   1.305   0.266  0.3268  1.1729 -0.2328
 9460SOL     OW40015   1.972   0.345   3.139  0.1219  0.1040 -0.1323
 9460SOL    HW140016   2.022   0.341   3.057  0.4883  0.9334  0.0525
 9460SOL    HW240017   2.040   0.348   3.207  1.4714  2.6197 -1.6347
 9461SOL     OW40018   4.145   2.792   4.324 -0.1640 -0.1838  0.1094
 9461SOL    HW140019   4.134   2.792   4.229 -1.2052  1.8082  0.2438
 9461SOL    HW240020   4.073   2.847   4.355 -0.9120 -1.4622  0.6468
 9462SOL     OW40021   4.141   2.471  14.030 -0.0621  0.2277 -0.2494
 9462SOL    HW140022   4.199   2.506  14.097 -0.3104  2.4815 -1.2335
 9462SOL    HW240023   4.074   2.433  14.088  0.9625 -1.3036 -0.0748
 9463SOL     OW40024   2.860   2.181   0.835  0.0922  0.1408  0.1951
 9463SOL    HW140025   2.931   2.167   0.897 -1.7256  2.6033  2.8430
 9463SOL    HW240026   2.856   2.276   0.826  0.8811  0.0243 -1.3181
 9464SOL     OW40027   3.535   1.975  11.623  0.1031 -0.1363  0.1577
 9464SOL    HW140028   3.498   1.908  11.680 -0.9894  0.0995 -0.2641
 9464SOL    HW240029   3.556   2.039  11.691 -3.6710  1.0193  0.2404
 9465SOL     OW40030   3.581   1.793  14.356 -0.2565 -0.4142 -0.4019
 9465SOL    HW140031   3.548   1.714  14.313  0.3874  1.6194 -4.5890
 9465SOL    HW240032   3.512   1.858  14.338 -1.5372 -2.1255 -1.6964
 9466SOL     OW40033   2.581   4.397  11.536 -0.1715 -0.1465 -0.0706
 9466SOL    HW140034   2.485   4.406  11.537 -0.3020 -1.7049  1.6307
 9466SOL    HW240035   2.590   4.304  11.554 -1.1485 -0.7028 -2.3933
 9467SOL     OW40036   4.063   0.048   3.327  0.2385  0.1310  0.6606
 9467SOL    HW140037   4.036   0.038   3.418  1.3181  1.4289  1.1229
 9467SOL    HW240038   4.097   4.695   3.315  3.1557  1.2475  0.5280
 9468SOL     OW40039   1.020   1.578   4.865 -0.1843 -0.0287 -0.3244
 9468SOL    HW140040   0.978   1.531   4.937 -0.4799  0.0892 -0.4191
 9468SOL    HW240041   0.955   1.647   4.848 -0.2834 -0.3687 -1.3235
 9469SOL     OW40042   3.886   1.526   4.113 -0.4945 -0.1505  0.2375
 9469SOL    HW140043   3.961   1.543   4.056  0.4289  2.4413  2.2188
 9469SOL    HW240044   3.816   1.537   4.049 -0.7089  1.4304  0.7559
 9470SOL     OW40045   2.064   0.441   4.639  0.2460  0.2720  0.0959
 9470SOL    HW140046   2.082   0.519   4.587  1.1515  0.6516  0.9779
 9470SOL    HW240047   2.010   0.482   4.707  1.1263 -0.2105  1.0824
 9471SOL     OW40048   3.294   2.247   5.599  0.4730  0.2659  0.5094
 9471SOL    HW140049   3.304   2.166   5.648  0.8069  0.2267  0.3741
 9471SOL    HW240050   3.287   2.205   5.513  0.3372  2.3778 -0.5316
 9472SOL     OW40051   3.494   3.408   4.908 -0.2629  0.7610 -0.2448
 9472SOL    HW140052   3.505   3.401   5.003 -0.5910 -0.3917 -0.2919
 9472SOL    HW240053   3.515   3.501   4.904  0.8715  0.5838  1.5463
 9473SOL     OW40054   1.208   1.901   9.904 -0.4173  0.7198 -0.1665
 9473SOL    HW140055   1.127   1.902   9.956 -0.1047  0.1420  0.3274
 9473SOL    HW240056   1.185   1.967   9.838  1.7432 -0.4014 -2.0427
 9474SOL     OW40057   4.642   0.870  11.652  0.1896 -0.3062  0.2921
 9474SOL    HW140058   4.714   0.808  11.666 -1.4114 -2.8882 -2.8758
 9474SOL    HW240059   4.681   0.956  11.668  3.8577 -1.8224 -0.5441
 9475SOL     OW40060   1.258   0.429   7.070  0.5139  0.1473 -0.2886
 9475SOL    HW140061   1.203   0.497   7.030  0.5825  1.5196  1.9878
 9475SOL    HW240062   1.251   0.446   7.163 -0.1935  0.2847 -0.3625
 9476SOL     OW40063   4.068   3.719   8.780  0.5423  0.4187 -0.6009
 9476SOL    HW140064   3.975   3.730   8.760  0.4599  1.4770  0.3770
 9476SOL    HW240065   4.076   3.624   8.773  2.3361  0.7131 -2.4508
 9477SOL     OW40066   4.648   1.408   6.611 -0.5398 -0.1415 -0.1142
 9477SOL    HW140067   4.576   1.454   6.569  0.2378  1.0363 -0.1410
 9477SOL    HW240068   4.704   1.404   6.533 -0.6983  0.9784 -0.2823
 9478SOL     OW40069   0.829   3.278   7.513  0.2482 -0.3741  0.2577
 9478SOL    HW140070   0.906   3.236   7.553  0.3970 -0.9268 -0.5883
 9478SOL    HW240071   0.770   3.293   7.587  0.3576  0.1247  0.2414
 9479SOL     OW40072   1.552   1.077  10.559  0.1164  0.5213 -0.0076
 9479SOL    HW140073   1.539   1.110  10.470 -0.6937  2.3113  0.7560
 9479SOL    HW240074   1.520   0.987  10.560 -0.1841  0.6310  0.3372
 9480SOL     OW40075   2.346   2.240   2.987  0.2263  0.4595  0.0334
 9480SOL    HW140076   2.290   2.184   3.041  2.2958  1.2532  3.0144
 9480SOL    HW240077   2.413   2.178   2.957  0.5645  0.9877 -0.3058
 9481SOL     OW40078   1.420   3.349   4.931  0.0220  0.1463  0.5165
 9481SOL    HW140079   1.326   3.331   4.935  0.1629  0.0275  3.3035
 9481SOL    HW240080   1.442   3.301   4.851  0.1693  2.0141 -0.5477
 9482SOL     OW40081   0.522   2.217   9.551  0.5434 -0.1879 -0.7149
 9482SOL    HW140082   0.560   2.288   9.500  0.5874  0.9897  0.9543
 9482SOL    HW240083   0.600   2.165   9.572  1.0230  0.1074 -1.8142
 9483SOL     OW40084   2.086   0.719   5.349  0.6525 -0.0241 -0.1133
 9483SOL    HW140085   2.072   0.706   5.443 -1.0663  2.2811 -0.0407
 9483SOL    HW240086   2.147   0.646   5.337  0.5123 -0.2077  0.2939
 9484SOL     OW40087   3.549   0.785  15.669  0.1364 -0.2041  0.2901
 9484SOL    HW140088   3.606   0.832  15.730  0.5405  2.2099 -1.8996
 9484SOL    HW240089   3.473   0.751  15.715 -1.3342 -0.6755 -2.4774
 9485SOL     OW40090   3.214   4.444   8.900  0.4502 -0.0707 -1.1932
 9485SOL    HW140091   3.202   4.533   8.932 -0.0177 -0.1278 -1.2142
 9485SOL    HW240092   3.243   4.397   8.978 -1.5331 -1.2349 -1.1645
 9486SOL     OW40093   0.229   3.308   8.727  0.2162 -0.2137  0.5870
 9486SOL    HW140094   0.288   3.244   8.767  0.2115 -1.6769 -1.7436
 9486SOL    HW240095   0.157   3.248   8.749  0.0797 -0.3460 -0.2317
 9487SOL     OW40096   3.338   1.930  17.002 -0.5508  0.3422  0.1106
 9487SOL    HW140097   3.298   1.941  17.088 -0.7092  0.4048  0.0276
 9487SOL    HW240098   3.363   2.019  16.978  1.5668 -0.1573  0.4545
 9488SOL     OW40099   2.550   1.058   8.264  0.0747 -0.1619  0.3683
 9488SOL    HW140100   2.623   1.058   8.326  0.8624  2.1388 -0.5540
 9488SOL    HW240101   2.518   1.148   8.262  0.5802 -0.0344 -1.5143
 9489SOL     OW40102   0.187   3.749  12.951  0.3429  0.6679  0.2812
 9489SOL    HW140103   0.216   3.676  12.897  0.2096  0.3093  0.6939
 9489SOL    HW240104   0.166   3.814  12.884  0.1690  1.6823  1.3222
 9490SOL     OW40105   1.378   1.022   6.057 -0.1456 -0.1324  0.4343
 9490SOL    HW140106   1.432   0.978   5.991 -0.9315 -1.1609  0.4737
 9490SOL    HW240107   1.293   0.986   6.032 -1.0402  0.6558  2.3848
 9491SOL     OW40108   1.556   4.248   3.541 -0.5793  0.4802  0.1419
 9491SOL    HW140109   1.652   4.241   3.545 -0.4672  0.4174 -2.4881
 9491SOL    HW240110   1.546   4.313   3.610 -0.8155  0.9178 -0.2996
 9492SOL     OW40111   0.130   1.279   4.052 -0.1488  0.3239  0.3060
 9492SOL    HW140112   0.073   1.332   4.109 -1.2160 -1.3662  0.8151
 9492SOL    HW240113   0.114   1.191   4.084  0.2370 -1.3660 -4.2161
 9493SOL     OW40114   4.471   0.739  13.596 -0.5202 -0.1912  0.7103
 9493SOL    HW140115   4.553   0.764  13.639 -0.1831 -0.7597  0.3972
 9493SOL    HW240116   4.481   0.644  13.589  1.5881 -0.1732  3.4691
 9494SOL     OW40117   4.397   2.582   1.306 -0.2894 -0.2685 -0.3636
 9494SOL    HW140118   4.472   2.570   1.248 -0.6663 -2.0718 -0.4850
 9494SOL    HW240119   4.333   2.513   1.289 -0.8135  0.5727 -1.7843
 9495SOL     OW40120   4.162   4.322   9.963  0.0404  0.1050 -0.4019
 9495SOL    HW140121   4.111   4.241   9.956 -0.2542  0.2545  0.0447
 9495SOL    HW240122   4.210   4.311  10.045 -0.2744  0.3735 -0.1823
 9496SOL     OW40123   2.478   1.052   6.918 -0.1501 -0.8588  0.4439
 9496SOL    HW140124   2.487   1.067   7.013 -1.0253 -0.7859  0.5210
 9496SOL    HW240125   2.391   1.091   6.905 -0.6029 -2.7766 -2.2322
 9497SOL     OW40126   1.282   1.169  15.376  0.2451 -0.2475 -0.5366
 9497SOL    HW140127   1.256   1.161  15.284 -5.1229 -2.3294  1.1669
 9497SOL    HW240128   1.259   1.259  15.398  2.9274  0.0265  1.1286
 9498SOL     OW40129   3.105   4.617   5.125  0.2571  0.1117 -0.9626
 9498SOL    HW140130   3.091   4.693   5.181  0.3275 -0.3081 -0.3628
 9498SOL    HW240131   3.021   4.574   5.138  1.4111 -2.0373 -0.5362
 9499SOL     OW40132   1.228   3.315   5.922 -0.2396  0.1539 -0.1635
 9499SOL    HW140133   1.213   3.391   5.867 -2.5713  0.5577  1.0367
 9499SOL    HW240134   1.258   3.349   6.007 -0.8156 -0.3763  0.2553
 9500SOL     OW40135   4.040   1.816  14.425  0.4072  0.3164 -0.3251
 9500SOL    HW140136   3.950   1.829  14.455  0.9357  0.2022  1.3117
 9500SOL    HW240137   4.021   1.823  14.331 -0.3867  0.3287 -0.1659
 9501SOL     OW40138   1.442   3.419   3.238 -0.2958 -0.1331 -0.5284
 9501SOL    HW140139   1.429   3.345   3.297 -1.1332  0.3197 -0.1494
 9501SOL    HW240140   1.393   3.394   3.160 -0.3763 -1.9308  0.1082
 9502SOL     OW40141   4.096   4.299   4.155  0.2070 -0.8723 -0.2215
 9502SOL    HW140142   4.135   4.274   4.071 -0.2540 -1.2521 -0.3167
 9502SOL    HW240143   4.101   4.229   4.220 -1.5741 -0.0013  0.8383
 9503SOL     OW40144   3.614   2.196  12.527 -0.3989  0.0004  0.4529
 9503SOL    HW140145   3.594   2.169  12.437  0.7951 -0.6375  0.3791
 9503SOL    HW240146   3.652   2.281  12.507  1.3960 -0.9116 -0.0040
 9504SOL     OW40147   4.473   3.605   1.368  0.0220  0.5839  0.7102
 9504SOL    HW140148   4.459   3.668   1.297  0.8115  0.4616  0.4450
 9504SOL    HW240149   4.495   3.647   1.451 -1.6832  0.0540  1.4179
 9505SOL     OW40150   2.788   1.962   7.858  0.1527 -1.1273 -0.1882
 9505SOL    HW140151   2.732   1.885   7.874 -2.1066  0.5228 -0.1131
 9505SOL    HW240152   2.825   1.974   7.946  0.1415  1.8401 -0.5990
 9506SOL     OW40153   1.558   2.775   1.612 -0.8203  0.4714 -0.5679
 9506SOL    HW140154   1.585   2.830   1.538  2.3692  0.6378  0.7615
 9506SOL    HW240155   1.640   2.757   1.658 -1.3542  0.9362  0.5568
 9507SOL     OW40156   0.971   1.023  12.048  0.0742  0.5589  0.2017
 9507SOL    HW140157   1.045   1.072  12.082  1.5852 -0.8654 -1.0642
 9507SOL    HW240158   0.904   1.091  12.037  0.6075  0.8240 -1.4551
 9508SOL     OW40159   3.634   1.495   2.241 -0.3959  0.1145  0.6001
 9508SOL    HW140160   3.606   1.410   2.275 -1.4940  0.6412  1.0334
 9508SOL    HW240161   3.668   1.533   2.322  2.5772  0.7915 -0.9749
 9509SOL     OW40162   0.076   3.849   8.353 -0.1818  0.2118  0.3606
 9509SOL    HW140163   0.111   3.761   8.371 -0.8001  0.0674  0.8699
 9509SOL    HW240164   4.719   3.838   8.372 -0.0091 -0.2395  0.9633
 9510SOL     OW40165   3.154   1.683   3.617 -0.3654  1.1636 -0.1321
 9510SOL    HW140166   3.118   1.594   3.621 -1.0863  1.4165 -0.8243
 9510SOL    HW240167   3.127   1.694   3.526  0.3078 -2.1923 -0.7349
 9511SOL     OW40168   0.025   2.058  17.059 -0.3373 -0.1002  0.5963
 9511SOL    HW140169   0.001   2.022  16.973 -0.8458 -1.8252  1.4774
 9511SOL    HW240170   4.705   2.009  17.119  0.1359 -2.1315 -0.6010
 9512SOL     OW40171   1.051   4.078   8.398  0.7907 -0.1509 -0.2500
 9512SOL    HW140172   0.967   4.044   8.364 -0.0684  1.4957  0.2124
 9512SOL    HW240173   1.025   4.154   8.450 -0.5456 -1.2967  0.7714
 9513SOL     OW40174   1.571   2.896   8.354 -0.2042 -0.2906  0.1097
 9513SOL    HW140175   1.600   2.960   8.420  0.3817 -1.5095  1.0239
 9513SOL    HW240176   1.648   2.841   8.362 -0.4352 -0.7600 -0.8489
 9514SOL     OW40177   1.138   2.464  16.974  0.6181  0.2066 -0.4053
 9514SOL    HW140178   1.130   2.469  16.879  3.4723 -0.6210 -0.6719
 9514SOL    HW240179   1.051   2.436  17.004  0.9150  0.1167  0.3745
 9515SOL     OW40180   2.740   1.635   3.964  0.1000  0.2456  0.1817
 9515SOL    HW140181   2.664   1.583   3.941  0.0256  0.0335  0.9047
 9515SOL    HW240182   2.786   1.613   3.883 -1.3507  0.0680 -0.5919
 9516SOL     OW40183   4.022   3.254   9.100  0.5401  0.1393 -0.0794
 9516SOL    HW140184   3.942   3.210   9.128  2.4208 -1.0302  3.4950
 9516SOL    HW240185   4.016   3.234   9.007 -0.7559 -0.0919  0.0652
 9517SOL     OW40186   1.593   0.774   2.809  0.0432 -0.2294  0.3482
 9517SOL    HW140187   1.515   0.744   2.856 -1.5860  2.1055 -0.8233
 9517SOL    HW240188   1.624   0.853   2.852  1.0345 -0.2192 -0.3912
 9518SOL     OW40189   0.109   1.829   4.039  0.3310 -0.0965  0.2079
 9518SOL    HW140190   0.070   1.786   3.962 -0.6513  1.6843 -0.2961
 9518SOL    HW240191   0.131   1.908   3.990  0.0141 -0.0868  0.0753
 9519SOL     OW40192   4.601   2.045   2.098  0.3104  0.2884 -0.0534
 9519SOL    HW140193   4.582   1.953   2.082 -1.7435  0.7213 -0.1740
 9519SOL    HW240194   4.525   2.067   2.153  0.5102 -1.9693  1.1166
 9520SOL     OW40195   4.684   3.495   6.204 -0.1418 -0.2788  0.4707
 9520SOL    HW140196   4.667   3.561   6.272  1.4870 -0.3612  0.9601
 9520SOL    HW240197   0.028   3.453   6.235  0.9277  0.7502 -0.9372
 9521SOL     OW40198   4.569   4.705   5.695  0.4384 -0.5253  0.2859
 9521SOL    HW140199   4.523   4.641   5.641  1.2524  0.6224 -1.7767
 9521SOL    HW240200   4.518   4.693   5.775 -0.4477 -0.4553 -0.2650
 9522SOL     OW40201   1.058   2.038  17.535 -0.1534 -0.2004 -0.2661
 9522SOL    HW140202   0.962   2.031  17.538 -0.1807  0.2680 -0.0859
 9522SOL    HW240203   1.081   2.003  17.621 -1.0134 -1.4919 -0.5625
 9523SOL     OW40204   2.752   4.256  17.306 -0.8272 -0.1410  0.5227
 9523SOL    HW140205   2.712   4.286  17.388 -0.9163 -2.4294  1.3170
 9523SOL    HW240206   2.771   4.167  17.333  1.5808  0.3689  0.4889
 9524SOL     OW40207   2.157   1.847  16.103 -0.5281  0.0944 -0.3717
 9524SOL    HW140208   2.215   1.807  16.038 -2.8044  0.6569 -2.7504
 9524SOL    HW240209   2.211   1.924  16.118  1.2790 -1.3656  0.6408
 9525SOL     OW40210   1.971   2.343   4.280  0.2437 -0.0328 -0.2968
 9525SOL    HW140211   2.050   2.290   4.273 -0.8550 -1.8127  0.8978
 9525SOL    HW240212   1.998   2.386   4.361 -0.3925 -2.0696  0.9969
 9526SOL     OW40213   0.534   2.760   7.442  0.6106 -0.5415 -0.5618
 9526SOL    HW140214   0.576   2.683   7.402 -0.5082 -1.3213 -0.2549
 9526SOL    HW240215   0.460   2.718   7.486 -0.0133  0.7462 -0.4060
 9527SOL     OW40216   3.173   1.344   4.936 -0.2241  0.1151  0.3837
 9527SOL    HW140217   3.259   1.307   4.957 -1.1649 -1.6186  1.1780
 9527SOL    HW240218   3.127   1.296   5.005  1.1368  0.1122  1.2811
 9528SOL     OW40219   1.932   3.381   7.137  0.1120  0.0074 -0.5162
 9528SOL    HW140220   1.918   3.312   7.201 -0.5679 -0.2618 -0.9523
 9528SOL    HW240221   2.012   3.348   7.095 -0.6362 -1.6657 -0.5955
 9529SOL     OW40222   2.596   1.921   7.380 -0.3808 -0.4691 -0.3831
 9529SOL    HW140223   2.652   1.992   7.348  2.9237 -2.3275  1.2601
 9529SOL    HW240224   2.547   1.962   7.451 -0.1086  0.9099 -0.9957
 9530SOL     OW40225   0.999   2.885   6.544 -0.0368 -0.4826  0.6785
 9530SOL    HW140226   0.934   2.949   6.572  1.6095  1.1269  0.8021
 9530SOL    HW240227   1.074   2.909   6.599 -0.0135  3.1831 -1.0198
 9531SOL     OW40228   4.288   3.291   5.792 -0.5926 -0.1205 -0.6751
 9531SOL    HW140229   4.336   3.288   5.709 -1.4327  1.0535 -1.2107
 9531SOL    HW240230   4.261   3.383   5.782 -0.3251  0.0801  0.4401
 9532SOL     OW40231   3.887   4.352   1.595 -0.2640 -0.7539  0.1406
 9532SOL    HW140232   3.976   4.340   1.628  0.4905  0.5395 -1.4510
 9532SOL    HW240233   3.862   4.432   1.642  4.6192  0.1196  1.2303
 9533SOL     OW40234   0.505   1.817   5.904  0.0477  0.1011  0.2474
 9533SOL    HW140235   0.417   1.780   5.895  0.2518 -0.3876  0.2694
 9533SOL    HW240236   0.509   1.879   5.831  1.0804 -1.2210 -0.8171
 9534SOL     OW40237   2.026   3.153  13.687  0.6975  0.2376  0.3127
 9534SOL    HW140238   2.031   3.057  13.680 -2.0346  0.0096  1.5727
 9534SOL    HW240239   1.951   3.171  13.631  1.6236  0.7523 -0.7528
 9535SOL     OW40240   2.459   4.654   5.162 -0.1124 -0.6667 -0.4823
 9535SOL    HW140241   2.458   4.594   5.087  0.9144 -1.3349  0.0314
 9535SOL    HW240242   2.385   4.706   5.133  0.3714 -0.1113 -0.7131
 9536SOL     OW40243   2.984   3.369  12.076 -0.0810  0.0601  0.3548
 9536SOL    HW140244   2.966   3.463  12.081 -0.8160 -0.0963  0.6737
 9536SOL    HW240245   2.925   3.332  12.141 -0.5551 -1.0593 -0.7081
 9537SOL     OW40246   3.638   1.153   2.863 -0.1509  0.4494 -0.3148
 9537SOL    HW140247   3.578   1.154   2.937  0.2662 -3.2779  0.0843
 9537SOL    HW240248   3.642   1.058   2.848  2.0685  0.5872 -0.6743
 9538SOL     OW40249   0.671   4.360   3.187  0.0594 -0.1700  0.4252
 9538SOL    HW140250   0.659   4.432   3.249  1.4904  0.3869  0.0424
 9538SOL    HW240251   0.608   4.292   3.209  0.9296 -0.9951  0.3292
 9539SOL     OW40252   3.941   0.332   5.544  0.5656  0.1859 -0.4692
 9539SOL    HW140253   3.913   0.255   5.593 -1.0848  0.3249 -1.1824
 9539SOL    HW240254   3.898   0.315   5.460 -1.0711 -4.3612  1.2546
 9540SOL     OW40255   1.341   0.972   6.394  0.1760 -0.4743 -0.3057
 9540SOL    HW140256   1.252   0.968   6.360 -0.1840 -1.1238  0.7339
 9540SOL    HW240257   1.377   1.047   6.346 -0.5757  1.0514  1.5152
 9541SOL     OW40258   1.858   1.272   4.003 -0.3842 -0.1518 -0.3472
 9541SOL    HW140259   1.795   1.329   3.958 -0.4524 -1.7208 -2.2938
 9541SOL    HW240260   1.898   1.328   4.069 -0.0479  1.3482 -1.8076
 9542SOL     OW40261   0.400   3.475  17.209  0.1769 -0.2843 -0.1339
 9542SOL    HW140262   0.465   3.413  17.241  1.3759  0.1820 -1.6262
 9542SOL    HW240263   0.316   3.431  17.219  0.0186 -0.0038 -0.2032
 9543SOL     OW40264   4.242   3.550  10.959  0.0562 -0.2373  0.1963
 9543SOL    HW140265   4.254   3.575  10.867  4.8904 -0.8856  0.6363
 9543SOL    HW240266   4.228   3.630  11.011  0.2583 -1.4036  2.0622
 9544SOL     OW40267   3.742   4.679   5.512 -0.5202  0.2303 -0.1919
 9544SOL    HW140268   3.762   0.008   5.579 -0.7434  1.7046 -1.5491
 9544SOL    HW240269   3.826   4.684   5.466 -0.8517 -1.1668 -0.9494
 9545SOL     OW40270   1.895   1.346   8.689  0.3378  0.2486  0.4536
 9545SOL    HW140271   1.987   1.356   8.715  0.2271  0.9247  0.6004
 9545SOL    HW240272   1.899   1.417   8.625 -2.2138 -0.7919 -0.8453
 9546SOL     OW40273   2.861   4.093   4.866 -0.3854 -0.5261 -0.1789
 9546SOL    HW140274   2.778   4.093   4.914 -0.8527  0.3964 -0.9774
 9546SOL    HW240275   2.818   4.083   4.780 -0.1927 -1.6569 -0.1473
 9547SOL     OW40276   0.288   2.219   5.261 -0.1740  0.2808 -0.4756
 9547SOL    HW140277   0.377   2.183   5.264 -0.3761 -0.1909 -0.0250
 9547SOL    HW240278   0.269   2.241   5.352  1.2770 -1.9000  0.3705
 9548SOL     OW40279   3.329   4.664  15.299  0.3055  0.2018  0.0467
 9548SOL    HW140280   3.250   4.661  15.244  0.4153  4.6447 -0.3648
 9548SOL    HW240281   3.368   4.578  15.281  0.7719  0.3269  0.4593
 9549SOL     OW40282   3.374   1.954   5.641 -0.1838  0.2103  0.2063
 9549SOL    HW140283   3.350   1.896   5.713  0.6403 -1.6188 -1.0094
 9549SOL    HW240284   3.327   1.917   5.566 -1.3190  2.1158 -0.0239
 9550SOL     OW40285   3.199   0.202  10.574  0.0712 -0.2475  0.1675
 9550SOL    HW140286   3.148   0.282  10.558  1.4444  0.4340 -0.7348
 9550SOL    HW240287   3.133   0.133  10.566 -0.0977 -0.0269 -0.3183
 9551SOL     OW40288   1.940   4.296  13.412 -0.0978 -0.1505 -0.3409
 9551SOL    HW140289   2.003   4.264  13.477 -0.4210 -1.6017 -0.7368
 9551SOL    HW240290   1.868   4.232  13.413  2.3848 -2.9511 -1.5164
 9552SOL     OW40291   1.558   1.957   2.916  0.1570  0.2381  0.3880
 9552SOL    HW140292   1.478   2.001   2.946  0.9343  1.9368 -0.0641
 9552SOL    HW240293   1.530   1.947   2.825  1.4184 -3.1063  0.3483
 9553SOL     OW40294   1.467   2.954   4.823  0.1157 -0.4097  0.1705
 9553SOL    HW140295   1.374   2.956   4.802  0.4326  0.1123 -1.1389
 9553SOL    HW240296   1.474   2.860   4.839 -0.3718 -1.1270 -3.9147
 9554SOL     OW40297   3.826   2.993   8.584  0.0391  0.1389 -0.2432
 9554SOL    HW140298   3.870   3.019   8.502  2.0749  0.0973  0.8304
 9554SOL    HW240299   3.790   3.076   8.616  3.0698  1.0690  0.8045
 9555SOL     OW40300   1.655   1.029   7.925  0.1828  0.2616  0.4021
 9555SOL    HW140301   1.633   1.001   8.014 -1.7603  0.4025 -0.0414
 9555SOL    HW240302   1.703   0.951   7.897 -0.3136 -0.1986  0.8071
 9556SOL     OW40303   2.979   1.510   8.259  0.2495  0.8006  0.6046
 9556SOL    HW140304   2.953   1.596   8.228  0.5019  0.3199 -0.9120
 9556SOL    HW240305   2.901   1.461   8.235  2.4869 -1.0969 -2.7267
 9557SOL     OW40306   3.621   0.189   6.936 -0.0836  0.1586 -0.5223
 9557SOL    HW140307   3.542   0.137   6.948 -0.0063  0.5305  1.5813
 9557SOL    HW240308   3.583   0.276   6.936  1.5201  0.8449 -2.7305
 9558SOL     OW40309   4.491   0.016   4.236 -0.8855  0.2261 -0.0722
 9558SOL    HW140310   4.571   0.024   4.287 -0.4830 -1.7159 -0.4321
 9558SOL    HW240311   4.431   4.731   4.308  0.9589 -0.5193  1.2519
 9559SOL     OW40312   3.054   3.046   9.489  0.4723 -0.0822 -0.3235
 9559SOL    HW140313   3.027   3.122   9.437  0.2076  0.2592  0.3112
 9559SOL    HW240314   3.102   3.090   9.559  1.4655 -0.7768 -0.5741
 9560SOL     OW40315   2.007   2.662   6.257 -0.7651  0.1526 -0.6714
 9560SOL    HW140316   2.040   2.613   6.332 -2.4042 -0.9460 -0.6561
 9560SOL    HW240317   1.973   2.730   6.314  0.1420  0.1834 -0.1745
 9561SOL     OW40318   3.994   4.393   5.910  0.4556  0.2314  0.1428
 9561SOL    HW140319   4.051   4.355   5.978  0.1560  0.2632  0.4112
 9561SOL    HW240320   3.912   4.417   5.952  1.5569  1.2465  1.7253
 9562SOL     OW40321   1.741   0.459   0.606  0.7838 -0.3110  0.4007
 9562SOL    HW140322   1.729   0.442   0.513  0.0486  1.2027  0.2115
 9562SOL    HW240323   1.835   0.474   0.602  0.8303 -1.5030 -3.0856
 9563SOL     OW40324   3.743   0.638   2.199  0.6367 -0.2593  0.0614
 9563SOL    HW140325   3.816   0.682   2.156  0.4147  0.2134  0.1715
 9563SOL    HW240326   3.762   0.654   2.292 -0.7915 -0.3946  0.3799
 9564SOL     OW40327   3.627   3.774   9.186  0.0690 -0.5807  0.2116
 9564SOL    HW140328   3.582   3.689   9.186 -0.1879 -0.4179  4.6528
 9564SOL    HW240329   3.547   3.825   9.196  0.6966  0.6967 -1.2356
 9565SOL     OW40330   2.694   4.344   5.407 -0.5203  0.1054 -0.4106
 9565SOL    HW140331   2.687   4.430   5.366 -2.4779  0.0844 -0.1117
 9565SOL    HW240332   2.769   4.310   5.359 -0.1895 -1.7035  1.4037
 9566SOL     OW40333   1.733   2.281  11.942 -0.6976  0.1863  0.3490
 9566SOL    HW140334   1.793   2.276  11.868 -2.1644 -1.2493 -0.7561
 9566SOL    HW240335   1.751   2.193  11.976 -0.0663 -0.6441 -2.1825
 9567SOL     OW40336   0.537   2.717   4.497  0.0679 -0.6643  0.5779
 9567SOL    HW140337   0.580   2.723   4.582 -0.3631  1.7527  0.6196
 9567SOL    HW240338   0.492   2.633   4.493 -2.1393  0.5366  0.0939
 9568SOL     OW40339   4.695   3.218  15.284  0.1800 -0.0220 -0.2221
 9568SOL    HW140340   4.616   3.248  15.330 -0.0192 -0.8149 -0.0272
 9568SOL    HW240341   0.030   3.206  15.347 -1.3935  1.0816  1.7574
 9569SOL     OW40342   2.471   1.092  11.414  0.0879  0.1336 -0.0068
 9569SOL    HW140343   2.477   1.176  11.459 -0.3313 -1.4607  2.9722
 9569SOL    HW240344   2.391   1.089  11.361  1.0136  2.5205 -1.5655
   4.73568   4.73568  17.74141
