Membrane in water
40344
    1TMC1    C1    1   4.095   1.997  11.987  0.3585 -0.1556 -0.1386
    1TMC1    C2    2   4.229   2.005  11.988 -0.0734 -0.5361 -0.5863
    1TMC1    C3    3   4.275   2.120  11.928 -0.3524  0.2613 -0.2239
    1TMC1    C4    4   4.005   2.087  11.937  0.2866 -0.6975  0.0158
    1TMC1    C5    5   4.060   2.207  11.899  0.1073  0.6532 -0.3907
    1TMC1    C6    6   4.195   2.217  11.881  0.1246  0.2678 -0.4652
    1TMC1     C    7   4.038   1.880  12.051 -0.5736  0.6889 -0.2260
    1TMC1     O    8   3.924   1.853  12.008  0.4962  0.1600  0.0851
    1TMC1     H    9   4.300   1.937  12.033  0.0794 -0.6004 -0.9215
    1TMC1    H1   10   3.899   2.069  11.951  0.0714 -0.4535 -1.2822
    1TMC1    H2   11   4.250   2.308  11.857  2.7088 -0.8848  1.0944
    1TMC1    C7   12   3.974   2.294  11.823  0.4797  0.5628 -0.3040
    1TMC1    C8   13   4.419   2.134  11.931  0.2456 -0.8430  0.0887
    1TMC1    O1   14   3.964   2.415  11.840 -1.1134 -0.1612  0.1955
    1TMC1    O2   15   4.495   2.039  11.945 -0.1605 -0.4311  0.3074
    1TMC1    O3   16   3.889   2.209  11.769 -0.5028  0.7027 -0.0721
    1TMC1    H3   17   3.935   2.127  11.745  0.9601  1.1714  1.1250
    1TMC1    O5   18   4.456   2.252  11.981  0.3038  0.2922 -0.1178
    1TMC1    H5   19   4.390   2.307  12.029  1.4176  1.2122  0.3685
    2MPD2     C   20   4.035   1.444  12.311  0.4582 -0.8333 -0.0470
    2MPD2    C1   21   3.935   1.521  12.263 -0.3173 -0.2488  0.2007
    2MPD2    C2   22   3.957   1.649  12.217 -0.1338 -0.3562  0.0189
    2MPD2    C3   23   4.087   1.693  12.209 -0.3746 -0.6699 -0.1169
    2MPD2    C4   24   4.195   1.611  12.256  0.0799 -0.2675 -0.4257
    2MPD2    C5   25   4.166   1.493  12.316 -0.0825 -0.5403  0.2139
    2MPD2     H   26   3.877   1.711  12.176  0.2496 -0.3278 -0.6891
    2MPD2    H1   27   4.297   1.636  12.230  0.9586 -1.2060  2.1222
    2MPD2    H2   28   4.016   1.342  12.344 -0.6199 -0.1773  1.3644
    2MPD2    H3   29   4.239   1.433  12.368 -0.6831 -0.7358  0.8286
    2MPD2     N   30   4.124   1.809  12.134 -0.7551  0.4433 -0.4788
    2MPD2    H5   31   4.218   1.844  12.146 -0.9532  0.1936  1.8180
    2MPD2    N1   32   3.808   1.464  12.222 -0.1259  0.7430  0.1767
    2MPD2    H7   33   3.746   1.531  12.176  0.6020  0.7310 -0.8371
    3TMC1    C1   34   2.391   1.853  11.009  0.2173 -0.0454  0.0141
    3TMC1    C2   35   2.459   1.736  11.024 -0.6769  0.2259 -0.0227
    3TMC1    C3   36   2.596   1.734  11.000 -0.5067 -0.2851 -0.1178
    3TMC1    C4   37   2.454   1.963  10.966  0.4326  0.2654  0.6150
    3TMC1    C5   38   2.587   1.953  10.935  0.4440  0.5098  0.1188
    3TMC1    C6   39   2.663   1.842  10.959 -0.2496 -0.1628  0.2665
    3TMC1     C   40   2.242   1.846  11.019 -1.1111  0.6490  0.1814
    3TMC1     O   41   2.189   1.743  11.067 -0.5312  0.2618 -0.3660
    3TMC1     H   42   2.405   1.652  11.067  1.9612 -0.4191  2.0682
    3TMC1    H1   43   2.408   2.061  10.975  0.9880  1.0170 -4.8349
    3TMC1    H2   44   2.770   1.840  10.941 -0.1075  0.2713  1.0831
    3TMC1    C7   45   2.667   2.066  10.898  0.1853 -0.4568  0.2177
    3TMC1    C8   46   2.660   1.622  11.065 -0.0670 -0.3410 -0.4898
    3TMC1    O1   47   2.784   2.091  10.925 -0.1871  0.2182 -0.1602
    3TMC1    O2   48   2.603   1.518  11.081 -0.1975  0.2658  0.1456
    3TMC1    O3   49   2.579   2.152  10.847  0.5867 -0.3500 -0.0227
    3TMC1    H3   50   2.492   2.112  10.829 -0.4677  2.0272 -0.2389
    3TMC1    O5   51   2.776   1.662  11.119 -0.0530  0.1695  0.0878
    3TMC1    H5   52   2.804   1.756  11.114  2.2850 -0.5039  0.6302
    4MPD2     C   53   1.808   2.141  11.095  0.0144 -0.6043  0.0859
    4MPD2    C1   54   1.914   2.217  11.047  0.9387 -0.2078  0.3591
    4MPD2    C2   55   2.033   2.157  11.017 -0.1311 -0.4471 -0.5157
    4MPD2    C3   56   2.055   2.021  11.022 -1.0032 -0.4425  0.1029
    4MPD2    C4   57   1.955   1.944  11.071 -0.5594 -0.1030  0.4179
    4MPD2    C5   58   1.832   2.004  11.099 -0.3886 -0.2797 -0.1997
    4MPD2     H   59   2.116   2.210  10.973  0.8948  0.3112  2.3006
    4MPD2    H1   60   1.968   1.837  11.082  0.4903 -0.1239 -1.0917
    4MPD2    H2   61   1.712   2.181  11.123 -0.8688 -1.2024 -2.0478
    4MPD2    H3   62   1.752   1.942  11.138  1.4418 -2.8323 -0.5302
    4MPD2     N   63   2.188   1.966  11.000 -0.2457  0.1565 -0.5291
    4MPD2    H5   64   2.247   2.042  10.966  0.2426 -0.3913 -0.9217
    4MPD2    N1   65   1.902   2.359  11.026  0.4309 -0.3936 -0.4295
    4MPD2    H7   66   1.990   2.399  10.995 -0.0532  0.9656 -0.0173
    5TCq1    O1   67   2.343   4.167  11.196 -0.1340 -0.1806  0.0931
    5TCq1    C1   68   2.249   4.180  11.096  0.1997  0.5593  0.2345
    5TCq1    O2   69   2.139   4.223  11.112 -0.0372 -0.3260 -0.1277
    5TCq1    C2   70   2.269   4.062  11.014  0.4060  0.4807  1.2785
    5TCq1    C3   71   2.164   3.982  10.993 -0.8467  0.1413 -0.2524
    5TCq1    C4   72   2.168   3.881  10.906  0.7526 -0.3634  0.3162
    5TCq1    C5   73   2.277   3.863  10.829 -0.3516  0.6026  0.0752
    5TCq1    C6   74   2.385   3.948  10.849  0.5042 -0.1266  0.1643
    5TCq1    C7   75   2.382   4.041  10.951 -0.0928  0.3277  0.4904
    5TCq1    C8   76   2.502   3.913  10.781  0.7390  0.1847  0.1615
    5TCq1    O4   77   2.511   3.801  10.739  0.0148 -0.8120  0.1058
    5TCq1    C9   78   2.055   3.790  10.878 -0.1579 -0.4280 -0.1947
    5TCq1    O5   79   2.076   3.684  10.804 -0.8857  0.4154  0.9403
    5TCq1    O6   80   1.946   3.822  10.929  0.3839  0.2871  0.2550
    5TCq1    H1   81   2.422   4.114  11.175 -2.5588 -3.5555 -0.4650
    5TCq1    H2   82   2.078   3.993  11.058 -1.5360  0.4568 -1.2244
    5TCq1    H3   83   2.281   3.786  10.754  0.3651  1.2685 -0.5736
    5TCq1    H4   84   2.462   4.114  10.951 -0.1482  0.3839  1.0810
    6MPD2     C   85   2.778   4.140  10.721  0.2617 -0.0678  0.5794
    6MPD2    C1   86   2.722   4.019  10.741  0.0879 -0.6706  0.6451
    6MPD2    C2   87   2.791   3.901  10.718 -0.3671 -0.0399  0.0932
    6MPD2    C3   88   2.924   3.909  10.679 -0.4620  0.6227  0.0001
    6MPD2    C4   89   2.984   4.033  10.675 -0.5444  0.2335  0.3658
    6MPD2    C5   90   2.906   4.147  10.688 -0.3201  0.5815 -0.2784
    6MPD2     H   91   2.739   3.808  10.736 -1.6230  0.1864 -2.3629
    6MPD2    H1   92   3.085   4.050  10.640 -0.3301  0.3846  1.0615
    6MPD2    H2   93   2.728   4.233  10.745  1.1146  0.3990  0.5391
    6MPD2    H3   94   2.954   4.244  10.683 -1.5338  1.0363 -3.2684
    6MPD2     N   95   2.995   3.787  10.663 -0.1466  0.5024 -0.3470
    6MPD2    H5   96   2.944   3.702  10.681 -1.3265  1.6211  1.5680
    6MPD2    N1   97   2.585   4.021  10.774 -0.3185 -0.5759 -0.8663
    6MPD2    H7   98   2.541   4.110  10.796  0.0452 -0.3972 -0.8579
    7TCq1    O1   99   0.806   3.554  13.761 -0.3630 -0.0325  0.4172
    7TCq1    C1  100   0.856   3.675  13.723  0.2625  0.2362  0.5835
    7TCq1    O2  101   0.780   3.768  13.708 -0.1466  0.1734  0.1655
    7TCq1    C2  102   0.964   3.652  13.630 -0.5891  0.2857  0.1951
    7TCq1    C3  103   0.966   3.730  13.518  0.2878 -0.1648 -0.5186
    7TCq1    C4  104   1.054   3.701  13.421 -0.1375 -0.3968 -0.1275
    7TCq1    C5  105   1.141   3.593  13.435  0.5967 -0.2502  0.3372
    7TCq1    C6  106   1.136   3.520  13.550 -0.3982  0.7011 -0.1121
    7TCq1    C7  107   1.048   3.550  13.654  0.5232 -0.3755 -0.0985
    7TCq1    C8  108   1.198   3.390  13.560  0.3457  0.4544  0.2838
    7TCq1    O4  109   1.207   3.348  13.675 -0.4319 -0.4561  0.2647
    7TCq1    C9  110   1.052   3.767  13.291 -0.2575 -0.3336  0.3100
    7TCq1    O5  111   0.964   3.856  13.269 -0.6762 -0.0658  0.3670
    7TCq1    O6  112   1.134   3.721  13.206  0.6407  0.4478  0.0761
    7TCq1    H1  113   0.862   3.473  13.764  1.3582  1.1215 -0.5584
    7TCq1    H2  114   0.892   3.809  13.502 -0.1294 -0.7841 -1.6896
    7TCq1    H3  115   1.212   3.573  13.356  0.2042  2.7082 -0.7471
    7TCq1    H4  116   1.063   3.500  13.749 -1.1635 -0.7241 -0.0117
    8MPD2     C  117   1.317   2.941  13.348  0.0250  0.1847 -0.1991
    8MPD2    C1  118   1.302   2.967  13.486 -0.6048  0.1565  0.1164
    8MPD2    C2  119   1.259   3.096  13.514 -0.1486 -0.8446 -0.2390
    8MPD2    C3  120   1.248   3.198  13.413 -0.4307  0.0392  0.6581
    8MPD2    C4  121   1.273   3.163  13.285  0.5985 -0.3717 -0.0501
    8MPD2    C5  122   1.306   3.030  13.252 -0.6181 -0.2370  0.5389
    8MPD2     H  123   1.236   3.116  13.617  0.4820 -1.0131 -0.0640
    8MPD2    H1  124   1.273   3.233  13.202  0.0739 -0.2148  0.0871
    8MPD2    H2  125   1.321   2.841  13.305 -2.5252 -0.0187  0.0395
    8MPD2    H3  126   1.332   3.007  13.149  2.2875 -0.3195  1.2966
    8MPD2     N  127   1.220   3.332  13.441  0.3936 -0.6645 -0.8246
    8MPD2    H5  128   1.213   3.384  13.354 -0.3810  0.8161  0.1402
    8MPD2    N1  129   1.309   2.870  13.586  0.0562 -0.2432 -0.3281
    8MPD2    H7  130   1.292   2.910  13.678 -1.1048 -0.5954 -0.3774
    9TMC1    C1  131   3.190   2.910  11.080 -0.4151 -0.2277  0.3188
    9TMC1    C2  132   3.107   2.801  11.074 -0.1214  0.2734 -0.0741
    9TMC1    C3  133   3.042   2.782  10.953 -0.2336 -1.0034  0.0652
    9TMC1    C4  134   3.200   3.002  10.986  0.6292 -0.5079  0.3144
    9TMC1    C5  135   3.142   2.973  10.863  0.4953  0.3522  0.4889
    9TMC1    C6  136   3.054   2.866  10.847  0.0626  0.4692 -0.3553
    9TMC1     C  137   3.220   2.966  11.213  0.0236  0.0912 -0.3680
    9TMC1     O  138   3.272   3.077  11.207 -0.0337  0.0639  0.4132
    9TMC1     H  139   3.099   2.731  11.156 -2.3120 -0.7046 -1.1357
    9TMC1    H1  140   3.262   3.091  10.992  2.0343 -1.4802  0.0926
    9TMC1    H2  141   3.006   2.846  10.752  0.0866  1.8583 -0.6491
    9TMC1    C7  142   3.180   3.033  10.744  0.6482  0.0935  0.3226
    9TMC1    C8  143   2.942   2.671  10.946 -0.0786 -0.3745  0.5640
    9TMC1    O1  144   3.115   3.037  10.642  0.2310  0.0713  0.3568
    9TMC1    O2  145   2.903   2.608  11.043  0.0905  0.0155  0.0359
    9TMC1    O3  146   3.313   3.066  10.749 -0.4735 -0.0133  0.6628
    9TMC1    H3  147   3.364   3.030  10.825  2.0832  0.8493 -0.6454
    9TMC1    O5  148   2.958   2.617  10.827  0.5131 -0.2645 -0.1462
    9TMC1    H5  149   3.028   2.661  10.775  0.8382  0.4365  0.8885
   10MPD2     C  150   3.204   3.043  11.506  1.0829 -0.1800 -0.1614
   10MPD2    C1  151   3.202   2.913  11.458 -0.2789  0.7274  0.5358
   10MPD2    C2  152   3.215   2.807  11.545 -0.8121 -0.0291  0.8465
   10MPD2    C3  153   3.200   2.818  11.681 -0.6232  0.1776  0.0039
   10MPD2    C4  154   3.195   2.948  11.729  0.3156 -0.3186  0.4669
   10MPD2    C5  155   3.200   3.054  11.642  0.4055 -0.2860  0.9798
   10MPD2     H  156   3.233   2.716  11.489 -0.6737  1.4849 -1.6084
   10MPD2    H1  157   3.181   2.967  11.834 -0.6718 -4.4739  1.0885
   10MPD2    H2  158   3.207   3.133  11.446  1.2407 -0.1252 -0.0710
   10MPD2    H3  159   3.189   3.155  11.680 -0.3331 -0.3707  0.9899
   10MPD2     N  160   3.221   2.712  11.771  0.3920 -0.2004 -0.7122
   10MPD2    H5  161   3.222   2.730  11.871 -3.5102 -1.3945 -0.4361
   10MPD2    N1  162   3.211   2.882  11.316 -0.3542 -0.4406  0.1725
   10MPD2    H7  163   3.208   2.783  11.292  1.0171 -0.8457  1.6674
   11TCq1    O1  164   3.728   2.511  13.492 -0.0952 -0.4781 -0.3096
   11TCq1    C1  165   3.820   2.503  13.589 -0.1270  0.1086 -0.3121
   11TCq1    O2  166   3.916   2.575  13.605 -0.3868  0.7682  0.0287
   11TCq1    C2  167   3.821   2.368  13.644 -0.2495 -0.0284  0.5028
   11TCq1    C3  168   3.932   2.337  13.719  0.0634 -0.0808  0.3107
   11TCq1    C4  169   3.929   2.225  13.788 -0.0407 -1.3596 -0.4846
   11TCq1    C5  170   3.824   2.140  13.781 -0.1563 -0.0975  0.5490
   11TCq1    C6  171   3.716   2.174  13.708 -0.7155 -0.1696  0.0369
   11TCq1    C7  172   3.712   2.290  13.639  0.4473  0.0735  0.1666
   11TCq1    C8  173   3.607   2.081  13.677 -0.8688  0.2447 -0.4265
   11TCq1    O4  174   3.500   2.125  13.636 -0.2772 -0.2792 -0.1784
   11TCq1    C9  175   4.035   2.182  13.881  0.1179 -0.1695  0.0681
   11TCq1    O5  176   4.130   2.267  13.896 -0.0472  0.0819  0.0241
   11TCq1    O6  177   4.024   2.071  13.943 -0.0320  0.0474 -0.2119
   11TCq1    H1  178   3.699   2.420  13.470 -0.3679  0.1412 -2.4601
   11TCq1    H2  179   4.024   2.394  13.711 -0.5710  1.0220  1.1051
   11TCq1    H3  180   3.834   2.041  13.823 -0.2502 -0.4119 -0.1703
   11TCq1    H4  181   3.617   2.321  13.598  0.2082  0.4362  0.9892
   12MPD2     C  182   3.449   1.847  13.595 -0.6892  0.2567 -0.5142
   12MPD2    C1  183   3.571   1.835  13.667 -0.1748 -0.7910  0.4793
   12MPD2    C2  184   3.620   1.705  13.710  0.1794 -0.9492 -0.5679
   12MPD2    C3  185   3.539   1.588  13.687 -0.4341 -0.2628  0.5015
   12MPD2    C4  186   3.421   1.603  13.617 -0.3315  0.3444  0.2188
   12MPD2    C5  187   3.377   1.726  13.575 -0.2385 -0.5381  0.5875
   12MPD2     H  188   3.716   1.706  13.760 -0.6212 -1.0687  0.9922
   12MPD2    H1  189   3.353   1.521  13.601  0.8519 -0.4371 -0.8196
   12MPD2    H2  190   3.419   1.937  13.543  1.3637  0.4567 -1.3748
   12MPD2    H3  191   3.288   1.729  13.513  1.5069 -0.1508 -1.9388
   12MPD2     N  192   3.580   1.451  13.706  0.1928  0.0978 -0.2960
   12MPD2    H5  193   3.526   1.375  13.666 -0.1961  0.6863 -0.8987
   12MPD2    N1  194   3.647   1.951  13.696  0.1692 -1.0937 -0.1518
   12MPD2    H7  195   3.745   1.939  13.716  0.5273  0.8374 -0.7182
   13TCq1    O1  196   4.159   2.555  11.477 -0.1515  0.7445 -0.3693
   13TCq1    C1  197   4.062   2.462  11.508  0.7690 -0.1568  0.2723
   13TCq1    O2  198   4.088   2.344  11.524  0.2526  0.1779  0.5811
   13TCq1    C2  199   3.928   2.518  11.489  0.1500  1.0958 -0.0264
   13TCq1    C3  200   3.903   2.645  11.451 -0.1428 -0.0664  0.0966
   13TCq1    C4  201   3.774   2.672  11.418  0.3856  0.9479 -0.5460
   13TCq1    C5  202   3.672   2.586  11.419  0.0151  0.4364 -1.0102
   13TCq1    C6  203   3.707   2.467  11.469  0.4965  0.3114 -0.1970
   13TCq1    C7  204   3.826   2.430  11.500 -0.1782  0.3612 -0.0128
   13TCq1    C8  205   3.600   2.375  11.504  0.6494  0.6745 -1.0626
   13TCq1    O4  206   3.496   2.399  11.451  0.0033 -0.1368 -0.0654
   13TCq1    C9  207   3.734   2.809  11.374  0.7957 -0.1627  0.4640
   13TCq1    O5  208   3.823   2.897  11.360  0.1055  0.1472  0.8030
   13TCq1    O6  209   3.617   2.831  11.332  0.4346  0.0041 -0.0387
   13TCq1    H1  210   4.125   2.648  11.481  0.3520  0.8458  1.3620
   13TCq1    H2  211   3.972   2.726  11.428  0.5777 -0.6747  0.1129
   13TCq1    H3  212   3.573   2.626  11.401  0.2389  1.0261 -0.9452
   13TCq1    H4  213   3.848   2.334  11.546  0.9975 -0.4915 -2.3333
   14MPD2     C  214   3.609   2.036  11.626 -0.7390  0.9562 -0.6678
   14MPD2    C1  215   3.542   2.151  11.592 -0.0262  0.1150 -0.0962
   14MPD2    C2  216   3.404   2.163  11.584  0.2506 -0.4405 -0.1539
   14MPD2    C3  217   3.326   2.055  11.615 -0.7114 -0.2967 -0.9311
   14MPD2    C4  218   3.390   1.933  11.652 -0.6718  0.1002  0.6232
   14MPD2    C5  219   3.528   1.927  11.661  0.3743  0.2695  0.0066
   14MPD2     H  220   3.363   2.262  11.573 -1.1300 -0.7305  2.4440
   14MPD2    H1  221   3.329   1.844  11.660  0.6011 -0.8443 -0.2578
   14MPD2    H2  222   3.717   2.034  11.630 -0.8281 -0.2402  1.5952
   14MPD2    H3  223   3.572   1.832  11.691  0.2356  0.0570 -0.4495
   14MPD2     N  224   3.183   2.066  11.599 -0.9557 -0.4317 -0.4014
   14MPD2    H5  225   3.142   2.148  11.556  0.0923  0.4514  0.2723
   14MPD2    N1  226   3.631   2.262  11.569  1.0349  0.6591 -0.2589
   14MPD2    H7  227   3.731   2.243  11.575  0.9595  0.8723  1.7561
   15TCq1    O1  228   1.855   1.153   0.449 -0.7228  0.2425 -0.7282
   15TCq1    C1  229   1.814   1.283   0.438  0.0863  0.1094  0.0393
   15TCq1    O2  230   1.799   1.347   0.337  0.1647  0.3681  0.2540
   15TCq1    C2  231   1.738   1.315   0.554 -0.0411 -0.3835  0.3197
   15TCq1    C3  232   1.765   1.440   0.606 -0.9589 -0.0150  0.0515
   15TCq1    C4  233   1.706   1.477   0.725  0.5900  0.3142  0.0504
   15TCq1    C5  234   1.624   1.383   0.794 -0.8646  0.6516 -0.0708
   15TCq1    C6  235   1.609   1.257   0.739 -0.1353  0.1502  0.1404
   15TCq1    C7  236   1.666   1.218   0.624  0.4580 -0.2154 -0.3367
   15TCq1    C8  237   1.544   1.159   0.819 -0.3448 -0.2570  0.5338
   15TCq1    O4  238   1.490   1.066   0.758 -1.0661  0.4300  0.1510
   15TCq1    C9  239   1.698   1.612   0.771  0.6379  0.3826 -0.3132
   15TCq1    O5  240   1.727   1.704   0.693  0.4538  0.3760 -0.1938
   15TCq1    O6  241   1.669   1.623   0.893 -0.5857  0.2668  0.2188
   15TCq1    H1  242   1.863   1.131   0.545  2.8285  1.6808 -0.6857
   15TCq1    H2  243   1.832   1.504   0.549  1.5933  1.1670  4.3618
   15TCq1    H3  244   1.582   1.408   0.891  0.5985  0.6038  0.5860
   15TCq1    H4  245   1.638   1.121   0.585  0.5688 -0.9467  1.4074
   16MPD2     C  246   1.613   1.105   1.163  0.4175  0.3810  0.3063
   16MPD2    C1  247   1.584   1.069   1.037  0.0593  0.3668  0.6232
   16MPD2    C2  248   1.545   0.939   1.011 -0.4819 -0.0511 -0.1048
   16MPD2    C3  249   1.549   0.839   1.118 -0.7691 -0.0850 -0.2827
   16MPD2    C4  250   1.587   0.884   1.247 -0.0935 -0.3032  0.7473
   16MPD2    C5  251   1.615   1.019   1.268 -0.6456 -0.2670 -0.6465
   16MPD2     H  252   1.528   0.912   0.907 -0.3139  1.0003 -0.4000
   16MPD2    H1  253   1.594   0.810   1.327  3.2933  0.1559  0.8750
   16MPD2    H2  254   1.632   1.208   1.190  0.9287  0.2582  0.4277
   16MPD2    H3  255   1.627   1.059   1.368 -1.7796  0.4648 -0.7994
   16MPD2     N  256   1.528   0.702   1.070  1.3219 -0.2230  0.0460
   16MPD2    H5  257   1.510   0.693   0.971 -1.8794  1.3856  0.4574
   16MPD2    N1  258   1.582   1.173   0.946 -0.2879  0.4643 -0.3946
   16MPD2    H7  259   1.638   1.252   0.977  0.2086 -0.1019  0.1762
   17TMC1    C1  260   2.260   0.537  10.799  0.1198 -0.1935 -0.2860
   17TMC1    C2  261   2.243   0.432  10.712 -0.4801  0.1350  0.4585
   17TMC1    C3  262   2.133   0.426  10.631  0.4285 -0.2520 -0.3778
   17TMC1    C4  263   2.169   0.636  10.809 -0.3020 -0.2567  0.3716
   17TMC1    C5  264   2.060   0.625  10.735 -0.1158 -0.2858  1.0699
   17TMC1    C6  265   2.043   0.529  10.637 -0.0710  0.3337 -0.0244
   17TMC1     C  266   2.371   0.512  10.892  0.1633 -0.1017 -0.1063
   17TMC1     O  267   2.386   0.397  10.933  0.3473  0.0085  0.0010
   17TMC1     H  268   2.302   0.342  10.723 -0.7938 -0.4937 -2.8668
   17TMC1    H1  269   2.173   0.696  10.899 -0.8041  1.9376 -1.0674
   17TMC1    H2  270   1.961   0.549  10.569  2.2684 -2.3416 -3.6155
   17TMC1    C7  271   1.945   0.708  10.753 -0.2700 -0.1689 -0.0801
   17TMC1    C8  272   2.145   0.360  10.505  0.4349  0.4980 -0.6480
   17TMC1    O1  273   1.843   0.697  10.684 -0.0710  0.1434 -0.4904
   17TMC1    O2  274   2.254   0.331  10.461  0.0919  0.1812 -0.1138
   17TMC1    O3  275   2.008   0.825  10.744 -0.3554 -0.4168 -0.2043
   17TMC1    H3  276   2.103   0.835  10.765 -0.1769  1.2483 -1.7574
   17TMC1    O5  277   2.018   0.338  10.462  0.1799  0.0151 -0.0890
   17TMC1    H5  278   1.940   0.364  10.515 -0.2045 -1.6523  0.1685
   18MPD2     C  279   2.595   0.560  11.081  0.6098 -0.2363  0.2303
   18MPD2    C1  280   2.566   0.640  10.981  0.4806  0.5869 -0.4737
   18MPD2    C2  281   2.653   0.749  10.959  0.6013  0.0975  1.0491
   18MPD2    C3  282   2.767   0.762  11.031  0.5152 -0.0708  0.1536
   18MPD2    C4  283   2.796   0.665  11.129  0.4370  0.1816  0.6306
   18MPD2    C5  284   2.709   0.565  11.153 -0.5198 -0.0938 -0.4206
   18MPD2     H  285   2.637   0.811  10.872  1.8053 -0.5435  0.3709
   18MPD2    H1  286   2.883   0.662  11.193  0.6652  0.3558  0.3258
   18MPD2    H2  287   2.534   0.476  11.112  1.3307 -0.4149  1.1650
   18MPD2    H3  288   2.731   0.487  11.225 -0.1073  0.2939 -0.1197
   18MPD2     N  289   2.861   0.866  11.011 -0.2426  0.5347 -0.1319
   18MPD2    H5  290   2.947   0.868  11.064 -0.1977  1.2181 -0.2339
   18MPD2    N1  291   2.451   0.624  10.906 -0.5687 -0.0346  0.5402
   18MPD2    H7  292   2.443   0.701  10.840 -2.0304 -0.7320 -0.0966
   19TMC2    C1  293   0.135   2.311  14.135  0.7618  0.4740  0.5487
   19TMC2    C2  294   0.056   2.419  14.148  0.5028  0.3819  0.0043
   19TMC2    C3  295   4.663   2.390  14.160  0.5519  0.2399  0.4067
   19TMC2    C4  296   0.096   2.180  14.141 -0.5642 -0.2785 -0.7097
   19TMC2    C5  297   4.698   2.157  14.136 -0.3198  1.0041 -0.1806
   19TMC2    C6  298   4.610   2.264  14.152 -0.4151 -0.1700 -0.0719
   19TMC2     C  299   0.272   2.344  14.122 -0.2532  0.3569  0.2166
   19TMC2     O  300   0.300   2.457  14.081 -0.0501  0.3073 -0.2889
   19TMC2     H  301   0.093   2.519  14.165  0.8970  0.2618 -0.1642
   19TMC2    H1  302   0.164   2.096  14.135  1.6243  1.3194  1.9940
   19TMC2    H2  303   4.512   2.245  14.193 -0.0532 -0.2278  0.7723
   19TMC2    C7  304   4.657   2.022  14.116 -0.0572 -0.3070 -0.5124
   19TMC2    C8  305   4.576   2.495  14.191 -0.2150 -0.6206  0.3581
   19TMC2    O1  306   0.007   1.942  14.108 -0.1147 -0.3947 -0.2946
   19TMC2    O2  307   4.610   2.583  14.269 -0.0484 -0.7673  0.3009
   19TMC2    O5  308   4.494   2.512  14.084  0.1166  0.8094 -0.1902
   19TMC2    H5  309   4.513   2.445  14.015 -1.3658 -0.5586  0.7211
   20MPD2     C  310   0.558   2.312  14.040  0.6347 -0.0647  0.4933
   20MPD2    C1  311   0.490   2.230  14.126  0.2974  0.8223  0.8367
   20MPD2    C2  312   0.552   2.121  14.185  0.1111  0.2037  0.0995
   20MPD2    C3  313   0.683   2.088  14.151 -0.3897 -0.1883  0.3208
   20MPD2    C4  314   0.745   2.166  14.058  0.5368  0.6084 -0.0341
   20MPD2    C5  315   0.688   2.276  14.007  0.0878  0.9021  0.0216
   20MPD2     H  316   0.494   2.066  14.258  0.3540  0.7666  0.7123
   20MPD2    H1  317   0.838   2.132  14.014 -1.2880 -2.7265 -1.3243
   20MPD2    H2  318   0.519   2.398  13.988  1.7796 -0.2763 -0.7070
   20MPD2    H3  319   0.738   2.330  13.927  0.9318  2.0660  1.3329
   20MPD2     N  320   0.760   1.986  14.207 -0.0678  0.1137 -0.2864
   20MPD2    H5  321   0.855   1.970  14.175 -0.5618 -1.2289 -1.0570
   20MPD2    N1  322   0.355   2.243  14.149  0.1304  0.1129 -0.1081
   20MPD2    H7  323   0.316   2.170  14.209  0.8564  1.5344  2.0802
   21TMC2    C1  324   2.511   2.434  14.600  0.3436  0.3344 -0.3471
   21TMC2    C2  325   2.564   2.327  14.662  0.0127 -0.4491  0.2362
   21TMC2    C3  326   2.508   2.294  14.778 -0.2663  0.0585  0.3504
   21TMC2    C4  327   2.405   2.509  14.650 -0.5210 -0.0289  0.3083
   21TMC2    C5  328   2.357   2.468  14.777  0.2971 -0.4574 -0.8877
   21TMC2    C6  329   2.420   2.370  14.847 -0.6075  0.4293  0.7816
   21TMC2     C  330   2.567   2.481  14.471  0.5993  0.0425  0.7518
   21TMC2     O  331   2.635   2.404  14.412 -0.3981  0.6230 -0.1403
   21TMC2     H  332   2.644   2.270  14.617 -1.4845 -2.8697  0.6345
   21TMC2    H1  333   2.362   2.599  14.608 -0.9750  0.1244  1.0855
   21TMC2    H2  334   2.377   2.347  14.944 -0.9204 -0.4805  0.4331
   21TMC2    C7  335   2.255   2.542  14.852 -0.1205 -0.1396 -0.3665
   21TMC2    C8  336   2.587   2.202  14.861 -0.2009  0.4795 -0.2234
   21TMC2    O1  337   2.287   2.559  14.966  0.5001 -0.4737  0.6831
   21TMC2    O2  338   2.579   2.206  14.982  0.1235 -0.5912 -0.2960
   21TMC2    O5  339   2.629   2.098  14.781 -0.0456  0.1944  0.2806
   21TMC2    H5  340   2.599   2.091  14.688 -1.6633  0.6433  0.7804
   22MPD2     C  341   2.695   2.879  14.177 -0.7726 -0.6890 -0.1751
   22MPD2    C1  342   2.745   2.750  14.175 -0.7875 -0.3994 -0.4055
   22MPD2    C2  343   2.684   2.660  14.255 -0.2475 -0.4188 -0.4939
   22MPD2    C3  344   2.577   2.689  14.335 -0.6828 -0.0154 -0.4415
   22MPD2    C4  345   2.522   2.818  14.331  0.0943  0.3031  0.3324
   22MPD2    C5  346   2.592   2.911  14.263  0.1651  0.4560 -0.3423
   22MPD2     H  347   2.711   2.556  14.245 -2.2419 -0.8641 -1.1017
   22MPD2    H1  348   2.428   2.835  14.383 -0.1415  0.2877 -0.0900
   22MPD2    H2  349   2.740   2.960  14.122 -0.3292 -1.1193 -0.4441
   22MPD2    H3  350   2.559   3.014  14.267  0.4567  0.5321  0.1842
   22MPD2     N  351   2.519   2.607  14.429  0.5799 -0.3008 -0.9309
   22MPD2    H5  352   2.438   2.642  14.479 -1.1951 -0.5030 -3.6518
   22MPD2    N1  353   2.853   2.712  14.093  0.1853 -0.4958  0.7879
   22MPD2    H7  354   2.870   2.613  14.083  2.8198  0.1084 -0.7664
   23TMC2    C1  355   3.839   3.333  14.469  0.5763 -0.5924  0.2058
   23TMC2    C2  356   3.881   3.374  14.349 -0.4265 -0.8205 -1.8434
   23TMC2    C3  357   3.791   3.375  14.243 -0.1189  0.7485  0.1746
   23TMC2    C4  358   3.712   3.280  14.483  0.4220  0.4057 -0.1526
   23TMC2    C5  359   3.623   3.274  14.382 -0.1216 -0.2814 -0.5502
   23TMC2    C6  360   3.658   3.324  14.260  0.0359 -0.0267  0.2980
   23TMC2     C  361   3.915   3.345  14.590 -0.6185  1.2857 -0.1750
   23TMC2     O  362   3.863   3.304  14.692 -0.2104  0.3348  0.0329
   23TMC2     H  363   3.982   3.413  14.341 -0.3614 -0.3712  1.3805
   23TMC2    H1  364   3.672   3.229  14.570 -0.1048 -0.4810 -0.9016
   23TMC2    H2  365   3.589   3.325  14.176  1.1850  2.6065 -0.6149
   23TMC2    C7  366   3.500   3.193  14.414  0.0238 -0.5718  0.0794
   23TMC2    C8  367   3.836   3.418  14.115  0.5834  0.5587 -0.7663
   23TMC2    O1  368   3.519   3.074  14.447  0.8217 -0.0994 -0.2884
   23TMC2    O2  369   3.934   3.484  14.104  0.0542 -0.4504 -0.4084
   23TMC2    O5  370   3.766   3.361  14.014  0.1380  0.4246 -0.0441
   23TMC2    H5  371   3.688   3.308  14.042  0.1016  1.0386  1.0409
   24MPD2     C  372   4.348   3.415  14.868  0.3431 -0.7337  0.3101
   24MPD2    C1  373   4.223   3.373  14.909 -0.0966 -0.2708  0.1559
   24MPD2    C2  374   4.123   3.365  14.817  0.1854 -1.2516 -0.0109
   24MPD2    C3  375   4.142   3.400  14.682 -1.3606 -0.1707 -0.1547
   24MPD2    C4  376   4.270   3.441  14.647 -0.1619  0.7282  0.0556
   24MPD2    C5  377   4.368   3.444  14.739 -0.5011  0.1872 -0.5509
   24MPD2     H  378   4.027   3.329  14.853 -0.0316 -0.3235  0.3567
   24MPD2    H1  379   4.293   3.477  14.548  0.7916  0.7625  0.2885
   24MPD2    H2  380   4.423   3.430  14.945 -0.4299 -0.3726  0.9853
   24MPD2    H3  381   4.455   3.498  14.705  2.0457 -2.8877  1.0640
   24MPD2     N  382   4.043   3.400  14.580 -0.0576  0.1582 -0.5463
   24MPD2    H5  383   4.072   3.428  14.487  0.9017  0.8592 -0.0410
   24MPD2    N1  384   4.203   3.333  15.040 -0.0507  0.2367  0.5007
   24MPD2    H7  385   4.121   3.274  15.056  0.0021  0.5077  1.7975
   25TMC2    C1  386   2.867   1.243  11.621  0.0909  0.0498 -0.5378
   25TMC2    C2  387   2.919   1.359  11.563 -0.2301  0.7848 -0.0468
   25TMC2    C3  388   2.855   1.475  11.582  0.4209  0.5660  0.4262
   25TMC2    C4  389   2.745   1.250  11.688 -0.2592 -0.6112  0.4885
   25TMC2    C5  390   2.686   1.374  11.709 -0.6327 -0.3731 -0.3789
   25TMC2    C6  391   2.736   1.491  11.655 -0.4456 -0.0555  0.2719
   25TMC2     C  392   2.909   1.117  11.576 -0.3450  0.0315  0.2080
   25TMC2     O  393   3.027   1.123  11.555 -1.0284 -0.2506 -0.3649
   25TMC2     H  394   3.002   1.351  11.493  1.8486  0.8063  2.4464
   25TMC2    H1  395   2.700   1.161  11.730 -3.5706  1.3703  1.0917
   25TMC2    H2  396   2.706   1.587  11.695  0.2221  1.2884 -2.4822
   25TMC2    C7  397   2.584   1.375  11.809 -0.6192  0.4864 -0.3111
   25TMC2    C8  398   2.925   1.588  11.506  0.1085  0.5580  0.3413
   25TMC2    O1  399   2.608   1.302  11.902 -0.1824  0.0444 -0.4757
   25TMC2    O2  400   2.979   1.589  11.396 -0.2661 -0.0231 -0.5361
   25TMC2    O5  401   2.893   1.696  11.577 -0.1360 -0.3853 -0.3001
   25TMC2    H5  402   2.874   1.682  11.673 -0.5975  1.1025 -0.1668
   26MPD2     C  403   2.850   0.609  11.504  1.2339 -0.0860  0.4155
   26MPD2    C1  404   2.728   0.671  11.495  0.1368  0.7512  0.4097
   26MPD2    C2  405   2.719   0.811  11.506 -0.2104 -0.4132 -0.2013
   26MPD2    C3  406   2.830   0.883  11.522  0.4842  0.4222 -0.2845
   26MPD2    C4  407   2.954   0.819  11.529  0.0599 -0.2044 -0.5120
   26MPD2    C5  408   2.960   0.685  11.507 -0.2897 -0.6821  0.2003
   26MPD2     H  409   2.621   0.854  11.493 -0.3117 -0.0327  1.8960
   26MPD2    H1  410   3.045   0.870  11.558 -1.9871  1.3709  3.2457
   26MPD2    H2  411   2.861   0.502  11.491 -0.8446 -0.3155  0.5244
   26MPD2    H3  412   3.062   0.647  11.504  0.5456  1.6223 -0.9920
   26MPD2     N  413   2.808   1.023  11.550 -0.3383  0.5592 -0.0681
   26MPD2    H5  414   2.711   1.046  11.565 -0.3591  1.2165 -1.2244
   26MPD2    N1  415   2.621   0.584  11.501  0.4258  0.8602 -0.0124
   26MPD2    H7  416   2.642   0.485  11.503 -1.4653  0.4595 -0.1628
   27TMC2    C1  417   2.083   2.845  12.576  0.2038 -1.1888 -0.2035
   27TMC2    C2  418   2.199   2.911  12.547 -0.0159 -0.0319  0.0776
   27TMC2    C3  419   2.318   2.862  12.592 -0.1034  0.5357 -0.1667
   27TMC2    C4  420   2.078   2.739  12.663  0.7164  0.2250 -0.6647
   27TMC2    C5  421   2.197   2.685  12.695 -0.3913 -0.2927 -0.0925
   27TMC2    C6  422   2.312   2.747  12.668 -0.1787  0.4634 -0.0511
   27TMC2     C  423   1.980   2.865  12.475 -0.0530 -0.0723 -0.5622
   27TMC2     O  424   2.015   2.905  12.359  0.5709  0.2663  0.5266
   27TMC2     H  425   2.190   2.992  12.475  0.7842  0.9190  1.0380
   27TMC2    H1  426   1.983   2.689  12.676  0.2065  1.1878 -0.6991
   27TMC2    H2  427   2.406   2.727  12.718 -2.0054 -0.1487  3.1206
   27TMC2    C7  428   2.203   2.591  12.805  0.6584 -0.3169  0.0288
   27TMC2    C8  429   2.445   2.922  12.565  0.4500 -0.2981  0.1158
   27TMC2    O1  430   2.314   2.574  12.855  0.7236 -0.1125  0.5836
   27TMC2    O2  431   2.547   2.896  12.628  0.3334  0.4277 -0.4422
   27TMC2    O5  432   2.423   3.039  12.491  0.3359  0.5892 -0.5606
   27TMC2    H5  433   2.342   3.042  12.435 -1.4266  0.1352  1.9859
   28MPD2     C  434   1.504   2.863  12.317 -0.6773 -0.3108  0.4023
   28MPD2    C1  435   1.499   2.853  12.454  0.5111 -0.6157  0.1132
   28MPD2    C2  436   1.621   2.824  12.519  0.3429 -0.1805  0.8092
   28MPD2    C3  437   1.741   2.840  12.455 -0.3444  0.0180  0.5754
   28MPD2    C4  438   1.740   2.863  12.315 -0.3065  0.5612  0.4699
   28MPD2    C5  439   1.620   2.866  12.246  0.1395  0.0031 -0.2434
   28MPD2     H  440   1.628   2.807  12.625 -1.7885  2.6779  1.4155
   28MPD2    H1  441   1.828   2.870  12.253 -0.1447 -0.0961  0.6293
   28MPD2    H2  442   1.412   2.864  12.258 -0.1631 -0.3741 -0.3984
   28MPD2    H3  443   1.617   2.891  12.141  1.9298 -0.8099 -0.4904
   28MPD2     N  444   1.860   2.833  12.529  0.5562 -0.3548 -0.1100
   28MPD2    H5  445   1.864   2.802  12.626  2.2545  1.2000  0.3123
   28MPD2    N1  446   1.376   2.865  12.511 -0.4857 -0.2226 -0.1598
   28MPD2    H7  447   1.310   2.896  12.439 -1.9274  0.2700  1.3671
   29TMC2    C1  448   1.555   0.783  14.119  0.0251 -0.3383  0.4411
   29TMC2    C2  449   1.516   0.887  14.201 -0.5609  0.1477  0.0193
   29TMC2    C3  450   1.605   0.992  14.210 -0.1365  0.4269 -0.3480
   29TMC2    C4  451   1.666   0.783  14.046 -0.4496 -0.0545  0.4362
   29TMC2    C5  452   1.757   0.882  14.066 -0.4019 -0.3980 -0.6124
   29TMC2    C6  453   1.723   0.994  14.142 -0.4142 -0.3528 -0.2756
   29TMC2     C  454   1.468   0.670  14.102  0.2270 -0.3839  0.8406
   29TMC2     O  455   1.515   0.575  14.040  0.1904 -0.3757 -0.1109
   29TMC2     H  456   1.430   0.867  14.264 -0.4961  0.3717  0.1754
   29TMC2    H1  457   1.675   0.711  13.965  0.1586  1.0772 -0.4984
   29TMC2    H2  458   1.781   1.085  14.146 -1.2576  0.2221 -1.0955
   29TMC2    C7  459   1.879   0.880  13.982  0.4692  0.5297  0.1028
   29TMC2    C8  460   1.583   1.072  14.321 -0.0713 -0.3543 -0.0050
   29TMC2    O1  461   1.890   0.776  13.918 -0.1221 -0.4188 -0.1675
   29TMC2    O2  462   1.468   1.093  14.367  0.0804 -0.6822 -0.2848
   29TMC2    O5  463   1.696   1.110  14.384  0.1435  1.0151  0.4127
   29TMC2    H5  464   1.782   1.079  14.347 -0.5215 -0.1623 -0.1569
   30MPD2     C  465   1.010   0.476  13.975 -0.1157 -0.7343  0.5987
   30MPD2    C1  466   1.139   0.420  13.979  0.0743  0.1580 -0.0784
   30MPD2    C2  467   1.244   0.486  14.034  0.6541 -0.4248 -0.0400
   30MPD2    C3  468   1.226   0.614  14.077  0.7031  0.1467 -0.3259
   30MPD2    C4  469   1.100   0.661  14.081 -0.1223 -0.0354 -0.0182
   30MPD2    C5  470   0.991   0.602  14.026 -0.1460  0.0136 -0.4492
   30MPD2     H  471   1.337   0.433  14.048 -1.4783 -4.5519 -1.3926
   30MPD2    H1  472   1.083   0.761  14.119 -1.5886 -0.5900  0.7372
   30MPD2    H2  473   0.920   0.426  13.941  0.3187  0.1150 -1.8256
   30MPD2    H3  474   0.891   0.641  14.043  0.4423 -0.2640  3.6432
   30MPD2     N  475   1.334   0.696  14.126 -0.1323 -0.5556  0.2322
   30MPD2    H5  476   1.304   0.780  14.174 -1.6948  0.1087 -1.8869
   30MPD2    N1  477   1.172   0.290  13.945 -0.3098 -0.6535 -0.4417
   30MPD2    H7  478   1.270   0.266  13.951 -0.7607 -2.1934  0.7624
   31TMC2    C1  479   3.705   4.193  15.356  0.5100 -0.4170  0.0809
   31TMC2    C2  480   3.592   4.246  15.401  0.0228  0.2990  0.5157
   31TMC2    C3  481   3.558   4.225  15.531 -0.3433  0.0914 -0.1568
   31TMC2    C4  482   3.800   4.142  15.438 -0.1790  0.3566 -0.0840
   31TMC2    C5  483   3.767   4.128  15.571 -0.2354 -0.0504 -0.2977
   31TMC2    C6  484   3.636   4.148  15.610 -0.1892  0.5487  0.9435
   31TMC2     C  485   3.729   4.217  15.215  0.3872 -0.3973  0.5481
   31TMC2     O  486   3.671   4.304  15.151 -0.2068 -0.1033  1.0878
   31TMC2     H  487   3.522   4.300  15.338  1.3039  0.4059 -0.8069
   31TMC2    H1  488   3.904   4.133  15.406  0.1851  0.8403  0.9392
   31TMC2    H2  489   3.606   4.136  15.714  0.0856 -0.8107  0.8637
   31TMC2    C7  490   3.865   4.075  15.670  0.6022  0.0459  0.1557
   31TMC2    C8  491   3.423   4.242  15.573  0.0117 -0.7799 -0.1042
   31TMC2    O1  492   3.908   3.964  15.650  0.3246  0.3447 -0.2562
   31TMC2    O2  493   3.379   4.166  15.662  0.3757 -0.2344 -0.5484
   31TMC2    O5  494   3.370   4.362  15.537  0.5627 -0.1493 -0.1870
   31TMC2    H5  495   3.434   4.418  15.490  0.2707  0.9450  0.7033
   32MPD2     C  496   4.010   4.144  14.773 -0.4718 -0.1106  0.3215
   32MPD2    C1  497   3.913   4.236  14.806  0.6102 -0.3631 -0.5567
   32MPD2    C2  498   3.851   4.222  14.930  0.4816  0.4207  0.0163
   32MPD2    C3  499   3.886   4.135  15.027 -0.7020 -0.6065 -0.1068
   32MPD2    C4  500   3.993   4.050  14.997 -0.1622  0.3845  0.8342
   32MPD2    C5  501   4.051   4.058  14.872 -0.0306  0.2734  0.3468
   32MPD2     H  502   3.775   4.296  14.954 -0.3777 -0.0055 -1.3527
   32MPD2    H1  503   4.030   3.984  15.074  0.5785 -1.8504 -1.4641
   32MPD2    H2  504   4.063   4.133  14.679  0.2635 -2.6339  1.0293
   32MPD2    H3  505   4.142   4.000  14.857  0.0837  0.3618  0.6931
   32MPD2     N  506   3.839   4.141  15.165  0.2700  0.3599  0.1303
   32MPD2    H5  507   3.871   4.064  15.222 -2.8705 -0.8522  0.2821
   32MPD2    N1  508   3.871   4.334  14.717  0.3731 -0.1858 -0.5314
   32MPD2    H7  509   3.783   4.378  14.744  1.3183 -1.3143  4.3848
   33TMC2    C1  510   2.716   1.938  10.513 -0.2017  0.4113 -0.9559
   33TMC2    C2  511   2.584   1.923  10.482  0.2787  0.5914  0.5889
   33TMC2    C3  512   2.517   2.007  10.393 -0.1706 -0.0871 -0.7557
   33TMC2    C4  513   2.784   2.035  10.447 -0.2281 -0.5103 -0.0197
   33TMC2    C5  514   2.721   2.119  10.355 -0.7613  0.0270 -0.3210
   33TMC2    C6  515   2.585   2.115  10.331  0.3439  0.2117  0.3395
   33TMC2     C  516   2.792   1.852  10.597 -0.5523  0.7168 -0.5305
   33TMC2     O  517   2.723   1.754  10.623  0.1285  0.0816  0.6496
   33TMC2     H  518   2.528   1.845  10.531  0.3977  0.5312  0.6285
   33TMC2    H1  519   2.892   2.041  10.455 -0.1031  0.3185 -2.2858
   33TMC2    H2  520   2.535   2.176  10.256  1.2989 -0.9959 -1.2976
   33TMC2    C7  521   2.811   2.205  10.270 -0.8292 -0.2392 -0.1662
   33TMC2    C8  522   2.380   1.975  10.382  0.0298 -0.8434  0.0870
   33TMC2    O1  523   2.930   2.182  10.274  0.2197  0.4817  0.1810
   33TMC2    O2  524   2.311   1.930  10.474  0.2808  0.1938 -0.1079
   33TMC2    O5  525   2.323   2.029  10.273  0.1049 -0.0027  0.0682
   33TMC2    H5  526   2.373   2.048  10.191  2.1655  1.9402  1.7553
   34MPD2     C  527   3.186   1.728  10.897  0.4431  0.5620 -0.1608
   34MPD2    C1  528   3.082   1.650  10.859  0.4630 -0.2249 -0.4971
   34MPD2    C2  529   2.976   1.713  10.798  0.6112  0.4874 -0.8482
   34MPD2    C3  530   2.985   1.843  10.761 -0.2854  0.3522  0.4593
   34MPD2    C4  531   3.088   1.918  10.804 -0.0585  0.1947  0.4317
   34MPD2    C5  532   3.181   1.858  10.876 -0.2050 -0.3487  0.0925
   34MPD2     H  533   2.892   1.649  10.772  0.8694 -0.5092  0.7102
   34MPD2    H1  534   3.094   2.025  10.783 -0.1481 -0.1538 -1.3740
   34MPD2    H2  535   3.271   1.679  10.943  2.7362  5.7538  1.0688
   34MPD2    H3  536   3.262   1.920  10.914 -0.8451 -0.3339  1.4418
   34MPD2     N  537   2.893   1.911  10.669 -0.0449 -0.1520 -0.1201
   34MPD2    H5  538   2.913   2.007  10.645  1.4070 -0.6301 -0.8327
   34MPD2    N1  539   3.088   1.506  10.887 -0.0830 -0.1867 -0.3175
   34MPD2    H7  540   3.171   1.461  10.922 -0.3522 -1.0983 -0.8479
   35TMC2    C1  541   0.426   3.429  11.637  0.5468 -0.1921 -0.3670
   35TMC2    C2  542   0.497   3.461  11.522 -0.2466  0.2919 -0.0784
   35TMC2    C3  543   0.452   3.392  11.409  0.2044  0.1552 -0.1901
   35TMC2    C4  544   0.309   3.352  11.627 -0.5770 -0.5385  0.5975
   35TMC2    C5  545   0.257   3.309  11.512 -0.9160  0.3834  0.0958
   35TMC2    C6  546   0.335   3.316  11.398  0.1076  0.5365  0.2353
   35TMC2     C  547   0.500   3.439  11.755 -0.3254  0.0287 -0.2936
   35TMC2     O  548   0.609   3.501  11.756 -0.2692 -0.0205  0.1423
   35TMC2     H  549   0.585   3.524  11.534  0.5858 -0.7697 -0.5751
   35TMC2    H1  550   0.248   3.335  11.714  0.2213 -0.7869  1.1096
   35TMC2    H2  551   0.303   3.257  11.313  1.1375  3.0166 -1.8839
   35TMC2    C7  552   0.160   3.202  11.532 -0.5523 -0.2048 -0.6088
   35TMC2    C8  553   0.504   3.447  11.280 -0.1275  0.3200 -0.0648
   35TMC2    O1  554   0.202   3.129  11.621  0.6179  0.1707  0.5604
   35TMC2    O2  555   0.600   3.523  11.268  0.1713 -0.4584 -0.8389
   35TMC2    O5  556   0.402   3.434  11.189 -0.2663  0.1246  0.3642
   35TMC2    H5  557   0.424   3.485  11.108 -0.2635  0.3382  0.5014
   36MPD2     C  558   0.517   3.295  12.252  0.5262  0.1682  0.0420
   36MPD2    C1  559   0.426   3.216  12.184  0.7273 -1.0757  0.2822
   36MPD2    C2  560   0.414   3.234  12.044  0.2061  0.0054 -0.1252
   36MPD2    C3  561   0.484   3.335  11.982  0.1949  0.5486  0.1277
   36MPD2    C4  562   0.580   3.409  12.049 -0.2368  0.0228  0.2868
   36MPD2    C5  563   0.584   3.392  12.183 -0.5439  0.0935  0.4292
   36MPD2     H  564   0.355   3.168  11.983 -1.5959  1.2293  0.2989
   36MPD2    H1  565   0.641   3.492  12.016 -0.9924  0.7385  0.6729
   36MPD2    H2  566   0.524   3.286  12.360  0.4139 -0.3230  0.0077
   36MPD2    H3  567   0.645   3.464  12.237 -2.6511 -0.7422  3.8936
   36MPD2     N  568   0.442   3.355  11.850  0.1579  0.6176  0.8319
   36MPD2    H5  569   0.356   3.312  11.819 -0.5055 -0.1949  3.7874
   36MPD2    N1  570   0.355   3.121  12.249  0.5394  0.2911  0.2799
   36MPD2    H7  571   0.371   3.091  12.345  0.9766 -0.0616  0.0944
   37TMC2    C1  572   2.060   3.653  11.267 -0.7859  0.5597  0.8622
   37TMC2    C2  573   2.007   3.548  11.197  0.5743  0.1886  0.6351
   37TMC2    C3  574   2.083   3.505  11.085 -0.0180 -0.5521  0.3362
   37TMC2    C4  575   2.187   3.707  11.238 -0.3663  0.9623 -0.2470
   37TMC2    C5  576   2.266   3.647  11.147 -0.4600 -0.5658  0.0841
   37TMC2    C6  577   2.211   3.557  11.059 -0.4675  0.1252 -0.0236
   37TMC2     C  578   2.006   3.683  11.395  0.0762 -0.4619  0.2397
   37TMC2     O  579   1.887   3.651  11.412 -0.5686  0.2203 -0.5024
   37TMC2     H  580   1.908   3.511  11.219  0.1665  1.3348  0.7471
   37TMC2    H1  581   2.219   3.794  11.294 -1.4071  1.1230  0.1027
   37TMC2    H2  582   2.273   3.493  10.997  1.8167  2.2723  0.0202
   37TMC2    C7  583   2.404   3.689  11.150  0.4468  0.6776  0.5708
   37TMC2    C8  584   2.015   3.419  10.997  0.5785  0.3489  0.2083
   37TMC2    O1  585   2.431   3.760  11.247 -0.1848 -0.1134  0.3480
   37TMC2    O2  586   1.935   3.335  11.040  0.4289 -0.0382 -0.1810
   37TMC2    O5  587   2.064   3.437  10.877 -0.5081 -0.1566 -0.0730
   37TMC2    H5  588   2.100   3.524  10.852 -0.2518 -0.2400  0.0067
   38MPD2     C  589   2.084   3.779  11.880 -0.4599 -0.2588  0.4077
   38MPD2    C1  590   2.207   3.760  11.821  0.5213 -0.4327  0.4156
   38MPD2    C2  591   2.215   3.741  11.682  0.4363  0.0573  0.4087
   38MPD2    C3  592   2.091   3.735  11.615  0.5773 -0.4572  0.0876
   38MPD2    C4  593   1.967   3.773  11.678  0.0960  0.0404  0.3048
   38MPD2    C5  594   1.964   3.789  11.814 -0.1230 -0.3830 -0.5592
   38MPD2     H  595   2.318   3.722  11.652  0.4474 -1.2923  1.2975
   38MPD2    H1  596   1.879   3.779  11.615  0.2510 -4.3799 -0.2946
   38MPD2    H2  597   2.082   3.803  11.986  2.3892 -0.0405  0.4194
   38MPD2    H3  598   1.881   3.832  11.869 -0.7483 -0.6189 -1.3113
   38MPD2     N  599   2.109   3.706  11.481 -0.2836 -0.4513 -0.0385
   38MPD2    H5  600   2.199   3.674  11.446 -0.0582  0.9862 -0.7790
   38MPD2    N1  601   2.328   3.756  11.897 -0.7852  0.4924 -0.0800
   38MPD2    H7  602   2.412   3.745  11.842 -1.0034  1.8009 -0.6723
   39TMC2    C1  603   1.597   0.321   1.480 -0.1121 -0.3778  0.3534
   39TMC2    C2  604   1.725   0.275   1.446  0.0610  0.0871  0.4817
   39TMC2    C3  605   1.832   0.349   1.499 -0.5211 -0.6737 -0.3991
   39TMC2    C4  606   1.568   0.431   1.554 -0.1489 -0.0259 -0.3511
   39TMC2    C5  607   1.681   0.496   1.603  0.0417 -0.0996 -0.0582
   39TMC2    C6  608   1.811   0.465   1.573 -0.5630  0.8297 -1.0359
   39TMC2     C  609   1.488   0.275   1.395 -0.1100  0.2237  0.1893
   39TMC2     O  610   1.391   0.348   1.374  0.1367  0.0008 -0.0821
   39TMC2     H  611   1.741   0.193   1.377 -0.6428 -1.5651  2.2860
   39TMC2    H1  612   1.474   0.456   1.601 -1.0411 -1.1219 -1.5523
   39TMC2    H2  613   1.896   0.529   1.595  0.3781 -1.1248  1.0113
   39TMC2    C7  614   1.667   0.640   1.608  0.3499 -0.1491 -0.1250
   39TMC2    C8  615   1.965   0.333   1.455 -0.1846  0.2478  0.1663
   39TMC2    O1  616   1.768   0.708   1.617  0.3803 -0.5691 -0.3765
   39TMC2    O2  617   2.057   0.394   1.506 -0.0984 -0.3698  0.6568
   39TMC2    O5  618   1.979   0.240   1.355  0.1323 -0.0347 -0.3828
   39TMC2    H5  619   1.893   0.208   1.319 -0.0417  1.1200 -1.0036
   40MPD2     C  620   1.456   4.696   1.199 -0.4066 -0.1472 -0.3100
   40MPD2    C1  621   1.435   0.090   1.231  0.1913 -0.1480  0.9399
   40MPD2    C2  622   1.353   0.162   1.151  0.5336 -0.2702  0.5775
   40MPD2    C3  623   1.288   0.103   1.045  0.3089  0.2744 -0.3312
   40MPD2    C4  624   1.314   4.706   1.014 -0.9722  0.6585  0.3286
   40MPD2    C5  625   1.391   4.631   1.099 -0.5712  0.0901  0.3255
   40MPD2     H  626   1.358   0.269   1.167  3.6129  0.1871 -3.4691
   40MPD2    H1  627   1.251   4.648   0.948 -0.0849  1.1606 -0.9611
   40MPD2    H2  628   1.503   4.637   1.277  2.4110  0.1354 -1.7951
   40MPD2    H3  629   1.379   4.524   1.105  1.5469 -0.1227  0.6418
   40MPD2     N  630   1.187   0.173   0.979 -0.4158  1.0832  0.8039
   40MPD2    H5  631   1.127   0.115   0.921  0.4467 -0.8896  1.8760
   40MPD2    N1  632   1.504   0.147   1.344 -0.7523  0.3863 -0.1810
   40MPD2    H7  633   1.564   0.085   1.397 -1.0463  0.5103  0.3004
   41TMC2    C1  634   0.198   2.864  13.567 -0.2076 -0.2146 -0.1214
   41TMC2    C2  635   0.310   2.802  13.609  0.0511  0.1555  0.1822
   41TMC2    C3  636   0.425   2.867  13.564 -0.9741  0.1322  0.2683
   41TMC2    C4  637   0.191   2.972  13.488  0.1490 -0.3429  0.0457
   41TMC2    C5  638   0.299   3.026  13.438  0.0601 -0.4058 -0.1169
   41TMC2    C6  639   0.416   2.987  13.502  0.8348 -0.9118  0.0843
   41TMC2     C  640   0.076   2.835  13.640  0.0412  0.3907  0.4475
   41TMC2     O  641   0.040   2.719  13.670  0.3651  0.3758 -0.0053
   41TMC2     H  642   0.308   2.735  13.694  0.5625  0.9826  0.8517
   41TMC2    H1  643   0.096   3.012  13.455 -0.6514 -0.2985  2.4235
   41TMC2    H2  644   0.505   3.045  13.483  1.0905 -1.0788  0.7860
   41TMC2    C7  645   0.288   3.158  13.399 -0.2490  0.0661 -0.1061
   41TMC2    C8  646   0.548   2.838  13.637  0.1894  0.5114  0.5513
   41TMC2    O1  647   0.377   3.232  13.432  0.1377 -0.0528 -0.0504
   41TMC2    O2  648   0.641   2.915  13.628 -0.1752  0.1826 -0.4241
   41TMC2    O5  649   0.569   2.701  13.629  0.4170 -0.9820  0.3988
   41TMC2    H5  650   0.484   2.659  13.606  1.6039 -2.5775 -1.1326
   42MPD2     C  651   4.563   2.861  13.799  0.1728  0.7672 -0.3485
   42MPD2    C1  652   4.653   2.965  13.777  0.3753 -0.4170 -0.3215
   42MPD2    C2  653   4.615   3.096  13.808 -0.9253  0.1981  0.4783
   42MPD2    C3  654   4.497   3.126  13.878 -0.2007 -0.7365 -0.1179
   42MPD2    C4  655   4.408   3.023  13.894  0.0467  0.0086 -0.0679
   42MPD2    C5  656   4.439   2.895  13.857  0.3011 -0.1377  0.2864
   42MPD2     H  657   4.666   3.179  13.760  3.5972 -2.2842  1.0055
   42MPD2    H1  658   4.315   3.045  13.944  0.7945  0.8124  0.9613
   42MPD2    H2  659   4.566   2.757  13.769 -1.9078  0.7714 -0.5886
   42MPD2    H3  660   4.369   2.817  13.884  0.3621 -0.4717 -0.5236
   42MPD2     N  661   4.452   3.254  13.912  0.4568 -0.3282 -0.1968
   42MPD2    H5  662   4.355   3.279  13.929  1.1818  0.4729  2.8151
   42MPD2    N1  663   0.028   2.951  13.696  0.3252 -0.1180 -0.1122
   42MPD2    H7  664   0.089   3.031  13.693 -0.2272  0.3621  1.5660
   43TMC2    C1  665   1.388   1.536   0.520 -0.0367 -0.1277 -0.3595
   43TMC2    C2  666   1.350   1.504   0.655  0.1878  0.1124 -0.1904
   43TMC2    C3  667   1.330   1.608   0.740 -0.1070  0.0383 -0.2390
   43TMC2    C4  668   1.435   1.660   0.495 -0.0328  0.7731 -0.1538
   43TMC2    C5  669   1.425   1.758   0.589 -0.2443  0.4523 -0.1794
   43TMC2    C6  670   1.377   1.729   0.713 -0.0339  0.5674  0.8240
   43TMC2     C  671   1.438   1.425   0.434 -0.7405 -0.3763  0.1040
   43TMC2     O  672   1.539   1.439   0.366  0.3417 -0.1045  0.5217
   43TMC2     H  673   1.320   1.403   0.678 -1.7146  0.1726 -2.3807
   43TMC2    H1  674   1.478   1.680   0.398 -0.0104  1.1990 -0.0581
   43TMC2    H2  675   1.375   1.805   0.790 -0.3902 -0.2665  1.6381
   43TMC2    C7  676   1.476   1.893   0.565  0.1365  0.3510  0.1213
   43TMC2    C8  677   1.267   1.568   0.868  0.2728 -0.2104 -0.0557
   43TMC2    O1  678   1.496   1.916   0.448 -0.4599 -0.3351 -0.6592
   43TMC2    O2  679   1.295   1.466   0.925  0.1333  0.1139  0.3110
   43TMC2    O5  680   1.210   1.682   0.920 -0.3138  0.4817  0.0824
   43TMC2    H5  681   1.202   1.758   0.859  0.5478  0.2700 -0.2958
   44MPD2     C  682   1.416   0.922   0.302 -0.1133  0.2760  0.0206
   44MPD2    C1  683   1.499   1.016   0.256 -0.7222 -0.5923  0.5000
   44MPD2    C2  684   1.484   1.147   0.299 -0.0251  0.2252  0.2003
   44MPD2    C3  685   1.388   1.182   0.399  0.1025  0.1984 -0.0342
   44MPD2    C4  686   1.311   1.079   0.451 -0.1191 -0.0307  0.2314
   44MPD2    C5  687   1.326   0.955   0.405 -0.8212 -0.4707 -0.2707
   44MPD2     H  688   1.549   1.224   0.260 -0.1059 -0.2895 -0.9417
   44MPD2    H1  689   1.240   1.099   0.531  1.1911  2.6120  0.7390
   44MPD2    H2  690   1.404   0.823   0.261 -0.2371 -0.1345  1.0399
   44MPD2    H3  691   1.259   0.876   0.437  1.5607 -2.0028  0.8924
   44MPD2     N  692   1.370   1.306   0.459 -0.3394  0.0650 -0.1854
   44MPD2    H5  693   1.289   1.303   0.520  0.2117  1.6096  0.6138
   44MPD2    N1  694   1.602   0.993   0.167 -0.6230 -0.0846  0.0916
   44MPD2    H7  695   1.649   1.074   0.128 -0.0846 -1.3465 -1.8544
   45TMC2    C1  696   2.082   3.430   9.943 -0.2997 -0.2209 -0.1286
   45TMC2    C2  697   2.114   3.339  10.036 -0.0604  0.0158 -0.0576
   45TMC2    C3  698   2.141   3.364  10.162  0.0821 -0.3558  0.6417
   45TMC2    C4  699   2.077   3.563   9.985  0.2157  0.2909  0.3337
   45TMC2    C5  700   2.106   3.596  10.111 -0.1397  0.6978  0.0534
   45TMC2    C6  701   2.143   3.497  10.202 -0.4697 -0.5215 -0.4558
   45TMC2     C  702   2.039   3.375   9.810  0.7999  0.3426  0.3145
   45TMC2     O  703   2.083   3.264   9.781 -0.0651  0.3636  0.1734
   45TMC2     H  704   2.116   3.238   9.997 -1.7364 -0.2384  0.5514
   45TMC2    H1  705   2.075   3.636   9.905 -0.3038 -1.5149 -1.3032
   45TMC2    H2  706   2.159   3.526  10.305 -1.7046 -0.1602 -0.3554
   45TMC2    C7  707   2.174   3.719  10.132 -0.0704 -0.1175  0.1114
   45TMC2    C8  708   2.129   3.269  10.266 -0.3526 -0.1946 -0.2691
   45TMC2    O1  709   2.254   3.765  10.050  0.5310 -0.3900 -0.5303
   45TMC2    O2  710   2.186   3.282  10.374  0.0388 -0.1682  0.1010
   45TMC2    O5  711   2.018   3.198  10.252 -0.4046 -0.3496  0.3987
   45TMC2    H5  712   1.967   3.220  10.171  1.9221  1.6526 -0.5220
   46MPD2     C  713   1.860   3.258   9.611  0.8298  0.2279  0.5488
   46MPD2    C1  714   1.839   3.387   9.666  0.1846 -0.4612  0.0097
   46MPD2    C2  715   1.731   3.467   9.624  0.6765 -0.6429  0.0199
   46MPD2    C3  716   1.638   3.424   9.534  0.3374 -0.0229  0.1397
   46MPD2    C4  717   1.646   3.292   9.495  0.5096  0.8196  0.3574
   46MPD2    C5  718   1.759   3.213   9.528 -0.0721 -0.0837  0.4755
   46MPD2     H  719   1.733   3.568   9.662  1.6243 -0.5637 -0.2343
   46MPD2    H1  720   1.572   3.252   9.426  0.6333  0.4517  0.4366
   46MPD2    H2  721   1.942   3.190   9.628  0.5709  0.1480  1.5056
   46MPD2    H3  722   1.787   3.119   9.480  0.3366  0.1296  0.2916
   46MPD2     N  723   1.528   3.511   9.511  0.1021  0.0710  0.0590
   46MPD2    H5  724   1.536   3.604   9.550 -0.7139  0.8282 -1.5577
   46MPD2    N1  725   1.928   3.444   9.759 -0.2442 -0.6626 -0.2298
   46MPD2    H7  726   1.897   3.537   9.787  1.2445 -0.9722  2.4217
   47TMC2    C1  727   3.387   3.796   9.099 -0.6556  0.1142  0.1886
   47TMC2    C2  728   3.400   3.817   8.965 -0.0637 -0.1418  0.0934
   47TMC2    C3  729   3.289   3.817   8.887  0.6033  0.6001 -0.1178
   47TMC2    C4  730   3.263   3.783   9.163 -0.0466  0.1929 -0.0914
   47TMC2    C5  731   3.154   3.808   9.083 -0.5536  0.3364  0.2602
   47TMC2    C6  732   3.164   3.813   8.943 -0.1191  0.1855  0.4006
   47TMC2     C  733   3.505   3.799   9.186 -0.1088  0.8507 -0.6340
   47TMC2     O  734   3.494   3.754   9.299 -0.2007 -1.2954 -0.5763
   47TMC2     H  735   3.495   3.825   8.913 -1.3745  2.5122 -1.8737
   47TMC2    H1  736   3.251   3.747   9.265  1.9059  0.1775  0.1336
   47TMC2    H2  737   3.075   3.828   8.883  1.1022 -0.0643 -1.4786
   47TMC2    C7  738   3.013   3.790   9.131 -0.1479 -0.3807  0.7852
   47TMC2    C8  739   3.301   3.875   8.760 -0.0995 -0.4175 -0.0474
   47TMC2    O1  740   2.924   3.764   9.051 -0.0033  0.3591  0.4564
   47TMC2    O2  741   3.217   3.954   8.722  0.1986  0.0581  0.4891
   47TMC2    O5  742   3.374   3.792   8.685  0.5302 -0.0066 -0.1164
   47TMC2    H5  743   3.421   3.713   8.719  1.0799 -0.0288 -0.9254
   48MPD2     C  744   3.811   4.003   9.153 -0.1885 -0.6566 -0.5371
   48MPD2    C1  745   3.736   3.892   9.183 -0.5014 -0.1815  0.6283
   48MPD2    C2  746   3.788   3.790   9.263 -0.6458  0.4466 -0.1308
   48MPD2    C3  747   3.920   3.795   9.302  1.1011 -1.1636  0.2146
   48MPD2    C4  748   3.999   3.907   9.280 -0.3696  0.3025 -0.1474
   48MPD2    C5  749   3.943   4.011   9.204 -0.1626  0.1561  0.0888
   48MPD2     H  750   3.729   3.701   9.282  2.2184 -1.7825 -1.6316
   48MPD2    H1  751   4.103   3.912   9.311 -0.3549  1.2149 -0.3373
   48MPD2    H2  752   3.777   4.093   9.103  0.7746 -0.0149 -0.0289
   48MPD2    H3  753   3.998   4.102   9.183 -1.9704  0.8431 -1.6736
   48MPD2     N  754   3.966   3.677   9.362 -0.2776  0.1552 -0.4171
   48MPD2    H5  755   3.890   3.613   9.383  2.4959 -2.7760  0.6650
   48MPD2    N1  756   3.603   3.882   9.136  0.2430  0.2679  0.1525
   48MPD2    H7  757   3.583   3.944   9.059 -1.8384 -0.2186  0.2984
   49TMC2    C1  758   1.697   0.987  10.502  1.0666 -0.2906 -0.2242
   49TMC2    C2  759   1.606   0.987  10.397  0.1268 -0.2792  0.0692
   49TMC2    C3  760   1.635   0.907  10.297 -0.2205 -0.3030  0.0521
   49TMC2    C4  761   1.826   0.925  10.491  0.1210  0.6776 -0.1424
   49TMC2    C5  762   1.854   0.855  10.376 -0.8850  0.0465  0.0798
   49TMC2    C6  763   1.752   0.837  10.284 -0.5582  0.5579  0.3863
   49TMC2     C  764   1.658   1.072  10.615  0.3602 -0.1220 -0.0947
   49TMC2     O  765   1.541   1.109  10.608  0.3030  0.5871  0.7486
   49TMC2     H  766   1.504   1.023  10.403 -0.2393 -0.9664 -1.9287
   49TMC2    H1  767   1.900   0.937  10.570  0.3905  0.7543 -0.4066
   49TMC2    H2  768   1.763   0.752  10.218  1.6716  0.7287  0.5499
   49TMC2    C7  769   1.979   0.789  10.348  0.7107  0.7391 -1.2554
   49TMC2    C8  770   1.522   0.838  10.236 -0.9897  0.8799  0.6284
   49TMC2    O1  771   1.975   0.698  10.269 -0.5541 -0.0319 -0.8846
   49TMC2    O2  772   1.453   0.877  10.138  0.2699  0.7797 -0.5283
   49TMC2    O5  773   1.490   0.745  10.329 -0.3030  0.2604 -0.1457
   49TMC2    H5  774   1.564   0.720  10.388 -0.2099  0.8877 -0.0047
   50MPD2     C  775   1.616   1.200  10.870  0.2884  0.5021 -0.4175
   50MPD2    C1  776   1.726   1.119  10.845 -0.6236  1.3783  0.4319
   50MPD2    C2  777   1.820   1.091  10.948  0.3643 -0.5707  0.2651
   50MPD2    C3  778   1.810   1.166  11.063 -0.4184  0.6767 -0.6198
   50MPD2    C4  779   1.699   1.242  11.091 -0.9645 -0.6962 -0.0462
   50MPD2    C5  780   1.601   1.253  10.994 -0.1447  1.2396  0.0738
   50MPD2     H  781   1.905   1.026  10.934  0.5684 -0.0592 -0.8644
   50MPD2    H1  782   1.673   1.308  11.174 -0.0198 -0.0499 -0.2705
   50MPD2    H2  783   1.534   1.212  10.799  0.3346 -0.4531 -0.6260
   50MPD2    H3  784   1.516   1.314  11.022 -1.1671 -1.3214  2.5190
   50MPD2     N  785   1.915   1.177  11.162  0.1283  0.1734 -0.4386
   50MPD2    H5  786   1.907   1.250  11.232  0.0231  0.4472 -0.7355
   50MPD2    N1  787   1.749   1.067  10.716  0.4226 -0.1390  0.8014
   50MPD2    H7  788   1.839   1.022  10.704  0.1119 -0.8138  0.9797
   51TMC2    C1  789   3.999   4.556   1.709 -0.1381  0.2694 -0.4708
   51TMC2    C2  790   4.034   4.610   1.830  0.0612  0.0135  0.2257
   51TMC2    C3  791   3.978   4.738   1.846 -0.1542  0.3211  0.0405
   51TMC2    C4  792   3.906   4.614   1.623 -0.5472  0.6529 -0.1728
   51TMC2    C5  793   3.848   4.736   1.654  0.0275 -0.5187 -0.0107
   51TMC2    C6  794   3.886   0.063   1.769  0.6736 -0.0806  0.5780
   51TMC2     C  795   4.076   4.446   1.649  0.6371  0.8372 -0.0857
   51TMC2     O  796   4.043   4.407   1.540  0.1703  0.0159 -0.1513
   51TMC2     H  797   4.095   4.560   1.904 -0.2544 -0.9783 -0.1855
   51TMC2    H1  798   3.878   4.562   1.533  0.3601  0.7072 -0.4855
   51TMC2    H2  799   3.836   0.155   1.797  1.9849  0.7601  0.1702
   51TMC2    C7  800   3.799   0.079   1.546  0.7418 -0.1964 -0.0025
   51TMC2    C8  801   4.017   0.048   1.986  0.0855 -0.7599 -0.1957
   51TMC2    O1  802   3.820   0.194   1.570  0.2083  0.0495  0.4059
   51TMC2    O2  803   4.078   4.730   2.073  0.0399 -0.4945  0.1871
   51TMC2    O5  804   3.994   0.176   1.998 -0.0265  0.1581  0.2361
   51TMC2    H5  805   3.966   0.220   1.915  0.7489  1.4924  0.6829
   52MPD2     C  806   4.495   4.150   1.642  0.8737 -0.2260 -0.0694
   52MPD2    C1  807   4.419   4.213   1.540  0.0662 -0.8319  0.3880
   52MPD2    C2  808   4.319   4.299   1.570  0.1385  0.0391 -0.0526
   52MPD2    C3  809   4.276   4.317   1.700  0.3805  0.1237 -0.6520
   52MPD2    C4  810   4.350   4.262   1.804  0.6822  0.0980 -0.0656
   52MPD2    C5  811   4.455   4.179   1.772 -0.6311 -0.2949 -0.0858
   52MPD2     H  812   4.268   4.354   1.492 -0.9822 -1.7059 -0.5410
   52MPD2    H1  813   4.324   4.278   1.908 -2.9441 -0.5321 -0.8459
   52MPD2    H2  814   4.587   4.093   1.632  2.0908  1.7297 -0.0490
   52MPD2    H3  815   4.523   4.148   1.851 -0.0628 -0.7510 -0.7520
   52MPD2     N  816   4.172   4.399   1.738  0.8464 -0.9885  0.7565
   52MPD2    H5  817   4.155   4.418   1.837 -2.6228 -1.8776  0.2957
   52MPD2    N1  818   4.441   4.181   1.406  0.0668  0.1180  0.1779
   52MPD2    H7  819   4.375   4.227   1.345  0.0810 -1.2721 -0.8853
   53TMC2    C1  820   3.107   3.787  11.364 -0.0373  0.4202 -0.4410
   53TMC2    C2  821   3.235   3.742  11.395  0.5167  0.0044 -0.0209
   53TMC2    C3  822   3.274   3.762  11.523  0.5534 -0.3288 -0.8218
   53TMC2    C4  823   3.032   3.859  11.446  0.1161  0.5092  0.5501
   53TMC2    C5  824   3.074   3.874  11.578 -0.2182 -0.1958  0.3110
   53TMC2    C6  825   3.196   3.820  11.623  0.3973  0.0892 -0.4367
   53TMC2     C  826   3.055   3.746  11.236  0.0354  0.0921  0.3819
   53TMC2     O  827   3.130   3.718  11.146 -0.1431 -0.1525  0.2131
   53TMC2     H  828   3.304   3.707  11.320 -0.2690 -0.1134 -0.6951
   53TMC2    H1  829   2.938   3.899  11.409 -0.3160 -1.1900 -0.2138
   53TMC2    H2  830   3.235   3.811  11.724  2.6158 -0.7868 -1.3738
   53TMC2    C7  831   2.988   3.947  11.670 -0.0876  0.1172  0.5266
   53TMC2    C8  832   3.405   3.723  11.564  1.3459 -0.2208  0.3699
   53TMC2    O1  833   2.886   3.988  11.616  0.2843  0.3458  0.0526
   53TMC2    O2  834   3.478   3.771  11.654  0.4127 -0.6298  0.5971
   53TMC2    O5  835   3.425   3.602  11.492 -0.0167  0.9797  0.6036
   53TMC2    H5  836   3.346   3.562  11.450 -0.6692  0.9397  1.8494
   54MPD2     C  837   2.888   3.620  11.016 -0.4502 -0.7560 -0.5422
   54MPD2    C1  838   2.835   3.673  11.131  0.7989 -0.8746  0.1084
   54MPD2    C2  839   2.704   3.683  11.146  0.2030  0.5859 -0.2967
   54MPD2    C3  840   2.623   3.632  11.048  0.1990  0.6248  0.1555
   54MPD2    C4  841   2.672   3.576  10.931 -0.3649  0.3183  0.1221
   54MPD2    C5  842   2.810   3.571  10.920 -0.5125 -0.4817  0.1561
   54MPD2     H  843   2.666   3.727  11.238  0.7077 -1.4032  0.8470
   54MPD2    H1  844   2.605   3.529  10.860  0.8550  1.8903 -2.0962
   54MPD2    H2  845   2.995   3.627  11.004 -0.1749  0.7002  2.9061
   54MPD2    H3  846   2.857   3.540  10.827 -1.4939 -0.3822 -0.3767
   54MPD2     N  847   2.483   3.629  11.058  0.5396  0.1521  0.0285
   54MPD2    H5  848   2.434   3.576  10.986 -1.8569 -0.2354  1.9413
   54MPD2    N1  849   2.916   3.731  11.238  0.4500 -0.2620  0.5961
   54MPD2    H7  850   2.875   3.747  11.330 -1.5342 -1.5474 -0.0873
   55TMC2    C1  851   4.283   2.096  17.421 -0.2834  0.1879  0.1729
   55TMC2    C2  852   4.323   2.135  17.292  0.3354  0.5168  0.6120
   55TMC2    C3  853   4.299   2.051  17.193 -0.4961  0.6583  1.4467
   55TMC2    C4  854   4.245   1.968  17.444 -0.1269 -0.6569 -0.1005
   55TMC2    C5  855   4.232   1.880  17.335  0.2500  0.9060  0.0693
   55TMC2    C6  856   4.256   1.925  17.207  0.0745  0.5734  0.5864
   55TMC2     C  857   4.231   2.202  17.507 -0.6952 -0.0550 -0.2698
   55TMC2     O  858   4.144   2.163  17.584  0.2717 -0.3970 -0.3847
   55TMC2     H  859   4.355   2.233  17.260 -0.3687  0.6730  0.3736
   55TMC2    H1  860   4.211   1.937  17.542 -0.6712  0.3644  0.0310
   55TMC2    H2  861   4.215   1.867  17.125  1.4654  0.6526 -0.1567
   55TMC2    C7  862   4.167   1.746  17.352  0.9140  0.5434  1.2263
   55TMC2    C8  863   4.330   2.104  17.065  0.0473  0.4338 -0.4340
   55TMC2    O1  864   4.129   1.689  17.250  0.7130 -0.3386  0.7573
   55TMC2    O2  865   4.315   2.226  17.038 -0.5426  0.4647 -0.0541
   55TMC2    O5  866   4.321   2.002  16.977 -0.3259 -0.1218 -0.8319
   55TMC2    H5  867   4.330   1.911  17.012  1.6338  0.0260 -0.9423
   56MPD2     C  868   4.235   2.564  17.465 -0.4024 -0.0301  0.5405
   56MPD2    C1  869   4.207   2.453  17.533  0.3950 -0.0546 -0.2075
   56MPD2    C2  870   4.122   2.457  17.644  0.0883  0.2582 -0.6340
   56MPD2    C3  871   4.086   2.579  17.700  0.7027 -0.2799  0.5748
   56MPD2    C4  872   4.126   2.694  17.633 -0.0210 -0.7036 -0.4195
   56MPD2    C5  873   4.198   2.686  17.517 -0.2785 -0.6366  0.2922
   56MPD2     H  874   4.100   2.361  17.691  0.3211  0.0760 -0.8962
   56MPD2    H1  875   4.117   2.788  17.686  1.8311  1.3912 -3.8214
   56MPD2    H2  876   4.311   2.567  17.387  0.8736 -2.4725  1.7030
   56MPD2    H3  877   4.227   2.772  17.459 -2.5530 -0.0762 -0.0114
   56MPD2     N  878   4.008   2.586   0.062  0.0446 -0.4179 -0.1807
   56MPD2    H5  879   3.983   2.496   0.101  0.1111 -0.5806 -0.5145
   56MPD2    N1  880   4.264   2.336  17.480  0.6258  0.2390 -0.2560
   56MPD2    H7  881   4.341   2.355  17.416  0.1928 -1.0099 -1.1676
   57TMC2    C1  882   3.330   1.953  12.931  0.4027  0.4384  0.4830
   57TMC2    C2  883   3.289   1.840  12.863  0.0204  0.3218  0.0552
   57TMC2    C3  884   3.378   1.740  12.836 -0.6542 -0.0547 -0.0925
   57TMC2    C4  885   3.467   1.975  12.948  0.1823 -0.2259  0.2617
   57TMC2    C5  886   3.554   1.875  12.926  0.0088  0.2739 -0.2274
   57TMC2    C6  887   3.514   1.760  12.869  0.3498 -0.1797  0.9548
   57TMC2     C  888   3.256   1.975  13.048 -0.3526 -0.1641 -0.1979
   57TMC2     O  889   3.278   2.075  13.114  0.3457  0.4192  0.2615
   57TMC2     H  890   3.186   1.834  12.830  0.1670  0.7976 -0.4762
   57TMC2    H1  891   3.500   2.061  13.005 -2.5209  0.2877  1.0555
   57TMC2    H2  892   3.584   1.693  12.820  2.8596  3.2592 -0.1632
   57TMC2    C7  893   3.701   1.892  12.920  0.1232  0.2878  0.7337
   57TMC2    C8  894   3.327   1.613  12.889  0.2469 -0.5007 -0.4792
   57TMC2    O1  895   3.764   1.793  12.883  0.2607 -0.2091  0.3088
   57TMC2    O2  896   3.211   1.612  12.929 -0.5466 -0.0531  0.1231
   57TMC2    O5  897   3.428   1.560  12.961  0.1551 -0.4289  0.0577
   57TMC2    H5  898   3.506   1.554  12.902  1.0361 -0.9561  1.2852
   58MPD2     C  899   3.013   1.770  13.453  0.0737  0.0989 -0.8930
   58MPD2    C1  900   3.027   1.902  13.416  0.0147  0.4734 -0.2530
   58MPD2    C2  901   3.093   1.933  13.297  0.6266  0.0975 -0.0502
   58MPD2    C3  902   3.146   1.834  13.213  0.1475  0.4005 -0.0593
   58MPD2    C4  903   3.119   1.705  13.256  0.2326 -0.2522 -0.8058
   58MPD2    C5  904   3.064   1.674  13.377  0.0427  0.5759  0.0564
   58MPD2     H  905   3.104   2.038  13.271  0.0586 -0.1373 -1.2309
   58MPD2    H1  906   3.155   1.622  13.196  0.0849 -1.0269  0.1874
   58MPD2    H2  907   2.968   1.740  13.547  2.8897  0.5916  0.6158
   58MPD2    H3  908   3.061   1.571  13.412 -0.5927  0.4024 -0.5099
   58MPD2     N  909   3.209   1.859  13.093  0.8851  0.2014 -0.1399
   58MPD2    H5  910   3.226   1.775  13.038  0.8229  0.1648 -0.1035
   58MPD2    N1  911   2.974   2.012  13.491 -0.5035  0.4395  0.4093
   58MPD2    H7  912   3.002   2.104  13.457 -0.5913 -0.3590 -1.8621
   59TMC2    C1  913   1.194   2.472  12.552 -0.3079  0.6212  0.0323
   59TMC2    C2  914   1.307   2.516  12.498  0.4754  0.3975 -0.6265
   59TMC2    C3  915   1.336   2.499  12.369  0.1908 -0.1864 -0.1847
   59TMC2    C4  916   1.096   2.416  12.474 -0.3109 -0.1081  0.4103
   59TMC2    C5  917   1.131   2.400  12.337 -0.0226 -0.5022 -0.2675
   59TMC2    C6  918   1.244   2.446  12.281 -0.3968 -0.4533 -0.1854
   59TMC2     C  919   1.165   2.466  12.695 -0.5549 -0.0412 -0.9032
   59TMC2     O  920   1.049   2.443  12.728  0.1332 -0.2091 -0.6253
   59TMC2     H  921   1.385   2.562  12.558 -0.4099  0.2734  0.6190
   59TMC2    H1  922   1.006   2.379  12.520 -0.7372 -1.5132 -1.5466
   59TMC2    H2  923   1.261   2.425  12.176 -0.1213 -1.6940  0.1039
   59TMC2    C7  924   1.022   2.369  12.242  0.3841 -0.5568 -0.4883
   59TMC2    C8  925   1.476   2.501  12.333  0.3287  0.1590  0.2881
   59TMC2    O1  926   1.043   2.323  12.135  0.0329 -0.1651  0.0720
   59TMC2    O2  927   1.566   2.513  12.412  0.1823 -0.3775  0.2105
   59TMC2    O5  928   1.494   2.518  12.200 -0.1742  0.4091  0.0064
   59TMC2    H5  929   1.411   2.535  12.152 -1.4550 -1.3254  1.6186
   60MPD2     C  930   1.150   2.529  12.992  0.7035  0.3978 -0.9726
   60MPD2    C1  931   1.265   2.534  12.914 -0.1777 -0.1012 -0.0739
   60MPD2    C2  932   1.385   2.577  12.970 -0.1748  0.4600  0.7119
   60MPD2    C3  933   1.390   2.619  13.105 -0.2287 -0.3085 -0.0981
   60MPD2    C4  934   1.280   2.608  13.178  0.2725  0.6158 -0.0678
   60MPD2    C5  935   1.164   2.572  13.122 -0.2648 -0.0116  0.1813
   60MPD2     H  936   1.479   2.569  12.916  0.3878  0.1641  1.7330
   60MPD2    H1  937   1.282   2.623  13.285  0.6016 -2.1210  0.3118
   60MPD2    H2  938   1.053   2.498  12.955  1.3726 -1.0396 -1.5248
   60MPD2    H3  939   1.079   2.553  13.187 -1.6043  0.0453 -1.5371
   60MPD2     N  940   1.500   2.663  13.179  0.4041 -0.2119 -0.7739
   60MPD2    H5  941   1.478   2.679  13.277 -2.1053 -0.8846 -1.2176
   60MPD2    N1  942   1.275   2.502  12.772 -0.4251 -0.9697 -0.1501
   60MPD2    H7  943   1.360   2.514  12.717  1.0910 -1.3655  2.0950
   61TMC2    C1  944   0.339   3.900  15.203 -0.4499 -0.3103 -0.0873
   61TMC2    C2  945   0.395   3.869  15.325 -0.7279 -0.0812  0.2688
   61TMC2    C3  946   0.397   3.969  15.415  0.9344 -0.2887 -0.5106
   61TMC2    C4  947   0.278   4.023  15.175  0.4802  0.2300  0.1917
   61TMC2    C5  948   0.287   4.123  15.270  0.2823  0.4089 -0.0094
   61TMC2    C6  949   0.352   4.096  15.391  1.0389  0.4154 -0.3130
   61TMC2     C  950   0.360   3.800  15.105  0.8494 -0.0867 -0.4161
   61TMC2     O  951   0.331   3.683  15.136  0.3928 -0.4526 -0.3602
   61TMC2     H  952   0.447   3.775  15.340  1.5029  0.7169 -2.5380
   61TMC2    H1  953   0.221   4.033  15.084  0.9450 -1.0502 -0.2514
   61TMC2    H2  954   0.369   4.185  15.450  0.1319 -0.2274  0.9060
   61TMC2    C7  955   0.193   4.239  15.253 -0.5982 -0.2698 -0.5008
   61TMC2    C8  956   0.494   3.964  15.523 -0.3884  0.3415 -0.2138
   61TMC2    O1  957   0.170   4.269  15.136  0.0599 -0.7673 -0.8262
   61TMC2    O2  958   0.555   4.064  15.561  0.1150 -1.4702  0.2517
   61TMC2    O5  959   0.439   3.866  15.603  0.2073 -0.2938 -0.2998
   61TMC2    H5  960   0.397   3.790  15.556  0.4136 -0.7471  0.2522
   62MPD2     C  961   0.355   3.666  14.840 -0.0882  0.0103 -0.0626
   62MPD2    C1  962   0.406   3.791  14.864 -0.3027 -0.7534  0.2703
   62MPD2    C2  963   0.451   3.865  14.756 -0.1228 -0.6054  0.2060
   62MPD2    C3  964   0.449   3.800  14.629 -0.4607 -0.0671 -0.6582
   62MPD2    C4  965   0.401   3.670  14.616  0.5770  0.3336 -0.2580
   62MPD2    C5  966   0.346   3.607  14.723  0.1399  0.4605 -0.1939
   62MPD2     H  967   0.483   3.968  14.758 -1.4744 -0.1417 -2.5127
   62MPD2    H1  968   0.395   3.621  14.520 -0.4898 -0.3506  0.1413
   62MPD2    H2  969   0.298   3.609  14.912 -2.5780 -0.3514 -2.3390
   62MPD2    H3  970   0.294   3.513  14.709  0.3096  0.1990  0.9138
   62MPD2     N  971   0.515   3.855  14.515  0.3259 -0.3037  0.5717
   62MPD2    H5  972   0.510   3.801  14.429 -2.2648 -0.4444  0.8133
   62MPD2    N1  973   0.406   3.850  14.989 -0.0413  0.1602  0.4675
   62MPD2    H7  974   0.447   3.943  14.997  1.8856 -0.6711  0.4732
   63TMC2    C1  975   3.857   3.699  10.053 -0.7470 -0.4821  0.1455
   63TMC2    C2  976   3.969   3.688  10.130 -0.6801  0.0452 -0.3664
   63TMC2    C3  977   4.061   3.784  10.130 -0.2789 -0.2176 -0.4097
   63TMC2    C4  978   3.830   3.802   9.968 -0.1396 -0.5187 -0.2552
   63TMC2    C5  979   3.923   3.897   9.970  0.1567  0.3368 -0.4501
   63TMC2    C6  980   4.026   3.898  10.062 -0.0185 -0.6324 -0.0354
   63TMC2     C  981   3.761   3.589  10.056 -0.4887 -0.0927 -0.2707
   63TMC2     O  982   3.662   3.600   9.986  0.1891  0.2182  0.3579
   63TMC2     H  983   3.994   3.600  10.188 -2.0201  0.5340  0.9502
   63TMC2    H1  984   3.747   3.800   9.899 -2.6327  1.4018  2.7052
   63TMC2    H2  985   4.097   3.980  10.055 -1.9204  1.3036  3.5437
   63TMC2    C7  986   3.871   4.030   9.930  0.1035  0.3357 -0.1862
   63TMC2    C8  987   4.174   3.773  10.212 -0.1200  0.3505  0.0610
   63TMC2    O1  988   3.892   4.124  10.011 -0.1577  0.2802  0.4108
   63TMC2    O2  989   4.239   3.673  10.238 -0.0467 -0.0231  0.7102
   63TMC2    O5  990   4.205   3.895  10.255 -0.2697  0.0768  0.1714
   63TMC2    H5  991   4.122   3.948  10.259 -0.2957 -0.0120  0.7868
   64MPD2     C  992   3.533   3.158  10.201  0.1037 -0.2890 -0.4149
   64MPD2    C1  993   3.658   3.154  10.254 -0.4135  0.9259  0.2564
   64MPD2    C2  994   3.739   3.269  10.237 -0.4012 -0.3126 -0.2710
   64MPD2    C3  995   3.694   3.380  10.165  0.2770 -0.0066  0.0101
   64MPD2    C4  996   3.562   3.379  10.118  0.3709  1.3067  0.8254
   64MPD2    C5  997   3.486   3.275  10.141  0.3231 -0.5856 -0.0907
   64MPD2     H  998   3.844   3.260  10.265 -1.1002 -1.2051  2.1038
   64MPD2    H1  999   3.509   3.462  10.072 -0.0258  0.9299  0.6089
   64MPD2    H2 1000   3.466   3.073  10.210  0.4737 -0.3227  1.9387
   64MPD2    H3 1001   3.382   3.276  10.110  0.2747  0.6613  0.1160
   64MPD2     N 1002   3.783   3.488  10.141 -0.2769  0.0664 -0.1130
   64MPD2    H5 1003   3.867   3.489  10.199 -0.0547  1.9836 -0.4651
   64MPD2    N1 1004   3.712   3.034  10.308  0.6001  0.0496 -0.1487
   64MPD2    H7 1005   3.802   3.051  10.352  0.1894 -0.9216  1.0831
   65TMC2    C1 1006   1.638   3.657  16.007  0.3676  0.4329  0.0980
   65TMC2    C2 1007   1.776   3.642  15.999 -0.3549 -0.0777  0.0763
   65TMC2    C3 1008   1.847   3.734  15.928 -0.3749 -1.0229  0.2976
   65TMC2    C4 1009   1.572   3.757  15.933  0.7280  0.5126  0.6000
   65TMC2    C5 1010   1.655   3.852  15.876  0.1334  0.4686 -0.4399
   65TMC2    C6 1011   1.787   3.833  15.855  0.4440 -0.6113  0.3552
   65TMC2     C 1012   1.563   3.543  16.057 -0.0637  0.3231  0.2467
   65TMC2     O 1013   1.604   3.493  16.157 -0.1218  0.1451 -0.1847
   65TMC2     H 1014   1.823   3.558  16.049  0.9900 -0.0656 -1.1562
   65TMC2    H1 1015   1.465   3.775  15.939  0.5991  0.7063 -2.2126
   65TMC2    H2 1016   1.841   3.909  15.800 -0.1903 -1.6371 -1.6987
   65TMC2    C7 1017   1.594   3.968  15.823 -0.0730 -0.2098  1.0417
   65TMC2    C8 1018   1.978   3.683  15.892 -0.5029  0.2982  0.3462
   65TMC2    O1 1019   1.660   4.070  15.845  0.0808  0.6787  0.5495
   65TMC2    O2 1020   2.038   3.596  15.955 -0.3359 -0.7781  0.3230
   65TMC2    O5 1021   1.939   3.647  15.767 -0.0891  0.0192  1.1178
   65TMC2    H5 1022   1.864   3.699  15.731  0.4773  1.4975  2.0644
   66MPD2     C 1023   1.397   3.297  16.109  0.1313  0.5447 -0.1658
   66MPD2    C1 1024   1.397   3.369  15.993 -0.1364 -0.1695  0.3539
   66MPD2    C2 1025   1.333   3.309  15.882 -0.0329  0.3956 -0.4774
   66MPD2    C3 1026   1.263   3.190  15.895 -0.3747 -0.3026 -0.1577
   66MPD2    C4 1027   1.277   3.125  16.012  0.0379  0.8408  0.0699
   66MPD2    C5 1028   1.335   3.177  16.118  0.3580 -0.1263 -0.0012
   66MPD2     H 1029   1.330   3.360  15.787 -1.0658 -1.0514 -1.2170
   66MPD2    H1 1030   1.226   3.031  16.029 -2.9062  2.4396  0.1708
   66MPD2    H2 1031   1.436   3.342  16.200 -1.6217 -1.2340  1.4881
   66MPD2    H3 1032   1.338   3.119  16.209 -1.6964  1.1742  0.8928
   66MPD2     N 1033   1.185   3.135  15.796  0.1926  0.5966 -0.1593
   66MPD2    H5 1034   1.145   3.045  15.819 -0.9660  1.7138  2.1700
   66MPD2    N1 1035   1.466   3.491  15.973 -0.2079  0.1418  0.2890
   66MPD2    H7 1036   1.450   3.542  15.887 -2.5631  0.0232  0.6653
   67TMC2    C1 1037   1.062   2.275  14.306 -0.2512  0.0805 -0.7943
   67TMC2    C2 1038   0.973   2.212  14.391 -0.9754 -0.2929  0.1247
   67TMC2    C3 1039   0.976   2.252  14.518  0.4350 -0.0933 -0.3223
   67TMC2    C4 1040   1.147   2.379  14.350  0.0772  0.3058  1.1257
   67TMC2    C5 1041   1.148   2.414  14.483 -0.0589 -0.2273 -0.4355
   67TMC2    C6 1042   1.067   2.337  14.567  0.6639 -0.0112 -0.8808
   67TMC2     C 1043   1.058   2.248  14.165  0.2486  0.1402  0.2448
   67TMC2     O 1044   1.028   2.134  14.136  0.0727 -0.3825  0.1859
   67TMC2     H 1045   0.903   2.138  14.354 -1.4802 -1.0907  2.7205
   67TMC2    H1 1046   1.218   2.427  14.284 -0.4995  1.7358  1.5488
   67TMC2    H2 1047   1.062   2.349  14.674  2.7200 -2.3393 -0.5158
   67TMC2    C7 1048   1.264   2.493  14.529  0.3355  0.2065 -0.4991
   67TMC2    C8 1049   0.884   2.191  14.608 -0.5046 -0.6933 -0.1585
   67TMC2    O1 1050   1.331   2.538  14.440 -0.8384 -0.1893 -0.0632
   67TMC2    O2 1051   0.852   2.074  14.595 -0.0204 -0.0376  0.0422
   67TMC2    O5 1052   0.834   2.278  14.697 -0.3852 -0.2790 -0.4628
   67TMC2    H5 1053   0.846   2.365  14.654 -1.6415 -1.5576 -3.4494
   68MPD2     C 1054   1.083   2.263  13.877  0.2717 -0.2622 -0.7423
   68MPD2    C1 1055   1.079   2.371  13.956  0.3115  0.1219  0.1287
   68MPD2    C2 1056   1.070   2.494  13.899  0.7020 -0.8522  0.1304
   68MPD2    C3 1057   1.048   2.510  13.761 -0.2136 -0.2997 -0.2299
   68MPD2    C4 1058   1.051   2.400  13.683 -0.1111 -0.2381  0.0745
   68MPD2    C5 1059   1.078   2.277  13.739 -0.4530  0.1075 -0.4763
   68MPD2     H 1060   1.059   2.580  13.963 -1.8610  1.1291 -2.9650
   68MPD2    H1 1061   1.041   2.408  13.575  0.3450  1.8497  0.1783
   68MPD2    H2 1062   1.092   2.162  13.915  0.3081 -0.4927 -1.3596
   68MPD2    H3 1063   1.080   2.192  13.672  1.3549 -1.8763  2.0846
   68MPD2     N 1064   1.024   2.626  13.700  0.0901 -0.0571  0.1881
   68MPD2    H5 1065   1.029   2.628  13.598  3.3011  0.5801  0.3643
   68MPD2    N1 1066   1.074   2.361  14.095 -0.3259  0.0928  0.1067
   68MPD2    H7 1067   1.083   2.442  14.156 -3.3505 -0.1580  0.8736
   69TMC2    C1 1068   3.054   4.435  12.159 -0.0520 -0.9355  0.6954
   69TMC2    C2 1069   2.930   4.472  12.114 -0.0019 -0.1469  0.2188
   69TMC2    C3 1070   2.880   4.432  11.996 -0.3072 -0.2811  0.2613
   69TMC2    C4 1071   3.139   4.371  12.067  0.2723  0.2123 -0.3673
   69TMC2    C5 1072   3.085   4.332  11.943  0.1089  0.5416 -0.3642
   69TMC2    C6 1073   2.950   4.354  11.909  1.0547 -0.0717 -0.1350
   69TMC2     C 1074   3.045   4.369  12.289  0.2355 -0.2258  0.2183
   69TMC2     O 1075   2.932   4.333  12.320  0.7804  0.0357 -0.5898
   69TMC2     H 1076   2.874   4.539  12.177 -0.6280 -1.6812  1.3041
   69TMC2    H1 1077   3.242   4.346  12.088 -0.1805 -1.6782 -0.3548
   69TMC2    H2 1078   2.898   4.316  11.822 -0.5113  0.5435  0.5377
   69TMC2    C7 1079   3.173   4.274  11.844  0.2732  1.0437 -0.4016
   69TMC2    C8 1080   2.736   4.409  11.992  0.6957  0.6650  0.3858
   69TMC2    O1 1081   3.280   4.228  11.874  0.1987 -0.1505 -0.5177
   69TMC2    O2 1082   2.674   4.377  11.893  0.1406 -0.2197  0.5004
   69TMC2    O5 1083   2.712   4.370  12.122  0.3279 -0.8985  0.7681
   69TMC2    H5 1084   2.788   4.390  12.181 -0.6503 -0.2259  1.8046
   70MPD2     C 1085   3.315   4.252  12.502  0.2396 -0.3680  0.5751
   70MPD2    C1 1086   3.189   4.257  12.454 -0.4857 -0.9970  0.1037
   70MPD2    C2 1087   3.105   4.153  12.479  0.2153 -0.3074  0.3737
   70MPD2    C3 1088   3.147   4.046  12.556  0.2887  0.2820 -0.0688
   70MPD2    C4 1089   3.272   4.048  12.610 -0.0820  0.1961 -0.0830
   70MPD2    C5 1090   3.356   4.151  12.581 -0.0601  0.1059 -0.2080
   70MPD2     H 1091   3.008   4.151  12.429 -0.2329  0.9453  1.2020
   70MPD2    H1 1092   3.303   3.964  12.671 -1.2719 -0.6336 -0.6371
   70MPD2    H2 1093   3.384   4.333  12.481  0.0530 -0.5660 -0.8083
   70MPD2    H3 1094   3.457   4.151  12.621 -0.5509  1.4479  1.0338
   70MPD2     N 1095   3.068   3.937  12.592  0.3836  0.1639 -0.4469
   70MPD2    H5 1096   3.111   3.875  12.660 -0.6302  0.7850  0.7704
   70MPD2    N1 1097   3.169   4.351  12.353  0.3225 -0.6698 -0.1948
   70MPD2    H7 1098   3.239   4.418  12.323 -0.4161  0.6987  1.0796
   71TMC2    C1 1099   0.759   0.357   1.240  0.3315  0.4461  0.5286
   71TMC2    C2 1100   0.747   0.491   1.206 -0.8588  0.1665 -0.1590
   71TMC2    C3 1101   0.775   0.580   1.309 -0.0386 -1.1871 -0.0166
   71TMC2    C4 1102   0.771   0.310   1.365 -0.1847  0.2651  0.1035
   71TMC2    C5 1103   0.794   0.403   1.464 -0.2119 -0.1716 -0.1850
   71TMC2    C6 1104   0.797   0.543   1.437 -0.0084 -0.2866  0.4310
   71TMC2     C 1105   0.745   0.258   1.130  0.1957  0.1439 -0.1004
   71TMC2     O 1106   0.775   0.303   1.022 -0.2509  0.0904 -0.6136
   71TMC2     H 1107   0.740   0.526   1.104 -0.4013  1.6960  0.3376
   71TMC2    H1 1108   0.780   0.204   1.384 -0.0970  0.5201  1.4638
   71TMC2    H2 1109   0.777   0.614   1.517 -0.1063  0.2865 -0.1056
   71TMC2    C7 1110   0.755   0.365   1.603 -0.2341  0.0773  0.0714
   71TMC2    C8 1111   0.738   0.712   1.283 -1.0904  0.3474  0.2597
   71TMC2    O1 1112   0.796   0.440   1.688  0.0899 -0.4761  0.0234
   71TMC2    O2 1113   0.646   0.749   1.210 -0.2295  0.0588  0.1315
   71TMC2    O5 1114   0.838   0.784   1.330  0.1503 -0.3912  0.2350
   71TMC2    H5 1115   0.914   0.738   1.371  0.5685  1.8743  2.0227
   72MPD2     C 1116   0.588   4.552   0.926 -0.1966 -0.1053 -0.6353
   72MPD2    C1 1117   0.681   4.641   0.871 -0.3612 -0.5775 -0.1892
   72MPD2    C2 1118   0.722   0.012   0.949 -0.2827  0.1451 -0.0619
   72MPD2    C3 1119   0.657   0.033   1.070 -0.4432  0.3288 -0.2836
   72MPD2    C4 1120   0.562   4.682   1.122  0.5540 -0.4472  0.3273
   72MPD2    C5 1121   0.533   4.572   1.049 -0.1663  0.6857  0.2669
   72MPD2     H 1122   0.799   0.077   0.909 -2.1007  0.3860 -3.1853
   72MPD2    H1 1123   0.513   4.698   1.217 -0.2228 -1.2075  0.0441
   72MPD2    H2 1124   0.547   4.470   0.867  3.2645 -1.0805 -1.7148
   72MPD2    H3 1125   0.463   4.502   1.093  1.6596 -0.4247  1.4490
   72MPD2     N 1126   0.685   0.139   1.160  0.2985  0.3653 -0.5200
   72MPD2    H5 1127   0.639   0.146   1.250  1.3417 -1.7900  0.1709
   72MPD2    N1 1128   0.730   4.636   0.741  0.0414  0.2593 -0.5468
   72MPD2    H7 1129   0.790   4.713   0.713 -1.5815  2.6067  2.3147
   73TMC2    C1 1130   0.279   1.639  14.104  0.4564 -0.4588 -0.0390
   73TMC2    C2 1131   0.216   1.693  14.215  0.1258 -0.2042  0.3268
   73TMC2    C3 1132   0.265   1.649  14.329  0.0005 -0.6352 -0.3647
   73TMC2    C4 1133   0.373   1.541  14.115 -0.2897 -0.0801  0.1981
   73TMC2    C5 1134   0.410   1.497  14.239  1.0851  0.5112 -0.2828
   73TMC2    C6 1135   0.356   1.552  14.350  0.2616 -0.1828  0.8045
   73TMC2     C 1136   0.332   1.742  14.015  0.0662  0.6135  0.0454
   73TMC2     O 1137   0.441   1.710  13.971 -0.3923 -0.1889 -0.2170
   73TMC2     H 1138   0.137   1.766  14.218  0.3899  0.2364 -2.5042
   73TMC2    H1 1139   0.401   1.486  14.025  0.7754 -1.5725  1.4471
   73TMC2    H2 1140   0.380   1.521  14.451 -0.0344 -1.6234  0.4352
   73TMC2    C7 1141   0.554   1.487  14.249 -0.2192  0.2492 -0.0447
   73TMC2    C8 1142   0.168   1.657  14.438 -0.8636 -0.2055  0.0740
   73TMC2    O1 1143   0.621   1.446  14.349  0.3228  1.3310  0.3257
   73TMC2    O2 1144   0.049   1.662  14.413 -0.7878 -0.2190  0.3340
   73TMC2    O5 1145   0.232   1.692  14.557  0.1544 -0.0962 -0.6311
   73TMC2    H5 1146   0.329   1.699  14.547  0.2800 -2.3638 -1.0559
   74MPD2     C 1147   0.394   2.168  13.731  0.1551  0.5004  0.2198
   74MPD2    C1 1148   0.483   2.081  13.781 -0.0718  0.2420 -1.0156
   74MPD2    C2 1149   0.440   1.980  13.867 -0.0813 -0.5206  0.3954
   74MPD2    C3 1150   0.305   1.966  13.905  0.6157 -0.2525  0.2699
   74MPD2    C4 1151   0.227   2.068  13.871  0.2411 -0.4970  0.4662
   74MPD2    C5 1152   0.273   2.166  13.795  0.0011  0.6891 -0.3874
   74MPD2     H 1153   0.514   1.911  13.907  0.0812 -0.5532  0.0412
   74MPD2    H1 1154   0.126   2.081  13.910  0.8241  0.7500  1.5405
   74MPD2    H2 1155   0.410   2.242  13.653 -0.2690  0.6527  0.2756
   74MPD2    H3 1156   0.197   2.238  13.770 -1.2322 -0.5033 -0.0923
   74MPD2     N 1157   0.257   1.858  13.992  0.4848 -0.1681  0.1256
   74MPD2    H5 1158   0.161   1.862  14.023  0.0955 -1.4999 -0.9004
   74MPD2    N1 1159   0.619   2.090  13.739  0.2479  0.5892 -0.3299
   74MPD2    H7 1160   0.651   2.173  13.690  3.1021  1.4928  3.0910
   75TMC2    C1 1161   0.981   2.860  13.661  0.9300  0.1619 -0.2138
   75TMC2    C2 1162   0.939   2.985  13.713  0.1936 -0.2890  0.4269
   75TMC2    C3 1163   0.916   3.082  13.627  0.1504 -0.0538  0.0650
   75TMC2    C4 1164   0.967   2.835  13.526 -0.8426 -0.0831 -0.3915
   75TMC2    C5 1165   0.928   2.937  13.447  0.0430  0.4978  0.0332
   75TMC2    C6 1166   0.910   3.066  13.493 -0.0006  0.1587  0.0423
   75TMC2     C 1167   1.007   2.749  13.758  0.2546 -0.1304  0.1401
   75TMC2     O 1168   1.005   2.786  13.875  0.1880 -0.1667 -0.2454
   75TMC2     H 1169   0.930   3.000  13.820  0.4270  2.1196  0.1162
   75TMC2    H1 1170   0.989   2.738  13.481 -0.4622 -0.2681  0.1898
   75TMC2    H2 1171   0.861   3.150  13.444  0.9529 -0.8940 -2.7054
   75TMC2    C7 1172   0.839   2.888  13.343 -0.1766  0.0359 -0.6899
   75TMC2    C8 1173   0.851   3.198  13.686  0.4508  0.1744 -0.7599
   75TMC2    O1 1174   0.832   2.770  13.321  0.3124  0.0391  0.2450
   75TMC2    O2 1175   0.877   3.317  13.679  0.8960  0.2089  0.2333
   75TMC2    O5 1176   0.733   3.144  13.713 -0.3300  0.0893 -0.2646
   75TMC2    H5 1177   0.721   3.048  13.697 -1.0922 -0.1564  1.7626
   76TMC2    C1 1178   3.961   2.981  11.835  0.1089 -0.4745 -0.9150
   76TMC2    C2 1179   3.859   2.893  11.802 -0.0961 -0.3611 -0.3564
   76TMC2    C3 1180   3.861   2.763  11.843 -0.3436 -0.6524 -0.1677
   76TMC2    C4 1181   4.063   2.942  11.919  0.3684 -0.9947  0.0147
   76TMC2    C5 1182   4.065   2.810  11.958 -0.0274  0.3112 -0.3254
   76TMC2    C6 1183   3.964   2.724  11.930  0.0688  0.2531 -0.8647
   76TMC2     C 1184   3.952   3.110  11.783 -1.1565  0.0244  0.5296
   76TMC2     O 1185   3.873   3.135  11.690 -0.4421  0.1918  0.7737
   76TMC2     H 1186   3.778   2.935  11.743 -1.0377  1.0247  1.9419
   76TMC2    H1 1187   4.149   3.004  11.937  1.2795 -1.3188 -3.0933
   76TMC2    H2 1188   3.965   2.632  11.986 -2.9381  0.3531 -0.6168
   76TMC2    C7 1189   4.164   2.767  12.052 -0.4176  0.3729  0.4198
   76TMC2    C8 1190   3.735   2.697  11.869 -0.0039  0.4217 -0.4379
   76TMC2    O1 1191   4.171   2.640  12.074 -0.5457  0.1747  0.2161
   76TMC2    O2 1192   3.633   2.762  11.884 -0.6030  0.1953 -0.8081
   76TMC2    O5 1193   3.753   2.575  11.916 -0.7185 -0.1582  0.5774
   76TMC2    H5 1194   3.841   2.542  11.889 -1.8303 -1.0249 -2.0065
   77MPD2     C 1195   4.090   3.603  11.753 -0.7065  0.7475  0.0576
   77MPD2    C1 1196   3.995   3.537  11.676  0.0270  0.3680  0.1766
   77MPD2    C2 1197   3.984   3.400  11.707  0.2386  0.7096  0.2357
   77MPD2    C3 1198   4.047   3.336  11.809  0.0410  0.0728 -0.5487
   77MPD2    C4 1199   4.125   3.412  11.892  0.2213 -0.1148  0.0411
   77MPD2    C5 1200   4.153   3.542  11.858 -0.2578  0.0144  0.3293
   77MPD2     H 1201   3.914   3.348  11.643  0.3193 -2.3392  2.5882
   77MPD2    H1 1202   4.174   3.364  11.976 -0.0211 -1.5022 -0.6052
   77MPD2    H2 1203   4.127   3.703  11.737  1.1011  0.2860  1.4182
   77MPD2    H3 1204   4.224   3.588  11.926  1.9204 -0.2872 -1.7447
   77MPD2     N 1205   4.040   3.197  11.843 -0.3290 -0.4864  0.1235
   77MPD2    H5 1206   4.078   3.167  11.932 -0.5055  0.0226  0.3732
   77MPD2    N1 1207   3.917   3.604  11.581  0.2813  0.2841  0.1336
   77MPD2    H7 1208   3.847   3.554  11.528  1.1073  1.2823 -1.8701
   78TMC2    C1 1209   1.012   4.642   1.780  0.5010  1.0303 -0.2587
   78TMC2    C2 1210   0.957   0.017   1.831 -0.3670 -0.4215 -0.1561
   78TMC2    C3 1211   1.039   0.130   1.835  1.0564 -0.5341  0.6743
   78TMC2    C4 1212   1.140   4.634   1.724  0.0045 -0.3037 -0.2298
   78TMC2    C5 1213   1.215   0.006   1.737  0.4129  0.3143  0.0797
   78TMC2    C6 1214   1.170   0.125   1.790 -0.2383 -0.1004  0.2566
   78TMC2     C 1215   0.944   4.515   1.799  0.5853  1.1151 -0.4821
   78TMC2     O 1216   0.988   4.433   1.717 -0.0504 -0.5893 -0.5041
   78TMC2     H 1217   0.851   0.022   1.856 -0.3746  0.4730 -0.3714
   78TMC2    H1 1218   1.170   4.544   1.671  1.1672  0.7028 -1.2628
   78TMC2    H2 1219   1.231   0.214   1.797  0.5012 -0.4766 -1.3025
   78TMC2    C7 1220   1.358   0.010   1.696 -0.2920  0.3276 -0.0005
   78TMC2    C8 1221   1.004   0.250   1.904 -0.5284  0.1188  0.4100
   78TMC2    O1 1222   1.385   4.684   1.597 -0.1880 -0.4561 -0.1157
   78TMC2    O2 1223   1.065   0.355   1.877 -0.1142 -0.3536  0.0943
   78TMC2    O5 1224   0.926   0.222   2.009 -0.4052  0.4270 -0.0912
   78TMC2    H5 1225   0.903   0.127   2.020 -0.2136  0.4639  0.6106
   79MPD1     C 1226   0.546   4.228   1.935  0.8677  0.2011 -0.2150
   79MPD1    C1 1227   0.619   4.228   1.818  0.0687 -0.0480  0.5536
   79MPD1    C2 1228   0.721   4.322   1.800  0.0532 -0.6258  0.5449
   79MPD1    C3 1229   0.749   4.416   1.903  0.1369  0.0966  0.1322
   79MPD1    C4 1230   0.667   4.419   2.013 -0.1524  0.4043  0.2862
   79MPD1    C5 1231   0.563   4.329   2.025  0.2160 -0.0280  0.2079
   79MPD1     H 1232   0.772   4.341   1.706  0.2830 -0.2013  0.7545
   79MPD1    H1 1233   0.679   4.502   2.081 -0.8361  0.3229  0.5027
   79MPD1    H2 1234   0.454   4.170   1.940 -0.8064  2.9481  0.5124
   79MPD1    H3 1235   0.488   4.343   2.102 -0.7192 -1.5489 -0.4190
   79MPD1     N 1236   0.847   4.518   1.896 -0.7467  0.0643 -0.0381
   79MPD1    H5 1237   0.852   4.589   1.968 -0.2186 -0.0327  0.0198
   79MPD1    N1 1238   0.623   4.121   1.726 -0.6602  0.1555 -0.0881
   79MPD1    H6 1239   0.536   4.070   1.740  1.0030 -2.2559  1.5316
   79MPD1    H7 1240   0.625   4.149   1.629  1.7492  1.6689  0.3820
   80TMC2    C1 1241   3.049   3.333  11.307  0.7334  0.0137  0.2303
   80TMC2    C2 1242   3.079   3.367  11.179  0.6070 -0.3933  0.1394
   80TMC2    C3 1243   3.015   3.298  11.083 -0.1337 -0.7290  0.2530
   80TMC2    C4 1244   2.974   3.226  11.341 -0.0953  0.0701  0.3200
   80TMC2    C5 1245   2.915   3.156  11.238  1.1891 -0.2516  0.2693
   80TMC2    C6 1246   2.936   3.190  11.114  0.2005  0.1681 -0.0565
   80TMC2     C 1247   3.130   3.396  11.415 -0.4029  0.5751  0.4935
   80TMC2     O 1248   3.241   3.440  11.394  0.2982 -0.2260  0.0116
   80TMC2     H 1249   3.148   3.448  11.158 -0.9264  0.6437 -0.8716
   80TMC2    H1 1250   2.972   3.201  11.447  0.2420  0.2605  0.3681
   80TMC2    H2 1251   2.884   3.140  11.033 -1.9574  0.4929  1.1237
   80TMC2    C7 1252   2.862   3.015  11.254 -0.4102  0.5781  0.3499
   80TMC2    C8 1253   3.063   3.338  10.946 -0.5490 -0.5199 -0.1878
   80TMC2    O1 1254   2.849   2.950  11.152 -0.3586  0.3251  0.0345
   80TMC2    O2 1255   3.162   3.405  10.920  0.0085 -0.4762  0.6829
   80TMC2    O5 1256   2.973   3.299  10.856  0.2745 -0.0849 -0.0745
   80TMC2    H5 1257   2.891   3.269  10.901  0.9454 -1.5737  0.1622
   81MPD2     C 1258   3.230   3.459  11.688 -0.2220  1.0976  0.6074
   81MPD2    C1 1259   3.098   3.479  11.646  0.4470  0.3613 -0.3403
   81MPD2    C2 1260   3.002   3.545  11.721 -0.2613 -0.0593  0.3536
   81MPD2    C3 1261   3.030   3.579  11.852  0.5853  0.4111  0.6706
   81MPD2    C4 1262   3.162   3.556  11.892  0.4038  0.4412  0.1182
   81MPD2    C5 1263   3.257   3.504  11.815  0.5817 -0.0732 -0.4085
   81MPD2     H 1264   2.899   3.554  11.688  0.0178  0.9136 -0.2656
   81MPD2    H1 1265   3.191   3.582  11.993  1.9880  0.6467 -0.3964
   81MPD2    H2 1266   3.309   3.406  11.636  0.5530  1.2454  1.6327
   81MPD2    H3 1267   3.355   3.481  11.855 -0.2114 -0.2032  1.4509
   81MPD2     N 1268   2.937   3.623  11.946  0.0878 -0.2245 -0.1600
   81MPD2    H5 1269   2.957   3.628  12.046 -1.4747 -1.6333  0.2218
   81MPD2    N1 1270   3.051   3.430  11.522  0.3430  0.1620 -0.1783
   81MPD2    H7 1271   2.950   3.426  11.510  0.0113  3.0396  1.6001
   82TMC2    C1 1272   0.831   2.226  10.519 -0.2586 -0.1645  0.4677
   82TMC2    C2 1273   0.960   2.255  10.558  0.5563 -0.1607  0.3212
   82TMC2    C3 1274   1.003   2.206  10.678  0.5199 -0.2395  0.1861
   82TMC2    C4 1275   0.744   2.139  10.584  0.5205  0.2668 -0.1895
   82TMC2    C5 1276   0.802   2.097  10.703 -0.0691 -0.5971  0.4948
   82TMC2    C6 1277   0.926   2.125  10.751  0.1033 -0.6533 -0.3964
   82TMC2     C 1278   0.777   2.285  10.397  0.0872 -0.0878  0.2938
   82TMC2     O 1279   0.653   2.271  10.389  0.2483  0.1305  0.0619
   82TMC2     H 1280   1.035   2.301  10.495 -0.1105 -0.6960 -0.8657
   82TMC2    H1 1281   0.647   2.110  10.548  0.3936  0.7107 -0.2064
   82TMC2    H2 1282   0.966   2.082  10.842  0.2413  0.9656  0.3191
   82TMC2    C7 1283   0.755   1.965  10.763  0.8479  0.2527  0.3803
   82TMC2    C8 1284   1.141   2.178  10.676  0.2032 -0.5774  0.1928
   82TMC2    O1 1285   0.830   1.914  10.843 -0.8591 -0.1430 -0.0276
   82TMC2    O2 1286   1.168   2.071  10.727 -0.5147  0.5346  0.5710
   82TMC2    O5 1287   1.222   2.285  10.656  0.2765  0.0865  0.6270
   82TMC2    H5 1288   1.162   2.363  10.652 -0.3887 -0.3472  2.1144
   83MPD2     C 1289   0.719   2.732  10.162  0.0037  0.1317  0.2112
   83MPD2    C1 1290   0.632   2.665  10.254 -0.0716 -0.8091 -0.2024
   83MPD2    C2 1291   0.678   2.551  10.307  0.4202  0.1953  0.0545
   83MPD2    C3 1292   0.804   2.504  10.275  0.0705  0.1084  0.6712
   83MPD2    C4 1293   0.880   2.564  10.176 -0.1352 -0.6093 -1.2338
   83MPD2    C5 1294   0.840   2.684  10.123 -0.2711 -0.5612 -0.0079
   83MPD2     H 1295   0.609   2.498  10.371  0.3126 -0.1535 -0.3523
   83MPD2    H1 1296   0.975   2.522  10.145  1.7653  0.9764  2.5430
   83MPD2    H2 1297   0.695   2.827  10.116 -0.5109  0.0146  0.2329
   83MPD2    H3 1298   0.908   2.730  10.052  0.0537  2.1328  2.0006
   83MPD2     N 1299   0.851   2.386  10.332  0.1467 -0.1821  0.3039
   83MPD2    H5 1300   0.951   2.374  10.340  0.2293  0.5825  0.4222
   83MPD2    N1 1301   0.510   2.731  10.280  0.2590 -0.1641 -0.0457
   83MPD2    H7 1302   0.496   2.816  10.228 -0.2152  0.9947  1.9729
   84TMC2    C1 1303   2.204   1.338  11.369  0.4909  0.4841  0.3296
   84TMC2    C2 1304   2.310   1.262  11.420  0.0603  0.0965  0.4517
   84TMC2    C3 1305   2.316   1.127  11.389  0.0387  0.1188 -0.1269
   84TMC2    C4 1306   2.105   1.280  11.294  0.4135  0.9862  0.3806
   84TMC2    C5 1307   2.119   1.146  11.270  0.3262 -1.0304 -0.6350
   84TMC2    C6 1308   2.220   1.066  11.317  0.4874  0.1495 -0.3903
   84TMC2     C 1309   2.221   1.480  11.367  0.2933 -0.0661 -0.0804
   84TMC2     O 1310   2.119   1.541  11.336 -0.0741  0.0624  0.3133
   84TMC2     H 1311   2.383   1.306  11.486  2.2242 -2.9576  0.1045
   84TMC2    H1 1312   2.044   1.347  11.235  1.3258  1.4624 -0.0185
   84TMC2    H2 1313   2.220   0.963  11.283  1.3343  0.3672 -1.0605
   84TMC2    C7 1314   2.030   1.095  11.168  0.1795  0.2966 -0.3126
   84TMC2    C8 1315   2.436   1.050  11.433 -0.0460 -0.0541  0.3457
   84TMC2    O1 1316   2.057   0.989  11.110  0.2875 -0.0024  0.0288
   84TMC2    O2 1317   2.499   1.096  11.524 -0.0128 -0.2096 -0.8033
   84TMC2    O5 1318   2.489   0.980  11.330 -0.0770 -0.8258 -0.7071
   84TMC2    H5 1319   2.421   0.951  11.266 -0.1785 -0.7004 -0.6554
   85TMC2    C1 1320   3.528   0.058  15.674 -0.1287 -0.1303  0.0835
   85TMC2    C2 1321   3.408   0.124  15.675  0.4430 -0.1403  0.5124
   85TMC2    C3 1322   3.393   0.237  15.595  0.0630  0.8761  0.5876
   85TMC2    C4 1323   3.636   0.101  15.597  0.0741  0.8643 -0.1957
   85TMC2    C5 1324   3.606   0.202  15.509  0.7400  0.4801 -0.2034
   85TMC2    C6 1325   3.492   0.282  15.516  0.0332  0.1220  0.2869
   85TMC2     C 1326   3.550   4.677  15.756 -0.3176 -0.9313 -0.2445
   85TMC2     O 1327   3.662   4.641  15.780  0.4460  0.1169 -0.3992
   85TMC2     H 1328   3.327   0.084  15.736  0.3800 -0.0050  0.5175
   85TMC2    H1 1329   3.729   0.046  15.596 -1.2157 -1.3315  1.2040
   85TMC2    H2 1330   3.477   0.372  15.458 -0.2608  0.9678  1.6830
   85TMC2    C7 1331   3.705   0.216  15.404  0.1556  0.3430 -0.0378
   85TMC2    C8 1332   3.265   0.302  15.604 -0.1358 -0.3005 -0.0784
   85TMC2    O1 1333   3.789   0.123  15.393  0.5857  0.3354  0.7278
   85TMC2    O2 1334   3.165   0.241  15.643  0.1205 -0.0656  0.1471
   85TMC2    O5 1335   3.295   0.432  15.624 -0.3976 -0.7477  0.1754
   85TMC2    H5 1336   3.392   0.446  15.625 -0.8490  2.2949  0.7866
   86MPD2     C 1337   3.357   4.309  16.068 -0.3470 -0.6515  0.1781
   86MPD2    C1 1338   3.262   4.333  15.970 -0.0073 -0.2185  0.4050
   86MPD2    C2 1339   3.298   4.426  15.873 -0.2751  1.0319  0.2823
   86MPD2    C3 1340   3.419   4.500  15.880  0.1879  0.0937  0.6082
   86MPD2    C4 1341   3.516   4.463  15.969 -0.2525  0.0708 -0.3120
   86MPD2    C5 1342   3.479   4.369  16.064  0.3049  1.0243  0.4765
   86MPD2     H 1343   3.227   4.451  15.796  0.8917  1.3897 -0.6822
   86MPD2    H1 1344   3.612   4.510  15.985 -0.1794 -1.0347  2.4170
   86MPD2    H2 1345   3.334   4.247  16.153 -2.8806 -1.2702 -0.9672
   86MPD2    H3 1346   3.547   4.356  16.147  0.5007 -0.9165  0.0032
   86MPD2     N 1347   3.434   4.605  15.782 -0.4189  0.1989  0.8964
   86MPD2    H5 1348   3.352   4.631  15.728  0.0444 -0.6464 -0.2018
   86MPD2    N1 1349   3.138   4.260  15.956  0.0183  0.4379  0.2694
   86MPD2    H7 1350   3.090   4.259  15.866  0.5962  0.7314 -0.0461
   87TMC2    C1 1351   0.976   2.997   0.775  0.2534  0.5966 -0.1771
   87TMC2    C2 1352   1.051   3.062   0.876 -0.3647  0.0154  0.2038
   87TMC2    C3 1353   0.986   3.088   0.992  0.1795 -0.2007  0.2081
   87TMC2    C4 1354   0.845   2.965   0.792  0.3790  0.1590  0.0622
   87TMC2    C5 1355   0.786   3.010   0.910  0.2946 -0.0759 -0.2182
   87TMC2    C6 1356   0.853   3.072   1.011 -0.3822  0.0516 -0.1155
   87TMC2     C 1357   1.036   3.005   0.648 -0.0838 -0.8731 -0.1162
   87TMC2     O 1358   1.138   3.075   0.640 -0.2642  0.1302 -0.3079
   87TMC2     H 1359   1.158   3.079   0.868 -0.1238 -1.4161  0.3579
   87TMC2    H1 1360   0.791   2.907   0.718 -2.1813  1.1642  1.1330
   87TMC2    H2 1361   0.815   3.093   1.111  0.1988 -1.2675  0.3797
   87TMC2    C7 1362   0.650   2.956   0.930 -0.3511  1.1897  0.0081
   87TMC2    C8 1363   1.070   3.140   1.102 -0.1096  0.7307 -0.2127
   87TMC2    O1 1364   0.612   2.850   0.876 -0.3695  0.3873 -0.3853
   87TMC2    O2 1365   1.183   3.183   1.075  0.2067  0.4005  0.1308
   87TMC2    O5 1366   1.028   3.069   1.212  0.5264 -0.2440 -0.5367
   87TMC2    H5 1367   0.943   3.024   1.194 -0.9232  1.9954  0.8323
   88MPD2     C 1368   0.361   2.963   0.941  0.4802  0.0919 -0.3477
   88MPD2    C1 1369   0.440   3.072   0.958  0.4397  0.0416  0.2979
   88MPD2    C2 1370   0.383   3.197   0.967  0.3715 -0.0552  0.1683
   88MPD2    C3 1371   0.249   3.220   0.948 -0.4437 -0.0705 -0.2163
   88MPD2    C4 1372   0.165   3.104   0.947 -0.0852 -0.1948 -0.3683
   88MPD2    C5 1373   0.225   2.980   0.940 -0.6665  0.2910 -0.6109
   88MPD2     H 1374   0.452   3.278   0.988  0.4618  0.0651 -0.6150
   88MPD2    H1 1375   0.057   3.100   0.953 -0.0209  0.8276  1.8251
   88MPD2    H2 1376   0.404   2.864   0.953  1.4693  0.7761  1.6387
   88MPD2    H3 1377   0.154   2.898   0.931 -2.7161  2.0343 -0.4293
   88MPD2     N 1378   0.190   3.348   0.944  0.1097  0.0389  0.5410
   88MPD2    H5 1379   0.089   3.351   0.948  0.2034  0.0865  2.8485
   88MPD2    N1 1380   0.577   3.059   0.967  0.7547 -0.2029  0.3932
   88MPD2    H7 1381   0.623   3.149   0.967  0.0231  0.1795  2.8423
   89TMC2    C1 1382   1.611   1.382   1.714  0.4503 -0.0448  0.4503
   89TMC2    C2 1383   1.708   1.360   1.815 -0.7310  0.6766 -0.2255
   89TMC2    C3 1384   1.781   1.458   1.871  0.0797 -0.1381  0.0128
   89TMC2    C4 1385   1.591   1.509   1.679  0.1291  0.1692  0.5519
   89TMC2    C5 1386   1.679   1.608   1.724  0.6903 -0.6997 -0.1674
   89TMC2    C6 1387   1.774   1.583   1.817  0.3648  0.2121 -0.6807
   89TMC2     C 1388   1.513   1.280   1.676 -1.0653 -0.8575 -0.4284
   89TMC2     O 1389   1.405   1.329   1.647  0.6121 -0.0059 -0.5394
   89TMC2     H 1390   1.716   1.260   1.856  0.7156  0.3378 -1.3305
   89TMC2    H1 1391   1.543   1.517   1.582 -1.5172  1.7229  1.4924
   89TMC2    H2 1392   1.825   1.671   1.853 -1.7137  1.7017 -1.3900
   89TMC2    C7 1393   1.696   1.714   1.627  0.2942 -0.3459  0.0635
   89TMC2    C8 1394   1.910   1.423   1.926  0.3591 -0.4943 -0.2429
   89TMC2    O1 1395   1.803   1.766   1.611 -0.1708  0.1890  0.5632
   89TMC2    O2 1396   2.019   1.456   1.881  0.1224  0.1086 -0.2643
   89TMC2    O5 1397   1.884   1.332   2.021 -0.3138  0.1540 -0.5166
   89TMC2    H5 1398   1.788   1.323   2.040  0.0512 -1.1744  0.7816
   90MPD2     C 1399   1.371   0.817   1.507  0.8885 -0.2061  0.7716
   90MPD2    C1 1400   1.486   0.807   1.583 -0.7995 -1.1745  0.3879
   90MPD2    C2 1401   1.546   0.914   1.644 -0.0146 -0.2467  0.0929
   90MPD2    C3 1402   1.491   1.040   1.626  0.0463 -0.3023 -0.3903
   90MPD2    C4 1403   1.369   1.051   1.560  0.5043 -0.5086 -0.2917
   90MPD2    C5 1404   1.310   0.937   1.505 -0.3640  0.0984  0.4735
   90MPD2     H 1405   1.643   0.891   1.688 -0.2792  0.0816  0.8526
   90MPD2    H1 1406   1.308   1.141   1.554  0.7479 -0.3737 -0.7533
   90MPD2    H2 1407   1.329   0.733   1.453 -0.4496  0.9893 -0.0413
   90MPD2    H3 1408   1.226   0.945   1.437  1.1382  0.2988 -1.3590
   90MPD2     N 1409   1.561   1.148   1.673 -0.3768  0.3891 -0.3886
   90MPD2    H5 1410   1.654   1.132   1.710 -0.7924  1.0374  0.9663
   90MPD2    N1 1411   1.539   0.674   1.574 -0.4734 -0.4960  0.5740
   90MPD2    H7 1412   1.476   0.601   1.541  1.2536 -2.0735  0.7838
   91TMC2    C1 1413   2.991   0.652  16.705  0.0465  0.2720  0.0108
   91TMC2    C2 1414   3.001   0.597  16.826  0.3867 -0.0929 -0.2258
   91TMC2    C3 1415   2.887   0.549  16.886  0.1417 -0.5240 -0.0754
   91TMC2    C4 1416   2.869   0.654  16.641  0.3565  0.2402 -0.1016
   91TMC2    C5 1417   2.757   0.607  16.704  0.6149  0.3741 -0.6591
   91TMC2    C6 1418   2.765   0.549  16.831 -0.8317  0.3097 -0.6703
   91TMC2     C 1419   3.110   0.669  16.621  0.1580  0.6300  0.1106
   91TMC2     O 1420   3.099   0.685  16.501  0.4165  0.4327  0.4404
   91TMC2     H 1421   3.091   0.586  16.886 -0.0344 -0.1993  0.3821
   91TMC2    H1 1422   2.860   0.684  16.537  3.6484  0.2810 -0.3727
   91TMC2    H2 1423   2.688   0.486  16.874  1.6383 -2.2269  0.0245
   91TMC2    C7 1424   2.643   0.573  16.625  0.1074 -0.0126  0.0979
   91TMC2    C8 1425   2.903   0.487  17.018 -0.0458  0.3081 -0.3712
   91TMC2    O1 1426   2.567   0.486  16.669 -0.3051  0.1354 -0.3432
   91TMC2    O2 1427   2.808   0.479  17.093 -0.2580 -0.1131  0.3216
   91TMC2    O5 1428   2.987   0.384  16.993  0.0486 -0.0495  0.2293
   91TMC2    H5 1429   3.019   0.395  16.900 -0.8553 -2.8240 -0.4248
   92MPD2     C 1430   3.390   0.602  16.513 -0.0075 -0.6067  0.3910
   92MPD2    C1 1431   3.362   0.631  16.646  0.1278 -0.3718  0.4789
   92MPD2    C2 1432   3.456   0.604  16.742 -0.2217 -0.4911 -0.2475
   92MPD2    C3 1433   3.579   0.556  16.710  0.2175 -0.2296  0.1816
   92MPD2    C4 1434   3.610   0.525  16.580  0.1093 -0.2241  0.1225
   92MPD2    C5 1435   3.512   0.547  16.487  0.9692  0.4225  0.4836
   92MPD2     H 1436   3.424   0.631  16.843  2.4205 -1.9059  0.9548
   92MPD2    H1 1437   3.701   0.472  16.555  0.2408  0.2167 -0.3300
   92MPD2    H2 1438   3.326   0.615  16.427  0.6437  1.7000  0.2364
   92MPD2    H3 1439   3.540   0.517  16.387 -3.0864 -0.9211 -0.2159
   92MPD2     N 1440   3.680   0.552  16.820  0.2221 -0.0928 -0.3023
   92MPD2    H5 1441   3.651   0.598  16.905 -0.8031 -0.7779 -0.2829
   92MPD2    N1 1442   3.231   0.655  16.690 -0.1712  0.5435 -0.6743
   92MPD2    H7 1443   3.219   0.672  16.789  1.6721 -1.2398 -0.1508
   93TMC2    C1 1444   0.659   0.916  14.035  0.2994  0.2915  0.2474
   93TMC2    C2 1445   0.586   0.982  14.131 -0.0176  0.3113  0.0754
   93TMC2    C3 1446   0.646   1.068  14.213 -1.3564  0.3911  0.2111
   93TMC2    C4 1447   0.797   0.934  14.025  0.4289 -0.4209 -0.1111
   93TMC2    C5 1448   0.856   1.023  14.109 -0.0647  0.2351 -0.8329
   93TMC2    C6 1449   0.783   1.097  14.200  0.1370 -0.3260  0.2932
   93TMC2     C 1450   0.604   0.818  13.949 -0.3767  0.0270 -0.3437
   93TMC2     O 1451   0.682   0.751  13.885  0.5969 -0.2010  0.4838
   93TMC2     H 1452   0.484   0.948  14.147 -0.0564  0.4738  0.1673
   93TMC2    H1 1453   0.863   0.866  13.972  0.0265 -0.7291 -0.2144
   93TMC2    H2 1454   0.828   1.173  14.263  0.2379  0.6162 -0.9090
   93TMC2    C7 1455   0.998   1.057  14.101  0.5776  0.2808 -0.4902
   93TMC2    C8 1456   0.567   1.143  14.315  0.1746 -0.0272 -0.6302
   93TMC2    O1 1457   1.044   1.131  14.189  0.2289  0.4379  0.0922
   93TMC2    O2 1458   0.448   1.121  14.305 -0.5869  0.0909 -0.2531
   93TMC2    O5 1459   0.641   1.138  14.427  0.3325  0.6398  0.2291
   93TMC2    H5 1460   0.738   1.147  14.425  0.4581  0.0047  2.6009
   94MPD2     C 1461   0.442   0.611  13.799 -0.0201 -0.3704 -0.3916
   94MPD2    C1 1462   0.390   0.713  13.868  0.0543 -0.3255  0.1681
   94MPD2    C2 1463   0.250   0.723  13.868 -0.5026  0.1104  0.0192
   94MPD2    C3 1464   0.168   0.642  13.796  0.4284 -0.0648 -0.3298
   94MPD2    C4 1465   0.223   0.533  13.732  0.6670 -0.6529 -0.4396
   94MPD2    C5 1466   0.362   0.515  13.740 -0.2575  0.0607 -0.0944
   94MPD2     H 1467   0.217   0.803  13.934 -1.9950 -0.1350 -0.4253
   94MPD2    H1 1468   0.152   0.468  13.683 -0.1721 -1.2315  1.5480
   94MPD2    H2 1469   0.547   0.612  13.771 -0.8715  0.8193 -3.5948
   94MPD2    H3 1470   0.404   0.425  13.698  0.9920  1.7006 -2.3476
   94MPD2     N 1471   0.028   0.678  13.779 -0.0499 -0.0821 -0.0143
   94MPD2    H5 1472   4.716   0.619  13.714  0.9877 -2.1794  1.0853
   94MPD2    N1 1473   0.463   0.814  13.945 -0.2889  0.3078  0.0133
   94MPD2    H7 1474   0.411   0.877  14.005 -0.0573 -0.5785  1.1423
   95TMC2    C1 1475   0.152   2.521  15.576  0.7754  0.2966  0.1967
   95TMC2    C2 1476   0.018   2.516  15.550  0.4662  0.2490 -0.1397
   95TMC2    C3 1477   4.712   2.388  15.545 -0.0728 -0.4135 -0.0778
   95TMC2    C4 1478   0.237   2.418  15.595 -0.3809 -0.0121  0.3184
   95TMC2    C5 1479   0.181   2.298  15.583  0.4615 -0.4768 -0.0586
   95TMC2    C6 1480   0.052   2.272  15.559 -1.0798  0.0252 -0.3259
   95TMC2     C 1481   0.195   2.654  15.605 -0.2787 -0.8100 -0.4691
   95TMC2     O 1482   0.106   2.735  15.623  0.0438 -0.5458 -0.2420
   95TMC2     H 1483   4.701   2.605  15.526  0.7247  0.0361 -1.5222
   95TMC2    H1 1484   0.343   2.434  15.615 -0.1076 -0.1208 -1.0695
   95TMC2    H2 1485   0.011   2.172  15.557 -2.2481  0.5060 -0.0897
   95TMC2    C7 1486   0.269   2.185  15.585  0.4033  0.0593 -0.5469
   95TMC2    C8 1487   4.571   2.355  15.531  0.5743  0.2223 -0.0359
   95TMC2    O1 1488   0.381   2.189  15.637  0.0329 -0.2188  0.3296
   95TMC2    O2 1489   4.530   2.256  15.475  0.4328  0.9367  0.1237
   95TMC2    O5 1490   4.498   2.453  15.593 -0.1849 -0.1026 -0.0283
   95TMC2    H5 1491   4.549   2.519  15.644  0.0007 -0.6860  0.5460
   96MPD2     C 1492   0.522   2.996  15.769 -0.1438  0.7467  0.2165
   96MPD2    C1 1493   0.595   2.902  15.692  0.2858 -0.4961 -0.4887
   96MPD2    C2 1494   0.525   2.798  15.634  0.3440 -0.1449 -0.4172
   96MPD2    C3 1495   0.389   2.781  15.662 -0.5968 -0.1887 -0.2277
   96MPD2    C4 1496   0.328   2.864  15.751  0.1524 -0.1567  0.2116
   96MPD2    C5 1497   0.391   2.976  15.805 -0.2704 -0.1421 -0.5355
   96MPD2     H 1498   0.587   2.728  15.580  0.9701 -0.0560  0.1791
   96MPD2    H1 1499   0.224   2.853  15.781  0.6306 -2.6862  0.9369
   96MPD2    H2 1500   0.568   3.077  15.824 -0.2010  0.0697  1.2702
   96MPD2    H3 1501   0.338   3.047  15.867 -0.1718 -1.6479  1.2685
   96MPD2     N 1502   0.332   2.673  15.603 -0.2400  0.2208 -0.1146
   96MPD2    H5 1503   0.390   2.604  15.556  1.2462  0.3394  1.5651
   96MPD2    N1 1504   0.731   2.925  15.673 -0.0400  0.2973  0.0558
   96MPD2    H7 1505   0.773   3.010  15.711 -0.9820  0.2421  1.2152
   97TMC2    C1 1506   2.514   0.723   0.074 -0.5812  1.4823 -0.4237
   97TMC2    C2 1507   2.423   0.716   0.177  0.2278  0.4792  0.1471
   97TMC2    C3 1508   2.373   0.835   0.219 -0.1070  0.6032  0.3351
   97TMC2    C4 1509   2.552   0.834   0.006 -0.4640  0.2627 -0.3534
   97TMC2    C5 1510   2.474   0.943   0.028 -0.7401  0.9679  0.2812
   97TMC2    C6 1511   2.395   0.950   0.146 -0.1434  0.3731 -0.2064
   97TMC2     C 1512   2.570   0.597   0.026  0.1874  0.2143  0.2048
   97TMC2     O 1513   2.623   0.526   0.107 -0.7352  0.2214  0.0567
   97TMC2     H 1514   2.381   0.623   0.211  1.4074  0.7612  2.3861
   97TMC2    H1 1515   2.630   0.823  17.687 -1.2726  0.0087 -1.1805
   97TMC2    H2 1516   2.351   1.037   0.192  0.0649  0.5256 -0.2972
   97TMC2    C7 1517   2.528   1.065  17.724  0.4324 -0.7831  0.0042
   97TMC2    C8 1518   2.299   0.846   0.341  0.0023  0.4274  0.1385
   97TMC2    O1 1519   2.641   1.065  17.678  0.0341 -1.0157 -0.1802
   97TMC2    O2 1520   2.212   0.930   0.360 -0.2605  0.2188 -0.2659
   97TMC2    O5 1521   2.368   0.765   0.429  0.6854 -0.2501  0.3771
   97TMC2    H5 1522   2.464   0.772   0.408  0.4335 -1.7435 -1.2806
   98MPD2     C 1523   2.644   0.247  17.426  0.0647  0.2005  1.0460
   98MPD2    C1 1524   2.703   0.261  17.544  0.4827 -0.1116 -0.1064
   98MPD2    C2 1525   2.682   0.377  17.621 -0.3385  0.6706 -0.0643
   98MPD2    C3 1526   2.598   0.473  17.566  0.2775 -0.0968 -0.5788
   98MPD2    C4 1527   2.557   0.460  17.440 -0.1821  0.8034  0.5463
   98MPD2    C5 1528   2.576   0.346  17.368  1.1346  0.1919  0.3465
   98MPD2     H 1529   2.735   0.386  17.715  1.4517 -1.3666 -0.8752
   98MPD2    H1 1530   2.488   0.532  17.396  0.1958 -0.2439 -1.7770
   98MPD2    H2 1531   2.663   0.162  17.361 -1.2034 -0.2895  1.3016
   98MPD2    H3 1532   2.538   0.346  17.267 -2.0950  1.0672  1.5277
   98MPD2     N 1533   2.557   0.584  17.645 -0.4459  0.8853  0.6520
   98MPD2    H5 1534   2.494   0.650  17.601 -0.7823 -0.9330 -1.6144
   98MPD2    N1 1535   2.798   0.157  17.585  0.5821  0.0168 -0.1046
   98MPD2    H7 1536   2.809   0.077  17.525  0.0054 -1.0070  1.1468
   99TMC2    C1 1537   1.572   2.541   1.085  0.0571 -0.3385 -0.2433
   99TMC2    C2 1538   1.689   2.579   1.135 -0.3697 -0.2340  0.8098
   99TMC2    C3 1539   1.691   2.566   1.278  0.7798  0.5886 -0.4537
   99TMC2    C4 1540   1.467   2.502   1.160  0.2755 -0.4031 -0.7890
   99TMC2    C5 1541   1.472   2.513   1.295  0.6092  0.1385  0.6953
   99TMC2    C6 1542   1.591   2.528   1.359 -0.2587  0.8508  0.3476
   99TMC2     C 1543   1.572   2.515   0.940  0.1195  0.4709  0.7898
   99TMC2     O 1544   1.649   2.579   0.871 -0.0077  0.5563 -0.6659
   99TMC2     H 1545   1.774   2.610   1.076  0.6415  0.4368  2.6193
   99TMC2    H1 1546   1.377   2.485   1.102 -0.3562 -2.2378  0.7303
   99TMC2    H2 1547   1.610   2.501   1.462 -0.8999  0.7584  0.4389
   99TMC2    C7 1548   1.359   2.462   1.381  0.7553  0.6442 -0.1448
   99TMC2    C8 1549   1.822   2.573   1.336  0.4580 -0.0133 -0.9226
   99TMC2    O1 1550   1.367   2.467   1.504  0.1699  0.7177  0.7239
   99TMC2    O2 1551   1.855   2.506   1.438  0.3211 -1.0093 -0.0510
   99TMC2    O5 1552   1.874   2.688   1.304  0.4325 -0.1917  0.0098
   99TMC2    H5 1553   1.818   2.726   1.233  0.5309 -1.5391 -0.7748
  100MPD2     C 1554   1.567   2.392   0.672 -0.2786 -0.4066 -0.5700
  100MPD2    C1 1555   1.522   2.333   0.789  0.2713 -0.7872  0.2416
  100MPD2    C2 1556   1.499   2.195   0.780 -0.1152  0.6933  0.4687
  100MPD2    C3 1557   1.509   2.125   0.662 -0.1610  0.6170  0.6277
  100MPD2    C4 1558   1.534   2.197   0.546 -0.3111 -0.6998 -0.3947
  100MPD2    C5 1559   1.565   2.328   0.551  0.4977 -0.1380 -0.1767
  100MPD2     H 1560   1.470   2.149   0.874 -2.0065 -0.6188 -0.7544
  100MPD2    H1 1561   1.555   2.155   0.448  1.5348  1.9177 -1.1285
  100MPD2    H2 1562   1.600   2.495   0.672 -0.7332 -0.2473  0.9570
  100MPD2    H3 1563   1.604   2.380   0.464  0.0340 -1.3785 -1.1243
  100MPD2     N 1564   1.486   1.984   0.667 -0.1251  0.2483  0.0855
  100MPD2    H5 1565   1.461   1.946   0.758  1.2317 -0.5886  0.1053
  100MPD2    N1 1566   1.510   2.397   0.912 -0.0610 -0.7095  0.5390
  100MPD2    H7 1567   1.471   2.342   0.988  0.4783 -0.5627  0.9158
  101TMC2    C1 1568   1.742   3.218  12.617  0.8034  0.2538 -0.5621
  101TMC2    C2 1569   1.633   3.168  12.552  0.2202 -0.6506 -0.5626
  101TMC2    C3 1570   1.592   3.244  12.448  0.0392 -0.2081 -0.4319
  101TMC2    C4 1571   1.793   3.345  12.588  0.0954 -0.0768  0.7604
  101TMC2    C5 1572   1.746   3.420  12.487  0.0304 -0.3597  0.2921
  101TMC2    C6 1573   1.642   3.370  12.410 -0.2509  0.4753  0.0645
  101TMC2     C 1574   1.806   3.132  12.719  0.4260 -0.2706 -0.4304
  101TMC2     O 1575   1.737   3.051  12.783 -0.3767  0.1995  0.2463
  101TMC2     H 1576   1.593   3.070  12.579 -2.2453 -0.7852 -4.7796
  101TMC2    H1 1577   1.874   3.366  12.658 -0.3487 -1.0915  1.5786
  101TMC2    H2 1578   1.603   3.422  12.324 -2.6846 -0.0370  0.8346
  101TMC2    C7 1579   1.803   3.548  12.466 -0.5927  0.1122  0.8039
  101TMC2    C8 1580   1.471   3.210  12.382 -0.1949  0.0722  0.4581
  101TMC2    O1 1581   1.745   3.612  12.380  0.4306 -0.0690 -0.0785
  101TMC2    O2 1582   1.447   3.214  12.262  0.1144  0.3199  0.0059
  101TMC2    O5 1583   1.376   3.171  12.471 -0.0352  0.4323  0.0753
  101TMC2    H5 1584   1.399   3.180  12.566 -1.1326 -0.5694  0.4339
  102MPD2     C 1585   2.163   3.106  12.805  0.0349  0.8927  0.2850
  102MPD2    C1 1586   2.026   3.083  12.823 -0.5527  0.3420  0.4772
  102MPD2    C2 1587   1.986   2.989  12.913  0.8134 -0.1506  0.0357
  102MPD2    C3 1588   2.073   2.919  12.987 -0.4421 -0.3649 -0.3417
  102MPD2    C4 1589   2.211   2.932  12.970  0.1431 -0.2408 -0.4677
  102MPD2    C5 1590   2.256   3.028  12.881  0.9577  0.7394  0.3438
  102MPD2     H 1591   1.883   2.958  12.922  1.2620 -2.1039 -1.4022
  102MPD2    H1 1592   2.275   2.862  13.021 -2.0022 -0.7491  1.5201
  102MPD2    H2 1593   2.198   3.183  12.737 -0.7296  2.2464  1.4230
  102MPD2    H3 1594   2.364   3.037  12.869  0.9582  2.5966  1.7308
  102MPD2     N 1595   2.015   2.807  13.067 -0.0000 -0.2853  0.2697
  102MPD2    H5 1596   1.916   2.802  13.044 -0.3926  0.9856  1.6804
  102MPD2    N1 1597   1.941   3.153  12.736  0.2041  0.0131 -0.3619
  102MPD2    H7 1598   1.986   3.210  12.665  1.6294 -0.9643 -0.2455
  103TMC2    C1 1599   4.433   3.289  12.591  0.6244 -0.0966  0.0820
  103TMC2    C2 1600   4.391   3.422  12.583  0.2190 -0.1070  0.5844
  103TMC2    C3 1601   4.466   3.503  12.655  0.2868 -0.7155  0.5758
  103TMC2    C4 1602   4.538   3.248  12.674  0.4063 -0.0914  1.1025
  103TMC2    C5 1603   4.602   3.346  12.751  1.2369 -1.1551  0.1762
  103TMC2    C6 1604   4.571   3.475  12.743 -0.5961 -0.2065 -0.5871
  103TMC2     C 1605   4.370   3.196  12.497 -0.2813 -0.9328 -0.3605
  103TMC2     O 1606   4.259   3.228  12.452 -0.2440  0.1663  0.3332
  103TMC2     H 1607   4.307   3.456  12.525  0.9712  0.7955  0.0226
  103TMC2    H1 1608   4.566   3.145  12.687  1.3556 -0.0576 -0.6523
  103TMC2    H2 1609   4.612   3.551  12.809 -1.8428  0.7151 -0.8524
  103TMC2    C7 1610   4.687   3.292  12.856  0.5065 -0.1052 -0.5267
  103TMC2    C8 1611   4.427   3.646  12.631 -0.4940  1.0475 -0.1494
  103TMC2    O1 1612   4.697   3.172  12.883 -0.0165  0.5456 -0.3861
  103TMC2    O2 1613   4.403   3.675  12.516 -0.3132 -0.2527 -0.1348
  103TMC2    O5 1614   4.471   3.731  12.726 -0.8643  0.2284  0.3548
  103TMC2    H5 1615   4.478   3.678  12.808  2.0249 -0.8592 -0.5901
  104MPD2     C 1616   4.518   2.879  12.401  0.0021 -0.0021 -0.3259
  104MPD2    C1 1617   4.440   2.984  12.394 -0.4899  1.0021  0.0327
  104MPD2    C2 1618   4.334   2.978  12.298  0.2073  0.1313  0.1414
  104MPD2    C3 1619   4.309   2.864  12.223 -0.8509  0.0730  0.3068
  104MPD2    C4 1620   4.391   2.755  12.234  0.0066 -0.3827 -0.6265
  104MPD2    C5 1621   4.499   2.767  12.320  0.1975 -0.6888  0.3428
  104MPD2     H 1622   4.282   3.071  12.280  0.1233 -0.2159 -1.4244
  104MPD2    H1 1623   4.391   2.668  12.170  1.0890 -1.5050  0.9135
  104MPD2    H2 1624   4.604   2.882  12.467  0.8535  1.6152 -1.5065
  104MPD2    H3 1625   4.575   2.690  12.326 -0.0978 -0.9662  0.5488
  104MPD2     N 1626   4.214   2.876  12.123 -0.2465  0.4504 -0.7174
  104MPD2    H5 1627   4.169   2.967  12.115  0.5011  0.8358 -0.5337
  104MPD2    N1 1628   4.457   3.096  12.473 -0.3834  0.1534 -0.0200
  104MPD2    H7 1629   4.544   3.089  12.525  0.0168  2.3584 -0.3926
  105TMC2    C1 1630   1.010   2.277  17.640  0.5912  0.2244  0.4191
  105TMC2    C2 1631   0.970   2.195  17.741 -0.2180 -0.3835 -0.1581
  105TMC2    C3 1632   1.000   2.239   0.115 -0.1725  0.0511  0.1574
  105TMC2    C4 1633   1.059   2.401  17.658 -0.3939  0.7819 -0.0492
  105TMC2    C5 1634   1.074   2.445   0.033 -0.5723  0.2116 -0.9043
  105TMC2    C6 1635   1.043   2.360   0.139  0.2011 -1.0396 -0.0076
  105TMC2     C 1636   1.031   2.207  17.517  0.9304 -0.2562  0.2880
  105TMC2     O 1637   0.992   2.091  17.508  0.9634  0.2761 -0.3676
  105TMC2     H 1638   0.904   2.110  17.733 -1.5432  0.5318  0.9901
  105TMC2    H1 1639   1.093   2.464  17.577 -0.6571 -2.1198 -2.3911
  105TMC2    H2 1640   1.044   2.395   0.241  1.2692 -0.3246 -0.2665
  105TMC2    C7 1641   1.079   2.585   0.055 -1.0593 -0.6798  0.2427
  105TMC2    C8 1642   0.962   2.154   0.222  0.2532 -0.1505 -0.3575
  105TMC2    O1 1643   1.135   2.656  17.724 -0.8070 -0.2199  0.2301
  105TMC2    O2 1644   0.871   2.075   0.223 -0.0149  0.3990 -0.3265
  105TMC2    O5 1645   1.030   2.183   0.333 -0.0527  0.6053  0.2850
  105TMC2    H5 1646   1.117   2.225   0.318 -1.0319  2.7649  0.6738
  106MPD2     C 1647   1.346   2.127  17.124  1.1680  0.2806 -0.7657
  106MPD2    C1 1648   1.343   2.260  17.160  0.8553 -0.3755 -0.4627
  106MPD2    C2 1649   1.267   2.300  17.264 -0.4335 -0.0184 -0.2631
  106MPD2    C3 1650   1.182   2.218  17.326 -0.4777 -0.3021  0.5810
  106MPD2    C4 1651   1.191   2.080  17.294  0.2950 -0.1649  0.3223
  106MPD2    C5 1652   1.268   2.040  17.191 -0.0435 -0.3983  0.0434
  106MPD2     H 1653   1.265   2.404  17.296 -0.5878  0.1365 -0.7769
  106MPD2    H1 1654   1.112   2.014  17.328  0.3927 -0.4749 -0.0493
  106MPD2    H2 1655   1.383   2.095  17.028 -2.0997  1.6734 -2.4898
  106MPD2    H3 1656   1.245   1.940  17.156  2.2748 -0.9316  0.0044
  106MPD2     N 1657   1.108   2.274  17.424 -0.2101 -0.1261 -0.1097
  106MPD2    H5 1658   1.121   2.373  17.441  2.1375 -0.5437  0.5442
  106MPD2    N1 1659   1.424   2.354  17.088 -0.6738  0.0890 -0.0659
  106MPD2    H7 1660   1.405   2.452  17.104 -2.4242 -0.7176  2.8138
  107TMC2    C1 1661   1.955   2.250  11.403  0.8873 -0.1307  0.2893
  107TMC2    C2 1662   1.975   2.388  11.387 -0.4779 -0.1258  0.7045
  107TMC2    C3 1663   2.104   2.437  11.391 -0.5240  0.0156  0.1756
  107TMC2    C4 1664   2.060   2.167  11.424 -0.1759 -0.4269 -0.4208
  107TMC2    C5 1665   2.187   2.217  11.428  0.7982  0.2104 -0.5873
  107TMC2    C6 1666   2.209   2.353  11.420 -0.3503 -0.3174  0.7606
  107TMC2     C 1667   1.824   2.201  11.439 -0.0899 -0.1812  0.0496
  107TMC2     O 1668   1.829   2.102  11.511 -0.1140  0.4067  0.1440
  107TMC2     H 1669   1.892   2.453  11.362  1.0154  1.4421 -0.2143
  107TMC2    H1 1670   2.037   2.062  11.436  1.0489 -0.8060 -1.3802
  107TMC2    H2 1671   2.307   2.399  11.431  0.6010 -1.9718 -0.9509
  107TMC2    C7 1672   2.302   2.126  11.405 -0.1383 -0.3804 -0.4553
  107TMC2    C8 1673   2.126   2.582  11.401  0.8121  0.2399  0.4185
  107TMC2    O1 1674   2.396   2.188  11.358  0.5796 -0.7812  0.0912
  107TMC2    O2 1675   2.215   2.646  11.343  0.3614 -0.3633  0.1065
  107TMC2    O5 1676   2.064   2.619  11.517 -0.0202  0.1607  0.4814
  107TMC2    H5 1677   2.002   2.550  11.550  0.2052  0.3675  1.3592
  108MPD2     C 1678   1.483   2.271  11.332  0.4528 -0.4225 -0.4607
  108MPD2    C1 1679   1.585   2.233  11.420 -0.9266 -0.7551  0.3465
  108MPD2    C2 1680   1.553   2.170  11.543  0.0380  0.9300 -0.1046
  108MPD2    C3 1681   1.415   2.143  11.571  0.3955 -0.6505  1.0780
  108MPD2    C4 1682   1.323   2.183  11.484 -0.3877 -0.0588 -0.0266
  108MPD2    C5 1683   1.357   2.243  11.362 -0.1960  0.7309  0.1050
  108MPD2     H 1684   1.632   2.155  11.614 -0.0566 -2.1091 -0.6311
  108MPD2    H1 1685   1.218   2.174  11.506  0.0639  0.1500  2.1824
  108MPD2    H2 1686   1.508   2.326  11.241  1.6522 -1.0213 -0.4923
  108MPD2    H3 1687   1.279   2.274  11.293  0.0261  0.0099 -0.4695
  108MPD2     N 1688   1.365   2.084  11.687  0.0120 -0.4677  0.2928
  108MPD2    H5 1689   1.267   2.088  11.715  0.8032 -2.2421  3.3339
  108MPD2    N1 1690   1.716   2.269  11.382  0.2739 -0.1477  0.0417
  108MPD2    H7 1691   1.722   2.322  11.296  1.8069 -0.5059 -0.0859
  109TMC2    C1 1692   2.069   4.250   0.330  0.1161 -0.4659  0.2053
  109TMC2    C2 1693   2.031   4.164   0.231 -0.5002 -1.2694  0.4589
  109TMC2    C3 1694   2.139   4.081   0.188 -0.1025  0.1090  0.7370
  109TMC2    C4 1695   2.196   4.278   0.370 -0.2552  0.3771 -0.3335
  109TMC2    C5 1696   2.295   4.199   0.325 -0.0408  1.1458  0.2650
  109TMC2    C6 1697   2.267   4.095   0.235  0.0620  0.2666  0.1682
  109TMC2     C 1698   1.962   4.321   0.384 -0.2697  0.1015 -0.2564
  109TMC2     O 1699   1.858   4.331   0.315 -0.0973  0.7746  0.1288
  109TMC2     H 1700   1.930   4.133   0.208 -1.5643  1.7642  1.1889
  109TMC2    H1 1701   2.219   4.371   0.420 -0.1446 -0.2530  0.7948
  109TMC2    H2 1702   2.344   4.033   0.191  1.3701  0.8461  1.6354
  109TMC2    C7 1703   2.430   4.249   0.322 -0.0520  0.7471  0.1768
  109TMC2    C8 1704   2.101   3.952   0.145 -0.3016 -0.1897 -0.4367
  109TMC2    O1 1705   2.487   4.234   0.215 -0.2147 -0.1311 -0.0115
  109TMC2    O2 1706   2.183   3.860   0.149 -0.7472  0.5513  0.3749
  109TMC2    O5 1707   2.025   3.965   0.031 -0.6208 -0.7246 -0.3287
  109TMC2    H5 1708   1.975   4.049   0.034  2.6692  1.1469  2.7138
  110MPD2     C 1709   1.724   4.554   0.778 -0.1628 -0.2528 -0.0719
  110MPD2    C1 1710   1.855   4.536   0.820 -0.1816 -0.3306 -0.8864
  110MPD2    C2 1711   1.943   4.481   0.728 -0.6683  0.6312 -0.1633
  110MPD2    C3 1712   1.895   4.438   0.603 -0.2786  0.1887  0.3574
  110MPD2    C4 1713   1.768   4.461   0.566  0.1491 -0.0012 -0.3770
  110MPD2    C5 1714   1.682   4.521   0.650 -0.4849 -0.6326 -0.4358
  110MPD2     H 1715   2.040   4.434   0.743 -0.7974 -0.2844 -2.2338
  110MPD2    H1 1716   1.726   4.437   0.469  2.5398  0.8716 -1.6197
  110MPD2    H2 1717   1.649   4.586   0.850 -0.7348 -0.4369 -0.5830
  110MPD2    H3 1718   1.578   4.527   0.622 -1.1053  0.8876  2.2029
  110MPD2     N 1719   1.989   4.366   0.517 -0.1160 -0.2203 -0.2607
  110MPD2    H5 1720   2.079   4.347   0.559 -1.1667  0.8681  2.4858
  110MPD2    N1 1721   1.881   4.550   0.957 -1.1081 -0.0895  0.6061
  110MPD2    H7 1722   1.796   4.567   1.010 -0.8133 -1.1841  1.4275
  111TMC2    C1 1723   1.672   4.157  11.102  0.8860 -0.5578  0.0786
  111TMC2    C2 1724   1.682   4.025  11.059 -0.2761 -0.1995  0.0453
  111TMC2    C3 1725   1.756   3.940  11.123  0.1379 -0.0006  0.6155
  111TMC2    C4 1726   1.757   4.205  11.198  0.6539  0.1224 -0.9206
  111TMC2    C5 1727   1.839   4.109  11.258  0.7065 -0.9223  0.9929
  111TMC2    C6 1728   1.833   3.979  11.226 -0.3928  0.7913 -0.1079
  111TMC2     C 1729   1.585   4.250  11.029 -0.0916  0.5359 -0.3070
  111TMC2     O 1730   1.485   4.201  10.976  0.0099  0.1085  0.4455
  111TMC2     H 1731   1.604   3.989  10.992 -0.6711  3.2039 -1.2776
  111TMC2    H1 1732   1.750   4.307  11.234  0.2000 -0.9682  2.0354
  111TMC2    H2 1733   1.887   3.907  11.287  0.2120  1.1171 -0.2565
  111TMC2    C7 1734   1.922   4.149  11.369 -0.1712  0.4176  0.1050
  111TMC2    C8 1735   1.685   3.815  11.136 -0.8940  0.5469  1.0318
  111TMC2    O1 1736   1.966   4.062  11.438  0.1463 -0.4428 -0.4095
  111TMC2    O2 1737   1.572   3.803  11.174  0.1362 -0.4692 -0.0202
  111TMC2    O5 1738   1.730   3.757  11.023  0.0284 -0.5154 -0.0518
  111TMC2    H5 1739   1.821   3.783  10.997  0.4548 -0.8592  1.1157
  112MPD2     C 1740   1.408   4.689  10.862 -0.4187 -0.2479 -0.4388
  112MPD2    C1 1741   1.339   4.569  10.889 -0.1541  0.1755 -0.1715
  112MPD2    C2 1742   1.411   4.473  10.958 -0.3963 -0.4755  0.3073
  112MPD2    C3 1743   1.546   4.491  10.984 -0.7376  0.1645 -0.8452
  112MPD2    C4 1744   1.608   4.608  10.955 -0.5503 -0.1369  0.2836
  112MPD2    C5 1745   1.542   4.706  10.897 -0.3015  0.1461 -0.1825
  112MPD2     H 1746   1.363   4.380  10.987 -1.1395  0.1808  1.1736
  112MPD2    H1 1747   1.716   4.614  10.965 -0.4455  1.0644 -1.4842
  112MPD2    H2 1748   1.356   0.030  10.812 -3.3904 -0.9688  1.4881
  112MPD2    H3 1749   1.602   0.051  10.863  0.0206 -0.6705 -1.6392
  112MPD2     N 1750   1.630   4.384  11.027  0.3104 -0.1501 -0.2351
  112MPD2    H5 1751   1.729   4.394  11.047  0.2510  0.7033 -0.3394
  112MPD2    N1 1752   1.208   4.535  10.849 -0.5323  0.2241 -0.0872
  112MPD2    H7 1753   1.169   4.448  10.882  1.8150 -0.1407  1.7310
  113TMC2    C1 1754   4.675   2.054   0.426 -0.6913 -0.3112  0.4839
  113TMC2    C2 1755   4.571   2.126   0.368 -0.3395 -0.2256  0.1487
  113TMC2    C3 1756   4.482   2.055   0.285  0.1535 -0.1262 -0.6523
  113TMC2    C4 1757   4.675   1.914   0.417 -0.4019 -0.2411  0.0501
  113TMC2    C5 1758   4.574   1.847   0.355  0.0300 -0.2154  0.3177
  113TMC2    C6 1759   4.485   1.918   0.278  0.2893 -0.2933 -0.1453
  113TMC2     C 1760   0.058   2.119   0.474  0.2136  0.0679  0.4783
  113TMC2     O 1761   0.045   2.237   0.508  0.5938 -0.8673 -0.4661
  113TMC2     H 1762   4.573   2.234   0.364 -3.0322 -0.1497  1.1211
  113TMC2    H1 1763   0.017   1.864   0.468 -0.0733  0.1529 -0.0876
  113TMC2    H2 1764   4.403   1.868   0.228  0.2367  0.4750 -0.8122
  113TMC2    C7 1765   4.569   1.704   0.350 -0.8429  0.5666 -0.7490
  113TMC2    C8 1766   4.398   2.111   0.187  0.0056 -0.0323  0.3952
  113TMC2    O1 1767   4.521   1.644   0.251  0.1318 -0.0865 -0.0807
  113TMC2    O2 1768   4.377   2.054   0.081 -0.5860  0.0477  0.0829
  113TMC2    O5 1769   4.306   2.183   0.252  0.5042 -0.1196  0.5064
  113TMC2    H5 1770   4.335   2.211   0.341 -0.4400 -1.2209  1.1763
  114MPD2     C 1771   0.571   2.195   0.498 -0.3279 -0.2798  0.4653
  114MPD2    C1 1772   0.474   2.249   0.577 -0.1940 -0.3458  0.2397
  114MPD2    C2 1773   0.340   2.205   0.567  0.0238 -0.1947  0.2909
  114MPD2    C3 1774   0.308   2.107   0.471 -0.2729  0.2749 -0.8852
  114MPD2    C4 1775   0.416   2.059   0.392 -0.1370 -0.4699 -0.5003
  114MPD2    C5 1776   0.545   2.092   0.413  0.1933  0.7475  0.2614
  114MPD2     H 1777   0.268   2.230   0.644 -0.2647 -1.9435  0.5937
  114MPD2    H1 1778   0.411   1.994   0.306  2.3577 -3.4230  1.5787
  114MPD2    H2 1779   0.674   2.226   0.505 -0.2868 -0.2522 -0.1903
  114MPD2    H3 1780   0.623   2.046   0.354 -1.4003  0.2273 -1.4453
  114MPD2     N 1781   0.177   2.052   0.442 -0.6562 -0.2439  0.3080
  114MPD2    H5 1782   0.167   1.990   0.362  1.5194 -0.7060  0.4028
  114MPD2    N1 1783   0.493   2.352   0.670 -0.0769  0.0607  0.0148
  114MPD2    H7 1784   0.408   2.392   0.709  0.2038  1.5913 -0.9482
  115TMC2    C1 1785   1.421   4.321  17.714  0.6155  0.1660 -0.5762
  115TMC2    C2 1786   1.508   4.218  17.726  0.6816 -0.3705  0.0423
  115TMC2    C3 1787   1.644   4.244  17.742  0.5918  0.4149 -0.0080
  115TMC2    C4 1788   1.460   4.453  17.731 -0.5030 -0.1833  0.1747
  115TMC2    C5 1789   1.591   4.477  17.754 -0.2773 -0.4032  0.7524
  115TMC2    C6 1790   1.685   4.374   0.008  0.1730 -0.6292 -0.0443
  115TMC2     C 1791   1.297   4.285  17.648  0.8102 -0.2645  0.5977
  115TMC2     O 1792   1.275   4.165  17.654  0.2471 -0.5516 -0.7011
  115TMC2     H 1793   1.471   4.117  17.718  1.2681 -0.6940  1.4021
  115TMC2    H1 1794   1.391   4.537  17.733 -2.7598 -2.0877  1.7486
  115TMC2    H2 1795   1.792   4.390   0.018  0.4983 -3.4624  1.0561
  115TMC2    C7 1796   1.644   4.619   0.009  0.1413 -0.0366  0.5009
  115TMC2    C8 1797   1.750   4.155  17.699  0.7241  0.4872  0.1529
  115TMC2    O1 1798   1.757   4.634   0.063  0.3801 -0.0364 -0.1411
  115TMC2    O2 1799   1.871   4.157  17.736 -0.5773  0.1621 -0.1388
  115TMC2    O5 1800   1.686   4.053  17.640 -0.0169 -0.1747  0.1138
  115TMC2    H5 1801   1.612   4.073  17.579  1.5548 -1.0834 -2.0951
  116MPD2     C 1802   0.863   4.375  17.389  0.1598 -1.0137  0.3921
  116MPD2    C1 1803   0.929   4.260  17.424 -0.0889 -0.3615 -0.0982
  116MPD2    C2 1804   1.048   4.256  17.494 -0.6877  0.5841  0.0282
  116MPD2    C3 1805   1.101   4.374  17.530  0.2607  0.4681  0.5644
  116MPD2    C4 1806   1.032   4.495  17.505  0.1769 -1.0342  0.3303
  116MPD2    C5 1807   0.913   4.498  17.425  0.3554  0.8966  0.8516
  116MPD2     H 1808   1.101   4.162  17.510  0.5541  0.9694 -1.7818
  116MPD2    H1 1809   1.085   4.581  17.544  1.5950 -1.8102  0.1316
  116MPD2    H2 1810   0.777   4.379  17.324 -2.5730  0.7208  4.1188
  116MPD2    H3 1811   0.874   4.597  17.409  0.1219  0.6920  0.1468
  116MPD2     N 1812   1.230   4.384  17.585  0.2464  0.1373  0.0354
  116MPD2    H5 1813   1.275   4.475  17.580 -1.0774  0.7333 -1.0615
  116MPD2    N1 1814   0.862   4.142  17.376  0.2860  0.0518 -0.7312
  116MPD2    H7 1815   0.791   4.163  17.307 -0.0027  0.2246 -0.3778
  117TMC2    C1 1816   4.674   1.112  14.130  0.1149  0.7059  0.4047
  117TMC2    C2 1817   0.068   1.094  14.117 -0.1432  0.3095  0.8081
  117TMC2    C3 1818   0.142   1.194  14.062 -0.5313  0.2011  0.1991
  117TMC2    C4 1819   4.620   1.241  14.121 -0.4771 -0.1410  0.1704
  117TMC2    C5 1820   4.702   1.348  14.083 -0.3102 -0.4048  0.1412
  117TMC2    C6 1821   0.098   1.324  14.047 -0.0816 -0.1762 -0.2564
  117TMC2     C 1822   4.591   0.991  14.126  0.5004 -0.5148  0.4488
  117TMC2     O 1823   4.647   0.880  14.149 -0.0572  0.3965 -0.0925
  117TMC2     H 1824   0.108   0.995  14.133 -1.8875 -0.6447 -0.8289
  117TMC2    H1 1825   4.529   1.260  14.178 -0.0886  1.5171  0.2391
  117TMC2    H2 1826   0.167   1.403  14.020  0.2009 -0.8571 -1.5462
  117TMC2    C7 1827   4.660   1.480  14.074  0.6426  0.3294  0.9250
  117TMC2    C8 1828   0.273   1.163  14.021 -0.3674  0.5269 -0.2671
  117TMC2    O1 1829   0.008   1.559  14.041  0.2306  0.4011 -0.5367
  117TMC2    O2 1830   0.374   1.231  14.010 -0.3814  0.3612  0.6006
  117TMC2    O5 1831   0.262   1.051  13.954  0.6271  0.4449  0.0983
  117TMC2    H5 1832   0.168   1.024  13.942  0.3928  1.1305  0.3757
  118MPD2     C 1833   4.321   1.627  14.105  0.0692  0.1873 -0.2342
  118MPD2    C1 1834   4.462   1.622  14.105  0.0873 -0.9743  0.3788
  118MPD2    C2 1835   4.525   1.747  14.102 -0.5057 -0.1912 -0.9993
  118MPD2    C3 1836   4.458   1.870  14.100 -0.2195 -0.5152  0.3062
  118MPD2    C4 1837   4.325   1.863  14.092  0.0627 -0.0850  0.5618
  118MPD2    C5 1838   4.254   1.743  14.104 -0.4701 -0.0482  0.8663
  118MPD2     H 1839   4.633   1.746  14.112 -0.5815  0.1679 -0.1381
  118MPD2    H1 1840   4.262   1.950  14.081 -0.7495 -0.8928 -1.2107
  118MPD2    H2 1841   4.253   1.543  14.102 -0.6576  0.6862  2.8661
  118MPD2    H3 1842   4.146   1.743  14.117 -0.8900  0.1804 -2.5999
  118MPD2     N 1843   4.519   1.998  14.109 -0.2898  0.0320 -0.2171
  118MPD2    H5 1844   4.457   2.078  14.114 -0.0089  0.1353  1.4040
  118MPD2    N1 1845   4.527   1.500  14.102 -0.5442 -0.2049  0.2799
  118MPD2    H7 1846   4.477   1.416  14.128 -1.5683 -0.5669 -2.9061
  119TMC2    C1 1847   2.664   2.515  12.800 -0.2448  0.2843  0.1154
  119TMC2    C2 1848   2.714   2.579  12.692 -0.1437 -0.0510  0.5168
  119TMC2    C3 1849   2.654   2.556  12.574 -0.0114 -0.2512 -0.3708
  119TMC2    C4 1850   2.550   2.442  12.789 -0.0745  0.1816 -0.5954
  119TMC2    C5 1851   2.490   2.426  12.666  0.2850  0.4217 -0.6406
  119TMC2    C6 1852   2.543   2.482  12.558  0.8450 -0.0855 -0.4100
  119TMC2     C 1853   2.735   2.498  12.923 -0.0487 -0.2221 -0.8369
  119TMC2     O 1854   2.721   2.389  12.973 -0.1577 -0.2056  0.0110
  119TMC2     H 1855   2.804   2.638  12.704  1.1449 -1.7984 -0.5259
  119TMC2    H1 1856   2.504   2.403  12.879 -0.0835 -0.5497 -0.9146
  119TMC2    H2 1857   2.504   2.454  12.461 -2.3101  3.0424 -0.0641
  119TMC2    C7 1858   2.396   2.315  12.645  0.5188  0.1656  0.8436
  119TMC2    C8 1859   2.715   2.607  12.457  0.2855  0.1916 -0.6574
  119TMC2    O1 1860   2.335   2.320  12.542  0.5277 -0.3127  0.2381
  119TMC2    O2 1861   2.665   2.665  12.360  0.2266 -0.0291 -0.0975
  119TMC2    O5 1862   2.809   2.511  12.430 -0.1988  0.7609  0.1241
  119TMC2    H5 1863   2.830   2.461  12.512 -2.0065  0.8929  0.6727
  120MPD2     C 1864   2.944   2.697  13.346 -0.1246  0.0406  0.1623
  120MPD2    C1 1865   2.908   2.565  13.318 -0.2558  0.0279 -0.2298
  120MPD2    C2 1866   2.870   2.531  13.189 -0.0915 -0.6454 -0.2619
  120MPD2    C3 1867   2.834   2.639  13.105  0.3631 -0.1393  1.2426
  120MPD2    C4 1868   2.851   2.772  13.140  0.3537 -0.3480  0.0615
  120MPD2    C5 1869   2.904   2.798  13.261  0.1846 -1.0085  0.0708
  120MPD2     H 1870   2.850   2.429  13.160  0.7971 -0.9378  0.1720
  120MPD2    H1 1871   2.818   2.852  13.075  1.6500 -2.0610 -2.6912
  120MPD2    H2 1872   2.987   2.729  13.440  1.4047  0.7181 -0.7753
  120MPD2    H3 1873   2.902   2.899  13.299 -0.4523 -0.1108 -2.3035
  120MPD2     N 1874   2.781   2.618  12.973 -0.2994 -0.4718  0.2223
  120MPD2    H5 1875   2.758   2.697  12.913  1.3393 -1.0312 -1.1471
  120MPD2    N1 1876   2.909   2.461  13.418  0.2360  1.0951  0.0812
  120MPD2    H7 1877   2.882   2.369  13.384  0.1527  0.8053  0.9355
  121TMC2    C1 1878   3.861   4.013  14.451  0.5606 -0.9190  0.2734
  121TMC2    C2 1879   3.796   3.895  14.494  0.0873 -0.3078  0.0494
  121TMC2    C3 1880   3.662   3.895  14.465 -0.3382  0.1361 -0.3584
  121TMC2    C4 1881   3.798   4.122  14.396 -0.3957  1.1348  0.0626
  121TMC2    C5 1882   3.666   4.125  14.380  0.3267 -0.0129  0.8401
  121TMC2    C6 1883   3.603   4.008  14.425  0.2062 -0.6787 -0.6378
  121TMC2     C 1884   4.004   4.018  14.461  0.3173 -0.3833  0.0228
  121TMC2     O 1885   4.067   3.937  14.526 -0.1199 -0.0861  0.0859
  121TMC2     H 1886   3.846   3.802  14.520  0.8082  0.3491  1.0217
  121TMC2    H1 1887   3.852   4.215  14.382  1.4831  0.0048 -0.1529
  121TMC2    H2 1888   3.496   3.997  14.412  0.1515  0.4474 -1.2075
  121TMC2    C7 1889   3.625   4.172  14.249 -0.5052  1.1792 -0.3468
  121TMC2    C8 1890   3.591   3.764  14.463 -0.3819  0.3174 -0.2016
  121TMC2    O1 1891   3.712   4.163  14.159  0.0000  0.4850 -0.3421
  121TMC2    O2 1892   3.467   3.764  14.463  0.4496  0.5991 -0.1916
  121TMC2    O5 1893   3.677   3.683  14.403  0.3535  0.1186 -0.0955
  121TMC2    H5 1894   3.761   3.721  14.369  0.8914 -0.7732  0.2350
  122MPD2     C 1895   4.285   4.101  14.454 -0.1734 -0.4561 -0.1948
  122MPD2    C1 1896   4.202   4.118  14.341 -0.4734 -0.0486 -0.3192
  122MPD2    C2 1897   4.255   4.165  14.222 -0.5840  0.4253  0.1496
  122MPD2    C3 1898   4.392   4.187  14.204 -0.0245  0.4139 -0.6850
  122MPD2    C4 1899   4.471   4.166  14.309 -0.6944  0.6072  0.2384
  122MPD2    C5 1900   4.421   4.120  14.431  0.6754  0.4053 -0.0429
  122MPD2     H 1901   4.184   4.188  14.144  1.0757 -0.7169 -1.6920
  122MPD2    H1 1902   4.579   4.160  14.298 -0.7422 -0.9147  0.6439
  122MPD2    H2 1903   4.258   4.068  14.553 -0.0978  0.7202  0.2185
  122MPD2    H3 1904   4.489   4.073  14.501 -1.4038 -2.2324  0.2125
  122MPD2     N 1905   4.454   4.220  14.084 -0.1624 -0.4910  0.2189
  122MPD2    H5 1906   4.555   4.225  14.077 -0.1025  0.5213  1.9049
  122MPD2    N1 1907   4.058   4.098  14.358  0.4126  0.0000 -0.3143
  122MPD2    H7 1908   3.994   4.129  14.285  1.4554  0.8482 -0.8695
  123TMC2    C1 1909   2.103   2.283  10.202 -0.0913  0.2111 -0.4526
  123TMC2    C2 1910   2.130   2.415  10.181  0.3099 -0.3318  0.6956
  123TMC2    C3 1911   2.086   2.468  10.063  0.0293  0.0074  0.2986
  123TMC2    C4 1912   2.066   2.196  10.096 -0.0456 -0.0577  0.3142
  123TMC2    C5 1913   2.034   2.257   9.976  0.6898  0.0561 -0.1292
  123TMC2    C6 1914   2.037   2.394   9.962  0.1943 -0.4675 -0.2708
  123TMC2     C 1915   2.054   2.246  10.334  0.4166 -0.2048  0.1286
  123TMC2     O 1916   2.101   2.305  10.436  0.5210  0.3157  0.1423
  123TMC2     H 1917   2.155   2.481  10.263  0.8264  0.3207  0.0157
  123TMC2    H1 1918   2.060   2.089  10.111  3.2568 -0.1413  1.0933
  123TMC2    H2 1919   1.996   2.440   9.873 -1.4581 -1.3072  0.0540
  123TMC2    C7 1920   1.952   2.180   9.889  1.0188  0.7332 -0.1519
  123TMC2    C8 1921   2.100   2.609  10.038 -0.1073  0.2549  0.0690
  123TMC2    O1 1922   1.911   2.076   9.938 -0.5236 -0.2440  0.0975
  123TMC2    O2 1923   2.102   2.653   9.926 -0.2337  0.8508 -0.1678
  123TMC2    O5 1924   2.148   2.676  10.152 -0.2813  0.2512  0.6662
  123TMC2    H5 1925   2.127   2.640  10.240 -0.2436 -1.7160 -0.1412
  124MPD2     C 1926   1.762   1.916  10.588 -0.2929  0.9590 -0.1172
  124MPD2    C1 1927   1.710   1.930  10.461  0.1038 -0.7739  0.6643
  124MPD2    C2 1928   1.778   2.005  10.371 -1.3323 -0.5596 -0.7418
  124MPD2    C3 1929   1.889   2.081  10.412  0.6574 -0.3761  0.2363
  124MPD2    C4 1930   1.932   2.080  10.542 -0.4300  0.6149  0.0691
  124MPD2    C5 1931   1.872   1.993  10.627 -0.2716  0.1800  0.0648
  124MPD2     H 1932   1.754   2.016  10.266 -1.5002 -0.9856 -0.7436
  124MPD2    H1 1933   2.009   2.144  10.583 -0.0360  0.4505 -0.4256
  124MPD2    H2 1934   1.726   1.840  10.657  2.6959  0.2847  0.6781
  124MPD2    H3 1935   1.904   1.995  10.731 -1.0265 -2.6903  0.3567
  124MPD2     N 1936   1.949   2.160  10.311 -0.2173 -0.1267  0.2326
  124MPD2    H5 1937   1.922   2.145  10.215  0.0079  0.6558  0.0556
  124MPD2    N1 1938   1.601   1.843  10.432 -0.3546  0.1939  0.2295
  124MPD2    H7 1939   1.540   1.814  10.507 -0.8684 -0.3294 -0.3885
  125TMC2    C1 1940   2.163   3.718   9.080  0.5297  0.5255 -0.3562
  125TMC2    C2 1941   2.048   3.786   9.112  0.5818  0.0551 -0.3743
  125TMC2    C3 1942   2.041   3.875   9.212  0.6788  0.7919 -0.1609
  125TMC2    C4 1943   2.280   3.742   9.153  0.2134 -0.1546 -0.0405
  125TMC2    C5 1944   2.270   3.835   9.251 -0.9763 -0.3635 -0.7338
  125TMC2    C6 1945   2.157   3.903   9.278 -0.0529 -0.1866  0.8883
  125TMC2     C 1946   2.170   3.640   8.966 -0.6103 -0.8084 -0.2025
  125TMC2     O 1947   2.065   3.604   8.915  0.2225  0.4957 -0.0427
  125TMC2     H 1948   1.964   3.776   9.044  0.2140 -3.0025  0.5518
  125TMC2    H1 1949   2.366   3.679   9.136  0.2087 -0.2475  0.2867
  125TMC2    H2 1950   2.154   3.965   9.366  1.3168  0.9308  0.1424
  125TMC2    C7 1951   2.387   3.881   9.331  0.8362  0.5932 -0.0612
  125TMC2    C8 1952   1.924   3.951   9.222  0.0669 -0.1855  0.3238
  125TMC2    O1 1953   2.367   3.953   9.426 -0.3608  0.6253  0.4489
  125TMC2    O2 1954   1.920   4.068   9.260  0.2891 -0.2372 -0.0377
  125TMC2    O5 1955   1.813   3.871   9.239  0.5916  0.4654  0.1796
  125TMC2    H5 1956   1.827   3.777   9.214  0.6154  0.2559  0.9889
  126MPD1     C 1957   2.446   3.400   8.614 -0.8509  0.1324 -0.7393
  126MPD1    C1 1958   2.527   3.494   8.677  0.4056  0.0838  0.0200
  126MPD1    C2 1959   2.471   3.571   8.767  0.9313 -0.4014 -0.2748
  126MPD1    C3 1960   2.341   3.558   8.802  0.5390 -0.4653 -0.3714
  126MPD1    C4 1961   2.259   3.469   8.742 -0.1669 -0.1502  0.4191
  126MPD1    C5 1962   2.314   3.390   8.639 -0.8847  0.2971  0.7866
  126MPD1     H 1963   2.534   3.641   8.820  0.4055  0.5849 -0.9430
  126MPD1    H1 1964   2.153   3.469   8.764  0.2077  1.4064  2.2304
  126MPD1    H2 1965   2.490   3.342   8.534  0.7025  0.4274 -0.0924
  126MPD1    H3 1966   2.247   3.335   8.574 -1.1709 -0.0188  1.3440
  126MPD1     N 1967   2.301   3.638   8.911  0.1934  0.2059 -0.3977
  126MPD1    H5 1968   2.371   3.700   8.950  1.9184 -2.4415  0.7117
  126MPD1    N1 1969   2.656   3.521   8.624 -0.2304  0.1238 -0.0257
  126MPD1    H6 1970   2.694   3.448   8.563  2.4967  1.3757  0.1644
  126MPD1    H7 1971   2.729   3.563   8.681 -2.2867 -1.3046  3.6147
  127TMC2    C1 1972   3.543   2.692   9.855 -0.6721 -0.0006  0.2945
  127TMC2    C2 1973   3.609   2.629   9.958  0.4296  0.1838  0.7010
  127TMC2    C3 1974   3.527   2.578  10.056  0.1326 -0.0964 -0.0145
  127TMC2    C4 1975   3.404   2.703   9.841 -0.0237 -0.2487 -0.2918
  127TMC2    C5 1976   3.333   2.627   9.930  0.6725 -0.2318  0.0842
  127TMC2    C6 1977   3.387   2.569  10.043 -0.4390 -0.2148 -0.6313
  127TMC2     C 1978   3.625   2.753   9.755 -0.1297  0.8830  0.1758
  127TMC2     O 1979   3.745   2.771   9.778 -0.1908 -0.3268 -0.7639
  127TMC2     H 1980   3.718   2.635   9.952  0.4071 -1.9805 -2.0397
  127TMC2    H1 1981   3.356   2.749   9.755 -0.7664  1.5069  1.0484
  127TMC2    H2 1982   3.331   2.536  10.129  1.7276  1.4418  1.4183
  127TMC2    C7 1983   3.185   2.636   9.922 -0.1772  0.6517 -1.2164
  127TMC2    C8 1984   3.579   2.520  10.173  0.2410 -0.5957  0.0160
  127TMC2    O1 1985   3.134   2.711   9.843 -0.0580  0.0350  0.4572
  127TMC2    O2 1986   3.506   2.429  10.214  0.2184  0.5234  0.4213
  127TMC2    O5 1987   3.711   2.520  10.158  0.1867 -0.7018 -0.4065
  127TMC2    H5 1988   3.750   2.603  10.125 -0.8393  0.0033  0.1768
  128MPD2     C 1989   3.557   2.853   9.418  0.1025  0.4014 -0.4982
  128MPD2    C1 1990   3.617   2.864   9.539  0.3366  0.0269 -0.5577
  128MPD2    C2 1991   3.723   2.951   9.565 -0.1544 -0.5646 -0.0949
  128MPD2    C3 1992   3.760   3.026   9.457  0.2872  0.2776  0.8372
  128MPD2    C4 1993   3.695   3.015   9.328  0.0874 -0.4810 -0.6247
  128MPD2    C5 1994   3.593   2.932   9.308  0.1546  0.5983 -0.4326
  128MPD2     H 1995   3.776   2.955   9.659  0.5089  0.3804 -0.5056
  128MPD2    H1 1996   3.723   3.073   9.241 -0.8837  1.6256  0.4654
  128MPD2    H2 1997   3.479   2.778   9.406  0.9780 -0.5853  0.0657
  128MPD2    H3 1998   3.547   2.912   9.213 -1.2561 -0.4622  0.4801
  128MPD2     N 1999   3.869   3.114   9.480 -0.2696 -0.3308 -0.2443
  128MPD2    H5 2000   3.911   3.121   9.572 -0.1524 -2.0516 -0.1578
  128MPD2    N1 2001   3.564   2.778   9.637 -0.3756 -0.2886 -0.4237
  128MPD2    H7 2002   3.475   2.731   9.620 -0.6122  0.3126 -0.8433
  129TMC2    C1 2003   3.736   3.408   1.225 -0.3041  0.0270 -0.3165
  129TMC2    C2 2004   3.741   3.509   1.323 -0.5711 -0.1819 -0.2969
  129TMC2    C3 2005   3.627   3.531   1.397  0.5690 -0.0992  0.9960
  129TMC2    C4 2006   3.627   3.334   1.202 -0.4875 -0.2619 -0.3613
  129TMC2    C5 2007   3.514   3.358   1.276 -0.4171  0.5806 -0.0963
  129TMC2    C6 2008   3.512   3.467   1.366 -0.1027  0.2783 -0.3635
  129TMC2     C 2009   3.852   3.388   1.142  1.0055  0.2337  0.6121
  129TMC2     O 2010   3.855   3.280   1.084 -0.0880  0.1895 -0.5069
  129TMC2     H 2011   3.835   3.558   1.345 -0.7924 -0.2459  0.7532
  129TMC2    H1 2012   3.626   3.268   1.116  0.4544 -2.4846  1.3442
  129TMC2    H2 2013   3.421   3.491   1.419 -0.3855  1.5476 -1.4314
  129TMC2    C7 2014   3.398   3.271   1.253 -0.2512  0.3239  0.8692
  129TMC2    C8 2015   3.619   3.658   1.470 -0.4254  0.9124 -0.2174
  129TMC2    O1 2016   3.290   3.312   1.285 -0.2005  0.5778 -0.0315
  129TMC2    O2 2017   3.697   3.748   1.445 -0.7994 -0.3152  0.0627
  129TMC2    O5 2018   3.512   3.659   1.545  0.1329  0.0081  0.0613
  129TMC2    H5 2019   3.474   3.571   1.565  2.2314 -0.8066  0.4105
  130MPD2     C 2020   4.114   3.384   1.008 -0.1031  0.4283  0.2655
  130MPD2    C1 2021   4.052   3.502   1.061  0.1415  0.2541 -0.3031
  130MPD2    C2 2022   4.119   3.619   1.051  0.2601 -0.3616  0.0204
  130MPD2    C3 2023   4.249   3.631   1.012  0.1914  0.2868  0.3866
  130MPD2    C4 2024   4.316   3.516   0.968 -0.5459  0.1787  0.3723
  130MPD2    C5 2025   4.248   3.395   0.962  0.7280  0.1396  1.3701
  130MPD2     H 2026   4.069   3.715   1.054  0.7173 -0.1651  1.1355
  130MPD2    H1 2027   4.418   3.504   0.934 -0.5970  0.2038  0.2087
  130MPD2    H2 2028   4.069   3.286   1.014  1.9120 -0.5446 -0.4292
  130MPD2    H3 2029   4.306   3.305   0.947  0.0175 -0.4932  2.3858
  130MPD2     N 2030   4.310   3.758   1.033 -0.4034 -0.0361  0.5138
  130MPD2    H5 2031   4.262   3.844   1.057 -2.1455 -0.2050 -2.3987
  130MPD2    N1 2032   3.920   3.503   1.115 -0.2550  0.4964 -0.2879
  130MPD2    H7 2033   3.888   3.594   1.148  1.9323 -0.0643  3.3892
  131TMC2    C1 2034   1.200   2.429   9.732  0.6378  0.2280 -0.2350
  131TMC2    C2 2035   1.171   2.549   9.788  0.6957  0.2359  0.1872
  131TMC2    C3 2036   1.229   2.663   9.738  0.4211  0.0527  0.2282
  131TMC2    C4 2037   1.304   2.430   9.637 -0.2130 -0.0192  0.2215
  131TMC2    C5 2038   1.367   2.541   9.594 -0.4989  0.2198  0.2425
  131TMC2    C6 2039   1.323   2.662   9.632 -0.1902  0.1031 -0.0982
  131TMC2     C 2040   1.177   2.313   9.803  0.6212 -0.5229 -0.4193
  131TMC2     O 2041   1.179   2.322   9.928  0.8558 -0.4776  0.2118
  131TMC2     H 2042   1.099   2.563   9.868  0.6892  0.1930  0.1889
  131TMC2    H1 2043   1.347   2.334   9.612 -3.2074 -0.7860 -2.0994
  131TMC2    H2 2044   1.367   2.759   9.612 -3.9675  2.0994  1.1564
  131TMC2    C7 2045   1.469   2.526   9.493  0.3650  0.1316 -0.1079
  131TMC2    C8 2046   1.188   2.784   9.798  0.1764  0.5805  0.5037
  131TMC2    O1 2047   1.465   2.418   9.438 -0.1790 -0.8438 -0.0916
  131TMC2    O2 2048   1.170   2.779   9.920 -0.2560  0.4407 -0.1477
  131TMC2    O5 2049   1.185   2.894   9.718  0.3070 -0.2306 -0.0557
  131TMC2    H5 2050   1.188   2.871   9.623 -1.4378  1.0015 -0.4176
  132MPD2     C 2051   0.992   2.030   9.677 -0.2546  0.3949 -0.5706
  132MPD2    C1 2052   1.075   2.104   9.759  0.2191 -0.9203 -0.1837
  132MPD2    C2 2053   1.123   2.044   9.875 -0.0942 -0.4033  0.4675
  132MPD2    C3 2054   1.079   1.918   9.910 -0.4867  0.1375  0.0312
  132MPD2    C4 2055   0.988   1.851   9.832  0.5225  0.6626 -0.2549
  132MPD2    C5 2056   0.957   1.900   9.710  0.1675  0.0092 -0.3198
  132MPD2     H 2057   1.193   2.098   9.938  0.1282 -0.4738  0.2803
  132MPD2    H1 2058   0.949   1.754   9.863 -1.2485  1.0098 -1.4245
  132MPD2    H2 2059   0.969   2.067   9.578  2.0941  0.9908 -0.9013
  132MPD2    H3 2060   0.895   1.845   9.640 -1.8228  1.2371  0.4530
  132MPD2     N 2061   1.133   1.856  10.028  0.6132  0.2506  0.0556
  132MPD2    H5 2062   1.188   1.915  10.091  3.5807 -2.2148 -0.1871
  132MPD2    N1 2063   1.111   2.231   9.721 -0.2227  0.2257  0.4243
  132MPD2    H7 2064   1.078   2.259   9.630 -0.4119  0.6320  0.6169
  133TMC2    C1 2065   1.592   4.330  10.087 -0.4190  0.4868 -0.6744
  133TMC2    C2 2066   1.651   4.250  10.179 -0.0362 -0.0559  0.4583
  133TMC2    C3 2067   1.702   4.312  10.291  0.0989 -0.1632 -0.3115
  133TMC2    C4 2068   1.596   4.470  10.094  0.3745  0.6060  0.6713
  133TMC2    C5 2069   1.661   4.520  10.207 -0.2620  0.3239 -0.2446
  133TMC2    C6 2070   1.714   4.448  10.313 -0.3547 -0.0051  0.8165
  133TMC2     C 2071   1.512   4.258   9.981  0.1715 -0.4116 -0.8457
  133TMC2     O 2072   1.528   4.135   9.973  0.5630  0.1684  0.6554
  133TMC2     H 2073   1.682   4.150  10.149  1.3101  0.6186 -0.3893
  133TMC2    H1 2074   1.550   4.541  10.027 -0.2761 -0.5321 -0.0894
  133TMC2    H2 2075   1.771   4.488  10.396 -0.6116  1.1926  0.4167
  133TMC2    C7 2076   1.689   4.664  10.216 -0.2530  0.1186  0.5036
  133TMC2    C8 2077   1.798   4.237  10.364  0.0788 -0.2872 -0.0490
  133TMC2    O1 2078   1.774   4.686  10.303  0.7672 -0.1032 -0.1741
  133TMC2    O2 2079   1.898   4.291  10.408 -0.2148  0.2481  0.3584
  133TMC2    O5 2080   1.794   4.103  10.354  0.0001  0.1525  0.8479
  133TMC2    H5 2081   1.705   4.063  10.343  1.9172 -4.1925  0.9463
  134MPD2     C 2082   1.242   4.395   9.778  0.4459  0.1572  0.2674
  134MPD2    C1 2083   1.333   4.306   9.826 -0.1503  0.0529  0.9362
  134MPD2    C2 2084   1.314   4.175   9.771 -0.0504  0.1015  0.5984
  134MPD2    C3 2085   1.200   4.130   9.707 -0.4793 -0.0551 -0.5548
  134MPD2    C4 2086   1.105   4.221   9.682  0.2581  0.1959  0.4182
  134MPD2    C5 2087   1.125   4.349   9.716  0.1974 -0.3578 -0.0522
  134MPD2     H 2088   1.392   4.104   9.795 -1.6613 -2.3867 -1.4658
  134MPD2    H1 2089   1.028   4.202   9.608 -0.6358 -1.1384  1.6917
  134MPD2    H2 2090   1.245   4.499   9.809  1.7602  0.3001 -0.3092
  134MPD2    H3 2091   1.056   4.426   9.685 -2.1271 -3.0487 -1.6479
  134MPD2     N 2092   1.182   4.005   9.646 -0.4856 -0.9901  0.3374
  134MPD2    H5 2093   1.095   3.978   9.602 -0.5779  0.3172 -0.2907
  134MPD2    N1 2094   1.441   4.350   9.905  0.6408  0.5419  0.5167
  134MPD2    H7 2095   1.435   4.449   9.930  1.0620  1.2624 -2.2144
  135TMC2    C1 2096   2.260   0.322   9.649 -0.3699 -0.4220 -0.0630
  135TMC2    C2 2097   2.270   0.457   9.678 -0.5141 -0.5128  0.4509
  135TMC2    C3 2098   2.181   0.539   9.612 -1.1291  0.1135  0.3213
  135TMC2    C4 2099   2.162   0.268   9.573 -0.1958 -0.1405  0.2666
  135TMC2    C5 2100   2.069   0.353   9.520 -0.3401  0.1370 -0.9609
  135TMC2    C6 2101   2.083   0.486   9.532 -0.1907  0.2072 -0.3881
  135TMC2     C 2102   2.376   0.244   9.703 -0.2112  0.0051  0.2677
  135TMC2     O 2103   2.433   0.292   9.800 -0.1535 -0.3402 -0.6086
  135TMC2     H 2104   2.358   0.501   9.724 -0.9431 -1.2068  1.9619
  135TMC2    H1 2105   2.140   0.162   9.579 -4.0653  0.8656  3.6999
  135TMC2    H2 2106   2.000   0.547   9.498 -0.8098 -0.0710  0.6359
  135TMC2    C7 2107   1.947   0.296   9.469  0.9207 -0.2301  0.3919
  135TMC2    C8 2108   2.226   0.672   9.590 -0.2131  0.0964 -0.0013
  135TMC2    O1 2109   1.868   0.379   9.421 -0.0033  0.4534  0.4246
  135TMC2    O2 2110   2.300   0.733   9.666 -0.6766  0.0913  0.1520
  135TMC2    O5 2111   2.176   0.726   9.478  0.1316  0.1394 -0.6697
  135TMC2    H5 2112   2.147   0.661   9.410 -1.8872  0.7332 -0.3630
  136MPD2     C 2113   2.642   0.109   9.729 -0.4911  0.4862 -0.1555
  136MPD2    C1 2114   2.545   0.074   9.633 -0.1370  0.5515  0.8575
  136MPD2    C2 2115   2.567   4.696   9.559 -0.0125 -0.6404 -0.2458
  136MPD2    C3 2116   2.684   4.618   9.573  0.5393  0.0213  0.1850
  136MPD2    C4 2117   2.779   4.670   9.662  0.1913 -0.7545  0.1939
  136MPD2    C5 2118   2.758   0.041   9.735  0.0733 -0.7945  0.3730
  136MPD2     H 2119   2.483   4.668   9.496 -1.8172  3.2763  0.3768
  136MPD2    H1 2120   2.875   4.623   9.678  1.0851  1.3760  1.0143
  136MPD2    H2 2121   2.633   0.200   9.787 -1.0100 -0.5654  1.4265
  136MPD2    H3 2122   2.832   0.065   9.810  0.8480  0.5669 -0.8287
  136MPD2     N 2123   2.710   4.498   9.505  0.5345 -0.1298  0.2717
  136MPD2    H5 2124   2.805   4.464   9.512  0.9071  0.9821  0.6270
  136MPD2    N1 2125   2.418   0.136   9.625  0.2207  0.2131 -0.3987
  136MPD2    H7 2126   2.350   0.095   9.561  0.2160  0.5318 -0.5941
  137TMC2    C1 2127   2.979   3.276   9.051 -0.0122  0.0916  0.7459
  137TMC2    C2 2128   3.081   3.306   8.964  0.4507  0.1491  0.0148
  137TMC2    C3 2129   3.074   3.253   8.842 -0.2598  0.0149 -0.6160
  137TMC2    C4 2130   2.877   3.193   9.024 -0.0099  0.1941 -0.7034
  137TMC2    C5 2131   2.856   3.163   8.892 -0.1953 -0.1853 -0.2601
  137TMC2    C6 2132   2.954   3.191   8.798 -0.9763 -0.7703 -0.6418
  137TMC2     C 2133   2.978   3.337   9.177 -0.1512  0.2566 -0.0422
  137TMC2     O 2134   2.871   3.331   9.241 -0.3590 -0.0958 -0.1248
  137TMC2     H 2135   3.165   3.370   8.987 -1.8568  2.5763  1.7011
  137TMC2    H1 2136   2.803   3.162   9.097 -1.2099 -0.2030 -2.0847
  137TMC2    H2 2137   2.932   3.176   8.693  0.7218  0.0437 -1.1184
  137TMC2    C7 2138   2.724   3.121   8.839 -0.9952  0.5313  0.3353
  137TMC2    C8 2139   3.161   3.323   8.749  0.2349  0.0116 -0.7431
  137TMC2    O1 2140   2.739   3.054   8.738  0.3155  0.4556 -0.3367
  137TMC2    O2 2141   3.176   3.441   8.773 -0.2536  0.2475  0.1221
  137TMC2    O5 2142   3.174   3.252   8.637  0.2051  0.0335 -0.6454
  137TMC2    H5 2143   3.167   3.156   8.658 -0.5449 -0.0509 -1.2643
  138MPD2     C 2144   3.262   3.497   9.369  0.3932  0.1605 -0.4911
  138MPD2    C1 2145   3.129   3.451   9.346 -0.0245 -0.1579 -0.4332
  138MPD2    C2 2146   3.026   3.493   9.428  0.1024  0.5586  0.1954
  138MPD2    C3 2147   3.048   3.567   9.539  0.2737 -0.5037  0.0950
  138MPD2    C4 2148   3.179   3.604   9.569 -0.2497 -0.2430 -0.2857
  138MPD2    C5 2149   3.283   3.562   9.489 -0.7389 -0.5071 -0.3149
  138MPD2     H 2150   2.922   3.471   9.406  0.1991 -0.2864  0.6004
  138MPD2    H1 2151   3.209   3.665   9.654 -0.7731  0.1147 -0.3575
  138MPD2    H2 2152   3.343   3.477   9.300 -0.5566  0.0095 -1.5593
  138MPD2    H3 2153   3.384   3.588   9.519 -0.9256 -2.3509  1.9208
  138MPD2     N 2154   2.933   3.605   9.612 -0.1170  0.0215  0.0632
  138MPD2    H5 2155   2.840   3.580   9.578  0.2852  0.3692 -1.3074
  138MPD2    N1 2156   3.103   3.387   9.218 -0.3834 -0.5997 -0.0832
  138MPD2    H7 2157   3.180   3.363   9.157  1.4975 -1.6420  2.6588
  139TMC2    C1 2158   4.329   2.051  13.494  1.5408 -0.4840  1.0158
  139TMC2    C2 2159   4.397   2.172  13.494 -0.5352 -0.4247 -0.0080
  139TMC2    C3 2160   4.322   2.282  13.479 -0.3853  0.3513  0.4919
  139TMC2    C4 2161   4.200   2.033  13.475  0.2335  0.3520 -0.6606
  139TMC2    C5 2162   4.128   2.148  13.450  0.3249 -0.5083 -0.3201
  139TMC2    C6 2163   4.189   2.270  13.454  0.1884  0.7725 -0.4541
  139TMC2     C 2164   4.402   1.927  13.503 -0.1436  0.2329 -0.4180
  139TMC2     O 2165   4.386   1.829  13.429 -0.1189 -0.3690 -0.5076
  139TMC2     H 2166   4.505   2.179  13.493 -0.4611 -1.2240  2.2081
  139TMC2    H1 2167   4.150   1.937  13.480 -0.4122  0.8018  1.6792
  139TMC2    H2 2168   4.122   2.355  13.442 -1.2697 -0.4135 -0.8342
  139TMC2    C7 2169   3.984   2.140  13.408  0.3873  0.4782  0.1935
  139TMC2    C8 2170   4.384   2.361  13.380 -0.0490 -0.8896 -0.0387
  139TMC2    O1 2171   3.933   2.253  13.407 -0.2580 -0.2224  0.2964
  139TMC2    O2 2172   4.354   2.334  13.264  0.5722  0.0363  0.3811
  139TMC2    O5 2173   4.495   2.413  13.417  0.1594 -0.3115  0.5470
  139TMC2    H5 2174   4.510   2.413  13.514  2.4566  0.6935  0.1895
  140MPD2     C 2175   4.644   1.845  13.760  0.3060 -0.5008  0.2443
  140MPD2    C1 2176   4.584   1.840  13.634 -0.1971  0.3633  0.1075
  140MPD2    C2 2177   4.627   1.746  13.543  0.4728  0.1440  0.0991
  140MPD2    C3 2178   0.006   1.669  13.566  0.5554 -0.7303 -0.4711
  140MPD2    C4 2179   0.057   1.674  13.692 -0.6436  0.1608 -0.2021
  140MPD2    C5 2180   0.005   1.755  13.785  0.1307  0.1806 -0.2606
  140MPD2     H 2181   4.581   1.721  13.448  1.4991 -0.1374 -0.3282
  140MPD2    H1 2182   0.118   1.593  13.728 -0.7873  0.7197  1.2919
  140MPD2    H2 2183   4.600   1.900  13.842  1.4043  0.9222 -0.1169
  140MPD2    H3 2184   0.041   1.750  13.887  0.5900  0.9583 -0.3810
  140MPD2     N 2185   0.058   1.577  13.474 -0.0093  0.2489 -0.2949
  140MPD2    H5 2186   4.732   1.557  13.398 -2.1048 -0.2280  1.6381
  140MPD2    N1 2187   4.483   1.933  13.609  0.0557 -0.2909  0.2109
  140MPD2    H7 2188   4.464   2.004  13.679 -1.4543  0.3470 -0.8468
  141TMC2    C1 2189   4.472   3.493  13.916  0.1783 -0.8302 -0.3277
  141TMC2    C2 2190   4.356   3.497  13.856  0.4948  0.0247  0.1247
  141TMC2    C3 2191   4.296   3.623  13.838 -0.4283  0.6342  1.1337
  141TMC2    C4 2192   4.545   3.601  13.943  0.2074 -0.3273 -0.1416
  141TMC2    C5 2193   4.489   3.727  13.918 -0.2659 -0.2305 -0.2464
  141TMC2    C6 2194   4.359   3.741  13.869  0.5757  0.3833  0.2284
  141TMC2     C 2195   4.535   3.362  13.915  0.4628  0.1434  0.1313
  141TMC2     O 2196   4.656   3.358  13.936  0.0718  0.1352  0.0171
  141TMC2     H 2197   4.285   3.417  13.841  0.4983  0.2642 -1.1410
  141TMC2    H1 2198   4.647   3.587  13.977  0.4058 -2.2522 -1.4927
  141TMC2    H2 2199   4.319   3.839  13.844 -0.1617  0.4865  1.7883
  141TMC2    C7 2200   4.580   3.831  13.876 -0.6846  0.2423 -0.0724
  141TMC2    C8 2201   4.163   3.623  13.779  0.2592 -0.6896 -0.2021
  141TMC2    O1 2202   4.556   3.897  13.778  0.2113 -0.4335  0.0016
  141TMC2    O2 2203   4.112   3.523  13.735  0.3779 -0.4372 -0.0143
  141TMC2    O5 2204   4.092   3.734  13.821  0.1902 -0.5077 -0.0845
  141TMC2    H5 2205   4.130   3.785  13.896 -1.7934 -0.8319  1.1294
  142TMC2    C1 2206   1.424   1.567   9.816  0.0791 -0.0663 -0.4935
  142TMC2    C2 2207   1.320   1.550   9.724 -0.0070  0.0061  0.1985
  142TMC2    C3 2208   1.299   1.639   9.622 -0.2316  0.1442  0.6917
  142TMC2    C4 2209   1.501   1.679   9.803  0.2458  0.0706  0.1571
  142TMC2    C5 2210   1.476   1.767   9.708  0.1617 -0.2073 -0.1859
  142TMC2    C6 2211   1.382   1.748   9.612 -0.2942 -0.3163  0.1420
  142TMC2     C 2212   1.424   1.478   9.930 -0.0805  0.5361 -0.2248
  142TMC2     O 2213   1.328   1.405   9.932 -0.1053 -0.7654  0.4858
  142TMC2     H 2214   1.256   1.463   9.727 -1.2214  0.9374  1.0723
  142TMC2    H1 2215   1.565   1.710   9.885 -0.2728  1.4805  0.0302
  142TMC2    H2 2216   1.371   1.816   9.528 -2.9583 -1.5744 -0.5271
  142TMC2    C7 2217   1.552   1.895   9.721  0.2780  0.1350 -0.5593
  142TMC2    C8 2218   1.165   1.649   9.566  0.1262  0.9616 -0.1888
  142TMC2    O1 2219   1.585   1.932   9.831 -0.0462 -0.1813  0.3077
  142TMC2    O2 2220   1.066   1.611   9.622  0.1368 -0.4185 -0.1129
  142TMC2    O5 2221   1.175   1.697   9.442 -0.0418 -0.8619  0.3080
  142TMC2    H5 2222   1.271   1.698   9.420 -0.6197  0.6035 -2.1855
  143MPD2     C 2223   1.555   1.363  10.410  0.1806 -1.0167 -0.0684
  143MPD2    C1 2224   1.455   1.306  10.335  0.0877 -0.5337 -0.6606
  143MPD2    C2 2225   1.450   1.353  10.200 -0.2152 -0.0658  0.2099
  143MPD2    C3 2226   1.543   1.446  10.150  0.1192 -0.2690  0.8083
  143MPD2    C4 2227   1.642   1.494  10.234 -1.1190  0.2654  0.2405
  143MPD2    C5 2228   1.646   1.446  10.360  0.0087 -0.1703  0.9063
  143MPD2     H 2229   1.364   1.322  10.141 -0.1849 -0.7313  0.5174
  143MPD2    H1 2230   1.717   1.562  10.195  0.4062 -1.7842 -0.3781
  143MPD2    H2 2231   1.570   1.331  10.513 -0.3331 -0.9175  0.0366
  143MPD2    H3 2232   1.728   1.475  10.424  0.3934 -1.5920  1.0535
  143MPD2     N 2233   1.527   1.502  10.020 -0.3473 -0.6130 -0.4410
  143MPD2    H5 2234   1.594   1.572   9.989 -2.1200  1.0634 -0.4961
  143MPD2    N1 2235   1.371   1.218  10.403  0.2531  0.0180 -0.4304
  143MPD2    H7 2236   1.397   1.189  10.496 -0.7708 -0.3655 -0.2606
  144TMC2    C1 2237   0.734   1.092   0.674  0.4260 -0.0455  1.1770
  144TMC2    C2 2238   0.805   0.977   0.658 -0.4901 -0.4727 -0.7545
  144TMC2    C3 2239   0.941   0.987   0.660 -0.1459  0.5050  0.1721
  144TMC2    C4 2240   0.795   1.214   0.683 -0.2742  0.8294  0.3112
  144TMC2    C5 2241   0.932   1.222   0.688 -0.8485 -0.0697 -0.0262
  144TMC2    C6 2242   1.006   1.109   0.675 -0.2604 -0.2853 -0.2510
  144TMC2     C 2243   0.592   1.072   0.671  0.8228  0.4557 -0.7160
  144TMC2     O 2244   0.534   0.960   0.659  0.4707  0.0545 -0.1582
  144TMC2     H 2245   0.757   0.880   0.648  0.1738 -0.8125 -0.6687
  144TMC2    H1 2246   0.735   1.304   0.677 -1.0706  0.1242 -2.3007
  144TMC2    H2 2247   1.113   1.122   0.666 -0.5476  2.7492  0.5407
  144TMC2    C7 2248   0.984   1.347   0.627 -0.1974  0.7846 -0.2874
  144TMC2    C8 2249   1.012   0.875   0.603 -0.2149  0.6010  0.1019
  144TMC2    O1 2250   1.079   1.344   0.548 -0.0356  0.3933 -0.4536
  144TMC2    O2 2251   0.955   0.800   0.527 -0.3378 -0.4900 -0.1059
  144TMC2    O5 2252   1.117   0.834   0.681  0.1695  0.3843  0.5883
  144TMC2    H5 2253   1.128   0.901   0.752  1.6095  1.0839 -0.3023
  145MPD2     C 2254   0.162   1.287   0.484 -0.2161  0.3760  0.0912
  145MPD2    C1 2255   0.212   1.155   0.468 -0.2606  0.0514  0.8903
  145MPD2    C2 2256   0.332   1.122   0.529 -0.6368 -0.2434 -0.1431
  145MPD2    C3 2257   0.403   1.221   0.609  0.8054 -0.0413  0.1562
  145MPD2    C4 2258   0.348   1.349   0.622 -0.1069  0.3942  0.4599
  145MPD2    C5 2259   0.228   1.384   0.556  0.5625  0.1385 -0.3415
  145MPD2     H 2260   0.380   1.028   0.501 -0.1914 -0.5171  1.4829
  145MPD2    H1 2261   0.403   1.428   0.670 -2.4622  0.0172  3.8209
  145MPD2    H2 2262   0.071   1.320   0.436 -0.3605  1.7722  1.3347
  145MPD2    H3 2263   0.204   1.489   0.547  2.0808  0.3618 -1.7281
  145MPD2     N 2264   0.528   1.196   0.667 -0.5773 -0.2229  0.6907
  145MPD2    H5 2265   0.577   1.279   0.696 -0.1464  0.1779 -1.1564
  145MPD2    N1 2266   0.144   1.056   0.395  0.0427  0.4283  0.6229
  145MPD2    H7 2267   0.183   0.964   0.411  1.4509  0.8935 -0.1419
  146TMC2    C1 2268   1.672   4.531  12.473  0.0689  0.2420  0.4679
  146TMC2    C2 2269   1.557   4.525  12.402  0.1983  0.2379 -0.1478
  146TMC2    C3 2270   1.581   4.492  12.272 -0.3753 -0.2600 -0.2571
  146TMC2    C4 2271   1.800   4.494  12.433  0.1861  0.0891  0.8377
  146TMC2    C5 2272   1.812   4.474  12.297 -0.2050 -0.1736 -0.4583
  146TMC2    C6 2273   1.703   4.474  12.212  0.5516  0.5787 -0.1050
  146TMC2     C 2274   1.649   4.583  12.607 -0.0377  0.2581 -0.2040
  146TMC2     O 2275   1.567   4.673  12.617  0.0177 -0.4775  0.0769
  146TMC2     H 2276   1.457   4.555  12.433 -0.3771 -1.2624 -0.5733
  146TMC2    H1 2277   1.880   4.497  12.506  2.0415  3.0295 -1.3191
  146TMC2    H2 2278   1.714   4.449  12.106  0.8037 -0.8184  0.2422
  146TMC2    C7 2279   1.940   4.462  12.243 -0.6679 -0.1728 -0.5901
  146TMC2    C8 2280   1.462   4.494  12.186 -0.7109 -1.4419  0.2274
  146TMC2    O1 2281   1.950   4.491  12.124 -0.1888 -0.5179 -0.6582
  146TMC2    O2 2282   1.355   4.444  12.226  0.1532  0.2111  0.2848
  146TMC2    O5 2283   1.487   4.518  12.057 -0.1138  0.2169  0.0590
  146TMC2    H5 2284   1.577   4.547  12.032  0.3997 -1.9363 -0.6642
  147MPD2     C 2285   2.426   4.328  12.328  1.0908 -0.9792  0.2884
  147MPD2    C1 2286   2.350   4.293  12.436  0.6102  0.5320 -0.0499
  147MPD2    C2 2287   2.213   4.313  12.433 -0.5636 -0.9144 -0.2301
  147MPD2    C3 2288   2.155   4.359  12.313  0.6427  0.1762  0.5978
  147MPD2    C4 2289   2.232   4.389  12.202  0.5450  0.2350 -0.5920
  147MPD2    C5 2290   2.367   4.375  12.215  0.1252 -0.1007 -0.2334
  147MPD2     H 2291   2.154   4.310  12.523  1.7727  0.0602  1.3278
  147MPD2    H1 2292   2.192   4.431  12.111 -0.0054  1.4557  0.2050
  147MPD2    H2 2293   2.535   4.323  12.325  1.0586 -0.4225 -1.8367
  147MPD2    H3 2294   2.431   4.408  12.134  3.3946  0.4154  2.5446
  147MPD2     N 2295   2.013   4.383  12.326 -0.3455 -0.1111 -0.9368
  147MPD2    H5 2296   1.967   4.354  12.411  3.1150 -0.6297  0.7725
  147MPD2    N1 2297   2.418   4.256  12.554 -0.2165  0.1065  0.0391
  147MPD2    H7 2298   2.518   4.243  12.544 -0.4977 -3.5082  1.9390
  148TMC2    C1 2299   1.271   3.125  10.533 -0.0409 -0.1496  0.3273
  148TMC2    C2 2300   1.375   3.213  10.491 -0.3662 -0.0216  0.3912
  148TMC2    C3 2301   1.510   3.177  10.510 -0.1916 -0.3717 -0.2500
  148TMC2    C4 2302   1.308   3.004  10.593  1.0377  0.1754 -0.6701
  148TMC2    C5 2303   1.437   2.976  10.604 -0.1105  0.0903 -0.4016
  148TMC2    C6 2304   1.547   3.057  10.565 -0.2830 -0.3143  0.1982
  148TMC2     C 2305   1.157   3.122  10.444 -0.3614  0.5086  0.3189
  148TMC2     O 2306   1.088   3.022  10.451  0.2710 -0.2075  0.3092
  148TMC2     H 2307   1.362   3.308  10.439  0.9088 -1.3802 -2.3996
  148TMC2    H1 2308   1.228   2.937  10.624  1.7913 -1.1481 -1.5918
  148TMC2    H2 2309   1.652   3.030  10.578 -0.4081 -1.0904 -0.3859
  148TMC2    C7 2310   1.474   2.848  10.655 -0.4225 -0.5101 -0.0798
  148TMC2    C8 2311   1.604   3.287  10.484 -0.0549 -1.0138 -0.3813
  148TMC2    O1 2312   1.581   2.808  10.607  0.6932 -0.6286  0.1747
  148TMC2    O2 2313   1.556   3.398  10.492  0.4787  0.3784  0.8409
  148TMC2    O5 2314   1.728   3.253  10.530 -0.3520  0.0534 -0.1593
  148TMC2    H5 2315   1.743   3.157  10.513 -1.7676 -0.5214  1.8902
  149MPD2     C 2316   0.986   3.421  10.330  0.1201  0.7385  0.2015
  149MPD2    C1 2317   1.023   3.289  10.323  0.2066  0.1488 -0.1977
  149MPD2    C2 2318   0.970   3.215  10.218  0.1944  0.6535 -0.5556
  149MPD2    C3 2319   0.900   3.274  10.116 -0.7176  0.2931  0.2285
  149MPD2    C4 2320   0.866   3.408  10.128  0.3065  0.6121  0.3548
  149MPD2    C5 2321   0.913   3.479  10.231  0.2835  0.6702 -0.2973
  149MPD2     H 2322   0.997   3.110  10.221 -0.0679  0.5174 -2.6503
  149MPD2    H1 2323   0.826   3.469  10.049  1.3720  0.8748  0.0172
  149MPD2    H2 2324   1.030   3.473  10.414 -0.0180 -1.0106  1.3576
  149MPD2    H3 2325   0.878   3.582  10.227  1.9150  1.1881 -1.2197
  149MPD2     N 2326   0.865   3.206   9.997 -0.4136  0.3460  0.9375
  149MPD2    H5 2327   0.796   3.254   9.940  0.4277 -2.2835 -2.3143
  149MPD2    N1 2328   1.119   3.251  10.414  0.7443 -0.1057 -0.1329
  149MPD2    H7 2329   1.165   3.326  10.464  2.1547  0.1905 -1.8691
  150TMC2    C1 2330   4.162   2.495  12.472 -0.4885  0.1473  0.3348
  150TMC2    C2 2331   4.104   2.615  12.485 -0.2601  1.0190 -0.2998
  150TMC2    C3 2332   4.168   2.719  12.548 -0.2287 -0.5894  0.1204
  150TMC2    C4 2333   4.282   2.471  12.536  0.2948 -0.0275 -1.1290
  150TMC2    C5 2334   4.351   2.579  12.590  0.3222 -0.1686 -0.0334
  150TMC2    C6 2335   4.291   2.704  12.599 -0.3999 -0.0851 -0.2805
  150TMC2     C 2336   4.099   2.379  12.416  0.6253 -0.5861 -0.7370
  150TMC2     O 2337   4.135   2.270  12.455 -0.7723  0.5433  0.4407
  150TMC2     H 2338   4.012   2.647  12.437 -0.1994  0.5563 -0.7159
  150TMC2    H1 2339   4.327   2.373  12.540  1.4609  0.5583 -0.0048
  150TMC2    H2 2340   4.350   2.780  12.647  2.7468 -2.2580 -0.7113
  150TMC2    C7 2341   4.495   2.565  12.619  0.0688 -0.5277 -0.0136
  150TMC2    C8 2342   4.101   2.847  12.545  0.0916 -0.5532  0.2733
  150TMC2    O1 2343   4.562   2.665  12.610 -0.1953 -1.0383 -0.3615
  150TMC2    O2 2344   4.008   2.882  12.475  0.1207  0.2048 -0.4121
  150TMC2    O5 2345   4.153   2.915  12.650 -0.1789 -0.2679 -0.4336
  150TMC2    H5 2346   4.102   2.999  12.659 -1.7545 -1.1299 -1.3693
  151MPD2     C 2347   3.723   2.124  12.183  0.1825 -0.2950 -0.2952
  151MPD2    C1 2348   3.699   2.259  12.167  0.0354  0.1189  0.3497
  151MPD2    C2 2349   3.787   2.351  12.224 -0.3666  0.0715 -0.6326
  151MPD2    C3 2350   3.903   2.311  12.285  0.1972  0.1263  0.2255
  151MPD2    C4 2351   3.926   2.170  12.291 -0.0120 -0.4444  0.7254
  151MPD2    C5 2352   3.838   2.081  12.243  0.3883 -0.9623 -0.2770
  151MPD2     H 2353   3.772   2.458  12.217 -0.9194  0.0531  0.1780
  151MPD2    H1 2354   4.018   2.123  12.325  1.2962 -0.0239 -2.2025
  151MPD2    H2 2355   3.658   2.050  12.138 -2.5616  1.0657  1.3958
  151MPD2    H3 2356   3.863   1.976  12.249  0.8277 -0.8331  0.1924
  151MPD2     N 2357   3.991   2.404  12.340  0.1955 -0.1727 -0.3800
  151MPD2    H5 2358   3.961   2.501  12.330 -0.0992 -0.2784 -0.5055
  151MPD2    N1 2359   3.578   2.299  12.097 -0.3422 -0.6064  0.6397
  151MPD2    H7 2360   3.544   2.223  12.040  1.2019 -1.4829  0.8719
  152TMC2    C1 2361   3.711   2.304  12.609 -0.4949  0.7858  0.2735
  152TMC2    C2 2362   3.762   2.179  12.590 -0.2068 -0.4143  0.1709
  152TMC2    C3 2363   3.886   2.156  12.642  0.6978  0.3858  0.1782
  152TMC2    C4 2364   3.770   2.398  12.695  0.3942 -0.3537 -0.1864
  152TMC2    C5 2365   3.906   2.368  12.730 -1.1853 -0.3010  0.3121
  152TMC2    C6 2366   3.962   2.243  12.707  0.3499 -0.2661 -0.2912
  152TMC2     C 2367   3.599   2.346  12.529 -0.1492  0.3460 -0.2538
  152TMC2     O 2368   3.578   2.469  12.516  0.3805  0.4930  0.6605
  152TMC2     H 2369   3.718   2.106  12.522  1.1802  0.5922 -1.7838
  152TMC2    H1 2370   3.736   2.501  12.694  0.8947 -0.2086 -1.9787
  152TMC2    H2 2371   4.053   2.212  12.758  2.5365  2.4260 -2.5762
  152TMC2    C7 2372   3.982   2.477  12.793  0.2145 -0.3872  0.5059
  152TMC2    C8 2373   3.936   2.026  12.623  0.1980  0.0412  0.0696
  152TMC2    O1 2374   3.921   2.581  12.797 -0.2743 -0.1883  0.2526
  152TMC2    O2 2375   3.861   1.932  12.609  0.1613  0.0206 -0.2474
  152TMC2    O5 2376   4.073   2.039  12.601 -0.3059  0.2340 -0.6611
  152TMC2    H5 2377   4.099   2.132  12.585 -0.5963  0.3852 -0.2581
  153MPD2     C 2378   3.299   2.138  12.470  0.3057 -0.3640  0.2415
  153MPD2    C1 2379   3.378   2.249  12.459 -0.4998 -0.8506  0.0397
  153MPD2    C2 2380   3.320   2.363  12.401 -0.3498  0.6677 -0.9095
  153MPD2    C3 2381   3.199   2.351  12.336 -0.3669  0.1896  0.1095
  153MPD2    C4 2382   3.127   2.231  12.329 -0.6972 -0.9800 -0.7369
  153MPD2    C5 2383   3.189   2.123  12.391  0.8091 -0.3990 -0.4834
  153MPD2     H 2384   3.369   2.459  12.414  1.2792 -0.7329  3.3626
  153MPD2    H1 2385   3.033   2.212  12.279  0.4289 -1.7883 -2.5496
  153MPD2    H2 2386   3.340   2.051  12.521 -1.4087 -0.9339  0.6284
  153MPD2    H3 2387   3.137   2.028  12.397 -1.7050  0.9292 -1.2810
  153MPD2     N 2388   3.149   2.467  12.282 -0.0823 -0.3916 -0.0537
  153MPD2    H5 2389   3.208   2.550  12.286 -2.3682  1.2611 -0.6725
  153MPD2    N1 2390   3.515   2.242  12.510 -0.3631  0.4531 -0.8597
  153MPD2    H7 2391   3.541   2.153  12.552  1.3812  1.8010  0.9110
  154TMC2    C1 2392   0.362   2.355   0.165  0.8453 -0.7087  0.5086
  154TMC2    C2 2393   0.472   2.436   0.204  0.7022 -0.2520 -0.1325
  154TMC2    C3 2394   0.600   2.388   0.180 -0.2895  0.2160 -0.9453
  154TMC2    C4 2395   0.387   2.231   0.109  0.0146 -0.0297  0.3260
  154TMC2    C5 2396   0.513   2.194   0.089  0.3186 -0.3778  0.4185
  154TMC2    C6 2397   0.626   2.265   0.121  0.1035 -0.0872  0.2859
  154TMC2     C 2398   0.227   2.409   0.190  0.1909 -0.1470  0.2474
  154TMC2     O 2399   0.217   2.501   0.271  0.5174  0.6110  0.0720
  154TMC2     H 2400   0.462   2.526   0.263 -1.4942  0.7358 -2.0006
  154TMC2    H1 2401   0.308   2.166   0.077  1.0388 -0.1253 -1.9864
  154TMC2    H2 2402   0.725   2.226   0.102  0.0410 -0.5324  0.8696
  154TMC2    C7 2403   0.530   2.066   0.024 -0.1633 -0.7062  0.0260
  154TMC2    C8 2404   0.706   2.455   0.254 -0.4932  0.5537  0.1880
  154TMC2    O1 2405   0.444   2.044  17.695  0.5686 -0.0611  0.4962
  154TMC2    O2 2406   0.809   2.400   0.291  0.4110 -1.0474  0.3404
  154TMC2    O5 2407   0.678   2.590   0.251 -0.1097  0.3186  0.2738
  154TMC2    H5 2408   0.602   2.621   0.197 -0.3138 -1.4225 -0.4220
  155MPD2     C 2409   4.656   2.325   0.009  0.0602  0.1921 -0.2499
  155MPD2    C1 2410   4.733   2.383   0.109 -0.4444 -0.1857 -0.3224
  155MPD2    C2 2411   4.672   2.467   0.205  0.6650 -0.1167  0.1104
  155MPD2    C3 2412   4.533   2.484   0.198 -0.1805  0.0711 -0.3578
  155MPD2    C4 2413   4.458   2.425   0.095 -0.4375 -0.0117 -0.1789
  155MPD2    C5 2414   4.518   2.346   0.000  0.2159  0.2098  0.8557
  155MPD2     H 2415   4.720   2.495   0.297  0.8571 -2.7274  0.8065
  155MPD2    H1 2416   4.351   2.442   0.089 -0.0575  2.1846 -0.6799
  155MPD2    H2 2417   4.697   2.261  17.686 -0.2443  0.3622 -0.5523
  155MPD2    H3 2418   4.459   2.309  17.671 -0.3423 -0.3924  1.5084
  155MPD2     N 2419   4.472   2.537   0.309  0.2449  0.1876  0.2385
  155MPD2    H5 2420   4.535   2.571   0.381  1.4458  1.7062 -1.5339
  155MPD2    N1 2421   0.137   2.353   0.104  0.3777  0.2988  0.6716
  155MPD2    H7 2422   0.171   2.287   0.034  0.4754 -0.8226  1.7672
  156TMC2    C1 2423   3.526   4.566  12.009  0.3092  0.7293 -0.7689
  156TMC2    C2 2424   3.524   4.494  11.892 -0.1550 -0.0436  0.7538
  156TMC2    C3 2425   3.445   4.553  11.794 -0.3554 -0.2606 -0.3383
  156TMC2    C4 2426   3.459   4.684  12.030 -0.0424 -0.3216 -0.3276
  156TMC2    C5 2427   3.386   4.737  11.929 -0.2511 -0.5764  0.2751
  156TMC2    C6 2428   3.380   4.678  11.808  0.1024 -0.0576 -0.3268
  156TMC2     C 2429   3.595   4.517  12.130  0.4282  0.1169 -0.4632
  156TMC2     O 2430   3.592   4.592  12.226 -0.0673  0.7734 -0.2936
  156TMC2     H 2431   3.573   4.399  11.875  0.1214 -0.3551  3.3689
  156TMC2    H1 2432   3.479   0.004  12.119 -2.0391 -0.2390  0.0691
  156TMC2    H2 2433   3.381   4.738  11.717 -2.3168 -0.1545 -0.4348
  156TMC2    C7 2434   3.357   0.143  11.930 -0.0201 -0.2781  0.0313
  156TMC2    C8 2435   3.472   4.504  11.658 -1.2593  0.4510  0.1215
  156TMC2    O1 2436   3.417   0.223  12.001 -0.1532 -0.1493 -0.6025
  156TMC2    O2 2437   3.551   4.414  11.631 -0.8275 -0.2238  0.2205
  156TMC2    O5 2438   3.376   4.538  11.564 -0.2887 -0.0709 -0.4595
  156TMC2    H5 2439   3.301   4.596  11.591 -0.6604 -0.9967  0.4719
  157MPD2     C 2440   3.813   4.230  12.192 -0.0485 -0.4511 -0.2848
  157MPD2    C1 2441   3.757   4.356  12.198 -0.0303  0.2720  0.5630
  157MPD2    C2 2442   3.828   4.448  12.273  0.1162 -0.6577 -0.7944
  157MPD2    C3 2443   3.931   4.422  12.356 -0.4496  0.1212 -0.2812
  157MPD2    C4 2444   3.976   4.292  12.356  0.4445  0.3015  0.0588
  157MPD2    C5 2445   3.917   4.194  12.278  0.8023 -0.3411  0.3846
  157MPD2     H 2446   3.799   4.552  12.266  1.6018 -0.3220 -2.0273
  157MPD2    H1 2447   4.066   4.255  12.404  1.0468 -0.0099 -1.3144
  157MPD2    H2 2448   3.766   4.155  12.129 -0.2608 -1.9450  1.6450
  157MPD2    H3 2449   3.957   4.093  12.279  0.3306 -0.5297  0.4821
  157MPD2     N 2450   3.999   4.529  12.408  0.1298 -0.1740  0.6035
  157MPD2    H5 2451   3.963   4.622  12.389 -2.2293 -1.3648 -0.6472
  157MPD2    N1 2452   3.653   4.394  12.115 -0.0095  0.6252  0.1831
  157MPD2    H7 2453   3.620   4.327  12.047 -0.0693  1.2844 -0.4482
  158TMC2    C1 2454   3.366   3.573  13.177 -0.0880  0.2796  0.2137
  158TMC2    C2 2455   3.342   3.680  13.102 -0.2505  0.3576  0.2978
  158TMC2    C3 2456   3.246   3.673  13.006 -0.0343  0.5423  0.2411
  158TMC2    C4 2457   3.301   3.448  13.159 -0.3998 -0.1893 -0.8977
  158TMC2    C5 2458   3.208   3.450  13.062  0.6625  0.4762  0.3469
  158TMC2    C6 2459   3.178   3.562  12.984 -0.3958  0.5699 -0.1656
  158TMC2     C 2460   3.436   3.598  13.299  0.9120 -0.2469  0.3423
  158TMC2     O 2461   3.460   3.719  13.319  0.0485  0.2445 -0.2997
  158TMC2     H 2462   3.394   3.774  13.112 -0.2375  0.2938  0.8334
  158TMC2    H1 2463   3.308   3.372  13.236 -0.7345 -0.0166 -0.6978
  158TMC2    H2 2464   3.097   3.556  12.913 -0.7661 -1.2653  0.3876
  158TMC2    C7 2465   3.156   3.324  13.011  0.1586  0.6865 -0.1686
  158TMC2    C8 2466   3.223   3.789  12.935 -0.3976 -0.0431  0.5237
  158TMC2    O1 2467   3.085   3.330  12.913 -0.1657  0.2636 -0.0510
  158TMC2    O2 2468   3.298   3.883  12.925 -0.1494  0.3228  0.0935
  158TMC2    O5 2469   3.127   3.772  12.846  0.3269  0.0291  0.8399
  158TMC2    H5 2470   3.060   3.726  12.901  0.0625 -2.2565 -1.4106
  159MPD2     C 2471   3.775   3.544  13.659 -0.1766 -0.4333  0.3297
  159MPD2    C1 2472   3.799   3.442  13.567 -0.4321 -0.5699 -0.5108
  159MPD2    C2 2473   3.698   3.420  13.470  0.6248 -0.3976  0.2907
  159MPD2    C3 2474   3.590   3.500  13.464 -0.2599 -0.0223  0.0188
  159MPD2    C4 2475   3.572   3.599  13.555  0.2040 -0.4292  0.2225
  159MPD2    C5 2476   3.660   3.620  13.651  0.0326  0.1843 -0.4123
  159MPD2     H 2477   3.706   3.344  13.393 -3.4934 -0.9391  0.4046
  159MPD2    H1 2478   3.502   3.682  13.543  0.3578 -0.4062 -0.4970
  159MPD2    H2 2479   3.842   3.567  13.741 -2.3090  0.3861  1.8418
  159MPD2    H3 2480   3.646   3.700  13.723 -1.1627  0.7189 -1.2254
  159MPD2     N 2481   3.510   3.494  13.346  0.3699  0.1692 -0.4842
  159MPD2    H5 2482   3.523   3.418  13.281 -0.1791 -0.1300 -0.2385
  159MPD2    N1 2483   3.911   3.358  13.604  0.0499 -0.2656  0.6185
  159MPD2    H7 2484   3.963   3.386  13.686  3.6009 -2.6148 -0.8302
  160TMC2    C1 2485   4.096   1.231   0.900  1.0223 -0.0830 -0.0354
  160TMC2    C2 2486   4.187   1.206   0.992  0.6414 -0.0473 -0.1138
  160TMC2    C3 2487   4.306   1.267   0.970  0.1533 -0.0360 -0.0740
  160TMC2    C4 2488   4.112   1.324   0.803 -0.8844  0.2184  0.5972
  160TMC2    C5 2489   4.231   1.386   0.785 -0.4524 -0.1652  0.5412
  160TMC2    C6 2490   4.331   1.351   0.864 -0.1073  1.1776 -0.5410
  160TMC2     C 2491   3.965   1.215   0.952  0.3760 -0.1514  0.3763
  160TMC2     O 2492   3.942   1.124   1.032  0.3726 -0.2543  0.3130
  160TMC2     H 2493   4.167   1.127   1.064 -0.3183  1.5360  1.3560
  160TMC2    H1 2494   4.038   1.355   0.730  1.7850 -2.4187 -3.2344
  160TMC2    H2 2495   4.428   1.400   0.860  0.0829  0.7569 -1.0677
  160TMC2    C7 2496   4.245   1.485   0.686 -0.2903  0.2158  0.1131
  160TMC2    C8 2497   4.402   1.260   1.077 -0.0371  0.0039 -0.1600
  160TMC2    O1 2498   4.188   1.455   0.580  0.2810 -0.1819 -0.0454
  160TMC2    O2 2499   4.500   1.335   1.086  0.0570  0.3803 -0.2365
  160TMC2    O5 2500   4.392   1.139   1.136  0.0505 -0.4168 -0.4294
  160TMC2    H5 2501   4.331   1.072   1.098 -2.2163  1.8494 -0.8624
  161MPD2     C 2502   3.686   1.280   1.040 -0.4203 -0.3660  0.0102
  161MPD2    C1 2503   3.766   1.365   0.964 -0.1917 -0.0743  0.2537
  161MPD2    C2 2504   3.715   1.487   0.924  0.1881 -0.2868  0.1462
  161MPD2    C3 2505   3.585   1.525   0.964 -0.3521 -0.3428 -0.3197
  161MPD2    C4 2506   3.509   1.442   1.043  0.6101  0.2153 -0.0865
  161MPD2    C5 2507   3.562   1.320   1.085 -0.5238 -0.3619 -0.1816
  161MPD2     H 2508   3.778   1.553   0.867  0.9008  0.3354  1.6444
  161MPD2    H1 2509   3.405   1.461   1.068  0.1932 -2.2434 -0.0055
  161MPD2    H2 2510   3.705   1.174   1.057  2.0140  0.0457 -0.1863
  161MPD2    H3 2511   3.493   1.257   1.139  0.7068  0.0871  1.8945
  161MPD2     N 2512   3.532   1.653   0.925 -0.5205 -0.6494  0.1470
  161MPD2    H5 2513   3.432   1.663   0.940 -0.3297  0.0917  0.9644
  161MPD2    N1 2514   3.894   1.326   0.918  0.0671  0.0242  0.6782
  161MPD2    H7 2515   3.946   1.399   0.871 -0.7602  0.0650 -0.1709
  162TMC2    C1 2516   2.082   3.954   0.810  0.2252 -0.4750  0.1086
  162TMC2    C2 2517   2.115   4.082   0.768 -0.2264  0.1497  0.1052
  162TMC2    C3 2518   2.226   4.135   0.822  1.1018  0.4169  0.1547
  162TMC2    C4 2519   2.168   3.880   0.885 -0.2714  0.6817  0.1281
  162TMC2    C5 2520   2.272   3.944   0.945  0.2369  0.2530 -0.1160
  162TMC2    C6 2521   2.309   4.076   0.917 -0.0441 -0.2541  0.7064
  162TMC2     C 2522   2.013   3.873   0.706  0.5083 -0.7126 -0.3399
  162TMC2     O 2523   2.043   3.754   0.704  0.4745 -0.0750  0.4956
  162TMC2     H 2524   2.052   4.137   0.699  1.0312  1.7048  0.1821
  162TMC2    H1 2525   2.150   3.777   0.910 -1.1316  0.4573 -1.3717
  162TMC2    H2 2526   2.408   4.116   0.937 -0.7246  1.5519  0.4209
  162TMC2    C7 2527   2.369   3.875   1.024 -0.6844 -0.4858 -0.3894
  162TMC2    C8 2528   2.288   4.228   0.726 -0.0802 -0.4300 -0.2549
  162TMC2    O1 2529   2.429   3.946   1.107  0.2841  0.2137 -0.3286
  162TMC2    O2 2530   2.223   4.305   0.657  0.6295 -0.2554  1.0228
  162TMC2    O5 2531   2.395   4.156   0.676 -0.7162  0.2104 -0.8295
  162TMC2    H5 2532   2.429   4.089   0.739 -2.5309 -0.9522 -1.1120
  163MPD2     C 2533   1.766   3.887   0.260  1.2370 -0.5355 -0.0972
  163MPD2    C1 2534   1.855   3.795   0.309 -0.4665  0.3397 -0.4978
  163MPD2    C2 2535   1.899   3.805   0.441 -0.1332 -0.3495  0.0914
  163MPD2    C3 2536   1.873   3.920   0.514 -0.2875  0.3061  0.3657
  163MPD2    C4 2537   1.779   4.010   0.460 -0.1888 -0.6433 -0.4315
  163MPD2    C5 2538   1.722   3.988   0.341 -0.7169  0.1876 -0.0661
  163MPD2     H 2539   1.968   3.727   0.471 -1.9430 -1.7836  0.5641
  163MPD2    H1 2540   1.748   4.102   0.508  0.1797  0.2550 -1.8990
  163MPD2    H2 2541   1.718   3.883   0.163 -0.5209  1.8333  0.6687
  163MPD2    H3 2542   1.658   4.060   0.292 -0.5006  1.3729  1.3928
  163MPD2     N 2543   1.929   3.955   0.631 -0.2392  0.0208 -0.1386
  163MPD2    H5 2544   1.902   4.044   0.672  0.8449 -0.7266  2.1940
  163MPD2    N1 2545   1.896   3.697   0.216 -0.5014 -0.7074 -0.2690
  163MPD2    H7 2546   1.871   3.716   0.120  0.9953  2.3058 -0.0439
  164TMC2    C1 2547   1.815   2.580  10.993  0.2838  0.2810 -0.1755
  164TMC2    C2 2548   1.905   2.600  10.901  0.8786 -0.1196 -0.8048
  164TMC2    C3 2549   1.909   2.715  10.826  0.1065  0.1596  0.2034
  164TMC2    C4 2550   1.722   2.670  11.029 -0.4192 -0.2928 -0.2976
  164TMC2    C5 2551   1.732   2.787  10.963 -0.3523 -0.0375  0.2137
  164TMC2    C6 2552   1.813   2.810  10.857  0.1575  0.1211  0.1440
  164TMC2     C 2553   1.796   2.446  11.053  0.4074  0.2167 -0.6571
  164TMC2     O 2554   1.705   2.427  11.129  0.7198  0.1832  0.1583
  164TMC2     H 2555   1.968   2.518  10.867  0.6517 -0.2726 -0.8573
  164TMC2    H1 2556   1.644   2.651  11.102 -2.6739 -0.4632 -2.7541
  164TMC2    H2 2557   1.802   2.897  10.793 -1.8607 -0.1654  0.1032
  164TMC2    C7 2558   1.633   2.894  10.996 -0.3412 -0.5452  0.6217
  164TMC2    C8 2559   1.973   2.717  10.699  0.1354 -0.5114  0.8258
  164TMC2    O1 2560   1.533   2.862  11.060  0.3240  0.5894 -0.8422
  164TMC2    O2 2561   1.981   2.824  10.649 -0.3217  0.0606  0.0163
  164TMC2    O5 2562   1.938   2.603  10.640 -0.0091  0.5839 -0.1097
  164TMC2    H5 2563   1.871   2.550  10.687  1.1624 -0.5502  0.2911
  165TMC2    C1 2564   3.894   0.614   1.144  0.8770 -0.2935 -0.0425
  165TMC2    C2 2565   3.810   0.687   1.064 -0.2274  0.1518 -0.2929
  165TMC2    C3 2566   3.855   0.792   0.996 -0.9532 -0.2600 -0.2518
  165TMC2    C4 2567   4.026   0.654   1.169  0.0320  0.3385  0.2750
  165TMC2    C5 2568   4.072   0.760   1.093  0.3613  0.2847  0.3232
  165TMC2    C6 2569   3.988   0.821   1.001  0.2720  0.4016  0.4690
  165TMC2     C 2570   3.859   0.488   1.210  0.2979  0.6254  0.0591
  165TMC2     O 2571   3.917   0.457   1.313  0.1910  0.4019 -0.2957
  165TMC2     H 2572   3.707   0.657   1.047  0.1620 -0.8043 -0.9052
  165TMC2    H1 2573   4.091   0.596   1.233 -0.0437  1.5956  1.4928
  165TMC2    H2 2574   4.020   0.904   0.939  1.4931  1.8354  3.0639
  165TMC2    C7 2575   4.208   0.800   1.095 -0.4535  0.4068 -0.5005
  165TMC2    C8 2576   3.775   0.835   0.884  0.7003 -0.3986  0.5806
  165TMC2    O1 2577   4.241   0.894   1.025 -0.1686 -0.3026  0.3811
  165TMC2    O2 2578   3.679   0.773   0.842  0.2311 -0.0040  0.4274
  165TMC2    O5 2579   3.804   0.970   0.864  0.9005 -0.1155  0.0358
  165TMC2    H5 2580   3.860   1.016   0.931 -0.5311  0.1840  1.0253
  166MPD2     C 2581   3.698   0.004   1.203 -0.0244  0.2007 -0.0266
  166MPD2    C1 2582   3.739   0.081   1.307  0.4304  0.3335  0.4148
  166MPD2    C2 2583   3.762   0.215   1.274  0.0900 -0.3903 -0.6329
  166MPD2    C3 2584   3.747   0.275   1.152  0.2676  0.2369 -0.5472
  166MPD2    C4 2585   3.694   0.191   1.053  0.3891  0.6654  0.3934
  166MPD2    C5 2586   3.673   0.060   1.079  0.2440 -0.2121 -0.1621
  166MPD2     H 2587   3.795   0.278   1.356  2.2047  0.4639 -2.1494
  166MPD2    H1 2588   3.669   0.223   0.953  1.2315 -0.1493 -0.0727
  166MPD2    H2 2589   3.676   4.638   1.216 -2.8691  0.3613 -3.5570
  166MPD2    H3 2590   3.641   4.726   1.006 -0.8560  0.3025 -0.1990
  166MPD2     N 2591   3.778   0.412   1.128  0.1134 -0.3152  0.1546
  166MPD2    H5 2592   3.766   0.444   1.032  0.6319 -1.9246 -0.4472
  166MPD2    N1 2593   3.753   0.022   1.431  0.1149 -0.3093 -0.2689
  166MPD2    H7 2594   3.719   4.665   1.436  2.2107 -0.8526  3.6165
  167TMC2    C1 2595   1.547   2.186  13.077  0.1429  0.0656  0.8031
  167TMC2    C2 2596   1.458   2.213  13.177 -0.4345 -0.1747 -0.2380
  167TMC2    C3 2597   1.322   2.222  13.140 -0.1635  0.3632 -0.0629
  167TMC2    C4 2598   1.510   2.168  12.950  0.2586  0.3846  0.1801
  167TMC2    C5 2599   1.379   2.176  12.919 -0.1497  0.4737  0.4690
  167TMC2    C6 2600   1.286   2.194  13.016 -0.2295  0.7175 -0.0853
  167TMC2     C 2601   1.685   2.206  13.122 -0.8468  0.5025 -0.5535
  167TMC2     O 2602   1.724   2.189  13.236  0.3707 -0.1895  0.2882
  167TMC2     H 2603   1.494   2.228  13.278 -0.5024 -1.0662 -0.0858
  167TMC2    H1 2604   1.583   2.142  12.875 -0.4373  0.0126 -0.3640
  167TMC2    H2 2605   1.182   2.188  12.988 -0.6070 -4.0801  2.4176
  167TMC2    C7 2606   1.328   2.163  12.783 -0.7519  0.0578  0.2309
  167TMC2    C8 2607   1.211   2.268  13.241  0.3049 -0.1468  0.5175
  167TMC2    O1 2608   1.207   2.135  12.772  0.0919  0.1795 -0.0573
  167TMC2    O2 2609   1.097   2.222  13.217 -0.1793  0.1405 -0.5393
  167TMC2    O5 2610   1.267   2.302  13.359 -0.6735  0.3275  0.1040
  167TMC2    H5 2611   1.362   2.318  13.341 -1.0719 -0.1875 -2.4435
  168MPD2     C 2612   1.978   2.269  13.126  0.0565 -0.3955  0.3859
  168MPD2    C1 2613   1.894   2.292  13.022  0.2865 -0.2994 -0.0240
  168MPD2    C2 2614   1.931   2.368  12.913  0.3442  0.1655  0.1356
  168MPD2    C3 2615   2.058   2.428  12.919  0.1183  0.0612 -0.0252
  168MPD2    C4 2616   2.147   2.405  13.026  0.3920  0.0413  0.2697
  168MPD2    C5 2617   2.105   2.327  13.127 -0.3736 -0.0438  0.5847
  168MPD2     H 2618   1.870   2.387  12.825  1.0158 -0.7407 -0.5321
  168MPD2    H1 2619   2.238   2.460  13.046 -0.0264  0.8564 -0.0877
  168MPD2    H2 2620   1.949   2.210  13.211 -0.8550 -0.8027 -0.2071
  168MPD2    H3 2621   2.179   2.299  13.201  1.4929  0.1279 -1.2138
  168MPD2     N 2622   2.080   2.533  12.825 -0.0353 -0.3950  0.1061
  168MPD2    H5 2623   2.006   2.545  12.757 -0.3810 -3.3106 -0.0344
  168MPD2    N1 2624   1.758   2.251  13.019  0.1526 -0.2326 -0.1628
  168MPD2    H7 2625   1.715   2.274  12.930  1.5070  4.5226  0.4084
  169MPD1     C 2626   2.377   2.832   9.673  0.8952 -0.6088 -0.0940
  169MPD1    C1 2627   2.496   2.852   9.613  0.5383 -0.6832 -0.0550
  169MPD1    C2 2628   2.585   2.757   9.648  0.4986 -0.0771  0.1652
  169MPD1    C3 2629   2.556   2.637   9.711 -0.2964 -0.1118  0.4863
  169MPD1    C4 2630   2.424   2.616   9.744 -0.6032  0.0693  0.3291
  169MPD1    C5 2631   2.341   2.714   9.723 -1.0308 -0.0383 -0.0758
  169MPD1     H 2632   2.688   2.779   9.625  0.8673 -1.1541  0.7639
  169MPD1    H1 2633   2.388   2.525   9.791 -0.2439  0.6357  1.7036
  169MPD1    H2 2634   2.301   2.908   9.663  0.1720 -1.0886  1.8043
  169MPD1    H3 2635   2.240   2.705   9.763 -0.5237 -2.9010  0.5302
  169MPD1     N 2636   2.660   2.544   9.731  0.9269  0.3327  0.3056
  169MPD1    H5 2637   2.751   2.580   9.705  2.1869 -2.3512  0.9734
  169MPD1    N1 2638   2.537   2.982   9.579  0.5090  0.3410 -0.4391
  169MPD1    H6 2639   2.463   3.030   9.527 -0.7275 -2.5687 -1.3483
  169MPD1    H7 2640   2.624   2.980   9.527  0.8326 -0.8973  0.1521
  170MPD1     C 2641   3.076   0.889  12.784 -0.5191  0.2150  0.2286
  170MPD1    C1 2642   2.944   0.877  12.767  0.1893 -0.2462 -0.2930
  170MPD1    C2 2643   2.878   0.800  12.862  0.5874  0.2694 -0.3357
  170MPD1    C3 2644   2.943   0.747  12.979 -0.4032 -0.4250 -0.1525
  170MPD1    C4 2645   3.072   0.796  13.005 -0.3160  0.4766 -0.0250
  170MPD1    C5 2646   3.133   0.864  12.902  0.2910  0.6030  0.4666
  170MPD1     H 2647   2.774   0.771  12.849  0.3488  0.7317  0.4957
  170MPD1    H1 2648   3.136   0.782  13.092  0.8549  3.0989 -0.4627
  170MPD1    H2 2649   3.129   0.942  12.705 -1.9985  1.4242  0.0594
  170MPD1    H3 2650   3.240   0.879  12.906  0.5484 -0.8207 -0.7939
  170MPD1     N 2651   2.874   0.671  13.071  0.0253  0.8090 -0.3378
  170MPD1    H5 2652   2.788   0.637  13.028  0.1968  1.0674 -0.8895
  170MPD1    N1 2653   2.878   0.896  12.648 -0.2364 -0.2105  0.1856
  170MPD1    H6 2654   2.782   0.927  12.665 -0.3171 -0.7962  0.8089
  170MPD1    H7 2655   2.918   0.973  12.595  1.1101 -0.2952  1.0799
  171MPD1     C 2656   0.907   1.646  15.292  0.4659 -0.5536 -0.3902
  171MPD1    C1 2657   0.837   1.527  15.328  0.8104 -0.5608  0.4309
  171MPD1    C2 2658   0.900   1.453  15.429 -0.3578  0.0229  0.2217
  171MPD1    C3 2659   1.028   1.482  15.475  1.1818 -0.7382 -0.5956
  171MPD1    C4 2660   1.093   1.596  15.437 -0.1367  1.1190 -0.9598
  171MPD1    C5 2661   1.028   1.677  15.349 -0.3292 -0.3027 -0.0836
  171MPD1     H 2662   0.849   1.361  15.456  1.4390 -1.2798 -0.8814
  171MPD1    H1 2663   1.191   1.627  15.472  1.2009 -1.5595 -2.3756
  171MPD1    H2 2664   0.855   1.722  15.236 -0.1301 -0.2963  0.5144
  171MPD1    H3 2665   1.078   1.770  15.326 -0.0136  0.1477  2.4163
  171MPD1     N 2666   1.102   1.396  15.555  0.0869 -0.1581 -0.5206
  171MPD1    H5 2667   1.196   1.431  15.569 -0.1311 -0.3617  1.3965
  171MPD1    N1 2668   0.703   1.497  15.289 -0.0017  0.6406  0.3661
  171MPD1    H6 2669   0.669   1.558  15.215  0.1245  0.3389  0.0594
  171MPD1    H7 2670   0.694   1.400  15.258 -0.9674  1.3306 -1.5493
  172MPD1     C 2671   0.317   0.526  17.654 -0.1509  0.7436 -0.3048
  172MPD1    C1 2672   0.290   0.533   0.037  0.6567  0.5185 -1.0606
  172MPD1    C2 2673   0.361   0.625   0.114  0.3586 -1.2266  0.4376
  172MPD1    C3 2674   0.467   0.693   0.052  0.3692  0.4918 -0.7117
  172MPD1    C4 2675   0.496   0.676  17.678 -0.2680  0.4731  0.2633
  172MPD1    C5 2676   0.418   0.596  17.593 -0.0723 -0.0675 -0.1285
  172MPD1     H 2677   0.348   0.629   0.222 -0.8543  1.4531  0.1812
  172MPD1    H1 2678   0.582   0.729  17.640 -0.9664 -0.3139 -2.3769
  172MPD1    H2 2679   0.263   0.458  17.589  3.1443 -1.2467 -0.9670
  172MPD1    H3 2680   0.438   0.598  17.487 -1.6489 -0.2605 -0.4309
  172MPD1     N 2681   0.546   0.783   0.115 -0.0742 -0.2064 -0.3943
  172MPD1    H5 2682   0.624   0.826   0.066  1.0126 -2.9933 -1.1145
  172MPD1    N1 2683   0.211   0.431   0.091 -0.3971  0.0735 -0.1980
  172MPD1    H6 2684   0.148   0.461   0.165 -0.1608  0.0125  0.0315
  172MPD1    H7 2685   0.162   0.376   0.021  0.0688 -1.5208  0.7472
  173MPD1     C 2686   2.000   0.572  13.395 -0.0918 -0.8509  0.6531
  173MPD1    C1 2687   1.949   0.672  13.472 -0.3785 -0.2383  0.0674
  173MPD1    C2 2688   1.957   0.656  13.612 -0.1549 -0.5685  0.4544
  173MPD1    C3 2689   2.022   0.546  13.665 -0.1479 -0.0096  0.1092
  173MPD1    C4 2690   2.065   0.448  13.580  0.1085 -0.3641  0.1528
  173MPD1    C5 2691   2.061   0.471  13.445 -0.3477  0.4374 -1.0297
  173MPD1     H 2692   1.901   0.725  13.674 -0.4844 -0.5342  0.1205
  173MPD1    H1 2693   2.125   0.362  13.607 -0.4649 -0.2623  1.7780
  173MPD1    H2 2694   2.002   0.584  13.287  2.5037 -1.2302  0.6684
  173MPD1    H3 2695   2.096   0.388  13.385  0.4207  0.6307 -0.8401
  173MPD1     N 2696   2.030   0.542  13.809 -0.1571 -0.4261 -0.5045
  173MPD1    H5 2697   1.994   0.627  13.849  1.3983 -0.2818  0.6227
  173MPD1    N1 2698   1.874   0.773  13.415 -0.5965  0.1534 -0.1427
  173MPD1    H6 2699   1.910   0.790  13.321  1.3793 -0.7661  0.4540
  173MPD1    H7 2700   1.880   0.865  13.458 -0.8193  0.1473 -0.0968
  174MPD1     C 2701   2.773   0.113  14.283  0.2790  0.3526  0.0033
  174MPD1    C1 2702   2.725   0.193  14.389  0.2297 -0.5046  0.0111
  174MPD1    C2 2703   2.599   0.253  14.360 -0.1997  0.1293  0.3604
  174MPD1    C3 2704   2.538   0.249  14.231 -0.3957  0.0126  0.2026
  174MPD1    C4 2705   2.596   0.179  14.129  0.2111 -0.0755  0.0261
  174MPD1    C5 2706   2.717   0.111  14.155  0.6056  1.2090  0.8916
  174MPD1     H 2707   2.550   0.300  14.444  1.6017 -0.1158  1.5483
  174MPD1    H1 2708   2.558   0.169  14.028 -0.5522  1.0840  0.1981
  174MPD1    H2 2709   2.861   0.052  14.302  0.8830  0.6269 -1.9383
  174MPD1    H3 2710   2.767   0.053  14.077  0.4845  1.6051  0.5242
  174MPD1     N 2711   2.409   0.303  14.197 -0.0386 -0.1853 -0.4120
  174MPD1    H5 2712   2.407   0.311  14.096 -0.6722  0.8548 -0.3176
  174MPD1    N1 2713   2.765   0.168  14.520  0.2266 -0.3099  0.8722
  174MPD1    H6 2714   2.864   0.143  14.524 -0.1750 -1.9397  0.7151
  174MPD1    H7 2715   2.757   0.252  14.577  1.3364  0.1483  0.3557
  175MPD1     C 2716   0.450   1.464  15.532 -0.3276  0.5695 -0.5419
  175MPD1    C1 2717   0.312   1.478  15.552 -0.3386  0.7286 -0.3203
  175MPD1    C2 2718   0.250   1.412  15.657  0.0425 -0.6296 -0.4952
  175MPD1    C3 2719   0.322   1.323  15.738  0.6763 -0.5313  0.4964
  175MPD1    C4 2720   0.460   1.310  15.714  0.0632 -0.7088 -0.2477
  175MPD1    C5 2721   0.526   1.379  15.610  0.0675 -0.5014 -0.1423
  175MPD1     H 2722   0.148   1.437  15.685  0.3123 -1.1107  0.9136
  175MPD1    H1 2723   0.519   1.244  15.776  1.8870  0.3933 -0.8222
  175MPD1    H2 2724   0.501   1.535  15.467  0.3827 -0.2879 -0.9194
  175MPD1    H3 2725   0.632   1.358  15.599 -0.5151 -2.3296 -2.2203
  175MPD1     N 2726   0.280   1.279  15.866 -0.1804 -0.1254 -0.3333
  175MPD1    H5 2727   0.350   1.227  15.919  1.0429  2.1137  0.2413
  175MPD1    N1 2728   0.239   1.574  15.481  0.7763  0.6739 -1.1741
  175MPD1    H6 2729   0.262   1.569  15.382 -1.1047  0.6543 -1.6176
  175MPD1    H7 2730   0.141   1.547  15.491  1.0261  0.2026  0.0290
  176MPD1     C 2731   1.863   3.506  17.486  0.2442 -0.2768  0.2337
  176MPD1    C1 2732   1.761   3.596  17.455 -0.3852  0.0574  0.6710
  176MPD1    C2 2733   1.798   3.720  17.418 -0.2156 -0.2215 -0.1412
  176MPD1    C3 2734   1.931   3.755  17.408  0.1289 -0.0375 -0.5452
  176MPD1    C4 2735   2.031   3.660  17.423 -0.1137 -0.0109  0.3722
  176MPD1    C5 2736   1.994   3.536  17.451 -0.2802  0.4043  0.1672
  176MPD1     H 2737   1.718   3.792  17.406  0.5718  0.3718 -1.8502
  176MPD1    H1 2738   2.135   3.680  17.399 -1.0002  0.2963 -3.2642
  176MPD1    H2 2739   1.843   3.407  17.526  1.5753 -0.3396  0.7424
  176MPD1    H3 2740   2.075   3.465  17.462 -0.7883 -0.4419 -1.3971
  176MPD1     N 2741   1.980   3.886  17.373  1.3226  0.0529 -0.3250
  176MPD1    H5 2742   2.081   3.891  17.362  1.5131 -0.0301  1.3828
  176MPD1    N1 2743   1.626   3.571  17.486  0.1068  0.1885  0.2735
  176MPD1    H6 2744   1.565   3.638  17.439  0.7532  1.5526  1.3835
  176MPD1    H7 2745   1.602   3.474  17.468  0.7113  0.1495 -0.3716
  177MPD1     C 2746   4.490   3.008  10.035  0.7133  0.4810  1.0196
  177MPD1    C1 2747   4.370   2.955   9.984  0.6617  0.6680 -0.2916
  177MPD1    C2 2748   4.291   3.030   9.901 -0.3934  0.8675  0.4601
  177MPD1    C3 2749   4.343   3.143   9.838  0.1234 -0.0423  0.7791
  177MPD1    C4 2750   4.467   3.186   9.880  0.2812 -0.4654 -0.4209
  177MPD1    C5 2751   4.541   3.122   9.975 -0.0503  0.2156 -0.2994
  177MPD1     H 2752   4.190   2.999   9.875 -0.4805  0.0461  1.7880
  177MPD1    H1 2753   4.520   3.268   9.833  3.8366 -1.1859  2.3273
  177MPD1    H2 2754   4.556   2.950  10.099  2.0735  1.5739  0.6115
  177MPD1    H3 2755   4.639   3.157  10.005  0.4108 -0.7555 -0.6715
  177MPD1     N 2756   4.267   3.201   9.737 -0.1564  0.0164  0.2952
  177MPD1    H5 2757   4.171   3.173   9.723 -0.3106  0.0977  1.1546
  177MPD1    N1 2758   4.330   2.834  10.042 -0.2910 -0.4726 -0.2963
  177MPD1    H6 2759   4.282   2.775   9.974  0.1899  1.6191 -2.4877
  177MPD1    H7 2760   4.411   2.780  10.072 -0.4558 -1.4233 -1.5305
  178MPD1     C 2761   3.192   4.280   0.097 -0.4124 -0.5427 -0.5078
  178MPD1    C1 2762   3.092   4.266   0.004  0.1717  0.0410  0.1924
  178MPD1    C2 2763   3.124   4.315  17.632 -0.1274 -0.3520  0.1165
  178MPD1    C3 2764   3.239   4.388  17.605 -0.4747 -0.1226 -0.6103
  178MPD1    C4 2765   3.332   4.404  17.698  0.0231 -0.4278  0.1567
  178MPD1    C5 2766   3.305   4.352   0.074  0.7109  0.0934 -0.2756
  178MPD1     H 2767   3.057   4.293  17.551 -1.2258  3.5991 -0.0725
  178MPD1    H1 2768   3.429   4.448  17.678 -0.3164 -0.0238 -0.5800
  178MPD1    H2 2769   3.188   4.233   0.194  1.8094 -1.8802 -1.0674
  178MPD1    H3 2770   3.376   4.379   0.152  1.9306 -0.3967 -1.2068
  178MPD1     N 2771   3.266   4.442  17.471  0.2975  0.1400 -0.0246
  178MPD1    H5 2772   3.349   4.500  17.464  1.2896 -1.1146  1.0538
  178MPD1    N1 2773   2.981   4.171   0.018  0.5538  0.5369 -0.0664
  178MPD1    H6 2774   2.906   4.198  17.709 -1.2362 -0.0868  1.7760
  178MPD1    H7 2775   2.938   4.164   0.110  2.2489  1.7499  0.8096
  179MPD1     C 2776   2.178   3.255  15.251  0.1432  0.2502  1.0259
  179MPD1    C1 2777   2.290   3.199  15.311  0.0242  0.3077  0.0798
  179MPD1    C2 2778   2.283   3.106  15.413  0.4196 -0.6490 -0.1908
  179MPD1    C3 2779   2.159   3.081  15.471  0.1360 -0.0299  0.4320
  179MPD1    C4 2780   2.048   3.142  15.417 -0.4598 -0.4484  0.5204
  179MPD1    C5 2781   2.055   3.219  15.306  0.3427 -0.0091  0.9856
  179MPD1     H 2782   2.373   3.058  15.450 -0.0994 -1.1191  0.4441
  179MPD1    H1 2783   1.950   3.123  15.459 -0.2186 -0.7604  0.9414
  179MPD1    H2 2784   2.178   3.323  15.167  2.4574 -3.8085 -2.2865
  179MPD1    H3 2785   1.964   3.258  15.260 -0.7072 -2.6555  0.8196
  179MPD1     N 2786   2.141   2.981  15.568 -0.5802  1.2256 -0.4025
  179MPD1    H5 2787   2.046   2.959  15.596  0.2161  0.6489  1.7695
  179MPD1    N1 2788   2.418   3.230  15.262 -1.1318  0.3441  0.8529
  179MPD1    H6 2789   2.496   3.225  15.326 -1.3678 -0.9055  1.0435
  179MPD1    H7 2790   2.412   3.321  15.217  1.3308  1.2258  2.3368
  180MPD1     C 2791   1.620   4.212  14.967  0.4709 -0.4202 -0.0102
  180MPD1    C1 2792   1.741   4.253  14.922  0.1915  0.0238 -0.0449
  180MPD1    C2 2793   1.763   4.245  14.787 -0.1113  0.0303  0.4701
  180MPD1    C3 2794   1.668   4.183  14.701  0.0397 -0.3614 -0.7324
  180MPD1    C4 2795   1.555   4.139  14.752 -0.0319  0.2264  0.1656
  180MPD1    C5 2796   1.533   4.148  14.887 -0.2020  0.0952  0.0551
  180MPD1     H 2797   1.857   4.275  14.743 -0.0261 -0.3979  0.3651
  180MPD1    H1 2798   1.475   4.085  14.702  3.4245 -2.8770 -2.0184
  180MPD1    H2 2799   1.598   4.228  15.072  0.0255 -0.4730 -0.0948
  180MPD1    H3 2800   1.435   4.124  14.926  0.6123 -0.2533  1.8698
  180MPD1     N 2801   1.687   4.177  14.565 -0.2363  0.6594 -0.3191
  180MPD1    H5 2802   1.783   4.187  14.533  0.1224  0.8886  0.8048
  180MPD1    N1 2803   1.821   4.338  14.998 -0.0007 -0.9333  0.0286
  180MPD1    H6 2804   1.918   4.355  14.974 -0.2655  0.0354 -0.3546
  180MPD1    H7 2805   1.806   4.325  15.098 -2.2355  1.7287  0.0244
  181MPD1     C 2806   2.053   1.507   9.654  0.6056  0.0235 -0.2670
  181MPD1    C1 2807   2.125   1.609   9.608 -0.6718 -0.3607 -0.0595
  181MPD1    C2 2808   2.257   1.618   9.654 -0.1754  0.0716  0.0566
  181MPD1    C3 2809   2.307   1.525   9.749  0.1805  0.1888 -0.2933
  181MPD1    C4 2810   2.222   1.432   9.803  0.1952  0.6433 -0.3064
  181MPD1    C5 2811   2.093   1.418   9.755 -0.7978 -0.2480 -0.6563
  181MPD1     H 2812   2.325   1.678   9.594  0.3253 -0.5933 -0.0497
  181MPD1    H1 2813   2.244   1.358   9.879  0.2616  0.8394 -0.1365
  181MPD1    H2 2814   1.958   1.483   9.607 -0.4573  3.6925 -0.0483
  181MPD1    H3 2815   2.031   1.339   9.795 -0.5935  0.8960  1.9229
  181MPD1     N 2816   2.441   1.521   9.789  0.0720  0.2917  0.2739
  181MPD1    H5 2817   2.482   1.449   9.847 -2.4610 -1.4586 -0.0821
  181MPD1    N1 2818   2.084   1.672   9.490  0.1122  0.8351  0.0009
  181MPD1    H6 2819   1.984   1.688   9.493 -0.0886 -0.6484  1.4158
  181MPD1    H7 2820   2.130   1.762   9.480 -2.0343  1.8402 -0.7734
  182MPD1     C 2821   0.033   4.477   0.936 -0.3760 -0.3086 -0.0533
  182MPD1    C1 2822   0.102   4.582   0.990  0.6695  0.3083 -0.0664
  182MPD1    C2 2823   0.078   4.705   0.931  0.0301  0.4423  0.8267
  182MPD1    C3 2824   0.000   4.720   0.814  0.5018  0.4286 -0.2610
  182MPD1    C4 2825   4.678   4.611   0.758  0.1701  0.4984 -0.1277
  182MPD1    C5 2826   4.691   4.488   0.827  0.2666 -0.2982  0.7901
  182MPD1     H 2827   0.119   0.051   0.985 -1.5478  0.6749  1.6713
  182MPD1    H1 2828   4.612   4.630   0.674  0.2258 -1.1767 -0.5591
  182MPD1    H2 2829   0.025   4.385   0.992 -0.5051  0.1685  0.7104
  182MPD1    H3 2830   4.632   4.406   0.787 -0.2886 -0.2275  1.4767
  182MPD1     N 2831   4.725   0.101   0.739  0.0268  0.7303 -0.3278
  182MPD1    H5 2832   4.648   0.100   0.672 -0.8888 -2.2777  0.7523
  182MPD1    N1 2833   0.166   4.571   1.114 -0.5099 -0.0618 -0.0595
  182MPD1    H6 2834   0.221   4.486   1.124  1.7199  1.6897  2.5482
  182MPD1    H7 2835   0.224   4.650   1.141 -1.0839 -0.5491  2.5337
  183MPD1     C 2836   3.442   4.696   9.186 -0.5787 -0.0037  0.4265
  183MPD1    C1 2837   3.567   4.721   9.234  0.2821  0.8162 -0.2118
  183MPD1    C2 2838   3.584   0.083   9.326 -0.0066  0.7390  0.3594
  183MPD1    C3 2839   3.476   0.143   9.384 -0.0266  0.0726  0.2419
  183MPD1    C4 2840   3.349   0.113   9.349 -0.2457  0.2162  0.8593
  183MPD1    C5 2841   3.334   0.027   9.246 -0.1732 -0.1194  0.2452
  183MPD1     H 2842   3.685   0.115   9.353 -0.8218  2.6219  1.1542
  183MPD1    H1 2843   3.259   0.152   9.394  0.6813  2.5433  0.6684
  183MPD1    H2 2844   3.422   4.615   9.117  0.8168  1.7454 -2.0413
  183MPD1    H3 2845   3.231   0.008   9.218  0.1136  0.6013 -1.3291
  183MPD1     N 2846   3.500   0.250   9.472  0.0576  0.1064  0.4517
  183MPD1    H5 2847   3.592   0.252   9.514  0.2670 -2.6406  0.1094
  183MPD1    N1 2848   3.671   4.654   9.167 -0.2426  0.2101  0.5275
  183MPD1    H6 2849   3.639   4.565   9.130  3.1235 -0.2187 -1.3940
  183MPD1    H7 2850   3.752   4.648   9.229 -0.6674 -0.7984  0.9943
  184MPD1     C 2851   3.174   2.978   9.045  0.0979  0.7573 -0.3515
  184MPD1    C1 2852   3.294   3.044   9.023 -0.3436  0.1815 -0.3457
  184MPD1    C2 2853   3.353   3.101   9.131  0.0169  0.6063 -0.0065
  184MPD1    C3 2854   3.295   3.101   9.257  0.5017 -0.1619  0.3698
  184MPD1    C4 2855   3.185   3.019   9.278 -0.4690  0.2542 -0.2620
  184MPD1    C5 2856   3.125   2.959   9.170  0.1166  0.5677 -0.5356
  184MPD1     H 2857   3.446   3.152   9.107  1.7074 -2.7033 -0.5505
  184MPD1    H1 2858   3.145   3.010   9.378 -0.2629  1.6292 -0.0556
  184MPD1    H2 2859   3.126   2.934   8.958 -0.0646 -1.0904  0.6643
  184MPD1    H3 2860   3.038   2.896   9.186 -0.5507  1.1461 -1.8539
  184MPD1     N 2861   3.351   3.170   9.366 -0.6070  0.1998 -0.1119
  184MPD1    H5 2862   3.311   3.162   9.458  0.5120 -2.4444  0.1524
  184MPD1    N1 2863   3.343   3.041   8.896  0.1217  0.5231 -0.6835
  184MPD1    H6 2864   3.441   3.014   8.895  0.2635  0.9667  1.3538
  184MPD1    H7 2865   3.300   2.963   8.847  0.7619 -1.5976  2.1254
  185MPD1     C 2866   3.100   2.978  10.150  0.1883 -0.5226 -0.4665
  185MPD1    C1 2867   3.234   2.941  10.147  0.1912  0.8167 -0.7470
  185MPD1    C2 2868   3.318   2.963  10.039  0.0864  0.0667 -0.1283
  185MPD1    C3 2869   3.266   3.041   9.931 -0.2284 -0.1069 -0.3268
  185MPD1    C4 2870   3.133   3.075   9.934  0.0930 -0.1098  0.0183
  185MPD1    C5 2871   3.053   3.038  10.042  0.2768 -0.0514  0.0858
  185MPD1     H 2872   3.424   2.946  10.056 -0.5354 -4.1488 -0.6354
  185MPD1    H1 2873   3.087   3.126   9.850 -0.7686 -1.3804 -0.2764
  185MPD1    H2 2874   3.036   2.959  10.235  0.0885  0.5642 -0.3028
  185MPD1    H3 2875   2.952   3.075  10.054  0.3974  0.0964  0.6636
  185MPD1     N 2876   3.347   3.095   9.827  0.7516 -0.3272  0.0547
  185MPD1    H5 2877   3.297   3.156   9.763 -1.3786 -3.5369 -1.3759
  185MPD1    N1 2878   3.294   2.862  10.251  0.3307  0.2043 -0.2841
  185MPD1    H6 2879   3.255   2.892  10.340  1.3492  0.8303 -0.0450
  185MPD1    H7 2880   3.396   2.872  10.246  0.2373 -0.9208 -4.1700
  186MPD1     C 2881   2.897   2.932  15.302  0.3956  0.2487  0.4308
  186MPD1    C1 2882   2.860   2.819  15.374  0.4521 -0.3443  0.7478
  186MPD1    C2 2883   2.869   2.830  15.512  0.2975  0.3193  0.4267
  186MPD1    C3 2884   2.901   2.950  15.573  0.8643 -0.0372 -0.8760
  186MPD1    C4 2885   2.952   3.051  15.500 -0.6566  0.1777 -0.8630
  186MPD1    C5 2886   2.947   3.045  15.357  0.6352  0.2097 -0.5289
  186MPD1     H 2887   2.825   2.752  15.574 -1.7008  0.7912 -0.3890
  186MPD1    H1 2888   2.999   3.139  15.543  1.6095 -1.1990 -0.5706
  186MPD1    H2 2889   2.888   2.930  15.194  1.8771  0.4915  0.2970
  186MPD1    H3 2890   2.997   3.125  15.304  1.2207 -0.1936 -0.5791
  186MPD1     N 2891   2.907   2.972  15.711 -0.2077  0.5215 -0.1289
  186MPD1    H5 2892   2.957   3.056  15.739 -1.1995  0.7055  1.0696
  186MPD1    N1 2893   2.798   2.703  15.314 -0.7176  0.7911 -0.1771
  186MPD1    H6 2894   2.866   2.673  15.245  0.1465 -0.7836  1.3606
  186MPD1    H7 2895   2.793   2.614  15.362 -0.5289  0.7987 -0.1440
  187MPD1     C 2896   2.411   4.629  17.372 -0.6664 -0.3310  0.2079
  187MPD1    C1 2897   2.481   4.690  17.274 -0.0415  0.5475 -0.0180
  187MPD1    C2 2898   2.404   0.017  17.179  0.7327  0.6737 -0.0387
  187MPD1    C3 2899   2.266   0.026  17.194  0.4842 -0.1975 -0.2823
  187MPD1    C4 2900   2.204   4.702  17.298  0.0054  0.1550 -0.1156
  187MPD1    C5 2901   2.275   4.639  17.389  0.5675  0.3760 -0.0390
  187MPD1     H 2902   2.443   0.053  17.085  0.7823 -2.2517 -1.1340
  187MPD1    H1 2903   2.101   4.720  17.325 -0.1566 -0.4104 -0.3658
  187MPD1    H2 2904   2.469   4.551  17.420 -0.1235 -1.1835 -1.8153
  187MPD1    H3 2905   2.224   4.597  17.475  0.0904  0.1243 -0.4421
  187MPD1     N 2906   2.186   0.092  17.103 -0.0756  0.2931 -0.0599
  187MPD1    H5 2907   2.090   0.096  17.136  0.0612 -0.8605  0.4984
  187MPD1    N1 2908   2.619   4.650  17.253  0.0654 -0.0224 -0.4656
  187MPD1    H6 2909   2.676   4.612  17.328  1.1599  0.2304 -1.1546
  187MPD1    H7 2910   2.665   4.725  17.202 -1.1737  1.9208  1.2827
  188MPD1     C 2911   0.987   0.017  10.069 -0.7025  0.8297 -0.7545
  188MPD1    C1 2912   1.093   0.004  10.155  0.6869  0.7804  0.3368
  188MPD1    C2 2913   1.137   4.614  10.180  0.1387  0.6602 -1.1144
  188MPD1    C3 2914   1.072   4.495  10.136  0.5281  0.0530 -0.0554
  188MPD1    C4 2915   0.954   4.516  10.077  0.0043  0.4091 -0.0315
  188MPD1    C5 2916   0.919   4.644  10.036 -0.1187  0.4644  0.1287
  188MPD1     H 2917   1.237   4.603  10.223 -0.4440  0.4723  0.2021
  188MPD1    H1 2918   0.905   4.429  10.036 -0.7512  0.2933  1.1043
  188MPD1    H2 2919   0.945   0.113  10.044  0.9876  2.5614  3.1287
  188MPD1    H3 2920   0.836   4.648   9.967 -1.1619 -1.4755  1.2827
  188MPD1     N 2921   1.115   4.365  10.138 -0.3276  0.4402  0.0346
  188MPD1    H5 2922   1.042   4.296  10.118  1.4985 -1.6539  0.5783
  188MPD1    N1 2923   1.178   0.113  10.175  0.1449 -0.0791  0.0190
  188MPD1    H6 2924   1.138   0.204  10.198  0.9740  0.3052 -0.0516
  188MPD1    H7 2925   1.240   0.101  10.255  1.2755 -2.2674 -1.2076
  189MPD1     C 2926   3.353   1.140   0.345 -0.3956  0.4862  0.4675
  189MPD1    C1 2927   3.213   1.134   0.337 -0.1403  0.2276 -0.3989
  189MPD1    C2 2928   3.141   1.245   0.294  0.2271 -0.0391 -0.2969
  189MPD1    C3 2929   3.211   1.364   0.276  0.0722  0.5853  0.5923
  189MPD1    C4 2930   3.351   1.368   0.299 -1.0962  0.4953 -0.6468
  189MPD1    C5 2931   3.421   1.257   0.336  0.8122  0.2061 -0.1910
  189MPD1     H 2932   3.037   1.236   0.267  0.8656  0.8592 -3.0166
  189MPD1    H1 2933   3.402   1.463   0.289  2.8457 -1.7485 -1.8198
  189MPD1    H2 2934   3.407   1.060   0.396 -0.0565  0.8313  0.6509
  189MPD1    H3 2935   3.525   1.262   0.365  0.6072  1.3302  0.3745
  189MPD1     N 2936   3.134   1.477   0.233 -0.5370 -0.2798 -0.1479
  189MPD1    H5 2937   3.034   1.467   0.222 -0.5959  0.1100  0.0364
  189MPD1    N1 2938   3.148   1.010   0.333 -0.4880  0.6710  0.1129
  189MPD1    H6 2939   3.049   1.023   0.353 -0.7454 -0.8900 -0.1488
  189MPD1    H7 2940   3.190   0.946   0.400 -0.5312  0.6231  0.0938
  190MPD1     C 2941   2.716   0.263  15.475 -0.0301  0.1939 -0.1143
  190MPD1    C1 2942   2.777   0.223  15.356  0.0206 -0.4618 -0.4798
  190MPD1    C2 2943   2.790   0.087  15.331  0.1992  0.3681 -1.0217
  190MPD1    C3 2944   2.753   4.736  15.423 -0.0603 -0.6556 -0.1213
  190MPD1    C4 2945   2.704   0.034  15.544 -0.3443 -0.1716 -0.3718
  190MPD1    C5 2946   2.683   0.172  15.570  0.3962  0.1685 -0.0746
  190MPD1     H 2947   2.837   0.050  15.240  3.4336 -0.0223  0.8125
  190MPD1    H1 2948   2.677   4.710  15.628  2.2662 -0.6293  0.1153
  190MPD1    H2 2949   2.699   0.366  15.503 -0.6990 -0.5171  2.0766
  190MPD1    H3 2950   2.660   0.214  15.668 -0.3551 -0.7836  0.1553
  190MPD1     N 2951   2.781   4.599  15.398 -0.5436  0.2258 -0.0991
  190MPD1    H5 2952   2.812   4.573  15.305 -1.9406 -2.9451  0.3099
  190MPD1    N1 2953   2.831   0.322  15.278 -0.4922 -0.0584  0.2159
  190MPD1    H6 2954   2.794   0.416  15.296 -0.5682  0.1782 -1.1683
  190MPD1    H7 2955   2.791   0.309  15.185  2.2672 -0.1204 -0.9494
  191MPD1     C 2956   1.448   0.558  12.141  0.1911  0.3371 -0.3038
  191MPD1    C1 2957   1.417   0.624  12.025  0.4387  0.2522  0.4245
  191MPD1    C2 2958   1.472   0.752  12.007  0.4822  0.0940 -0.9787
  191MPD1    C3 2959   1.532   0.821  12.109 -0.1123  0.3266 -0.4798
  191MPD1    C4 2960   1.559   0.748  12.228 -0.7555  0.3185 -0.9212
  191MPD1    C5 2961   1.517   0.620  12.241  0.2278 -1.0133 -0.3984
  191MPD1     H 2962   1.464   0.800  11.910 -2.8923  2.5381  0.4824
  191MPD1    H1 2963   1.613   0.787  12.313  0.8725  1.1691 -2.3386
  191MPD1    H2 2964   1.411   0.460  12.167  1.5873  0.5017  2.2600
  191MPD1    H3 2965   1.530   0.581  12.342 -0.6157  0.8658  0.4508
  191MPD1     N 2966   1.586   0.950  12.076 -0.1286  0.6536 -0.0687
  191MPD1    H5 2967   1.587   0.986  11.980  0.7337  0.1902 -0.2384
  191MPD1    N1 2968   1.356   0.566  11.915  0.2444  0.5103 -0.1791
  191MPD1    H6 2969   1.298   0.636  11.871 -0.5948  0.9609  1.6792
  191MPD1    H7 2970   1.287   0.501  11.952 -0.9204  0.1227 -3.0356
  192MPD1     C 2971   1.419   1.294  11.356  0.0205  0.2351 -0.1510
  192MPD1    C1 2972   1.499   1.403  11.402  0.6183  0.2064 -0.7475
  192MPD1    C2 2973   1.535   1.406  11.535 -0.2014 -0.8241  0.8267
  192MPD1    C3 2974   1.479   1.311  11.622  0.0524 -0.0177 -0.6593
  192MPD1    C4 2975   1.381   1.222  11.584 -0.0122 -0.4150  0.0865
  192MPD1    C5 2976   1.355   1.210  11.448  0.1750  0.9520 -0.4063
  192MPD1     H 2977   1.615   1.475  11.560  0.0934 -0.9833  0.3304
  192MPD1    H1 2978   1.335   1.151  11.652 -2.4704  1.0595 -0.0279
  192MPD1    H2 2979   1.395   1.267  11.253 -1.3117 -0.4717  0.3366
  192MPD1    H3 2980   1.284   1.137  11.410  0.9642 -1.2297  2.2946
  192MPD1     N 2981   1.514   1.302  11.760 -0.2494 -0.5802 -0.1179
  192MPD1    H5 2982   1.470   1.231  11.817 -0.6678  1.0645  1.6325
  192MPD1    N1 2983   1.565   1.493  11.314  0.0139  0.1148  0.6177
  192MPD1    H6 2984   1.502   1.525  11.241  0.8019 -0.2368 -0.2240
  192MPD1    H7 2985   1.597   1.577  11.361  1.7218 -0.3193  0.2370
  193MPD1     C 2986   1.053   1.160  16.177 -0.6243 -0.5747 -0.2354
  193MPD1    C1 2987   0.982   1.270  16.196 -0.5857  0.1165  0.9426
  193MPD1    C2 2988   1.051   1.387  16.223  0.2727 -0.2959 -0.0087
  193MPD1    C3 2989   1.185   1.392  16.250 -0.5782  0.3026 -0.6899
  193MPD1    C4 2990   1.253   1.274  16.256  0.2156  0.0368 -0.0736
  193MPD1    C5 2991   1.187   1.160  16.217 -0.5189  0.0293 -0.5695
  193MPD1     H 2992   0.987   1.474  16.220 -0.4130 -0.7548  1.8472
  193MPD1    H1 2993   1.356   1.267  16.289  0.5324 -0.9644 -1.2921
  193MPD1    H2 2994   1.009   1.068  16.139 -0.1731 -0.7935 -0.2243
  193MPD1    H3 2995   1.242   1.067  16.218 -0.9631 -0.2251  0.1020
  193MPD1     N 2996   1.257   1.508  16.283 -0.2861 -0.0582 -0.1619
  193MPD1    H5 2997   1.352   1.496  16.316  0.0377  1.1081 -0.6477
  193MPD1    N1 2998   0.847   1.265  16.172 -0.0375 -0.6345 -0.1675
  193MPD1    H6 2999   0.804   1.327  16.240 -1.2240 -1.4313 -0.1956
  193MPD1    H7 3000   0.808   1.174  16.196  1.1081 -0.9664  0.4654
  194MPD1     C 3001   4.102   3.699  16.413 -0.3190 -0.5320  0.2004
  194MPD1    C1 3002   4.165   3.735  16.524 -0.2038 -0.2338  0.5296
  194MPD1    C2 3003   4.172   3.638  16.629  1.0424 -0.0506  0.2647
  194MPD1    C3 3004   4.107   3.518  16.615  1.2092  1.6995  0.4984
  194MPD1    C4 3005   4.029   3.499  16.505 -0.1596 -0.5237  0.8409
  194MPD1    C5 3006   4.027   3.581  16.400 -0.6050  0.1408 -0.3117
  194MPD1     H 3007   4.243   3.665  16.706  2.8745 -0.3887 -1.3124
  194MPD1    H1 3008   3.972   3.407  16.493  1.6492 -1.6717  1.1282
  194MPD1    H2 3009   4.097   3.763  16.326 -0.3101 -2.5288 -1.2670
  194MPD1    H3 3010   3.982   3.555  16.305  0.0923  1.8035 -1.1137
  194MPD1     N 3011   4.121   3.414  16.709 -0.3627 -0.2471 -0.2945
  194MPD1    H5 3012   4.076   3.331  16.674  2.9149 -2.1030 -0.1020
  194MPD1    N1 3013   4.251   3.847  16.524  0.5783 -0.5408 -0.2963
  194MPD1    H6 3014   4.286   3.872  16.616 -0.7244 -1.6387  0.5044
  194MPD1    H7 3015   4.218   3.921  16.463  1.4349  0.6843  0.7261
  195MPD1     C 3016   1.672   0.794   0.706 -0.0933 -0.2743  0.3772
  195MPD1    C1 3017   1.742   0.691   0.776  0.4105  0.0297 -0.3873
  195MPD1    C2 3018   1.763   0.573   0.711  0.7699  1.2025 -0.4588
  195MPD1    C3 3019   1.697   0.550   0.590 -0.3740  0.4713 -0.0781
  195MPD1    C4 3020   1.621   0.647   0.525 -0.2557 -0.2059  0.3703
  195MPD1    C5 3021   1.609   0.772   0.580  0.1430 -0.2548 -0.0928
  195MPD1     H 3022   1.832   0.499   0.751  1.0714  1.2452 -0.8993
  195MPD1    H1 3023   1.568   0.629   0.432 -0.6340 -0.5825  0.6559
  195MPD1    H2 3024   1.667   0.894   0.747 -1.9972  0.8352 -2.6586
  195MPD1    H3 3025   1.552   0.853   0.535  0.3693 -1.7335 -3.0228
  195MPD1     N 3026   1.709   0.425   0.518 -0.3616 -0.4844 -0.4282
  195MPD1    H5 3027   1.651   0.420   0.434 -0.6903  1.1301 -0.2953
  195MPD1    N1 3028   1.823   0.724   0.883  0.1741 -0.1996 -0.3620
  195MPD1    H6 3029   1.792   0.798   0.945 -1.0342 -0.0659 -1.1185
  195MPD1    H7 3030   1.842   0.645   0.944 -0.4186  1.1235  1.5257
  196MPD1     C 3031   0.234   0.156  17.676  0.2435 -0.1716 -0.2088
  196MPD1    C1 3032   0.369   0.176  17.656 -0.6583 -0.2736  0.3062
  196MPD1    C2 3033   0.459   0.116  17.742 -0.4281 -0.9821  0.1378
  196MPD1    C3 3034   0.420   0.060   0.108 -0.6239 -0.2654  0.1184
  196MPD1    C4 3035   0.283   0.045   0.127  0.3197  0.5258  0.1321
  196MPD1    C5 3036   0.200   0.101   0.038 -0.2546 -0.0547 -0.5810
  196MPD1     H 3037   0.559   0.110  17.700 -0.5143  1.0643 -0.3584
  196MPD1    H1 3038   0.237   0.004   0.217  0.2698 -0.1090 -0.1777
  196MPD1    H2 3039   0.160   0.207  17.616  2.4870  3.0368 -0.2242
  196MPD1    H3 3040   0.094   0.106   0.061 -0.4608 -1.5614 -1.2058
  196MPD1     N 3041   0.510   0.008   0.201  0.3269 -0.1589  0.5335
  196MPD1    H5 3042   0.478   4.685   0.275  1.1600 -0.6665  0.4645
  196MPD1    N1 3043   0.420   0.215  17.529  0.8592 -0.0816  0.5494
  196MPD1    H6 3044   0.514   0.253  17.540  1.4380 -1.4326  0.3099
  196MPD1    H7 3045   0.362   0.291  17.493 -0.3100 -1.1097  0.2408
  197MPD1     C 3046   0.042   1.472  17.504  0.3081  0.0606  0.1635
  197MPD1    C1 3047   0.161   1.532  17.535 -0.8558 -0.1731 -0.1510
  197MPD1    C2 3048   0.194   1.643  17.459  0.1236 -0.1327  0.3348
  197MPD1    C3 3049   0.122   1.682  17.348  0.3396 -0.2149 -0.1765
  197MPD1    C4 3050   0.013   1.603  17.310  0.0232 -0.7309  0.3591
  197MPD1    C5 3051   4.714   1.507  17.393 -0.5743 -0.3385 -0.2026
  197MPD1     H 3052   0.278   1.703  17.492 -0.1323 -0.5897  1.8261
  197MPD1    H1 3053   4.692   1.614  17.220  1.4932 -0.5595 -0.6026
  197MPD1    H2 3054   0.011   1.390  17.567 -0.2723 -0.2060 -0.4662
  197MPD1    H3 3055   4.626   1.447  17.370 -0.3026 -1.4154  1.5794
  197MPD1     N 3056   0.150   1.789  17.258 -0.1609 -0.1761 -0.3438
  197MPD1    H5 3057   0.091   1.805  17.178 -0.1875 -1.6078 -0.6087
  197MPD1    N1 3058   0.238   1.487  17.643  0.1490  0.0315  0.1455
  197MPD1    H6 3059   0.331   1.460  17.613  0.4710  0.9433  0.3384
  197MPD1    H7 3060   0.193   1.406  17.684 -0.4498  0.5651  0.5363
  198MPD1     C 3061   1.848   0.928  15.323  0.3551  0.7222  0.1802
  198MPD1    C1 3062   1.875   0.822  15.401 -0.4347 -0.1291 -1.0295
  198MPD1    C2 3063   1.986   0.821  15.485  0.1619 -0.0334 -0.4508
  198MPD1    C3 3064   2.071   0.929  15.487  0.2637 -0.0452 -0.4010
  198MPD1    C4 3065   2.048   1.035  15.404 -0.1494 -0.6780 -0.5990
  198MPD1    C5 3066   1.937   1.030  15.325  0.3288  0.4883 -0.3681
  198MPD1     H 3067   2.017   0.728  15.531 -0.6601  1.7405  3.6540
  198MPD1    H1 3068   2.104   1.126  15.386 -0.9268  0.3109  2.0284
  198MPD1    H2 3069   1.771   0.915  15.247 -0.3417 -0.7729  1.1433
  198MPD1    H3 3070   1.926   1.114  15.258  0.0157  1.4920  0.9525
  198MPD1     N 3071   2.175   0.930  15.583 -0.2283 -0.1847  0.2965
  198MPD1    H5 3072   2.193   0.848  15.641  0.7275  1.0564  1.7411
  198MPD1    N1 3073   1.795   0.705  15.388 -0.3668  0.6966  0.1934
  198MPD1    H6 3074   1.696   0.715  15.366 -0.5035 -1.0867 -0.0238
  198MPD1    H7 3075   1.807   0.636  15.463 -0.8592  1.4800  0.9841
  199MPD1     C 3076   2.369   1.246  11.016 -0.5688  1.0854  0.2364
  199MPD1    C1 3077   2.420   1.187  10.903 -0.7154 -0.6664  0.4431
  199MPD1    C2 3078   2.374   1.243  10.787  0.1432  1.0695 -0.3539
  199MPD1    C3 3079   2.304   1.362  10.778  0.0041 -0.1456 -0.1137
  199MPD1    C4 3080   2.266   1.426  10.894  0.6313  0.0934  0.2750
  199MPD1    C5 3081   2.298   1.365  11.011 -0.1152 -0.3051 -0.2519
  199MPD1     H 3082   2.408   1.191  10.698 -0.4014 -0.7590  0.4976
  199MPD1    H1 3083   2.207   1.516  10.901  1.6556  0.7175  0.9486
  199MPD1    H2 3084   2.397   1.211  11.114  1.1166  1.0976 -0.2453
  199MPD1    H3 3085   2.266   1.419  11.100  1.3946 -0.3827  0.3504
  199MPD1     N 3086   2.258   1.414  10.658  0.4547  0.2805 -0.7402
  199MPD1    H5 3087   2.206   1.502  10.658  1.1479  0.6848 -1.0148
  199MPD1    N1 3088   2.489   1.068  10.910 -0.2389  0.5717 -0.2169
  199MPD1    H6 3089   2.553   1.068  10.989  0.0722 -1.9099 -0.4807
  199MPD1    H7 3090   2.542   1.051  10.825 -1.0298 -1.2738 -0.3368
  200MPD1     C 3091   3.059   1.981  15.137 -0.1491 -0.2802 -0.4928
  200MPD1    C1 3092   2.992   2.015  15.023  0.3894  0.2878 -0.2572
  200MPD1    C2 3093   3.035   1.957  14.906 -0.0986 -0.0185  0.3888
  200MPD1    C3 3094   3.162   1.899  14.899 -1.0003  0.7300 -0.4038
  200MPD1    C4 3095   3.235   1.883  15.014 -0.0920  0.0893 -0.3380
  200MPD1    C5 3096   3.183   1.913  15.128  0.1263  0.1997  0.0166
  200MPD1     H 3097   2.974   1.965  14.817  1.9701 -1.6051 -1.1473
  200MPD1    H1 3098   3.321   1.817  15.010 -1.2770 -1.4470 -0.5772
  200MPD1    H2 3099   3.015   2.019  15.228  0.4819 -2.6631  0.8116
  200MPD1    H3 3100   3.234   1.882  15.218 -0.6969 -2.2126 -0.3387
  200MPD1     N 3101   3.198   1.851  14.770 -0.2049 -0.3768 -0.3581
  200MPD1    H5 3102   3.129   1.863  14.697 -1.8164 -0.4604  1.1579
  200MPD1    N1 3103   2.862   2.052  15.036  0.3205 -0.4526 -0.0797
  200MPD1    H6 3104   2.842   2.109  15.118  0.5886 -1.5176  0.7289
  200MPD1    H7 3105   2.825   2.105  14.958 -0.2965  1.1334  1.2806
  201MPD1     C 3106   0.223   0.157  13.616  0.2760  0.0866 -0.1789
  201MPD1    C1 3107   0.337   0.140  13.700 -0.0794  0.2563 -0.3988
  201MPD1    C2 3108   0.459   0.102  13.645 -0.3541  0.4607 -1.0263
  201MPD1    C3 3109   0.471   0.094  13.506 -0.6639  0.3805  0.6181
  201MPD1    C4 3110   0.359   0.108  13.426 -0.3803 -1.1297  0.2129
  201MPD1    C5 3111   0.244   0.142  13.483  0.8831  0.2428  0.3202
  201MPD1     H 3112   0.545   0.088  13.708  0.1979  0.5465 -1.7575
  201MPD1    H1 3113   0.366   0.094  13.318  0.1851 -1.4753  0.2959
  201MPD1    H2 3114   0.124   0.174  13.657 -0.1478 -1.5625 -0.4922
  201MPD1    H3 3115   0.161   0.154  13.415  0.7670  0.8864  0.5714
  201MPD1     N 3116   0.595   0.061  13.451  0.6453  0.3582 -0.6101
  201MPD1    H5 3117   0.668   0.055  13.521 -0.2888  1.7196  0.4835
  201MPD1    N1 3118   0.311   0.135  13.836  0.3521  0.1951  0.3078
  201MPD1    H6 3119   0.395   0.167  13.884  0.4266  0.3288  0.0896
  201MPD1    H7 3120   0.229   0.187  13.868 -0.4876 -1.3009  0.5611
  202MPD1     C 3121   4.438   4.302   8.977 -0.2709 -0.4866  0.0410
  202MPD1    C1 3122   4.406   4.431   9.023 -0.9286 -0.1962 -0.1087
  202MPD1    C2 3123   4.383   4.438   9.155 -0.4776  0.1036 -0.4994
  202MPD1    C3 3124   4.412   4.342   9.253 -0.3634  0.8207  0.5318
  202MPD1    C4 3125   4.466   4.223   9.202 -0.2725 -0.0787  0.3647
  202MPD1    C5 3126   4.473   4.205   9.066  0.2369 -0.0386  0.2385
  202MPD1     H 3127   4.346   4.534   9.190  0.6339  0.7075 -0.9831
  202MPD1    H1 3128   4.479   4.137   9.266  2.4092 -1.1713 -1.6148
  202MPD1    H2 3129   4.419   4.282   8.872  0.8383  1.4956 -0.5399
  202MPD1    H3 3130   4.499   4.106   9.029  1.6811  0.1933  0.6347
  202MPD1     N 3131   4.400   4.360   9.397  0.7613 -0.3894  0.1543
  202MPD1    H5 3132   4.445   4.294   9.459 -1.0715 -0.6866  1.1512
  202MPD1    N1 3133   4.345   4.521   8.931 -0.1811  0.1722 -0.1746
  202MPD1    H6 3134   4.352   4.611   8.977  0.4300  0.3121 -0.5366
  202MPD1    H7 3135   4.391   4.530   8.841 -1.0780 -1.6183 -0.8090
  203MPD1     C 3136   4.103   0.852  12.831  0.3766 -0.2179  0.1453
  203MPD1    C1 3137   4.118   0.776  12.720 -0.4060 -0.1079 -0.8665
  203MPD1    C2 3138   4.171   0.650  12.737  0.1137  0.4677  0.0990
  203MPD1    C3 3139   4.198   0.596  12.861 -0.3185  0.4069 -0.1547
  203MPD1    C4 3140   4.185   0.673  12.972 -0.0281  0.0822  0.1848
  203MPD1    C5 3141   4.139   0.802  12.958  0.2025  0.4066 -0.0343
  203MPD1     H 3142   4.190   0.597  12.644  1.2925 -0.0680  0.6466
  203MPD1    H1 3143   4.214   0.645  13.073 -0.7007 -0.8114  0.1295
  203MPD1    H2 3144   4.053   0.948  12.827  0.2388 -0.3236 -0.8053
  203MPD1    H3 3145   4.132   0.868  13.044  0.0881 -0.1560  0.3945
  203MPD1     N 3146   4.259   0.471  12.859  0.3233  0.0163 -0.2444
  203MPD1    H5 3147   4.282   0.436  12.767  1.6926 -0.4965  0.2850
  203MPD1    N1 3148   4.117   0.829  12.594 -0.0596  0.1675 -0.6969
  203MPD1    H6 3149   4.048   0.901  12.574  2.8946  3.1412 -0.0898
  203MPD1    H7 3150   4.089   0.758  12.526  1.5646 -1.7740  0.6527
  204MPD1     C 3151   3.624   2.796  17.539 -0.2792 -0.1802 -0.6092
  204MPD1    C1 3152   3.722   2.774  17.444 -0.4500  0.1913  0.1089
  204MPD1    C2 3153   3.784   2.653  17.444  0.6329  0.0379  0.4810
  204MPD1    C3 3154   3.730   2.547  17.510  0.3588 -0.9515  0.4177
  204MPD1    C4 3155   3.626   2.566  17.599 -0.3658 -0.2168 -0.4639
  204MPD1    C5 3156   3.575   2.689  17.617  0.7178 -0.2328  0.0904
  204MPD1     H 3157   3.862   2.638  17.370 -1.9008 -3.8566 -1.3854
  204MPD1    H1 3158   3.597   2.488  17.669 -1.7507 -0.7516 -1.6469
  204MPD1    H2 3159   3.600   2.898  17.565  0.8296 -0.2728  0.7661
  204MPD1    H3 3160   3.490   2.716  17.678  1.0834 -0.8287  0.8645
  204MPD1     N 3161   3.798   2.428  17.488 -0.5957  0.1201  0.3871
  204MPD1    H5 3162   3.887   2.433  17.440  0.3351 -0.3113  2.0483
  204MPD1    N1 3163   3.794   2.880  17.382  0.1316  0.1183 -0.0179
  204MPD1    H6 3164   3.829   2.846  17.293  0.4883 -2.1667  0.9911
  204MPD1    H7 3165   3.738   2.965  17.368 -0.9882 -0.2686  2.0499
  205MPD1     C 3166   2.856   0.942  16.869  1.2515  0.9153 -0.5379
  205MPD1    C1 3167   2.921   1.063  16.850  0.1060 -0.2473  0.5946
  205MPD1    C2 3168   3.002   1.115  16.950  0.3003  0.0314 -0.3158
  205MPD1    C3 3169   3.006   1.050  17.070 -0.3765  0.2158  0.3777
  205MPD1    C4 3170   2.934   0.944  17.096  0.0500 -0.1799  0.1177
  205MPD1    C5 3171   2.862   0.881  16.989 -0.7249  0.2160 -0.0008
  205MPD1     H 3172   3.054   1.208  16.930  0.0267  0.4467  0.9249
  205MPD1    H1 3173   2.940   0.894  17.192  0.7067  2.8986  1.6714
  205MPD1    H2 3174   2.792   0.897  16.793 -1.1418  2.6514  0.4354
  205MPD1    H3 3175   2.810   0.788  17.009  0.2294  0.0313  1.6716
  205MPD1     N 3176   3.091   1.097  17.175  0.3562  1.1481  0.1492
  205MPD1    H5 3177   3.110   1.033  17.251  1.2702  0.3278 -0.7830
  205MPD1    N1 3178   2.941   1.114  16.717 -0.0751  0.1959  0.0249
  205MPD1    H6 3179   2.956   1.215  16.720  0.1848  0.0952  2.1557
  205MPD1    H7 3180   2.868   1.081  16.654 -1.1136  1.3588  0.6413
  206MPD1     C 3181   4.697   3.700  16.877  0.5203  0.3633  0.0491
  206MPD1    C1 3182   4.733   3.604  16.791  0.4255 -0.0963 -0.5532
  206MPD1    C2 3183   4.654   3.577  16.679 -0.3140  0.0120  0.2429
  206MPD1    C3 3184   4.553   3.658  16.637 -0.9975 -0.0871 -0.2928
  206MPD1    C4 3185   4.525   3.763  16.724 -0.7366  0.0780 -0.2555
  206MPD1    C5 3186   4.596   3.790  16.840  0.4923  0.0403 -0.8475
  206MPD1     H 3187   4.668   3.490  16.616  1.3877  0.6261 -0.2513
  206MPD1    H1 3188   4.447   3.830  16.691  0.3899  1.4166 -0.1746
  206MPD1    H2 3189   0.006   3.715  16.973  1.0225 -0.4423 -0.0789
  206MPD1    H3 3190   4.566   3.870  16.907  0.0094  1.2063 -2.4572
  206MPD1     N 3191   4.494   3.650  16.512  0.4741  0.0308  0.2263
  206MPD1    H5 3192   4.427   3.725  16.497  1.5159  1.2274  1.5736
  206MPD1    N1 3193   0.083   3.502  16.848 -0.2096  0.1163  0.3601
  206MPD1    H6 3194   0.126   3.442  16.777 -1.7033  2.1371 -2.2504
  206MPD1    H7 3195   0.151   3.547  16.909  0.2055 -0.1000  0.0531
  207MPD1     C 3196   0.513   0.758  10.065 -0.7632  0.6011 -0.2474
  207MPD1    C1 3197   0.551   0.717  10.188  0.3881 -1.4520 -0.1503
  207MPD1    C2 3198   0.674   0.751  10.245  0.5488  0.4552 -0.3390
  207MPD1    C3 3199   0.764   0.822  10.165 -0.0421 -0.1719 -0.1394
  207MPD1    C4 3200   0.724   0.877  10.042  0.2039 -0.2517 -0.5353
  207MPD1    C5 3201   0.593   0.846   9.996  0.3119  0.3779 -0.0632
  207MPD1     H 3202   0.696   0.712  10.344 -1.4885  0.7803  0.2440
  207MPD1    H1 3203   0.788   0.931   9.973  0.0092  0.0763 -0.4587
  207MPD1    H2 3204   0.420   0.719  10.025 -0.6338 -0.0814  0.1085
  207MPD1    H3 3205   0.569   0.874   9.894 -0.9182  0.6006  0.2880
  207MPD1     N 3206   0.894   0.856  10.216  0.2760 -0.1887 -0.1512
  207MPD1    H5 3207   0.939   0.928  10.160  0.7719 -0.4692 -0.1096
  207MPD1    N1 3208   0.449   0.647  10.266 -0.0922 -0.0434 -0.3646
  207MPD1    H6 3209   0.482   0.611  10.355 -0.2034 -1.7076 -0.9957
  207MPD1    H7 3210   0.407   0.568  10.218  2.7183 -1.0085 -1.2366
  208MPD1     C 3211   4.304   1.294  17.146 -0.1818 -0.1743  0.6635
  208MPD1    C1 3212   4.200   1.209  17.125 -0.2910 -0.1669 -0.3828
  208MPD1    C2 3213   4.218   1.075  17.170  0.1579 -0.2910 -0.2778
  208MPD1    C3 3214   4.321   1.033  17.245  0.0329 -0.4716 -0.4390
  208MPD1    C4 3215   4.420   1.129  17.265  0.8718  0.4087 -0.2430
  208MPD1    C5 3216   4.410   1.259  17.218 -0.0039 -0.1900 -0.5305
  208MPD1     H 3217   4.145   1.003  17.135  0.4500 -0.7563  0.0700
  208MPD1    H1 3218   4.499   1.103  17.335 -1.1619 -0.2588  1.7714
  208MPD1    H2 3219   4.305   1.389  17.095  0.7044 -0.2120  0.6110
  208MPD1    H3 3220   4.502   1.317  17.218  0.4263 -0.8857 -0.9931
  208MPD1     N 3221   4.320   0.898  17.297 -0.7487 -0.4400  0.3489
  208MPD1    H5 3222   4.236   0.845  17.275 -1.3528  1.5663 -2.2361
  208MPD1    N1 3223   4.102   1.248  17.029 -0.3091 -0.4928  0.7627
  208MPD1    H6 3224   4.092   1.349  17.023 -0.0971 -0.5781 -0.8859
  208MPD1    H7 3225   4.011   1.206  17.045 -0.0691 -2.2321 -2.2933
  209MPD1     C 3226   1.666   4.506  11.435  0.8546 -0.5109  0.3802
  209MPD1    C1 3227   1.576   4.557  11.349  0.1979  0.0071  0.0101
  209MPD1    C2 3228   1.607   4.689  11.300  0.3285 -0.2075 -0.4528
  209MPD1    C3 3229   1.725   0.014  11.340  0.0671 -1.0551 -0.7153
  209MPD1    C4 3230   1.818   4.692  11.414 -0.0793 -0.0971  0.3436
  209MPD1    C5 3231   1.791   4.569  11.463 -0.4390 -0.0688  0.8836
  209MPD1     H 3232   1.546   0.005  11.230  0.3432  1.7277  1.0456
  209MPD1    H1 3233   1.911   0.003  11.437  0.2784 -0.1256 -0.9934
  209MPD1    H2 3234   1.645   4.419  11.496  0.6417  0.8900  2.3207
  209MPD1    H3 3235   1.862   4.521  11.529 -0.7141  2.4420  3.0291
  209MPD1     N 3236   1.736   0.147  11.287  0.5780 -0.1235 -0.2071
  209MPD1    H5 3237   1.655   0.188  11.241  0.3264  0.7505  1.0090
  209MPD1    N1 3238   1.452   4.501  11.325  0.7194  0.1541  1.1450
  209MPD1    H6 3239   1.458   4.401  11.340  0.3329  0.0665  0.7168
  209MPD1    H7 3240   1.436   4.524  11.227  0.4710  1.5198  1.5050
  210MPD1     C 3241   1.901   1.161  11.621  0.4388  0.2455  0.4534
  210MPD1    C1 3242   1.996   1.063  11.617 -0.5040 -0.3989  0.7856
  210MPD1    C2 3243   1.961   0.953  11.546 -0.0595  0.6696 -0.2009
  210MPD1    C3 3244   1.849   0.943  11.461  0.4134  1.0496 -0.1124
  210MPD1    C4 3245   1.771   1.053  11.456 -0.1570 -0.1334 -0.3574
  210MPD1    C5 3246   1.790   1.160  11.541 -0.0592 -0.4054 -0.0030
  210MPD1     H 3247   2.027   0.867  11.551  0.1065  0.8663  1.0292
  210MPD1    H1 3248   1.681   1.056  11.395  0.4847 -1.4874 -1.3712
  210MPD1    H2 3249   1.911   1.248  11.686  0.6970 -0.7579  1.7488
  210MPD1    H3 3250   1.730   1.249  11.525  0.5772  0.0142 -0.0560
  210MPD1     N 3251   1.804   0.828  11.391 -0.7648 -0.6129 -0.1030
  210MPD1    H5 3252   1.725   0.845  11.329 -0.1889 -1.5193 -1.0743
  210MPD1    N1 3253   2.094   1.049  11.723  0.3075  0.1633  0.1508
  210MPD1    H6 3254   2.135   1.139  11.748 -0.5728  0.6138 -0.0423
  210MPD1    H7 3255   2.174   0.986  11.718 -0.2453 -0.6807  2.2238
  211MPD1     C 3256   4.468   4.715  17.018 -0.0281  0.0574 -0.3994
  211MPD1    C1 3257   4.449   0.063  16.915  0.1991  0.5096 -0.0545
  211MPD1    C2 3258   4.343   0.146  16.924  0.4933 -0.7125 -0.0120
  211MPD1    C3 3259   4.257   0.153  17.029  0.1970 -0.8144 -0.0324
  211MPD1    C4 3260   4.277   0.069  17.134 -0.0502  0.5590  0.4891
  211MPD1    C5 3261   4.382   4.718  17.125 -0.6843  0.0675 -0.6443
  211MPD1     H 3262   4.327   0.221  16.848  1.5495 -1.0031 -0.5268
  211MPD1    H1 3263   4.216   0.073  17.224  0.4716 -1.1375  0.9077
  211MPD1    H2 3264   4.553   4.651  17.035 -0.2873 -0.4859 -1.1104
  211MPD1    H3 3265   4.400   4.646  17.204 -0.6284  0.0675 -0.6571
  211MPD1     N 3266   4.158   0.253  17.034 -0.1698 -0.3185 -0.1740
  211MPD1    H5 3267   4.141   0.309  16.952 -0.5262 -2.3368 -1.4825
  211MPD1    N1 3268   4.532   0.060  16.800 -0.4102  0.2561  0.3049
  211MPD1    H6 3269   4.539   0.151  16.754 -0.8658  0.6534  1.0097
  211MPD1    H7 3270   4.625   0.029  16.827 -0.6538 -0.6384  0.1092
  212MPD1     C 3271   3.696   3.893  16.030 -0.4488  0.2622  0.4123
  212MPD1    C1 3272   3.583   3.959  16.081  0.2878 -0.5716  0.0764
  212MPD1    C2 3273   3.508   3.903  16.186 -0.0443 -0.9030 -0.2096
  212MPD1    C3 3274   3.558   3.787  16.252 -0.5612 -0.6882  0.0079
  212MPD1    C4 3275   3.677   3.731  16.200  0.9249  0.0815  0.6564
  212MPD1    C5 3276   3.751   3.782  16.097 -0.6718  0.2310 -0.3596
  212MPD1     H 3277   3.413   3.946  16.217  1.0452  0.8766  0.6542
  212MPD1    H1 3278   3.727   3.651  16.254 -0.4530 -0.6685  0.8233
  212MPD1    H2 3279   3.759   3.932  15.952  0.2028 -0.7127  0.4450
  212MPD1    H3 3280   3.849   3.742  16.072  0.4326  1.8169  1.4423
  212MPD1     N 3281   3.496   3.730  16.364 -0.1673 -0.1750 -0.5370
  212MPD1    H5 3282   3.536   3.647  16.406  1.6416  1.3603  0.7148
  212MPD1    N1 3283   3.525   4.059  15.998  0.1856 -0.1279 -0.2200
  212MPD1    H6 3284   3.592   4.107  15.938  0.1963 -0.5742 -0.5722
  212MPD1    H7 3285   3.455   4.121  16.036 -0.1601  0.3141 -1.5930
  213MPD1     C 3286   1.819   4.510  15.875  0.2265  0.3265  0.3352
  213MPD1    C1 3287   1.770   4.379  15.854  0.5927  0.1811 -0.0707
  213MPD1    C2 3288   1.732   4.359  15.718  0.0740 -0.4453 -0.0510
  213MPD1    C3 3289   1.692   4.460  15.633  0.6217 -0.5489 -0.4549
  213MPD1    C4 3290   1.722   4.588  15.673  0.5030 -0.0341  0.1621
  213MPD1    C5 3291   1.789   4.607  15.783  0.1591 -0.1617 -0.5307
  213MPD1     H 3292   1.712   4.258  15.685 -0.2882 -0.3539 -0.1090
  213MPD1    H1 3293   1.705   4.686  15.630  0.0637 -0.2580 -0.1720
  213MPD1    H2 3294   1.859   4.541  15.971 -0.2717  0.6526  0.4415
  213MPD1    H3 3295   1.820   4.706  15.814  2.9517 -0.8417 -1.1031
  213MPD1     N 3296   1.628   4.427  15.511  0.0818  0.0876 -0.4168
  213MPD1    H5 3297   1.622   4.326  15.500 -0.2123  0.1998 -1.3372
  213MPD1    N1 3298   1.829   4.278  15.936  0.4380 -0.2102  0.2838
  213MPD1    H6 3299   1.829   4.307  16.033 -2.0180  1.5885 -0.2383
  213MPD1    H7 3300   1.776   4.191  15.933 -0.5841  0.4497 -1.1479
  214MPD1     C 3301   1.117   3.743  14.984 -0.4126  0.1664 -0.3372
  214MPD1    C1 3302   1.248   3.752  15.029  0.2139 -0.0524  0.4023
  214MPD1    C2 3303   1.287   3.875  15.081 -0.4988  0.3156  0.7820
  214MPD1    C3 3304   1.199   3.982  15.098  0.6813 -0.4463  0.1192
  214MPD1    C4 3305   1.070   3.961  15.052 -0.3306  0.1976  0.3452
  214MPD1    C5 3306   1.027   3.845  15.002  0.7562  0.4037  0.1964
  214MPD1     H 3307   1.391   3.896  15.100 -0.5430 -0.7684  2.2008
  214MPD1    H1 3308   0.997   4.040  15.042 -3.2360 -2.5015  0.2361
  214MPD1    H2 3309   1.081   3.656  14.930 -0.6793  0.4004 -0.5328
  214MPD1    H3 3310   0.924   3.840  14.969  0.7467 -0.5485  0.3698
  214MPD1     N 3311   1.230   4.106  15.153  0.6597  0.3407 -0.3860
  214MPD1    H5 3312   1.153   4.172  15.140  2.1022  1.8962 -1.1358
  214MPD1    N1 3313   1.338   3.646  15.001 -0.2427 -0.4549 -0.7026
  214MPD1    H6 3314   1.302   3.551  14.995 -3.2497  0.6869 -0.7857
  214MPD1    H7 3315   1.416   3.636  15.066 -0.4894  1.4670 -0.1097
  215MPD1     C 3316   0.760   4.683  10.592 -0.5123  0.5903 -0.4539
  215MPD1    C1 3317   0.723   4.720  10.719 -0.1458 -0.1257  0.2318
  215MPD1    C2 3318   0.799   0.085  10.773 -0.1719  0.7325 -0.0655
  215MPD1    C3 3319   0.889   0.157  10.698  0.6138 -0.9204  0.4355
  215MPD1    C4 3320   0.923   0.117  10.577 -0.6890  0.0263  0.0186
  215MPD1    C5 3321   0.858   0.009  10.524 -0.4438  1.0034  0.0724
  215MPD1     H 3322   0.772   0.129  10.868 -0.3169 -1.1767  0.7712
  215MPD1    H1 3323   0.997   0.162  10.512 -1.4904  0.0667 -0.8728
  215MPD1    H2 3324   0.704   4.601  10.548  2.0133 -0.4962 -1.6356
  215MPD1    H3 3325   0.884   4.704  10.428  1.0846 -0.7053  1.2784
  215MPD1     N 3326   0.930   0.279  10.757 -0.1301  0.2051  0.3759
  215MPD1    H5 3327   0.910   0.306  10.853  0.1355  1.7824 -0.0045
  215MPD1    N1 3328   0.603   4.675  10.770 -0.0313 -0.2449 -0.5706
  215MPD1    H6 3329   0.571   4.586  10.732 -1.1714  0.0648 -0.3517
  215MPD1    H7 3330   0.592   4.664  10.871 -1.5579  0.7744 -0.6244
  216MPD1     C 3331   3.710   3.661  16.668 -0.1687 -0.5971  0.7248
  216MPD1    C1 3332   3.688   3.536  16.616 -0.1215  0.0277  0.6111
  216MPD1    C2 3333   3.637   3.438  16.698 -0.2541  0.4146 -0.0640
  216MPD1    C3 3334   3.617   3.471  16.828 -0.2177 -0.0571 -0.4137
  216MPD1    C4 3335   3.665   3.589  16.886  0.0417  0.7676  0.5184
  216MPD1    C5 3336   3.713   3.675  16.803 -0.3077  0.6199 -0.1990
  216MPD1     H 3337   3.610   3.341  16.659  0.0535  1.0514 -1.8839
  216MPD1    H1 3338   3.648   3.618  16.989  2.1800  2.3165  0.4368
  216MPD1    H2 3339   3.747   3.746  16.612 -1.6770 -0.7203 -0.4620
  216MPD1    H3 3340   3.754   3.770  16.837 -2.1885  1.4630 -0.3106
  216MPD1     N 3341   3.542   3.378  16.897  0.0547 -0.1289  0.2830
  216MPD1    H5 3342   3.508   3.301  16.841 -0.3818 -0.3022  0.7954
  216MPD1    N1 3343   3.703   3.511  16.481 -0.0082  0.0805 -0.2177
  216MPD1    H6 3344   3.772   3.567  16.433 -0.1725  0.3244 -0.1681
  216MPD1    H7 3345   3.712   3.410  16.467  0.3156  0.3901 -2.1499
  217MPD1     C 3346   2.158   4.052   8.819 -0.2203 -0.0778  0.3197
  217MPD1    C1 3347   2.281   4.009   8.781 -0.3355  0.4310 -0.1829
  217MPD1    C2 3348   2.384   4.042   8.865 -0.2201 -0.3143  0.1187
  217MPD1    C3 3349   2.369   4.100   8.993 -0.4161 -0.3249  0.0468
  217MPD1    C4 3350   2.245   4.137   9.025 -0.2291 -0.0737 -0.4657
  217MPD1    C5 3351   2.140   4.114   8.935  0.4991 -1.1575  0.1679
  217MPD1     H 3352   2.483   4.029   8.821 -0.0245  0.7420  0.2451
  217MPD1    H1 3353   2.214   4.183   9.119  0.8045 -1.6398  0.6315
  217MPD1    H2 3354   2.075   4.037   8.751  0.3641 -3.3424  0.3053
  217MPD1    H3 3355   2.043   4.151   8.967  0.2342 -0.9361 -0.8966
  217MPD1     N 3356   2.468   4.132   9.087  0.1579  0.1146 -0.3662
  217MPD1    H5 3357   2.448   4.186   9.171  1.9631 -1.0918  0.8380
  217MPD1    N1 3358   2.306   3.993   8.640 -0.3758 -0.5283  0.3827
  217MPD1    H6 3359   2.228   3.966   8.580  0.5220 -0.4359 -0.8154
  217MPD1    H7 3360   2.390   3.941   8.618  0.0759 -0.3913  1.7730
  218MPD1     C 3361   1.107   1.591  12.662 -0.5521  0.1264  0.6718
  218MPD1    C1 3362   1.190   1.575  12.556  1.1020 -0.4868  0.8767
  218MPD1    C2 3363   1.240   1.450  12.528 -0.3572  0.5559  0.0558
  218MPD1    C3 3364   1.183   1.345  12.595  0.1985 -0.2675  1.0914
  218MPD1    C4 3365   1.109   1.364  12.708  1.4267 -0.3717  0.7534
  218MPD1    C5 3366   1.075   1.488  12.748 -0.0535  0.5226 -0.3148
  218MPD1     H 3367   1.301   1.438  12.440 -2.8966  1.6077 -1.8374
  218MPD1    H1 3368   1.084   1.274  12.763  3.5268 -0.6539  1.2298
  218MPD1    H2 3369   1.053   1.685  12.673  1.5694  1.1557  2.2845
  218MPD1    H3 3370   1.010   1.502  12.834  0.8990  0.0391  0.4736
  218MPD1     N 3371   1.208   1.214  12.542 -0.2204  0.0877 -0.0635
  218MPD1    H5 3372   1.276   1.199  12.468 -0.5729 -0.4311 -0.2844
  218MPD1    N1 3373   1.257   1.689  12.502 -0.3574  0.4594 -0.2939
  218MPD1    H6 3374   1.200   1.773  12.496 -1.0031  0.0868  0.7554
  218MPD1    H7 3375   1.300   1.666  12.412 -0.1289  0.7919 -0.2699
  219MPD1     C 3376   1.025   0.688  11.737  0.6793 -0.3548 -0.3804
  219MPD1    C1 3377   1.132   0.777  11.767  0.2585 -0.5567 -0.3190
  219MPD1    C2 3378   1.158   0.816  11.895  0.7949 -0.0655 -0.1850
  219MPD1    C3 3379   1.093   0.745  11.998  0.5419  0.3627  0.1910
  219MPD1    C4 3380   0.991   0.652  11.966 -0.0701  0.7227 -0.8375
  219MPD1    C5 3381   0.959   0.628  11.836  0.1712  0.0837 -0.0228
  219MPD1     H 3382   1.241   0.885  11.909  0.4147  0.2604  0.4482
  219MPD1    H1 3383   0.943   0.599  12.047  0.5134 -0.5031 -1.2930
  219MPD1    H2 3384   1.000   0.661  11.635 -1.4715  0.5171 -0.0868
  219MPD1    H3 3385   0.889   0.551  11.806  3.8682 -3.3670  0.3225
  219MPD1     N 3386   1.124   0.771  12.131  0.5603  0.3490 -0.0332
  219MPD1    H5 3387   1.076   0.706  12.194 -0.5772 -0.0654 -1.3254
  219MPD1    N1 3388   1.193   0.832  11.648  0.5231 -0.1424  0.1982
  219MPD1    H6 3389   1.290   0.858  11.665 -0.3602  3.2264  0.0352
  219MPD1    H7 3390   1.184   0.769  11.569 -1.5942  0.8287 -0.3286
  220MPD1     C 3391   0.289   1.500   9.588 -0.3486  0.1069 -0.3795
  220MPD1    C1 3392   0.397   1.508   9.673  0.0589 -0.2020 -0.1844
  220MPD1    C2 3393   0.400   1.421   9.777  0.5011 -0.6071  0.2460
  220MPD1    C3 3394   0.304   1.323   9.795 -0.0009 -0.0312 -0.4658
  220MPD1    C4 3395   0.200   1.310   9.703 -0.9379  0.1881 -0.4411
  220MPD1    C5 3396   0.189   1.406   9.607 -0.0424  0.4200 -0.7022
  220MPD1     H 3397   0.485   1.416   9.844  0.4576  0.5819  0.3853
  220MPD1    H1 3398   0.120   1.238   9.711  0.1201 -1.0000 -0.7000
  220MPD1    H2 3399   0.290   1.561   9.498 -1.6077 -0.6239 -0.8868
  220MPD1    H3 3400   0.102   1.399   9.543 -0.4532 -0.4532 -0.0474
  220MPD1     N 3401   0.319   1.228   9.904  0.8648 -0.4606 -0.1877
  220MPD1    H5 3402   0.404   1.243   9.959  1.1792  0.1169 -0.8284
  220MPD1    N1 3403   0.508   1.589   9.638 -0.0627 -0.4419  0.1953
  220MPD1    H6 3404   0.559   1.619   9.721  0.2753  1.4540 -0.6905
  220MPD1    H7 3405   0.483   1.669   9.581 -1.6387 -0.4043  0.9425
  221MPD1     C 3406   3.909   4.634  16.329  0.3103  0.4935  0.1588
  221MPD1    C1 3407   4.026   4.608  16.394  0.1258 -0.2124  0.2869
  221MPD1    C2 3408   4.129   4.561  16.319  1.1326  1.0017 -0.2868
  221MPD1    C3 3409   4.117   4.537  16.182  0.0910 -0.1187  0.5147
  221MPD1    C4 3410   3.999   4.574  16.123 -0.7122  0.1421 -0.1738
  221MPD1    C5 3411   3.888   4.622  16.195 -0.3023  0.4430  0.7824
  221MPD1     H 3412   4.216   4.521  16.371 -0.3153  1.1468  2.2642
  221MPD1    H1 3413   3.983   4.536  16.023  0.9226  0.7898 -0.6826
  221MPD1    H2 3414   3.820   4.661  16.384 -0.8556 -1.0646 -0.9481
  221MPD1    H3 3415   3.793   4.643  16.147 -0.4426  0.3077  1.0021
  221MPD1     N 3416   4.215   4.468  16.105  0.0657 -0.0791  0.1817
  221MPD1    H5 3417   4.199   4.469  16.005  1.8841 -2.0891 -0.1401
  221MPD1    N1 3418   4.032   4.607  16.534  0.3337 -0.0356 -0.6308
  221MPD1    H6 3419   3.970   4.678  16.572 -2.4045 -2.2488 -0.9905
  221MPD1    H7 3420   4.125   4.641  16.558  0.4273 -1.7653  1.4373
  222MPD1     C 3421   3.559   4.040  16.784  1.1314  0.6631  0.0214
  222MPD1    C1 3422   3.589   4.153  16.858  0.0643  0.3288 -0.0222
  222MPD1    C2 3423   3.586   4.148  16.996  0.3603  0.3138 -0.2127
  222MPD1    C3 3424   3.540   4.033  17.061  0.6215 -0.3345 -0.6766
  222MPD1    C4 3425   3.508   3.921  16.986 -0.4407  0.0126  0.6163
  222MPD1    C5 3426   3.517   3.929  16.851  0.0821 -0.7333  0.5732
  222MPD1     H 3427   3.602   4.239  17.053  1.3606 -0.3418  0.5369
  222MPD1    H1 3428   3.475   3.825  17.025  1.3957 -0.3938  1.1713
  222MPD1    H2 3429   3.576   4.043  16.676 -0.1003  0.6653 -0.1674
  222MPD1    H3 3430   3.501   3.836  16.798 -0.5019  0.2414 -0.9481
  222MPD1     N 3431   3.517   4.014  17.198 -0.1673 -0.8606 -0.0250
  222MPD1    H5 3432   3.492   3.926  17.241 -0.3142 -0.4634  0.6963
  222MPD1    N1 3433   3.631   4.271  16.794 -0.1877 -0.3588  0.1877
  222MPD1    H6 3434   3.615   4.357  16.846  1.5086  1.5115 -2.3512
  222MPD1    H7 3435   3.600   4.279  16.697  1.1592  1.3580 -0.1185
  223MPD1     C 3436   3.016   3.431  17.409 -0.0645 -0.3007 -0.0503
  223MPD1    C1 3437   3.073   3.497  17.300  0.3193  0.3328 -0.1497
  223MPD1    C2 3438   3.167   3.594  17.330  0.4021  0.3826 -0.0356
  223MPD1    C3 3439   3.187   3.639  17.457  0.1013 -0.3851 -0.4236
  223MPD1    C4 3440   3.112   3.583  17.561  0.1999  0.6470  0.2380
  223MPD1    C5 3441   3.021   3.484  17.532  0.0308  0.0278  0.1266
  223MPD1     H 3442   3.231   3.629  17.250  0.0914  3.0495  0.9092
  223MPD1    H1 3443   3.114   3.625  17.662  2.8068  1.4821 -0.1664
  223MPD1    H2 3444   2.951   3.345  17.394  2.2715 -1.9468 -0.7505
  223MPD1    H3 3445   2.967   3.431  17.609  0.7250 -0.2839  0.3963
  223MPD1     N 3446   3.286   3.742  17.462 -0.2853  0.4562 -0.0948
  223MPD1    H5 3447   3.345   3.760  17.382  4.1403 -0.0735  3.0321
  223MPD1    N1 3448   3.069   3.444  17.172 -0.1235  0.1711 -0.1887
  223MPD1    H6 3449   3.091   3.512  17.100 -0.3619  0.3458 -0.0987
  223MPD1    H7 3450   2.982   3.395  17.151 -0.4165 -0.2305  1.9044
  224MPD1     C 3451   2.438   0.172   9.186 -0.9777 -0.5475 -0.3641
  224MPD1    C1 3452   2.393   0.292   9.241 -0.1925 -0.6051  1.1007
  224MPD1    C2 3453   2.481   0.349   9.341  0.2008 -0.0465  0.2872
  224MPD1    C3 3454   2.609   0.294   9.357 -0.5911 -0.0644  0.4727
  224MPD1    C4 3455   2.652   0.182   9.285 -0.4655  0.0090 -0.0522
  224MPD1    C5 3456   2.571   0.129   9.192 -0.1193  0.5366  0.4892
  224MPD1     H 3457   2.442   0.428   9.404  0.8695 -0.6358  1.4408
  224MPD1    H1 3458   2.752   0.141   9.298 -0.4282  0.5944  1.5566
  224MPD1    H2 3459   2.372   0.121   9.117 -0.4870 -0.3230 -1.0023
  224MPD1    H3 3460   2.601   0.041   9.137 -0.2505  1.1997 -0.6275
  224MPD1     N 3461   2.703   0.349   9.446  0.4158 -0.2112 -0.6409
  224MPD1    H5 3462   2.799   0.316   9.437  0.3335 -0.5198 -0.3984
  224MPD1    N1 3463   2.261   0.325   9.234 -0.0280  0.4405 -0.6228
  224MPD1    H6 3464   2.216   0.292   9.149  1.3770 -2.1687 -0.3474
  224MPD1    H7 3465   2.245   0.426   9.232  0.2012  0.4865 -0.2802
  225MPD1     C 3466   1.367   1.751  11.634 -0.1340  0.1704  0.8366
  225MPD1    C1 3467   1.242   1.772  11.591  0.1331 -0.0671  0.0776
  225MPD1    C2 3468   1.137   1.698  11.643 -0.3493  0.1563 -0.5163
  225MPD1    C3 3469   1.161   1.624  11.756 -0.6823  0.3899  0.0705
  225MPD1    C4 3470   1.291   1.611  11.805  0.5559 -0.4540  0.3414
  225MPD1    C5 3471   1.389   1.670  11.740 -0.2234 -0.2117 -0.4507
  225MPD1     H 3472   1.037   1.701  11.602 -0.3343  2.0006 -0.4159
  225MPD1    H1 3473   1.317   1.531  11.872  1.8011 -1.1131 -0.9298
  225MPD1    H2 3474   1.448   1.794  11.577  2.3537 -2.9761  1.9764
  225MPD1    H3 3475   1.490   1.642  11.768  0.1909  0.3778 -1.3824
  225MPD1     N 3476   1.059   1.556  11.823 -0.8028  0.3633 -0.1284
  225MPD1    H5 3477   1.090   1.514  11.910  1.4882  2.8480  0.2520
  225MPD1    N1 3478   1.228   1.854  11.471 -0.2963 -0.0925  0.4812
  225MPD1    H6 3479   1.137   1.885  11.439  0.2017 -0.4133 -1.2586
  225MPD1    H7 3480   1.302   1.924  11.462  0.1870 -1.0393 -2.9877
  226MPD1     C 3481   3.432   2.173   9.381 -1.0723  0.7090  1.1854
  226MPD1    C1 3482   3.508   2.055   9.399 -1.1096 -0.0167 -0.5704
  226MPD1    C2 3483   3.435   1.945   9.440  0.0701 -0.0953 -0.3255
  226MPD1    C3 3484   3.289   1.942   9.438  0.4848  0.2806  0.0222
  226MPD1    C4 3485   3.217   2.056   9.422 -0.6716  0.4280  0.1286
  226MPD1    C5 3486   3.292   2.170   9.393 -0.0830 -0.1497 -0.2493
  226MPD1     H 3487   3.485   1.852   9.466  1.1850  0.5660 -0.0835
  226MPD1    H1 3488   3.109   2.068   9.421 -0.5484  1.3272 -3.1057
  226MPD1    H2 3489   3.480   2.268   9.360  2.0431 -0.8423  1.2930
  226MPD1    H3 3490   3.241   2.264   9.378 -1.4139 -0.7149  0.7235
  226MPD1     N 3491   3.232   1.814   9.468 -0.4101 -0.3526 -0.6909
  226MPD1    H5 3492   3.303   1.743   9.480 -0.1518 -0.0809 -0.6160
  226MPD1    N1 3493   3.647   2.044   9.389 -0.0362 -0.3148 -0.1651
  226MPD1    H6 3494   3.691   2.115   9.331 -0.3304 -1.1414 -1.3880
  226MPD1    H7 3495   3.680   1.952   9.361 -0.6746 -0.3391 -0.8354
  227MPD1     C 3496   2.393   1.094   9.545  0.0441  0.3813  0.3578
  227MPD1    C1 3497   2.504   1.028   9.589  0.0187 -0.1556 -0.4828
  227MPD1    C2 3498   2.624   1.097   9.573  0.4317 -0.1946  0.3463
  227MPD1    C3 3499   2.636   1.228   9.524  0.5654 -0.0462 -0.9153
  227MPD1    C4 3500   2.519   1.290   9.478 -0.1108  0.0050  0.4401
  227MPD1    C5 3501   2.402   1.220   9.486  0.3244 -0.7498  0.5354
  227MPD1     H 3502   2.715   1.045   9.600  0.7850 -0.4374 -1.3500
  227MPD1    H1 3503   2.515   1.396   9.458  2.3970  0.0165  0.0074
  227MPD1    H2 3504   2.293   1.055   9.560 -0.5064  0.9282 -1.8910
  227MPD1    H3 3505   2.310   1.271   9.462 -0.0292 -0.3539  2.6718
  227MPD1     N 3506   2.762   1.295   9.521  0.1535  0.4106 -0.5480
  227MPD1    H5 3507   2.845   1.245   9.550  1.0179  2.1605 -0.0252
  227MPD1    N1 3508   2.490   0.918   9.672  0.3515 -0.4116  0.4728
  227MPD1    H6 3509   2.412   0.853   9.661  2.2767 -2.9071  1.5474
  227MPD1    H7 3510   2.578   0.866   9.680  0.8610  0.3060 -0.4022
  228MPD1     C 3511   2.815   0.147  12.974  0.5765  0.1722  0.0269
  228MPD1    C1 3512   2.855   0.064  12.872  0.5668  0.1063 -0.8392
  228MPD1    C2 3513   2.796   4.678  12.871  0.1355 -0.6444  0.5308
  228MPD1    C3 3514   2.709   4.635  12.970  0.1212 -0.4394  0.0700
  228MPD1    C4 3515   2.690   4.713  13.085  0.3173 -1.3785 -0.4431
  228MPD1    C5 3516   2.736   0.103  13.080 -0.2501  0.2075  0.1206
  228MPD1     H 3517   2.800   4.612  12.785 -3.1209  0.3852 -0.4202
  228MPD1    H1 3518   2.632   4.686  13.173 -2.1915  3.0556 -0.7293
  228MPD1    H2 3519   2.852   0.248  12.984 -2.2341  1.1893  0.2634
  228MPD1    H3 3520   2.723   0.165  13.168  2.5979 -0.9874  1.4064
  228MPD1     N 3521   2.649   4.511  12.954  0.0727  0.7741 -0.2653
  228MPD1    H5 3522   2.675   4.452  12.875 -0.7573  2.4719 -1.7935
  228MPD1    N1 3523   2.913   0.126  12.756  0.3054  0.3034  0.3974
  228MPD1    H6 3524   2.977   0.198  12.789  0.8140  0.5508 -1.1258
  228MPD1    H7 3525   2.968   0.057  12.705  0.6639  0.3164  0.7635
  229MPD1     C 3526   2.188   3.204  14.762  0.6315  0.5232  0.0159
  229MPD1    C1 3527   2.222   3.095  14.673  0.1787 -0.5291 -0.5388
  229MPD1    C2 3528   2.324   3.008  14.716 -0.2807  0.1642 -0.3600
  229MPD1    C3 3529   2.360   2.997  14.846  0.9908 -0.1408  0.0012
  229MPD1    C4 3530   2.305   3.088  14.933  0.4103  0.4834 -0.8936
  229MPD1    C5 3531   2.227   3.194  14.892 -1.2948 -0.0490  0.0938
  229MPD1     H 3532   2.372   2.944  14.643  0.6644  1.3548 -0.7882
  229MPD1    H1 3533   2.334   3.089  15.037  2.1121 -1.1598 -1.3581
  229MPD1    H2 3534   2.124   3.279  14.719  2.0320  1.3202 -0.6754
  229MPD1    H3 3535   2.200   3.270  14.964 -1.2305 -1.1620  1.2858
  229MPD1     N 3536   2.455   2.906  14.895 -0.9145 -0.1109 -0.0403
  229MPD1    H5 3537   2.484   2.911  14.991 -2.0375  0.6566  0.2678
  229MPD1    N1 3538   2.193   3.108  14.536  1.1487 -0.2330 -0.0613
  229MPD1    H6 3539   2.110   3.156  14.503  0.8415  0.0980  1.1967
  229MPD1    H7 3540   2.196   3.020  14.485 -2.0502 -0.9378  0.9909
  230MPD1     C 3541   2.219   2.366  15.548  0.3585  1.2396 -0.5189
  230MPD1    C1 3542   2.154   2.373  15.432  0.1125  0.2648  0.3481
  230MPD1    C2 3543   2.226   2.414  15.324 -0.1509 -0.1106  0.3894
  230MPD1    C3 3544   2.358   2.456  15.330  0.0598  0.3176 -0.5595
  230MPD1    C4 3545   2.422   2.453  15.451 -0.4808 -0.4416  0.4124
  230MPD1    C5 3546   2.356   2.395  15.557  0.0176 -0.0021  0.3085
  230MPD1     H 3547   2.170   2.425  15.232  1.7227 -0.3312 -0.7826
  230MPD1    H1 3548   2.524   2.486  15.468 -0.6482  0.7838 -0.9824
  230MPD1    H2 3549   2.167   2.316  15.629  1.1806 -0.7250 -1.2006
  230MPD1    H3 3550   2.409   2.383  15.651 -1.3813  1.4753  1.2815
  230MPD1     N 3551   2.423   2.509  15.215 -0.7224  0.3701  0.1297
  230MPD1    H5 3552   2.363   2.533  15.137  0.1358  0.3700 -0.5380
  230MPD1    N1 3553   2.026   2.322  15.419  0.5901 -0.0533  0.1140
  230MPD1    H6 3554   1.967   2.315  15.501  0.9864 -1.5228  0.2805
  230MPD1    H7 3555   1.980   2.365  15.338 -2.2121 -0.0723  1.6887
  231MPD1     C 3556   0.858   4.507  15.075  0.0636 -0.0720  0.2588
  231MPD1    C1 3557   0.942   4.449  14.988 -0.0669  0.4696 -0.2031
  231MPD1    C2 3558   1.037   4.532  14.921  0.2375  0.2269  0.2213
  231MPD1    C3 3559   1.034   4.666  14.939 -0.2198 -0.8277  0.3827
  231MPD1    C4 3560   0.953   4.722  15.037  1.0463  0.6966 -0.0840
  231MPD1    C5 3561   0.863   4.640  15.091  0.4129  0.0404  0.0952
  231MPD1     H 3562   1.103   4.491  14.845  2.8426  1.0654  2.0750
  231MPD1    H1 3563   0.943   0.089  15.053  1.3712  0.5467  1.0830
  231MPD1    H2 3564   0.786   4.450  15.133 -0.8785  0.1079 -0.7449
  231MPD1    H3 3565   0.790   4.677  15.162  0.7204 -1.2439  1.0908
  231MPD1     N 3566   1.110   0.002  14.850 -0.2142 -0.3539 -0.1913
  231MPD1    H5 3567   1.173   4.686  14.792 -4.4933 -4.6129 -0.7477
  231MPD1    N1 3568   0.945   4.312  14.969 -0.1334 -0.0467 -0.1427
  231MPD1    H6 3569   0.996   4.285  14.885 -0.4693 -0.5735 -0.1784
  231MPD1    H7 3570   0.855   4.265  14.980 -0.4061  0.3657 -0.6092
  232MPD1     C 3571   2.891   2.853   0.266 -0.2976  0.0016  0.0303
  232MPD1    C1 3572   2.783   2.935   0.229 -0.0082 -0.3189 -0.0006
  232MPD1    C2 3573   2.667   2.878   0.177 -0.5829  0.4986  0.0548
  232MPD1    C3 3574   2.651   2.746   0.150 -0.3824 -0.1251 -0.4763
  232MPD1    C4 3575   2.755   2.664   0.191  0.3206  0.1336  0.1952
  232MPD1    C5 3576   2.868   2.725   0.245  0.1493 -0.0723 -0.0058
  232MPD1     H 3577   2.582   2.945   0.162 -3.1225 -3.4591 -3.2329
  232MPD1    H1 3578   2.767   2.556   0.195 -0.4454  0.0072 -0.9986
  232MPD1    H2 3579   2.981   2.902   0.302  0.0866 -0.4182 -0.3596
  232MPD1    H3 3580   2.950   2.657   0.267 -1.4827 -1.2271  2.4980
  232MPD1     N 3581   2.527   2.708   0.098  0.2688  0.2469 -0.4455
  232MPD1    H5 3582   2.474   2.790   0.070 -3.6360 -1.0555  3.1524
  232MPD1    N1 3583   2.796   3.071   0.232 -0.2424 -0.1688 -0.2078
  232MPD1    H6 3584   2.805   3.091   0.332  0.5836 -0.7170 -0.1685
  232MPD1    H7 3585   2.710   3.111   0.194 -0.3116 -0.6281 -0.5337
  233MPD1     C 3586   3.842   4.360   0.758  0.3698  0.1828 -0.5936
  233MPD1    C1 3587   3.964   4.330   0.815  0.0351 -0.4368 -0.7230
  233MPD1    C2 3588   4.016   4.429   0.898 -0.3138  0.1521  0.2541
  233MPD1    C3 3589   3.954   4.553   0.911 -0.6635 -0.0718  0.0873
  233MPD1    C4 3590   3.849   4.584   0.832 -0.1224  0.2800  0.2678
  233MPD1    C5 3591   3.792   4.489   0.756 -0.0849 -0.6825  0.6784
  233MPD1     H 3592   4.110   4.410   0.948 -0.5285 -1.0586  0.1932
  233MPD1    H1 3593   3.805   4.683   0.826  1.3668  0.7608 -2.6692
  233MPD1    H2 3594   3.779   4.293   0.700  2.0211 -2.3808  0.6372
  233MPD1    H3 3595   3.706   4.504   0.691  0.9418 -0.9966 -0.7733
  233MPD1     N 3596   4.000   4.645   1.007  0.1801 -0.3176  0.2812
  233MPD1    H5 3597   3.975   0.001   0.982 -0.4101 -0.6926 -0.5688
  233MPD1    N1 3598   4.017   4.201   0.811 -0.2603 -0.4433 -0.2567
  233MPD1    H6 3599   4.005   4.151   0.723  2.1553 -1.1147 -0.2071
  233MPD1    H7 3600   4.117   4.204   0.827 -0.0036 -0.7223 -1.7720
  234MPD1     C 3601   4.299   4.047   9.763 -0.4213 -0.7675  0.1466
  234MPD1    C1 3602   4.257   4.135   9.864 -1.0675 -0.1445  0.8162
  234MPD1    C2 3603   4.154   4.219   9.833 -0.6965 -0.0234 -0.4911
  234MPD1    C3 3604   4.108   4.242   9.701  0.6111 -0.1104 -0.0717
  234MPD1    C4 3605   4.160   4.161   9.606 -0.8130  0.1166 -0.4624
  234MPD1    C5 3606   4.255   4.065   9.631 -0.1609 -0.0722  0.1754
  234MPD1     H 3607   4.107   4.280   9.910 -1.2280 -0.2396 -0.6428
  234MPD1    H1 3608   4.135   4.175   9.501  0.6162  1.0311 -0.6742
  234MPD1    H2 3609   4.371   3.970   9.789 -0.8654 -1.2563 -0.0769
  234MPD1    H3 3610   4.303   4.014   9.549 -0.2798  0.0922  0.0042
  234MPD1     N 3611   4.000   4.339   9.678 -0.0425  0.6663  0.6681
  234MPD1    H5 3612   3.960   4.376   9.763 -1.0493 -1.0583  0.9429
  234MPD1    N1 3613   4.288   4.114   9.997 -0.2429 -0.3242 -0.2422
  234MPD1    H6 3614   4.380   4.070  10.006 -0.8803 -1.9658 -1.7018
  234MPD1    H7 3615   4.279   4.201  10.049  1.6811 -0.8058  0.8995
  235MPD1     C 3616   1.217   1.372  10.989 -0.1794 -0.3083  0.8231
  235MPD1    C1 3617   1.297   1.483  10.977 -0.0716  0.4190 -0.7578
  235MPD1    C2 3618   1.312   1.541  10.851  0.1598 -0.0067 -0.5283
  235MPD1    C3 3619   1.263   1.478  10.734  0.8482  0.8735 -0.0928
  235MPD1    C4 3620   1.191   1.358  10.747 -0.4841 -0.6371  0.4403
  235MPD1    C5 3621   1.159   1.313  10.876  0.0329 -0.3386  0.2207
  235MPD1     H 3622   1.369   1.633  10.843  1.0863 -0.6838 -1.6919
  235MPD1    H1 3623   1.161   1.303  10.658 -0.4813 -1.0239  0.6768
  235MPD1    H2 3624   1.216   1.316  11.081 -0.4594  0.6472  1.3981
  235MPD1    H3 3625   1.118   1.213  10.884 -0.0415 -0.7098 -5.0513
  235MPD1     N 3626   1.286   1.545  10.610  0.5986  0.8512  0.2961
  235MPD1    H5 3627   1.342   1.630  10.618  2.0124 -0.0708  0.2642
  235MPD1    N1 3628   1.363   1.535  11.088  0.2164 -0.2837  0.1271
  235MPD1    H6 3629   1.384   1.634  11.071  0.0704 -0.4894 -1.2241
  235MPD1    H7 3630   1.325   1.516  11.180 -1.0238 -1.6500 -0.6810
  236MPD1     C 3631   0.734   3.239   9.019  0.3117  0.3930 -0.2786
  236MPD1    C1 3632   0.804   3.313   9.112 -0.2790  0.1281  0.4973
  236MPD1    C2 3633   0.845   3.257   9.229 -0.4195  0.6927  0.4940
  236MPD1    C3 3634   0.798   3.130   9.267  0.1285  0.4725  0.4934
  236MPD1    C4 3635   0.730   3.053   9.174 -0.0826 -0.9338 -0.5430
  236MPD1    C5 3636   0.699   3.106   9.052  0.3194 -0.2686  0.2219
  236MPD1     H 3637   0.907   3.320   9.293  1.0661  2.0632 -2.3066
  236MPD1    H1 3638   0.696   2.951   9.189  0.7940 -1.1893 -0.2495
  236MPD1    H2 3639   0.698   3.277   8.924  1.1768  0.8716 -0.4064
  236MPD1    H3 3640   0.645   3.053   8.974 -1.4816  2.1215 -0.1549
  236MPD1     N 3641   0.825   3.069   9.393  0.1600  0.3233 -0.8131
  236MPD1    H5 3642   0.794   2.974   9.409  0.5500  0.1841 -0.8757
  236MPD1    N1 3643   0.847   3.440   9.072  0.4585 -0.2589 -0.3677
  236MPD1    H6 3644   0.811   3.471   8.982  0.1957 -1.4426 -0.6662
  236MPD1    H7 3645   0.874   3.503   9.146  2.7325 -1.7308  0.0422
  237MPD1     C 3646   1.542   1.661  15.082  0.0039  0.4104 -0.1456
  237MPD1    C1 3647   1.591   1.540  15.115  0.3290  0.6371 -0.1693
  237MPD1    C2 3648   1.495   1.445  15.164  0.0338 -0.4840 -0.9747
  237MPD1    C3 3649   1.361   1.482  15.164  1.0732 -0.0931 -0.5919
  237MPD1    C4 3650   1.314   1.608  15.123  0.1777  0.5960 -0.2629
  237MPD1    C5 3651   1.408   1.697  15.087 -0.5195  0.0337 -0.1674
  237MPD1     H 3652   1.534   1.348  15.192 -0.8957 -0.9255 -1.2265
  237MPD1    H1 3653   1.208   1.627  15.130 -0.0574 -1.1657  0.9591
  237MPD1    H2 3654   1.607   1.736  15.037  0.6396  0.1390  0.3345
  237MPD1    H3 3655   1.370   1.792  15.051  0.6846  0.2133 -0.9657
  237MPD1     N 3656   1.260   1.397  15.204  0.1451  0.5831  0.0702
  237MPD1    H5 3657   1.165   1.425  15.182 -0.4020  0.4094  2.2002
  237MPD1    N1 3658   1.729   1.520  15.128  0.3119  0.4414  0.5948
  237MPD1    H6 3659   1.794   1.579  15.077  0.0848 -0.0679 -0.3059
  237MPD1    H7 3660   1.743   1.423  15.098 -2.5566  1.0841 -2.9614
  238MPD1     C 3661   3.156   4.535  14.747 -0.1671 -0.2703  0.0683
  238MPD1    C1 3662   3.096   4.444  14.836  0.0509  0.4768 -0.8723
  238MPD1    C2 3663   2.959   4.443  14.827  0.0612 -0.0092 -0.5718
  238MPD1    C3 3664   2.884   4.530  14.748 -0.4064  0.4325  0.0786
  238MPD1    C4 3665   2.952   4.607  14.661 -0.9937  0.0528  0.0999
  238MPD1    C5 3666   3.087   4.606  14.654 -0.7181  0.2629 -0.0700
  238MPD1     H 3667   2.904   4.368  14.883  1.7394 -2.4937 -2.2622
  238MPD1    H1 3668   2.896   4.666  14.590  1.6269  1.5817 -0.6799
  238MPD1    H2 3669   3.264   4.533  14.737 -0.0763 -2.1462  1.3579
  238MPD1    H3 3670   3.138   4.667  14.580  1.0037 -0.8009  0.2578
  238MPD1     N 3671   2.746   4.512  14.729 -0.7596  0.0912  0.1395
  238MPD1    H5 3672   2.707   4.549  14.643 -1.0456  1.6764  0.9610
  238MPD1    N1 3673   3.166   4.353  14.922  0.5064 -0.4217  0.2737
  238MPD1    H6 3674   3.129   4.335  15.015 -0.6664  0.4356 -0.0240
  238MPD1    H7 3675   3.266   4.369  14.930  0.0930  1.6699  1.3371
  239MPD1     C 3676   2.767   0.325  14.928 -0.9960 -0.2544 -0.4819
  239MPD1    C1 3677   2.841   0.337  14.811  0.0172  0.1256  0.2422
  239MPD1    C2 3678   2.801   0.418  14.709  0.2196 -0.1753 -0.1865
  239MPD1    C3 3679   2.671   0.469  14.714  0.2524 -0.0573 -0.3132
  239MPD1    C4 3680   2.589   0.439  14.826 -0.0373 -0.1343  0.0919
  239MPD1    C5 3681   2.641   0.369  14.929 -0.3253 -0.5405 -0.3554
  239MPD1     H 3682   2.871   0.447  14.631  1.1578 -1.4848  0.1727
  239MPD1    H1 3683   2.484   0.465  14.832  0.6096  2.4209  0.3407
  239MPD1    H2 3684   2.803   0.267  15.013 -1.9662 -0.8303 -0.4693
  239MPD1    H3 3685   2.572   0.345  15.009 -1.2784 -1.0006 -1.3221
  239MPD1     N 3686   2.623   0.547  14.609 -0.2293 -0.5285 -0.9014
  239MPD1    H5 3687   2.523   0.566  14.612 -0.4426 -1.8841  0.2878
  239MPD1    N1 3688   2.969   0.291  14.811  0.2472  0.2017 -0.4173
  239MPD1    H6 3689   3.009   0.264  14.722  1.2534  1.1559 -0.2517
  239MPD1    H7 3690   2.979   0.216  14.879 -0.9462  1.2779  0.9643
  240MPD1     C 3691   2.561   4.499  13.776 -0.4642 -0.9282  0.8871
  240MPD1    C1 3692   2.427   4.534  13.763 -0.0856 -0.1806 -0.1438
  240MPD1    C2 3693   2.361   4.587  13.871  0.2318 -0.2459 -0.4574
  240MPD1    C3 3694   2.419   4.601  13.996  0.8906  0.9238  0.0786
  240MPD1    C4 3695   2.549   4.565  14.013 -0.9579  0.5894  0.3618
  240MPD1    C5 3696   2.615   4.526  13.900  0.1453  0.3833  0.1376
  240MPD1     H 3697   2.262   4.630  13.866 -1.3669 -3.5711  3.0863
  240MPD1    H1 3698   2.599   4.565  14.109  0.7092  0.5440 -0.5134
  240MPD1    H2 3699   2.615   4.444  13.699  1.2640  0.7938  0.8693
  240MPD1    H3 3700   2.718   4.494  13.908 -0.4267 -1.4113  0.3595
  240MPD1     N 3701   2.343   4.658  14.105 -0.0927 -0.0521 -0.9045
  240MPD1    H5 3702   2.244   4.677  14.089 -0.2013 -1.1083 -1.4999
  240MPD1    N1 3703   2.364   4.521  13.636  0.4984 -0.4675 -0.8250
  240MPD1    H6 3704   2.413   4.452  13.580  0.8316 -2.4063  1.8435
  240MPD1    H7 3705   2.270   4.484  13.653 -1.0907  2.0932 -4.0109
  241MPD1     C 3706   2.531   0.037  15.082  0.2305  0.4744  0.6329
  241MPD1    C1 3707   2.397   0.069  15.064 -0.1021 -0.1790  0.0688
  241MPD1    C2 3708   2.334   0.083  14.941 -0.3740  0.4963  0.0255
  241MPD1    C3 3709   2.426   0.065  14.826  0.5238 -0.2246 -0.6588
  241MPD1    C4 3710   2.558   0.045  14.850  0.1745  0.1247  0.1414
  241MPD1    C5 3711   2.612   0.031  14.973  0.2194  0.9703 -0.4387
  241MPD1     H 3712   2.234   0.125  14.934 -0.2502  1.1528  2.2417
  241MPD1    H1 3713   2.627   0.037  14.767 -0.0401 -0.5324  0.0266
  241MPD1    H2 3714   2.582   0.049  15.177 -1.6061 -1.3478  1.8647
  241MPD1    H3 3715   2.719   0.016  14.972  0.2921  1.1951  2.3438
  241MPD1     N 3716   2.383   0.071  14.685 -0.7811 -0.7644 -0.0111
  241MPD1    H5 3717   2.456   0.069  14.615 -0.5368 -0.4811  0.2403
  241MPD1    N1 3718   2.332   0.116  15.175 -0.1714 -0.1945  0.8602
  241MPD1    H6 3719   2.231   0.101  15.165 -0.3328  1.7712 -0.4683
  241MPD1    H7 3720   2.371   0.075  15.259  2.3346  0.3535 -0.0312
  242MPD1     C 3721   2.153   4.019  15.839 -0.3249 -0.4046  0.8707
  242MPD1    C1 3722   2.082   4.046  15.725 -0.1218  0.0597 -1.0395
  242MPD1    C2 3723   2.095   3.971  15.610  0.3175  0.6696  0.3232
  242MPD1    C3 3724   2.179   3.856  15.616  0.5219 -0.7721  0.4116
  242MPD1    C4 3725   2.237   3.828  15.739  0.6204  0.4340 -0.5278
  242MPD1    C5 3726   2.234   3.911  15.846  0.0066 -0.1707  0.2233
  242MPD1     H 3727   2.036   3.991  15.521  1.3904  0.7179 -0.3890
  242MPD1    H1 3728   2.299   3.739  15.744  2.0444  1.5461  1.3777
  242MPD1    H2 3729   2.156   4.086  15.923  2.5565 -0.1961  0.6110
  242MPD1    H3 3730   2.287   3.888  15.938  1.7941 -0.3442 -0.8547
  242MPD1     N 3731   2.196   3.769  15.502 -0.2271 -0.0571 -0.1473
  242MPD1    H5 3732   2.267   3.697  15.508  0.7885  1.0241  0.8459
  242MPD1    N1 3733   1.999   4.164  15.722 -0.6512  0.0991  0.0626
  242MPD1    H6 3734   1.922   4.160  15.656  0.3802 -1.0572 -1.0708
  242MPD1    H7 3735   1.960   4.160  15.816 -1.9991  0.1165 -0.4983
  243MPD1     C 3736   2.811   2.700  17.467 -1.2174 -0.3009  0.7784
  243MPD1    C1 3737   2.859   2.617  17.556 -0.9558  0.5626  0.0392
  243MPD1    C2 3738   2.994   2.577  17.549 -0.4808  0.1568  0.7140
  243MPD1    C3 3739   3.076   2.634  17.452  0.0660  0.2259 -0.4540
  243MPD1    C4 3740   3.020   2.715  17.354 -0.2058 -0.7379  0.4344
  243MPD1    C5 3741   2.886   2.749  17.364 -0.3864 -0.6243 -0.0080
  243MPD1     H 3742   3.036   2.503  17.616  2.8559  0.9728 -0.5044
  243MPD1    H1 3743   3.069   2.761  17.269  1.3709  1.0046  2.3065
  243MPD1    H2 3744   2.710   2.738  17.469 -1.9658 -2.3549  1.8853
  243MPD1    H3 3745   2.833   2.804  17.287  2.1520 -0.3650 -1.5842
  243MPD1     N 3746   3.209   2.593  17.436 -0.1186 -0.2605  0.2244
  243MPD1    H5 3747   3.248   2.518  17.491  0.0604 -2.2765 -2.7131
  243MPD1    N1 3748   2.763   2.553  17.639  0.2250 -0.2124 -0.7218
  243MPD1    H6 3749   2.671   2.593  17.653  0.5113 -0.2358  1.1664
  243MPD1    H7 3750   2.805   2.532  17.729  0.0014  1.1739 -0.2906
  244MPD1     C 3751   3.384   1.858  17.610 -0.4650 -0.1273  0.2745
  244MPD1    C1 3752   3.442   1.949  17.694  0.1317  0.1410  0.7645
  244MPD1    C2 3753   3.474   2.069  17.638  0.0036 -0.0044  0.3643
  244MPD1    C3 3754   3.469   2.086  17.501 -0.3508 -0.5194 -0.0657
  244MPD1    C4 3755   3.436   1.979  17.425 -0.7367 -0.1456  0.1729
  244MPD1    C5 3756   3.391   1.865  17.473 -0.2205  0.4173 -0.4534
  244MPD1     H 3757   3.513   2.152  17.695  0.5537  0.0848 -0.1402
  244MPD1    H1 3758   3.440   1.982  17.316  0.4015 -0.5400  0.2100
  244MPD1    H2 3759   3.362   1.759  17.649 -0.4692 -1.1395 -2.2973
  244MPD1    H3 3760   3.360   1.788  17.403  2.5650 -2.2200  1.2196
  244MPD1     N 3761   3.500   2.211  17.439 -0.3017 -0.3134  0.2281
  244MPD1    H5 3762   3.509   2.291  17.501  1.5972 -0.5431  0.2403
  244MPD1    N1 3763   3.428   1.926   0.080  0.0718  0.4567 -0.0474
  244MPD1    H6 3764   3.443   1.830   0.110  0.8230  0.8425  0.8193
  244MPD1    H7 3765   3.500   1.984   0.124  1.9672 -1.7867 -0.2390
  245MPD1     C 3766   1.389   1.830  13.675 -0.7082  0.2985  0.2039
  245MPD1    C1 3767   1.367   1.905  13.560  0.7536  0.1518  0.2404
  245MPD1    C2 3768   1.360   2.036  13.570 -0.1974  0.3234  0.0259
  245MPD1    C3 3769   1.379   2.102  13.689  0.0554 -0.1369 -0.1438
  245MPD1    C4 3770   1.408   2.025  13.806  0.3236 -0.3970  0.3173
  245MPD1    C5 3771   1.413   1.890  13.793 -0.3123 -0.0822  0.4950
  245MPD1     H 3772   1.339   2.096  13.482 -1.9691  0.7120  0.7137
  245MPD1    H1 3773   1.434   2.068  13.901  1.3575 -1.0884  0.3422
  245MPD1    H2 3774   1.414   1.725  13.664 -0.9265  0.4771 -1.9496
  245MPD1    H3 3775   1.464   1.823  13.861  1.8578  1.3905  0.3305
  245MPD1     N 3776   1.384   2.241  13.694  0.0610  0.3753  0.0394
  245MPD1    H5 3777   1.350   2.295  13.615  1.0224 -0.0719 -0.6935
  245MPD1    N1 3778   1.339   1.838  13.437 -0.2773  0.2764  0.3132
  245MPD1    H6 3779   1.362   1.739  13.443  1.8478  0.5787 -2.7937
  245MPD1    H7 3780   1.400   1.878  13.366  1.7529 -1.0261  1.3191
  246MPD1     C 3781   1.623   0.431  10.139 -0.4829 -0.3405 -0.3527
  246MPD1    C1 3782   1.731   0.362  10.196 -0.6050  0.6643  0.4340
  246MPD1    C2 3783   1.727   0.224  10.207 -0.6817 -0.6899  0.1354
  246MPD1    C3 3784   1.620   0.157  10.147 -0.0856 -0.1476 -0.4992
  246MPD1    C4 3785   1.520   0.228  10.082  0.1168  0.0531 -0.4149
  246MPD1    C5 3786   1.517   0.367  10.080  0.1519  0.3406 -0.8890
  246MPD1     H 3787   1.810   0.179  10.259 -1.9358 -2.6892  0.4262
  246MPD1    H1 3788   1.431   0.181  10.041  0.7011 -1.1248 -0.3201
  246MPD1    H2 3789   1.621   0.540  10.136 -0.4929 -0.3416 -0.3817
  246MPD1    H3 3790   1.441   0.422  10.027 -1.0489 -1.3970 -0.9758
  246MPD1     N 3791   1.606   0.011  10.149 -0.1398  0.0151  0.5285
  246MPD1    H5 3792   1.537   4.707  10.088  0.8758 -1.0494  0.1325
  246MPD1    N1 3793   1.837   0.433  10.258  0.5681 -0.1735 -0.7904
  246MPD1    H6 3794   1.850   0.530  10.230 -1.4736  0.7929  1.6531
  246MPD1    H7 3795   1.925   0.392  10.288 -1.7478 -2.1940  3.3103
  247MPD1     C 3796   0.416   1.772  15.316 -0.9577 -0.3041  1.2696
  247MPD1    C1 3797   0.479   1.831  15.419 -1.2437 -0.4871 -0.5199
  247MPD1    C2 3798   0.416   1.934  15.489  0.3078  0.5408  0.6864
  247MPD1    C3 3799   0.289   1.971  15.460 -0.5404  0.1265  0.2893
  247MPD1    C4 3800   0.217   1.904  15.366 -0.3312 -1.0080 -0.2841
  247MPD1    C5 3801   0.280   1.809  15.288  0.0002 -0.7168 -0.9577
  247MPD1     H 3802   0.475   1.985  15.564  1.3146  3.5723 -2.1858
  247MPD1    H1 3803   0.112   1.928  15.350 -0.2045  0.8026  1.6250
  247MPD1    H2 3804   0.466   1.702  15.249  0.2596  0.3576  1.4990
  247MPD1    H3 3805   0.218   1.756  15.216 -2.3384 -0.5707  0.9931
  247MPD1     N 3806   0.225   2.088  15.501 -0.0462  0.2067  0.3599
  247MPD1    H5 3807   0.139   2.108  15.451  0.7924  1.5787 -0.5510
  247MPD1    N1 3808   0.615   1.812  15.430 -0.6037 -0.3865  0.0708
  247MPD1    H6 3809   0.645   1.728  15.381  0.3385 -1.0429  1.7670
  247MPD1    H7 3810   0.633   1.793  15.529 -0.5768 -0.4083  0.0617
  248MPD1     C 3811   0.674   1.575   0.087  0.1273 -0.0766 -0.1647
  248MPD1    C1 3812   0.744   1.649   0.180  0.0356  0.1590  0.1881
  248MPD1    C2 3813   0.728   1.782   0.174 -0.6148  0.1847  0.3152
  248MPD1    C3 3814   0.639   1.845   0.087  1.2814  1.0581 -0.8234
  248MPD1    C4 3815   0.567   1.769  17.753 -0.0368  0.1475 -0.3800
  248MPD1    C5 3816   0.589   1.634   0.002 -0.2657  0.4092  0.0994
  248MPD1     H 3817   0.788   1.844   0.238  1.6951 -0.5424 -1.1345
  248MPD1    H1 3818   0.498   1.819  17.686  0.3254  1.0619 -0.0716
  248MPD1    H2 3819   0.670   1.467   0.084 -1.4744 -0.0405  0.8124
  248MPD1    H3 3820   0.538   1.573  17.683 -3.2319 -1.0265  3.3619
  248MPD1     N 3821   0.617   1.984   0.101 -0.1993  0.1406  0.1391
  248MPD1    H5 3822   0.675   2.031   0.170 -2.2834  4.3382 -0.9492
  248MPD1    N1 3823   0.837   1.592   0.271 -0.4873  0.7087 -0.0837
  248MPD1    H6 3824   0.806   1.512   0.326 -1.4216  0.7356 -0.5781
  248MPD1    H7 3825   0.862   1.661   0.341  0.8984  3.6030 -3.4219
  249MPD1     C 3826   2.461   0.695  10.478 -0.0191 -0.3943  0.5437
  249MPD1    C1 3827   2.421   0.806  10.554  0.1381 -0.5226  0.2384
  249MPD1    C2 3828   2.295   0.852  10.524  0.2485 -0.9943 -0.8978
  249MPD1    C3 3829   2.209   0.787  10.433  0.1795 -0.7319 -0.7272
  249MPD1    C4 3830   2.258   0.680  10.353  0.4016  0.1127  0.9592
  249MPD1    C5 3831   2.386   0.636  10.381 -0.8010 -0.0275  0.0527
  249MPD1     H 3832   2.254   0.932  10.584  0.5468 -0.8096 -0.9421
  249MPD1    H1 3833   2.193   0.622  10.289 -0.3100  3.6167 -1.5364
  249MPD1    H2 3834   2.551   0.646  10.512  0.4213  1.2643  1.7980
  249MPD1    H3 3835   2.433   0.555  10.325  1.2538  1.4511 -0.3865
  249MPD1     N 3836   2.076   0.836  10.430  0.3512  0.8220  0.0465
  249MPD1    H5 3837   2.051   0.919  10.483 -0.4523  1.3962 -1.2119
  249MPD1    N1 3838   2.497   0.853  10.664 -0.0062 -0.1634  0.0727
  249MPD1    H6 3839   2.595   0.835  10.645  0.4183  2.5381 -0.2359
  249MPD1    H7 3840   2.508   0.954  10.657  1.1405 -0.2573  0.6661
  250MPD2     C 3841   4.168   1.280  13.511  0.2099 -0.4464 -0.2906
  250MPD2    C1 3842   4.146   1.278  13.372  0.1409  0.2521  0.2577
  250MPD2    C2 3843   4.048   1.191  13.319  0.4540  0.1637 -0.1202
  250MPD2    C3 3844   3.981   1.098  13.404 -0.0211 -0.1554 -0.8394
  250MPD2    C4 3845   4.014   1.100  13.539 -0.3380 -0.1654 -0.8295
  250MPD2    C5 3846   4.113   1.182  13.590  0.3446  0.2371 -0.3686
  250MPD2     H 3847   4.035   1.183  13.212  0.7115  0.1497 -0.1500
  250MPD2    H1 3848   3.970   1.026  13.604  2.8280 -0.4425  0.9849
  250MPD2    H2 3849   4.234   1.346  13.566 -1.4040  0.2541  0.7858
  250MPD2    H3 3850   4.145   1.182  13.694  0.9551  1.1527 -0.5547
  250MPD2     N 3851   3.892   1.001  13.356 -0.2014  0.2102  0.2500
  250MPD2    H5 3852   3.877   0.922  13.419 -2.3962  0.0903 -0.4198
  250MPD2    N1 3853   4.221   1.367  13.294 -0.1178 -0.1478 -0.2669
  250MPD2    H7 3854   4.275   1.435  13.347 -2.1823  0.8530  0.5461
  251TMC3    C1 3855   4.299   1.479  13.095  0.2859  0.2380  0.5976
  251TMC3    C2 3856   4.239   1.565  13.001  0.0251 -0.9222  0.3422
  251TMC3    C3 3857   4.290   1.693  12.999  0.4086  0.0895  0.3622
  251TMC3    C4 3858   4.406   1.518  13.171 -0.1648  0.6797  1.0033
  251TMC3    C5 3859   4.451   1.647  13.163 -0.1013 -0.4145  0.5062
  251TMC3    C6 3860   4.397   1.734  13.076 -0.2340 -0.2647  0.4102
  251TMC3     C 3861   4.209   1.379  13.153 -0.7868  0.3981  0.6942
  251TMC3     O 3862   4.141   1.318  13.071  0.2428 -0.2163 -0.0464
  251TMC3     H 3863   4.170   1.519  12.932 -2.9880  0.4689  2.4010
  251TMC3    H1 3864   4.465   1.448  13.230  2.6450  1.5922 -0.6999
  251TMC3    H2 3865   4.442   1.831  13.056 -0.9438 -0.4843 -2.2778
  251TMC3    C7 3866   4.594   1.660  13.187  0.2158 -0.0004  0.6055
  251TMC3    C8 3867   4.205   1.786  12.934 -0.6941 -0.8662  0.2906
  251TMC3    O1 3868   4.648   1.559  13.226 -0.4659  0.2849  0.0460
  251TMC3    O2 3869   4.117   1.744  12.855  0.4104 -0.0886  0.7171
  252TMC3    C1 3870   2.771   2.340   9.767 -0.9772  0.3147 -0.0005
  252TMC3    C2 3871   2.882   2.389   9.705 -0.0433  0.1084 -0.8582
  252TMC3    C3 3872   2.998   2.323   9.721  0.3326 -0.3375 -0.2029
  252TMC3    C4 3873   2.780   2.229   9.848 -0.3784 -0.0829 -0.0606
  252TMC3    C5 3874   2.892   2.150   9.843 -0.1052 -0.1750  0.4255
  252TMC3    C6 3875   3.007   2.199   9.779  0.0382 -0.3323  0.0212
  252TMC3     C 3876   2.647   2.416   9.779 -0.0214  0.3505  0.4078
  252TMC3     O 3877   2.552   2.371   9.839 -0.3173  0.0136 -0.2681
  252TMC3     H 3878   2.897   2.487   9.660  0.7651  0.3813 -0.0166
  252TMC3    H1 3879   2.704   2.210   9.924  0.1936 -0.2473  0.4677
  252TMC3    H2 3880   3.098   2.144   9.796  0.7409  0.2337 -1.8579
  252TMC3    C7 3881   2.908   2.065   9.958 -0.1050 -0.3535 -0.8380
  252TMC3    C8 3882   3.122   2.370   9.663 -0.0387 -0.0764 -0.2576
  252TMC3    O1 3883   3.010   2.093  10.013 -0.2210 -0.0593 -0.2201
  252TMC3    O2 3884   3.106   2.449   9.572  0.4880 -0.2080 -0.2953
  253MPD2     C 3885   0.398   1.342  15.192 -0.2119  0.6308  0.2115
  253MPD2    C1 3886   0.267   1.364  15.159  0.1961  0.4515  0.8366
  253MPD2    C2 3887   0.165   1.294  15.225 -0.3091 -0.3624  0.6087
  253MPD2    C3 3888   0.190   1.220  15.336  0.2633  0.3702  0.2412
  253MPD2    C4 3889   0.324   1.192  15.366  0.5556 -0.4575  0.1469
  253MPD2    C5 3890   0.419   1.250  15.290  1.0506  0.5644 -0.2177
  253MPD2     H 3891   0.062   1.319  15.202  0.0751  1.3603  0.7711
  253MPD2    H1 3892   0.352   1.133  15.452  0.0240  0.3435  0.8607
  253MPD2    H2 3893   0.476   1.401  15.146 -0.4840  0.8175 -0.0101
  253MPD2    H3 3894   0.513   1.232  15.340  1.0731 -0.8613 -0.7824
  253MPD2     N 3895   0.100   1.190  15.439  0.1537 -0.4861  0.7642
  253MPD2    H5 3896   0.131   1.133  15.518 -1.6099 -1.0317  1.0633
  253MPD2    N1 3897   0.234   1.451  15.060 -0.5564  0.9106  0.0345
  253MPD2    H7 3898   0.135   1.450  15.039 -0.6387 -0.4118  0.4758
  254TMC3    C1 3899   4.651   1.228  15.573 -0.3504 -0.4151 -0.1083
  254TMC3    C2 3900   4.562   1.319  15.617 -0.1247 -0.2469  0.5028
  254TMC3    C3 3901   4.500   1.298  15.738  0.8651  0.4121 -0.0181
  254TMC3    C4 3902   4.682   1.113  15.650  0.7584  0.3671  0.4589
  254TMC3    C5 3903   4.614   1.098  15.769 -0.0524 -0.1981 -0.2342
  254TMC3    C6 3904   4.519   1.187  15.813 -0.3664 -0.3490 -0.1270
  254TMC3     C 3905   4.711   1.245  15.455  0.9916  0.1022  0.3649
  254TMC3     O 3906   4.658   1.333  15.385 -0.0009 -0.4818  0.1298
  254TMC3     H 3907   4.547   1.415  15.569 -1.0034  0.2220  1.7314
  254TMC3    H1 3908   0.001   1.032  15.607  0.0165  0.9271 -1.5738
  254TMC3    H2 3909   4.478   1.173  15.912  0.6687 -0.4441  0.2815
  254TMC3    C7 3910   4.660   1.002  15.875  0.4740  0.1566 -0.2273
  254TMC3    C8 3911   4.442   1.412  15.812 -0.2163  0.0094  0.1823
  254TMC3    O1 3912   4.584   0.977  15.966  0.2273 -0.3658 -0.4648
  254TMC3    O2 3913   4.387   1.385  15.917 -0.0105  0.8590  0.3767
  255MPD2     C 3914   1.962   3.687   9.513  0.1206 -0.0094  0.1784
  255MPD2    C1 3915   1.990   3.809   9.565  0.7021 -0.0901 -0.3603
  255MPD2    C2 3916   2.108   3.826   9.627 -0.3282 -0.1534 -0.2283
  255MPD2    C3 3917   2.210   3.731   9.614 -0.1388 -0.5207  0.5515
  255MPD2    C4 3918   2.186   3.622   9.536  0.1049  0.0528 -0.5798
  255MPD2    C5 3919   2.062   3.602   9.486 -0.2086  0.2166 -0.5337
  255MPD2     H 3920   2.128   3.922   9.674  0.9436 -0.3281 -0.4006
  255MPD2    H1 3921   2.261   3.551   9.502  0.9518  0.5271  0.3022
  255MPD2    H2 3922   1.865   3.668   9.468 -0.0765 -1.0612  1.0656
  255MPD2    H3 3923   2.031   3.512   9.434  1.2944 -0.2990 -0.5117
  255MPD2     N 3924   2.327   3.756   9.687  0.0055 -0.0775  0.3242
  255MPD2    H5 3925   2.340   3.841   9.741  1.5617 -0.1835  0.1055
  255MPD2    N1 3926   1.889   3.907   9.563  0.5683 -0.0303  0.3994
  255MPD2    H7 3927   1.798   3.885   9.525  0.4274  0.0532  0.6855
  256TMC3    C1 3928   1.784   4.106   9.602  0.1898 -0.4355  0.2875
  256TMC3    C2 3929   1.781   4.215   9.517  0.0492 -0.2161 -0.6815
  256TMC3    C3 3930   1.668   4.241   9.450  0.1428 -0.4016  0.1695
  256TMC3    C4 3931   1.676   4.023   9.618 -0.4466 -0.4506 -0.7547
  256TMC3    C5 3932   1.575   4.034   9.522  0.3093 -0.3537  1.0486
  256TMC3    C6 3933   1.568   4.142   9.440  0.6114 -0.1810 -0.6208
  256TMC3     C 3934   1.910   4.039   9.598 -0.1597 -0.1204  0.3167
  256TMC3     O 3935   2.015   4.099   9.606 -0.0471  0.0519  0.2777
  256TMC3     H 3936   1.869   4.278   9.509  1.3213 -1.7210  1.6621
  256TMC3    H1 3937   1.686   3.936   9.682  0.2980 -0.0831 -0.3641
  256TMC3    H2 3938   1.489   4.149   9.367 -1.3272  0.6644  1.5425
  256TMC3    C7 3939   1.565   3.903   9.457 -0.4490  0.3517  0.1943
  256TMC3    C8 3940   1.627   4.379   9.408 -0.3389 -0.8620 -0.0436
  256TMC3    O1 3941   1.621   3.804   9.503 -0.4051 -0.0403 -0.1714
  256TMC3    O2 3942   1.515   4.391   9.360 -0.7204 -0.3284 -0.2378
  257MPD2     C 3943   2.064   0.653  13.039 -0.2182  0.3247  0.2219
  257MPD2    C1 3944   2.162   0.742  13.061  0.6320  0.5950  0.9454
  257MPD2    C2 3945   2.285   0.700  13.107  0.1987 -0.4663  0.3939
  257MPD2    C3 3946   2.301   0.566  13.129 -0.3627  0.7764 -0.3687
  257MPD2    C4 3947   2.204   0.479  13.100  0.3713  0.8896 -0.1111
  257MPD2    C5 3948   2.084   0.526  13.064  0.5908  0.4929  0.3065
  257MPD2     H 3949   2.372   0.761  13.128 -0.4672  0.7459 -0.3706
  257MPD2    H1 3950   2.206   0.373  13.123  0.0001  0.6299 -1.2866
  257MPD2    H2 3951   1.971   0.686  12.993 -0.4152  2.5058  2.1683
  257MPD2    H3 3952   2.001   0.463  13.035  0.8800 -1.2043  3.2342
  257MPD2     N 3953   2.424   0.529  13.180 -0.1478 -0.4526  0.6917
  257MPD2    H5 3954   2.492   0.605  13.178 -0.1759 -0.5478 -4.3573
  257MPD2    N1 3955   2.135   0.878  13.032  0.4323  0.6834 -0.2918
  257MPD2    H7 3956   2.038   0.908  13.026 -0.0879 -0.9244 -0.0562
  258TMC3    C1 3957   2.613   0.407  13.259  0.0645 -0.4543 -0.7063
  258TMC3    C2 3958   2.709   0.481  13.189 -0.4031 -0.7666 -0.5910
  258TMC3    C3 3959   2.814   0.540  13.259  0.9075 -0.0537 -0.3147
  258TMC3    C4 3960   2.635   0.374  13.392 -0.4249 -0.5644  0.3931
  258TMC3    C5 3961   2.735   0.440  13.462  0.2101 -0.1484 -0.5682
  258TMC3    C6 3962   2.822   0.523  13.392  0.2708  0.4415 -0.1768
  258TMC3     C 3963   2.473   0.407  13.214  0.6856  0.0521 -0.3448
  258TMC3     O 3964   2.415   0.301  13.226 -0.1177 -0.7983  0.1785
  258TMC3     H 3965   2.691   0.500  13.084  1.0925 -2.2289 -1.1193
  258TMC3    H1 3966   2.562   0.310  13.440 -1.7385 -0.3134 -1.2848
  258TMC3    H2 3967   2.907   0.564  13.446 -1.4044  0.1479  2.7126
  258TMC3    C7 3968   2.746   0.425  13.610  0.5910 -0.4410  0.9661
  258TMC3    C8 3969   2.914   0.617  13.193 -0.3258 -0.7885 -0.4502
  258TMC3    O1 3970   2.665   0.353  13.666  0.2727  0.1416 -0.0180
  258TMC3    O2 3971   3.010   0.660  13.257  0.0252 -0.3880 -0.1143
  259MPD2     C 3972   1.332   3.260   0.229 -0.1868 -0.1781 -0.0702
  259MPD2    C1 3973   1.419   3.154   0.218 -0.0338 -0.0100  0.6297
  259MPD2    C2 3974   1.462   3.127   0.085  0.4682 -0.2760 -0.6473
  259MPD2    C3 3975   1.419   3.196  17.729  1.1720  0.3031 -0.1164
  259MPD2    C4 3976   1.324   3.291  17.747 -0.0214  0.7495 -0.0543
  259MPD2    C5 3977   1.292   3.329   0.121  0.3583 -0.1896  0.2616
  259MPD2     H 3978   1.521   3.036   0.072  1.8811  0.3577  1.3636
  259MPD2    H1 3979   1.277   3.348  17.667 -0.9765 -1.5358 -1.1171
  259MPD2    H2 3980   1.292   3.274   0.329 -1.8673  1.6364 -0.9937
  259MPD2    H3 3981   1.222   3.410   0.141  0.3874 -0.7708  2.7474
  259MPD2     N 3982   1.465   3.155  17.605  0.5864  0.7128 -0.6265
  259MPD2    H5 3983   1.527   3.075  17.602 -0.2355  0.1202 -1.6018
  259MPD2    N1 3984   1.467   3.091   0.336 -0.1668  0.3758 -0.5992
  259MPD2    H7 3985   1.426   3.121   0.423  0.3420  0.0921 -0.2597
  260TMC3    C1 3986   1.486   3.132  17.376  0.6380 -0.0285  0.9020
  260TMC3    C2 3987   1.581   3.196  17.296 -0.3717  0.4203 -0.7639
  260TMC3    C3 3988   1.662   3.123  17.220 -0.1148 -1.2016  0.0393
  260TMC3    C4 3989   1.490   2.998  17.388  0.0211 -0.4073  0.2124
  260TMC3    C5 3990   1.574   2.920  17.309  0.0490  0.7438 -0.6264
  260TMC3    C6 3991   1.655   2.986  17.223 -0.8820  0.5108 -0.4276
  260TMC3     C 3992   1.446   3.219  17.488  0.4827  0.5597 -1.1374
  260TMC3     O 3993   1.449   3.340  17.484  0.1617 -0.1141 -0.0133
  260TMC3     H 3994   1.589   3.303  17.309 -0.2666  0.4054 -0.7035
  260TMC3    H1 3995   1.429   2.948  17.462 -1.5626  3.2809  1.4554
  260TMC3    H2 3996   1.697   2.919  17.149  1.1598 -0.5106  1.6451
  260TMC3    C7 3997   1.573   2.776  17.324  0.6060  0.1092 -0.1081
  260TMC3    C8 3998   1.798   3.168  17.228 -0.3744  0.1037  0.1440
  260TMC3    O1 3999   1.665   2.723  17.261  0.2265 -0.3671  0.3296
  260TMC3    O2 4000   1.825   3.287  17.248  0.1716 -0.1640 -0.1195
  261MPD2     C 4001   3.356   0.766  12.707  0.1487  0.1877  0.0502
  261MPD2    C1 4002   3.448   0.866  12.749 -0.4165 -0.1212 -0.3663
  261MPD2    C2 4003   3.466   0.972  12.666 -0.3974 -0.3804  0.5176
  261MPD2    C3 4004   3.390   0.991  12.554 -0.4874 -0.3234 -0.6096
  261MPD2    C4 4005   3.293   0.898  12.507 -0.1861 -0.1169 -0.5646
  261MPD2    C5 4006   3.291   0.780  12.584 -0.2152  0.2612  0.6385
  261MPD2     H 4007   3.538   1.048  12.691 -1.0285  0.3140  0.2490
  261MPD2    H1 4008   3.247   0.911  12.410 -1.0193  2.6395  0.1838
  261MPD2    H2 4009   3.335   0.673  12.759  0.7340  0.3941  0.6572
  261MPD2    H3 4010   3.243   0.693  12.540 -0.0116  0.2499  0.4390
  261MPD2     N 4011   3.417   1.107  12.479 -0.8020 -0.1662  0.3140
  261MPD2    H5 4012   3.492   1.169  12.507 -0.5305 -0.2609 -0.2130
  261MPD2    N1 4013   3.524   0.855  12.863 -0.0156 -0.2983 -0.1243
  261MPD2    H7 4014   3.603   0.918  12.870  0.2433 -0.6001 -0.3340
  262TMC3    C1 4015   3.420   1.264  12.314  0.4103  0.1462  0.1256
  262TMC3    C2 4016   3.352   1.361  12.248  0.1467 -0.3518  0.1121
  262TMC3    C3 4017   3.423   1.455  12.179  0.3805 -0.2909  0.5258
  262TMC3    C4 4018   3.557   1.253  12.310 -0.0147  0.1086  0.0473
  262TMC3    C5 4019   3.616   1.339  12.224 -0.3212 -0.3036 -0.8923
  262TMC3    C6 4020   3.555   1.441  12.157 -0.1969  0.3563 -0.0808
  262TMC3     C 4021   3.346   1.150  12.365  0.2268 -0.2260  0.8062
  262TMC3     O 4022   3.230   1.128  12.327 -0.6258 -0.1840 -0.6366
  262TMC3     H 4023   3.244   1.362  12.250  0.1567 -0.6608  0.7797
  262TMC3    H1 4024   3.615   1.176  12.360 -1.6497 -1.4615 -0.4612
  262TMC3    H2 4025   3.608   1.514  12.097  0.6703 -0.4917 -0.3423
  262TMC3    C7 4026   3.758   1.340  12.245 -0.7941 -0.1312 -0.6818
  262TMC3    C8 4027   3.363   1.582  12.124  0.0171 -0.5641  0.4882
  262TMC3    O1 4028   3.810   1.241  12.298  0.2056 -0.0422  0.0055
  262TMC3    O2 4029   3.440   1.661  12.075  0.7596  0.5456  0.1304
  263MPD2     C 4030   3.888   0.039  11.943  0.1044  0.2819  0.5228
  263MPD2    C1 4031   3.985   0.040  11.845  0.0012 -0.6687 -0.4373
  263MPD2    C2 4032   3.976   0.122  11.731  0.6094  0.2048  0.3484
  263MPD2    C3 4033   3.865   0.202  11.714 -0.2212 -0.3742  0.0374
  263MPD2    C4 4034   3.779   0.214  11.821 -0.0314 -0.1915 -0.0828
  263MPD2    C5 4035   3.785   0.122  11.926  0.0718 -0.3512  1.4999
  263MPD2     H 4036   4.050   0.129  11.652 -0.9808 -2.6931 -1.4547
  263MPD2    H1 4037   3.692   0.279  11.821 -0.0310 -0.1916  0.2409
  263MPD2    H2 4038   3.905   4.732  12.039 -0.7141 -2.0391 -0.4577
  263MPD2    H3 4039   3.719   0.134  12.012 -1.9647 -0.5830 -0.0438
  263MPD2     N 4040   3.864   0.288  11.603 -0.0719 -0.2601 -0.5495
  263MPD2    H5 4041   3.933   0.267  11.532 -1.2187  0.4821 -1.8957
  263MPD2    N1 4042   4.105   4.708  11.881  0.0108 -0.1570 -0.7184
  263MPD2    H7 4043   4.097   4.656  11.968 -1.0347  0.3111 -0.5458
  264TMC3    C1 4044   3.849   0.487  11.487  0.3590 -1.0299 -0.7108
  264TMC3    C2 4045   3.901   0.618  11.504 -1.2822 -0.2155 -0.5153
  264TMC3    C3 4046   3.944   0.681  11.393 -0.7197 -0.4749 -0.9343
  264TMC3    C4 4047   3.839   0.426  11.361  0.6293 -0.7542  1.1625
  264TMC3    C5 4048   3.871   0.507  11.257  0.2270  0.0987  0.3388
  264TMC3    C6 4049   3.939   0.632  11.270  0.9629  0.4196  0.3132
  264TMC3     C 4050   3.812   0.416  11.607 -0.4186  1.0550 -0.4456
  264TMC3     O 4051   3.762   0.483  11.698 -0.3691  0.1858 -0.1089
  264TMC3     H 4052   3.891   0.668  11.599  0.5189  0.2321 -0.5620
  264TMC3    H1 4053   3.782   0.334  11.348  1.5966 -1.3901  1.4050
  264TMC3    H2 4054   3.943   0.699  11.186  0.8527  0.2378  0.1630
  264TMC3    C7 4055   3.900   0.444  11.135 -0.7151 -0.4617 -0.6227
  264TMC3    C8 4056   4.006   0.812  11.409  0.4789  0.3764 -0.0293
  264TMC3    O1 4057   3.978   0.497  11.061  0.6464 -0.2041 -0.0108
  264TMC3    O2 4058   4.081   0.837  11.319  0.1192 -0.4650 -0.7278
  265MPD2     C 4059   1.383   0.626  15.633  0.3183 -0.2036  0.0731
  265MPD2    C1 4060   1.375   0.747  15.562  0.3171 -0.2987  0.1259
  265MPD2    C2 4061   1.410   0.752  15.427 -0.5125 -0.1906  0.1121
  265MPD2    C3 4062   1.469   0.645  15.370  0.3100 -0.0184 -0.2236
  265MPD2    C4 4063   1.494   0.529  15.447 -0.2703 -0.7262  0.2868
  265MPD2    C5 4064   1.446   0.518  15.576  0.1237  0.1172 -0.2888
  265MPD2     H 4065   1.396   0.851  15.383  0.4913  0.2027  0.6847
  265MPD2    H1 4066   1.543   0.438  15.413 -1.9385 -1.5631  0.1273
  265MPD2    H2 4067   1.336   0.623  15.730  0.7668  0.1283  0.3031
  265MPD2    H3 4068   1.466   0.426  15.630 -2.1962 -0.4397 -0.3862
  265MPD2     N 4069   1.518   0.649  15.233 -0.1842 -1.0531  0.3037
  265MPD2    H5 4070   1.555   0.559  15.201  1.0818 -0.0688 -1.0246
  265MPD2    N1 4071   1.339   0.867  15.623 -0.6227  0.1264  0.5500
  265MPD2    H7 4072   1.322   0.952  15.571 -1.6089 -0.3295  0.1376
  266TMC3    C1 4073   1.256   1.016  15.777  0.5093 -0.3925  0.4141
  266TMC3    C2 4074   1.308   1.091  15.879  0.3091 -0.0384 -0.3817
  266TMC3    C3 4075   1.303   1.223  15.872 -0.0852  0.5694 -0.2780
  266TMC3    C4 4076   1.173   1.069  15.685  0.1410  0.0772 -0.0964
  266TMC3    C5 4077   1.170   1.208  15.680 -0.2782 -0.4086 -0.5355
  266TMC3    C6 4078   1.234   1.287  15.772 -0.7792 -0.1506  0.1922
  266TMC3     C 4079   1.314   0.888  15.758 -0.4294 -0.2414  0.7166
  266TMC3     O 4080   1.332   0.827  15.859 -0.8229 -0.0046 -0.9805
  266TMC3     H 4081   1.381   1.051  15.949 -0.0308 -0.3946 -0.2286
  266TMC3    H1 4082   1.124   1.001  15.617 -1.0085 -0.4233  1.2349
  266TMC3    H2 4083   1.234   1.396  15.772 -0.3114 -0.1447 -2.0309
  266TMC3    C7 4084   1.066   1.268  15.604 -0.4342  0.3792  0.4940
  266TMC3    C8 4085   1.428   1.288  15.902  0.5561  0.3653 -0.6868
  266TMC3    O1 4086   0.974   1.197  15.566  0.4264  0.6611  0.0698
  266TMC3    O2 4087   1.527   1.219  15.933  0.0214  0.2012  0.2419
  267MPD2     C 4088   3.260   2.872   0.051 -0.1126  0.2383 -0.2564
  267MPD2    C1 4089   3.350   2.955  17.754 -0.2436  0.1929 -0.7072
  267MPD2    C2 4090   3.334   3.018  17.627 -0.1654 -0.2134  0.2965
  267MPD2    C3 4091   3.212   3.007  17.563  0.3355  0.0120 -0.2612
  267MPD2    C4 4092   3.117   2.925  17.622 -0.6514  0.1922 -0.6993
  267MPD2    C5 4093   3.138   2.870  17.746  0.1529 -0.0609 -0.3529
  267MPD2     H 4094   3.412   3.071  17.575 -0.9982 -1.2157 -1.9547
  267MPD2    H1 4095   3.018   2.904  17.584 -0.2560 -0.0445 -1.5905
  267MPD2    H2 4096   3.273   2.832   0.151 -2.2197  1.5880  0.5674
  267MPD2    H3 4097   3.048   2.818   0.024 -0.8184  0.1485 -2.6495
  267MPD2     N 4098   3.182   3.070  17.437  0.1238  0.1714  0.1920
  267MPD2    H5 4099   3.095   3.045  17.392  0.3735  0.9379 -0.7335
  267MPD2    N1 4100   3.472   2.971   0.080 -0.3314  0.4216  0.8677
  267MPD2    H7 4101   3.478   2.913   0.162  1.4649  1.0530  1.1848
  268TMC3    C1 4102   3.686   3.051   0.131 -0.2221  0.5524  0.5957
  268TMC3    C2 4103   3.799   3.118   0.080  0.5432  0.7539 -0.0881
  268TMC3    C3 4104   3.909   3.127   0.159  0.0388 -0.6952  0.2444
  268TMC3    C4 4105   3.687   2.984   0.248  0.6001 -0.0934 -0.1777
  268TMC3    C5 4106   3.791   3.013   0.335  0.1907 -0.1080 -0.8552
  268TMC3    C6 4107   3.898   3.087   0.290 -0.1818 -0.4778  0.0342
  268TMC3     C 4108   3.564   3.064   0.054 -0.9132  0.6129  0.1632
  268TMC3     O 4109   3.580   3.147  17.720 -0.3445  0.2421  0.8249
  268TMC3     H 4110   3.808   3.165  17.738  0.3776  0.4804 -0.2347
  268TMC3    H1 4111   3.598   2.942   0.294 -0.7773  1.1590 -1.7197
  268TMC3    H2 4112   3.979   3.120   0.353  0.7995 -0.4091 -1.2737
  268TMC3    C7 4113   3.805   2.951   0.466  0.2868  0.5198  0.2278
  268TMC3    C8 4114   4.024   3.201   0.115 -0.2031 -0.2310 -0.5788
  268TMC3    O1 4115   3.740   2.848   0.489 -0.3932 -0.3490 -0.1527
  268TMC3    O2 4116   4.092   3.262   0.195  0.3616  0.7959 -0.4339
  269MPD2     C 4117   4.302   1.450  15.456  0.1708  0.5841 -0.3417
  269MPD2    C1 4118   4.190   1.459  15.538  0.1103 -0.5338 -0.0918
  269MPD2    C2 4119   4.153   1.590  15.570  0.2338 -0.1357  0.4129
  269MPD2    C3 4120   4.201   1.704  15.507  0.6145 -0.2273  0.0487
  269MPD2    C4 4121   4.312   1.678  15.424 -0.1993  0.4914  0.5803
  269MPD2    C5 4122   4.364   1.555  15.395  0.3435  0.8440 -0.0546
  269MPD2     H 4123   4.082   1.606  15.650 -0.6283  0.0370 -0.3910
  269MPD2    H1 4124   4.352   1.761  15.367  1.2170 -0.4326  0.2275
  269MPD2    H2 4125   4.338   1.352  15.423 -2.0762 -0.1784 -0.5143
  269MPD2    H3 4126   4.444   1.536  15.325  1.7503 -1.1715  2.1170
  269MPD2     N 4127   4.143   1.835  15.538  0.0791 -0.1585 -0.0074
  269MPD2    H5 4128   4.074   1.834  15.612 -0.8886  0.2311 -0.8892
  269MPD2    N1 4129   4.143   1.341  15.597  0.0739  0.1009  0.4758
  269MPD2    H7 4130   4.189   1.254  15.573 -0.8436 -0.0368 -0.7696
  270TMC3    C1 4131   4.005   1.199  15.704 -0.3407  0.2307  0.5490
  270TMC3    C2 4132   3.884   1.151  15.662  0.8037 -0.6168 -0.0807
  270TMC3    C3 4133   3.884   1.014  15.624  0.4393 -0.5763  0.0191
  270TMC3    C4 4134   4.115   1.118  15.721  0.1880 -0.6043 -0.1765
  270TMC3    C5 4135   4.109   0.985  15.702  0.7168  0.2402  0.5255
  270TMC3    C6 4136   3.998   0.938  15.649  0.1601  0.5251 -0.7344
  270TMC3     C 4137   4.034   1.336  15.681 -0.3504  0.3454  0.0491
  270TMC3     O 4138   3.945   1.421  15.703 -0.3586 -0.2998  0.7611
  270TMC3     H 4139   3.799   1.216  15.641  2.0099  1.0293  0.1584
  270TMC3    H1 4140   4.213   1.156  15.747 -0.4847  2.7177 -2.3165
  270TMC3    H2 4141   3.997   0.834  15.619  1.3081  0.7234 -1.4270
  270TMC3    C7 4142   4.232   0.917  15.674 -0.2111  0.0404 -0.2925
  270TMC3    C8 4143   3.802   0.977  15.508  0.0531  0.4402 -0.3576
  270TMC3    O1 4144   4.255   0.816  15.740  0.3464  0.3243 -0.2661
  270TMC3    O2 4145   3.849   0.893  15.431 -0.2000 -0.0592  0.2757
  271MPD2     C 4146   3.274   1.749  13.952 -0.6428 -0.1104 -0.2829
  271MPD2    C1 4147   3.215   1.627  13.987 -0.5547 -0.2126  0.3714
  271MPD2    C2 4148   3.086   1.597  13.952 -0.4377 -0.2860 -0.7078
  271MPD2    C3 4149   3.009   1.689  13.882  0.3478 -0.4390  0.2402
  271MPD2    C4 4150   3.056   1.815  13.849 -0.3861  0.0382  0.3376
  271MPD2    C5 4151   3.190   1.835  13.879  0.6573 -0.8345  0.2141
  271MPD2     H 4152   3.050   1.505  13.996 -2.3350  2.1273  2.7867
  271MPD2    H1 4153   3.001   1.885  13.787  1.5486  0.9805 -0.2962
  271MPD2    H2 4154   3.373   1.784  13.979 -0.1005 -0.9711 -1.1434
  271MPD2    H3 4155   3.232   1.927  13.842  0.7069 -0.9392  0.0147
  271MPD2     N 4156   2.886   1.659  13.820  0.1337 -0.0777 -0.0663
  271MPD2    H5 4157   2.850   1.735  13.765 -0.8488 -0.2651  0.3266
  271MPD2    N1 4158   3.279   1.525  14.065  0.1073  0.5202 -0.0624
  271MPD2    H7 4159   3.223   1.443  14.087  1.8075 -0.5682  0.2441
  272TMC3    C1 4160   3.441   1.399  14.164 -0.9115 -0.2485 -0.2031
  272TMC3    C2 4161   3.566   1.350  14.165 -0.2746  0.5880  0.0046
  272TMC3    C3 4162   3.600   1.278  14.274  0.6490 -0.0265  0.3194
  272TMC3    C4 4163   3.353   1.381  14.265  0.3793 -0.1574  0.5421
  272TMC3    C5 4164   3.397   1.318  14.376 -0.1789  0.5650 -0.4933
  272TMC3    C6 4165   3.518   1.258  14.380 -0.2652  0.0362 -0.3377
  272TMC3     C 4166   3.415   1.515  14.088  0.0092 -0.2318 -0.0071
  272TMC3     O 4167   3.511   1.586  14.056 -0.4690 -0.7271 -0.1783
  272TMC3     H 4168   3.629   1.367  14.079  0.5292  2.4460  0.9829
  272TMC3    H1 4169   3.259   1.434  14.264  0.1864 -0.4872  1.1816
  272TMC3    H2 4170   3.558   1.209  14.467 -0.7478 -0.5181 -0.4263
  272TMC3    C7 4171   3.326   1.343  14.501  0.2397  0.5070  0.5436
  272TMC3    C8 4172   3.741   1.228  14.283 -0.6140  0.4480  0.3073
  272TMC3    O1 4173   3.210   1.386  14.493 -0.0377 -0.8546 -0.1222
  272TMC3    O2 4174   3.821   1.293  14.215  0.3133  0.0222  0.1241
  273MPD2     C 4175   4.551   4.164  12.333 -0.1645 -0.5615 -0.0617
  273MPD2    C1 4176   4.654   4.131  12.251  0.3951 -0.6986 -0.9632
  273MPD2    C2 4177   4.620   4.072  12.131 -0.7615 -0.2509 -0.2028
  273MPD2    C3 4178   4.488   4.039  12.098 -0.0983 -0.0632  0.3231
  273MPD2    C4 4179   4.386   4.081  12.181 -0.6673 -0.0185  0.1229
  273MPD2    C5 4180   4.420   4.149  12.292  0.7368  0.3047  0.0624
  273MPD2     H 4181   4.700   4.030  12.070 -2.9001 -2.0623 -1.7730
  273MPD2    H1 4182   4.285   4.048  12.161  0.1721 -2.5917  0.0535
  273MPD2    H2 4183   4.563   4.206  12.433  1.1839  1.3219 -1.0283
  273MPD2    H3 4184   4.347   4.187  12.363 -0.1784  0.4723 -0.9749
  273MPD2     N 4185   4.449   3.990  11.968 -0.2498  0.2807  0.7679
  273MPD2    H5 4186   4.351   3.996  11.945  0.4972  0.2853 -2.4838
  273MPD2    N1 4187   0.047   4.152  12.299 -0.3728 -0.1133  0.1289
  273MPD2    H7 4188   0.051   4.177  12.397 -0.0564 -0.9413  0.3302
  274TMC3    C1 4189   4.462   3.886  11.753 -0.0119  0.1495 -0.5511
  274TMC3    C2 4190   4.348   3.934  11.710 -0.2770 -0.3695  0.0141
  274TMC3    C3 4191   4.328   3.943  11.574  0.2193 -0.0875  0.2471
  274TMC3    C4 4192   4.566   3.859  11.668 -0.1362  0.8398 -0.1381
  274TMC3    C5 4193   4.533   3.860  11.531 -0.2442  0.6337 -0.6361
  274TMC3    C6 4194   4.416   3.897  11.477 -0.0457  0.4094  0.5366
  274TMC3     C 4195   4.524   3.918  11.882  0.6969  0.2894  0.4265
  274TMC3     O 4196   4.641   3.885  11.897 -0.2892 -0.2208 -0.0748
  274TMC3     H 4197   4.272   3.970  11.778 -0.4528  1.6196 -1.2325
  274TMC3    H1 4198   4.652   3.802  11.701 -0.8803 -0.6612 -0.7381
  274TMC3    H2 4199   4.409   3.923  11.372  0.7887 -1.0330  0.1275
  274TMC3    C7 4200   4.641   3.897  11.436  0.3049  0.4862  0.7895
  274TMC3    C8 4201   4.210   4.009  11.536 -0.1214  0.3841  0.1260
  274TMC3    O1 4202   4.618   3.872  11.318  0.2314  0.5032 -0.0263
  274TMC3    O2 4203   4.161   4.098  11.604  0.3474  0.0380 -0.0461
  275MPD2     C 4204   0.292   2.167  14.515 -0.1324  0.6068  0.6589
  275MPD2    C1 4205   0.204   2.271  14.512 -0.2649 -0.1838  0.1913
  275MPD2    C2 4206   0.071   2.237  14.504  0.7392  0.2687 -0.3956
  275MPD2    C3 4207   0.017   2.109  14.495 -0.1147 -0.7102 -0.0562
  275MPD2    C4 4208   0.107   2.010  14.488 -0.1144 -0.3231  0.3913
  275MPD2    C5 4209   0.242   2.039  14.492 -0.7409 -0.5438 -0.1834
  275MPD2     H 4210   4.738   2.318  14.509  0.4399  0.1677 -2.7307
  275MPD2    H1 4211   0.078   1.905  14.489  1.3168 -0.7363 -1.1781
  275MPD2    H2 4212   0.399   2.181  14.507  0.0042 -1.1328 -0.5360
  275MPD2    H3 4213   0.307   1.953  14.488 -1.5560 -1.1926  0.5152
  275MPD2     N 4214   4.614   2.082  14.508  0.1635  0.8031 -0.0475
  275MPD2    H5 4215   4.579   1.988  14.517 -3.1975  2.2028  1.3945
  275MPD2    N1 4216   0.238   2.402  14.546 -0.1744 -0.1801 -0.2528
  275MPD2    H7 4217   0.161   2.469  14.552  0.1159  0.3031 -2.0329
  276TMC3    C1 4218   0.351   2.574  14.665  0.2587 -0.4569  0.4052
  276TMC3    C2 4219   0.234   2.599  14.727 -0.2187 -0.4318  0.1518
  276TMC3    C3 4220   0.237   2.661  14.851 -0.3999  0.3429  1.0509
  276TMC3    C4 4221   0.466   2.614  14.721  0.4293 -0.3265  0.0037
  276TMC3    C5 4222   0.462   2.690  14.838 -0.1998 -0.0579  0.5084
  276TMC3    C6 4223   0.343   2.712  14.906 -0.6473  0.6058  0.3820
  276TMC3     C 4224   0.360   2.447  14.582 -0.0413 -0.1961  0.6533
  276TMC3     O 4225   0.471   2.389  14.579  0.3802  0.2329  0.1735
  276TMC3     H 4226   0.139   2.561  14.694 -0.2254  0.6139 -1.0187
  276TMC3    H1 4227   0.555   2.575  14.673  0.7939 -0.4738  0.8043
  276TMC3    H2 4228   0.335   2.748  15.008 -0.8362  0.2051  0.5085
  276TMC3    C7 4229   0.589   2.707  14.909 -0.0451  0.2371  0.2736
  276TMC3    C8 4230   0.151   2.585  14.938  0.3164 -0.3088  0.1451
  276TMC3    O1 4231   0.580   2.718  15.026 -0.5659  0.3830  0.2744
  276TMC3    O2 4232   0.086   2.644  15.027  0.1226  0.0696  0.1064
  277MPD2     C 4233   1.596   0.814  12.799 -1.2731  0.2137  0.3168
  277MPD2    C1 4234   1.549   0.903  12.897  0.2999  0.4184 -0.6472
  277MPD2    C2 4235   1.541   0.869  13.031 -0.0015  0.1004  0.4845
  277MPD2    C3 4236   1.600   0.745  13.071  0.6564  0.3397  0.0892
  277MPD2    C4 4237   1.645   0.654  12.975  0.0273 -0.3634  0.3621
  277MPD2    C5 4238   1.639   0.693  12.842 -0.9893  0.0524 -0.3407
  277MPD2     H 4239   1.508   0.938  13.108 -1.2501  2.0167 -1.7681
  277MPD2    H1 4240   1.667   0.551  13.003  2.0785 -0.0198  0.0276
  277MPD2    H2 4241   1.594   0.825  12.691  3.0359  2.2036  0.4238
  277MPD2    H3 4242   1.662   0.619  12.767  2.2817 -0.7356  1.4010
  277MPD2     N 4243   1.592   0.712  13.206  0.3557 -0.2398  0.1003
  277MPD2    H5 4244   1.539   0.779  13.261 -0.5286 -0.7741 -0.1154
  277MPD2    N1 4245   1.512   1.020  12.840  0.0120 -0.2877  0.1857
  277MPD2    H7 4246   1.527   1.033  12.740  1.4740  3.1003  0.8411
  278TMC3    C1 4247   1.565   0.592  13.404  0.1655  0.3530  0.1565
  278TMC3    C2 4248   1.518   0.479  13.468 -0.7134 -0.2450  0.2736
  278TMC3    C3 4249   1.488   0.482  13.600 -0.1642 -0.6390 -0.1215
  278TMC3    C4 4250   1.582   0.708  13.479 -0.3717 -0.0463  0.1976
  278TMC3    C5 4251   1.552   0.705  13.612  0.0076 -1.1053  0.1623
  278TMC3    C6 4252   1.512   0.595  13.677 -0.1199 -0.2078 -0.2124
  278TMC3     C 4253   1.616   0.590  13.264 -0.2372  0.0654  1.0202
  278TMC3     O 4254   1.679   0.488  13.229 -0.7841  0.8012  0.6563
  278TMC3     H 4255   1.522   0.383  13.418  0.7770 -0.9637  1.8150
  278TMC3    H1 4256   1.617   0.801  13.435 -2.7840  0.7292 -0.0974
  278TMC3    H2 4257   1.499   0.592  13.785 -1.4908  3.7816 -0.2487
  278TMC3    C7 4258   1.539   0.829  13.681  0.8587 -0.3065 -0.0582
  278TMC3    C8 4259   1.448   0.354  13.669 -0.1813 -0.2384 -0.3905
  278TMC3    O1 4260   1.629   0.915  13.672 -0.0080 -0.1351  0.4626
  278TMC3    O2 4261   1.479   0.339  13.787 -0.2376  0.0523 -0.2500
  279MPD2     C 4262   1.204   0.972   0.001  0.3586  0.2821 -0.4104
  279MPD2    C1 4263   1.092   1.048   0.005 -0.2763  0.5964  0.3450
  279MPD2    C2 4264   1.059   1.128  17.654  0.2074 -0.0889 -0.0361
  279MPD2    C3 4265   1.131   1.129  17.537 -0.0926  0.4452 -0.0162
  279MPD2    C4 4266   1.248   1.052  17.535 -0.3159 -0.3147 -0.4626
  279MPD2    C5 4267   1.286   0.978  17.644  0.1271  0.1933  0.1271
  279MPD2     H 4268   0.977   1.199  17.657  0.2355 -0.0312 -0.6171
  279MPD2    H1 4269   1.312   1.043  17.448  0.5432  0.2633  0.1187
  279MPD2    H2 4270   1.217   0.899   0.080 -0.4782  1.0494  0.4299
  279MPD2    H3 4271   1.372   0.912  17.645 -0.0690 -0.0474  1.4408
  279MPD2     N 4272   1.091   1.196  17.419 -0.4917  0.6876 -0.2210
  279MPD2    H5 4273   1.163   1.189  17.348 -1.3952  2.8315 -1.3417
  279MPD2    N1 4274   0.999   1.051   0.112 -0.3810  0.1043 -0.5257
  279MPD2    H7 4275   0.934   1.129   0.110 -0.7933 -0.2746 -1.6028
  280TMC3    C1 4276   0.856   0.972   0.270  0.5634 -0.2592  0.3820
  280TMC3    C2 4277   0.754   0.882   0.257 -0.7385  0.3736 -0.3124
  280TMC3    C3 4278   0.624   0.923   0.271  0.0611 -0.3500 -0.3048
  280TMC3    C4 4279   0.825   1.103   0.300  0.7446  0.1131 -0.5985
  280TMC3    C5 4280   0.698   1.148   0.299 -0.9227 -0.1143  0.7145
  280TMC3    C6 4281   0.597   1.051   0.288 -0.7205 -0.2911  0.2528
  280TMC3     C 4282   0.982   0.950   0.202 -0.1390  0.3880  0.1065
  280TMC3     O 4283   1.019   0.834   0.197 -0.3624 -0.2072 -0.7565
  280TMC3     H 4284   0.767   0.781   0.221  0.3282  0.7626 -1.0272
  280TMC3    H1 4285   0.909   1.165   0.329  0.1472  0.2681  0.7928
  280TMC3    H2 4286   0.493   1.078   0.278 -0.3758  1.0817  0.3627
  280TMC3    C7 4287   0.672   1.284   0.335  0.2902  0.1964 -0.1365
  280TMC3    C8 4288   0.515   0.839   0.231  0.4463  0.3589  0.3713
  280TMC3    O1 4289   0.767   1.345   0.384 -0.8139  0.7480 -0.7461
  280TMC3    O2 4290   0.410   0.847   0.285  0.4288  0.0855 -0.4034
  281TMC3    C1 4291   0.214   1.458  13.346  0.1134  0.4587 -0.3852
  281TMC3    C2 4292   0.305   1.508  13.263  0.5649 -0.4251 -0.0490
  281TMC3    C3 4293   0.293   1.475  13.131  0.4815  0.2298 -0.3307
  281TMC3    C4 4294   0.114   1.375  13.310 -0.2174  0.2195 -0.4508
  281TMC3    C5 4295   0.116   1.333  13.178 -0.8611 -0.2627  0.3399
  281TMC3    C6 4296   0.200   1.386  13.087  0.2250 -0.4915  0.1530
  281TMC3     C 4297   0.189   1.532  13.471  0.3241 -0.3758 -0.3312
  281TMC3     O 4298   0.283   1.567  13.547  0.0460 -0.3171 -0.4786
  281TMC3     H 4299   0.377   1.580  13.301  1.9120 -1.5891 -0.3870
  281TMC3    H1 4300   0.039   1.339  13.379 -0.8834 -0.4025 -1.4913
  281TMC3    H2 4301   0.192   1.374  12.980  0.0845  1.5185 -0.0549
  281TMC3    C7 4302   4.738   1.260  13.119  0.1398 -0.2232  0.8030
  281TMC3    C8 4303   0.368   1.552  13.034  0.0712 -0.4817  0.7283
  281TMC3    O1 4304   4.722   1.260  12.995  0.2059 -0.0644 -0.2411
  281TMC3    O2 4305   0.449   1.493  12.960 -0.5375  0.1328 -0.3617
  282MPD2     C 4306   1.577   2.698  14.879  0.6024 -0.4849 -0.1436
  282MPD2    C1 4307   1.447   2.685  14.934 -0.0543  0.2493 -0.2593
  282MPD2    C2 4308   1.340   2.630  14.864 -0.0003  0.0726  0.1067
  282MPD2    C3 4309   1.362   2.580  14.741  0.4664 -0.1704 -0.1399
  282MPD2    C4 4310   1.489   2.594  14.685  0.0971  0.2743 -0.6190
  282MPD2    C5 4311   1.592   2.652  14.749  0.4620  0.6920 -0.4465
  282MPD2     H 4312   1.241   2.628  14.908 -1.3685  0.2294 -3.0285
  282MPD2    H1 4313   1.518   2.558  14.586  0.6819 -0.7470 -0.0721
  282MPD2    H2 4314   1.663   2.744  14.927  1.5402  0.7684 -3.0320
  282MPD2    H3 4315   1.688   2.662  14.701  1.2561  2.3674  1.4857
  282MPD2     N 4316   1.260   2.518  14.665 -0.2530 -0.3394 -0.2021
  282MPD2    H5 4317   1.177   2.498  14.719  0.7783 -0.2133  1.4533
  282MPD2    N1 4318   1.420   2.702  15.075 -0.1010 -0.1575  0.2888
  282MPD2    H7 4319   1.335   2.664  15.116 -0.5407 -0.4254 -0.8895
  283TMC3    C1 4320   1.457   2.747  15.308  0.0653 -0.7172  0.0331
  283TMC3    C2 4321   1.499   2.853  15.384 -1.0423 -0.3032  0.1958
  283TMC3    C3 4322   1.464   2.851  15.516 -0.4562  0.8726  0.0359
  283TMC3    C4 4323   1.360   2.661  15.348 -0.0812  0.4255  0.0040
  283TMC3    C5 4324   1.321   2.670  15.486  0.0145 -0.0199  0.4941
  283TMC3    C6 4325   1.373   2.762  15.577  0.7663 -0.4103  0.1293
  283TMC3     C 4326   1.507   2.755  15.167  0.4566 -0.7710 -0.7308
  283TMC3     O 4327   1.612   2.815  15.145  0.3089  0.1134  0.2439
  283TMC3     H 4328   1.579   2.917  15.348  0.5629 -3.6880 -2.1963
  283TMC3    H1 4329   1.339   2.580  15.280 -0.9485 -0.4317  1.2951
  283TMC3    H2 4330   1.344   2.770  15.681  1.1525 -1.4303  0.3181
  283TMC3    C7 4331   1.241   2.562  15.542  0.1156  0.0860 -0.3118
  283TMC3    C8 4332   1.529   2.948  15.599  0.2080  0.2049 -0.0533
  283TMC3    O1 4333   1.253   2.540  15.660 -0.2566 -0.5165 -0.0808
  283TMC3    O2 4334   1.562   2.927  15.712 -0.0735 -0.4168  0.0411
  284MPD2     C 4335   0.183   2.230  12.247  0.4019  0.1746 -0.2479
  284MPD2    C1 4336   0.079   2.204  12.160 -0.4005  0.5557 -0.2015
  284MPD2    C2 4337   4.730   2.106  12.199 -0.8290 -0.1191 -0.6077
  284MPD2    C3 4338   0.033   2.007  12.282  0.3943 -0.0470 -0.7357
  284MPD2    C4 4339   0.156   2.021  12.346  0.1497  0.9057 -0.1248
  284MPD2    C5 4340   0.226   2.138  12.335 -0.1014  0.7238  0.2929
  284MPD2     H 4341   4.630   2.101  12.156 -1.6972  0.2284  1.4120
  284MPD2    H1 4342   0.201   1.941  12.404  1.1326  0.1487 -1.9241
  284MPD2    H2 4343   0.236   2.324  12.241  0.4647  0.0975 -0.9030
  284MPD2    H3 4344   0.318   2.155  12.390  1.0296 -2.9841 -0.4230
  284MPD2     N 4345   4.688   1.896  12.291 -0.6493 -0.4413  0.1762
  284MPD2    H5 4346   4.596   1.895  12.248  0.0105  1.7587 -1.2474
  284MPD2    N1 4347   0.045   2.274  12.034  0.4503 -0.0602  0.0022
  284MPD2    H7 4348   4.705   2.235  11.984 -0.0436  0.5286  0.3327
  285TMC3    C1 4349   0.071   2.403  11.843  0.3001  0.8397  0.7304
  285TMC3    C2 4350   0.020   2.303  11.766 -0.3960  0.1887 -0.4127
  285TMC3    C3 4351   4.720   2.339  11.643  0.5816  0.1827  0.1863
  285TMC3    C4 4352   0.073   2.536  11.807 -0.4911  0.4985  0.2605
  285TMC3    C5 4353   0.016   2.564  11.686 -0.3481 -0.7036  0.1437
  285TMC3    C6 4354   4.704   2.466  11.601 -0.1579 -0.0762  0.4097
  285TMC3     C 4355   0.125   2.373  11.972 -0.2429  0.3394 -0.6325
  285TMC3     O 4356   0.216   2.439  12.015  0.2618 -0.7435 -0.0135
  285TMC3     H 4357   0.035   2.198  11.791  4.9290  0.5982 -1.8999
  285TMC3    H1 4358   0.124   2.611  11.866  1.1349 -0.8039  0.5182
  285TMC3    H2 4359   4.665   2.495  11.503  0.9921  2.1881  0.6177
  285TMC3    C7 4360   0.011   2.706  11.657  0.3718  0.6488 -0.0925
  285TMC3    C8 4361   4.693   2.225  11.559 -0.1641  0.5118 -0.3257
  285TMC3    O1 4362   0.093   2.774  11.717  0.2770  0.4166  0.2733
  285TMC3    O2 4363   4.662   2.121  11.616  0.1243 -0.4158  0.6257
  286MPD2     C 4364   0.791   1.171   1.048  0.0506 -0.3233 -0.1701
  286MPD2    C1 4365   0.702   1.074   1.004 -0.6637 -0.1725  0.3573
  286MPD2    C2 4366   0.754   0.942   0.987 -0.1850 -0.2637 -0.0215
  286MPD2    C3 4367   0.884   0.903   0.995  0.0108 -0.2952  0.1072
  286MPD2    C4 4368   0.970   1.006   1.029  0.7760  1.2906 -0.8279
  286MPD2    C5 4369   0.924   1.137   1.052 -0.5156  0.3056 -0.5449
  286MPD2     H 4370   0.688   0.856   0.979 -0.7431  0.2630 -1.0891
  286MPD2    H1 4371   1.075   0.980   1.036  0.5663  0.2341 -1.5880
  286MPD2    H2 4372   0.751   1.267   1.077  0.7274 -0.7705  2.2199
  286MPD2    H3 4373   1.002   1.207   1.080 -1.0704  0.2326  1.2033
  286MPD2     N 4374   0.933   0.773   0.965 -0.3723 -0.1989 -0.4678
  286MPD2    H5 4375   1.032   0.755   0.981 -0.0490  2.6863  0.7653
  286MPD2    N1 4376   0.558   1.089   1.001 -0.4442  0.0286 -0.2843
  286MPD2    H7 4377   0.513   1.002   0.975  4.2085 -2.5353  0.3593
  287TMC3    C1 4378   0.942   0.569   0.848 -0.5859  0.5393  0.6441
  287TMC3    C2 4379   0.891   0.502   0.743  0.6761  0.4406 -0.2966
  287TMC3    C3 4380   0.919   0.373   0.720 -0.7106 -0.3215  0.2802
  287TMC3    C4 4381   1.009   0.500   0.949 -0.6111 -0.2863  0.2192
  287TMC3    C5 4382   1.044   0.366   0.920  0.7538  0.8152  0.0183
  287TMC3    C6 4383   1.005   0.303   0.806 -0.1001  0.1318 -0.0302
  287TMC3     C 4384   0.863   0.684   0.886  0.1791 -0.8152 -0.3331
  287TMC3     O 4385   0.751   0.686   0.844  0.5145  0.2611  0.1038
  287TMC3     H 4386   0.813   0.548   0.682 -0.1215  1.2921  1.3755
  287TMC3    H1 4387   1.042   0.557   1.035  1.8120  0.0131 -0.9281
  287TMC3    H2 4388   1.026   0.200   0.781  1.7238 -0.2316  2.9607
  287TMC3    C7 4389   1.152   0.308   0.993 -0.6080  0.1468 -0.0242
  287TMC3    C8 4390   0.824   0.290   0.643 -0.7411  0.7595  0.2285
  287TMC3    O1 4391   1.201   0.386   1.076  0.1078 -0.2409  0.3309
  287TMC3    O2 4392   0.830   0.174   0.667 -0.2912 -0.2341  0.0736
  288TMC3    C1 4393   2.213   0.433  14.220  0.3555  0.9414 -0.1523
  288TMC3    C2 4394   2.147   0.537  14.274 -0.4618 -0.1853  0.4276
  288TMC3    C3 4395   2.039   0.584  14.202 -0.6187 -0.2035 -0.7165
  288TMC3    C4 4396   2.188   0.392  14.091  0.2905 -0.5748  0.3795
  288TMC3    C5 4397   2.080   0.450  14.026  0.3022  0.5960 -0.5268
  288TMC3    C6 4398   1.993   0.533  14.082  0.2292  0.7968  0.3732
  288TMC3     C 4399   2.329   0.370  14.287 -1.2250  0.0081 -0.3002
  288TMC3     O 4400   2.339   0.391  14.407 -0.4208  0.1669 -0.6946
  288TMC3     H 4401   2.170   0.587  14.368 -2.0990  1.5773 -0.1034
  288TMC3    H1 4402   2.247   0.319  14.039 -1.0520 -1.2218 -0.2358
  288TMC3    H2 4403   1.897   0.553  14.037 -0.0220  1.8199  1.3821
  288TMC3    C7 4404   2.094   0.438  13.882 -0.3885  0.1769 -0.3348
  288TMC3    C8 4405   1.955   0.676  14.273  0.1849  0.3272  0.3041
  288TMC3    O1 4406   2.157   0.338  13.840  0.5107  0.0443  0.5084
  288TMC3    O2 4407   2.004   0.778  14.316  0.2682 -0.0247  0.5791
  289MPD2     C 4408   1.730   4.573  14.566 -0.4573 -0.2023 -0.3508
  289MPD2    C1 4409   1.742   4.648  14.451 -0.2684 -0.2737  0.4937
  289MPD2    C2 4410   1.644   4.658  14.359 -0.0429 -0.1040 -0.0493
  289MPD2    C3 4411   1.523   4.589  14.381 -0.1440 -1.0198  0.5762
  289MPD2    C4 4412   1.511   4.509  14.497 -0.0334  0.3562 -0.3762
  289MPD2    C5 4413   1.611   4.509  14.592  0.3432 -0.2049 -0.1373
  289MPD2     H 4414   1.663   4.720  14.272  0.3274 -2.4042 -1.6140
  289MPD2    H1 4415   1.427   4.441  14.497 -0.5973  1.0450  1.1723
  289MPD2    H2 4416   1.815   4.569  14.633 -0.7331 -0.1671  0.0013
  289MPD2    H3 4417   1.596   4.448  14.681  1.7722 -2.4824 -1.4720
  289MPD2     N 4418   1.416   4.597  14.282  0.3838 -0.8111 -0.0921
  289MPD2    H5 4419   1.348   4.521  14.283  2.4002 -2.6006 -0.5668
  289MPD2    N1 4420   1.867   4.712  14.442 -0.5746 -0.4085  0.0784
  289MPD2    H7 4421   1.921   4.708  14.528 -1.5418  0.3492  0.7267
  290TMC3    C1 4422   1.288   4.676  14.100 -1.0087 -0.0280  0.3183
  290TMC3    C2 4423   1.249   0.056  14.041  0.6187  0.3096  0.0688
  290TMC3    C3 4424   1.149   0.056  13.946  0.3723 -0.1559 -0.1943
  290TMC3    C4 4425   1.221   4.555  14.084 -0.0312 -0.4239  0.1151
  290TMC3    C5 4426   1.123   4.564  13.987  0.4889 -0.8903 -0.2789
  290TMC3    C6 4427   1.090   4.677  13.919  0.2916  0.6324  0.6357
  290TMC3     C 4428   1.404   4.690  14.181 -0.5824 -0.2721 -0.0028
  290TMC3     O 4429   1.481   0.045  14.160 -0.5013  0.0756  0.0781
  290TMC3     H 4430   1.310   0.143  14.060  1.5144 -0.5941  1.3123
  290TMC3    H1 4431   1.275   4.465  14.114  1.9817  1.4251  2.0321
  290TMC3    H2 4432   1.011   4.670  13.845 -0.3327  1.5631  1.2084
  290TMC3    C7 4433   1.067   4.440  13.935 -0.0303  0.4664 -0.4847
  290TMC3    C8 4434   1.087   0.185  13.913 -0.0178 -0.1728  1.0673
  290TMC3    O1 4435   1.015   4.442  13.824  0.0845 -0.0323 -0.6986
  290TMC3    O2 4436   0.980   0.187  13.852 -0.2853 -0.0706  1.0355
  291MPD2     C 4437   1.109   4.722   0.073  1.0858 -0.9738  0.1203
  291MPD2    C1 4438   1.156   4.621   0.156 -0.0293  0.0995  0.8346
  291MPD2    C2 4439   1.277   4.643   0.223  0.0622  0.2415  0.0788
  291MPD2    C3 4440   1.336   0.031   0.215 -0.0281 -0.1273 -0.0056
  291MPD2    C4 4441   1.287   0.129   0.136  0.1237  0.9260 -0.3745
  291MPD2    C5 4442   1.169   0.110   0.073  0.0384 -0.3780  0.5059
  291MPD2     H 4443   1.312   4.558   0.280 -1.3931  0.2321  0.9887
  291MPD2    H1 4444   1.343   0.220   0.120 -2.2690  2.5174  0.3782
  291MPD2    H2 4445   1.034   4.693   0.001 -0.3188  1.1639  0.7119
  291MPD2    H3 4446   1.131   0.184   0.005 -1.8474 -0.7547  1.1463
  291MPD2     N 4447   1.455   0.055   0.282 -0.0723 -0.1128  0.3002
  291MPD2    H5 4448   1.481   0.153   0.280  0.7202 -0.3458 -0.4420
  291MPD2    N1 4449   1.089   4.493   0.158  0.1127  0.1835 -0.2156
  291MPD2    H7 4450   1.139   4.418   0.204 -2.5068 -0.5999  1.3480
  292TMC3    C1 4451   0.901   4.336   0.144  0.7513 -0.2983 -0.9435
  292TMC3    C2 4452   0.767   4.329   0.165  0.6656 -0.4480 -0.5610
  292TMC3    C3 4453   0.715   4.207   0.197  0.1148  0.2536  0.2067
  292TMC3    C4 4454   0.982   4.226   0.148 -0.1462  0.3580  0.1800
  292TMC3    C5 4455   0.920   4.100   0.158 -0.0963  0.9688 -0.9746
  292TMC3    C6 4456   0.784   4.091   0.181 -0.2630  0.0302  0.0424
  292TMC3     C 4457   0.957   4.471   0.121  0.2640  0.4527  0.2322
  292TMC3     O 4458   0.881   4.556   0.073  0.8697 -0.1677  0.2351
  292TMC3     H 4459   0.708   4.420   0.168 -1.9586 -2.1038 -1.9097
  292TMC3    H1 4460   1.086   4.230   0.116  0.4605 -0.2673  2.0582
  292TMC3    H2 4461   0.738   3.994   0.196 -0.9070  0.8212  3.1293
  292TMC3    C7 4462   0.979   3.978   0.098  0.1159 -0.1225  0.5880
  292TMC3    C8 4463   0.570   4.200   0.201  0.2512 -0.1142  0.1853
  292TMC3    O1 4464   0.905   3.889   0.074  0.2001 -0.1646 -0.1890
  292TMC3    O2 4465   0.512   4.285   0.136  0.4108  0.0212  0.6353
  293MPD2     C 4466   2.602   1.282  12.534  0.2004  0.4413 -0.6506
  293MPD2    C1 4467   2.498   1.236  12.610  0.0191 -0.2076 -0.4269
  293MPD2    C2 4468   2.528   1.170  12.732  0.2080  0.2154 -0.9756
  293MPD2    C3 4469   2.663   1.173  12.780 -0.3380 -0.2481  0.0542
  293MPD2    C4 4470   2.768   1.223  12.700 -0.7933 -0.3748 -0.2425
  293MPD2    C5 4471   2.735   1.276  12.579  0.3239  0.2263 -1.0730
  293MPD2     H 4472   2.452   1.120  12.791 -0.4594  1.6991 -0.5633
  293MPD2    H1 4473   2.872   1.215  12.729 -1.0595 -0.6247  0.6385
  293MPD2    H2 4474   2.590   1.336  12.441 -0.1563 -0.2138 -0.9865
  293MPD2    H3 4475   2.814   1.308  12.512  0.1966  1.3860 -0.6585
  293MPD2     N 4476   2.675   1.131  12.913 -0.3465 -0.4110  0.5526
  293MPD2    H5 4477   2.594   1.107  12.970 -0.5402  1.5396  1.1105
  293MPD2    N1 4478   2.367   1.258  12.562  0.2313 -0.4082 -0.5006
  293MPD2    H7 4479   2.360   1.308  12.474 -1.2666 -1.2961 -0.9004
  294TMC3    C1 4480   2.141   1.200  12.517 -1.4414 -0.6555 -0.1122
  294TMC3    C2 4481   2.041   1.107  12.552 -0.5560 -0.1534  0.5844
  294TMC3    C3 4482   1.966   1.049  12.454 -0.3030  0.5038 -0.5687
  294TMC3    C4 4483   2.166   1.233  12.383 -0.0893  0.1831 -0.3054
  294TMC3    C5 4484   2.085   1.171  12.289  0.5958  0.1938 -0.1815
  294TMC3    C6 4485   1.979   1.090  12.325  0.2394  0.2679  0.4562
  294TMC3     C 4486   2.253   1.195  12.612 -0.6917  0.7835  0.1093
  294TMC3     O 4487   2.246   1.117  12.709 -0.4642  0.4966  0.0399
  294TMC3     H 4488   2.026   1.067  12.652 -2.8812 -1.0473 -0.1111
  294TMC3    H1 4489   2.252   1.286  12.343 -0.0593  0.9602  0.7853
  294TMC3    H2 4490   1.915   1.043  12.251  0.8547 -0.8018  0.5951
  294TMC3    C7 4491   2.070   1.224  12.153  0.1311 -0.1544 -0.8614
  294TMC3    C8 4492   1.913   0.917  12.487 -0.1139 -0.4277  0.2077
  294TMC3    O1 4493   1.966   1.202  12.090  0.3855  0.3755 -0.4534
  294TMC3    O2 4494   1.869   0.898  12.596  0.6804 -0.2277  0.0155
  295MPD2     C 4495   4.313   0.019   0.837  0.8087  0.4811  0.1028
  295MPD2    C1 4496   4.253   4.655   0.771  0.3638 -0.3245  0.0575
  295MPD2    C2 4497   4.293   4.523   0.811 -0.0203 -0.2434  0.5908
  295MPD2    C3 4498   4.373   4.495   0.918 -0.0036  0.6873 -0.1431
  295MPD2    C4 4499   4.433   4.604   0.978  0.0918 -0.5310 -0.3330
  295MPD2    C5 4500   4.401   4.738   0.944  0.3732  0.0242 -0.3807
  295MPD2     H 4501   4.254   4.440   0.752 -0.3604 -0.5743  1.2891
  295MPD2    H1 4502   4.488   4.592   1.070  3.0497  2.2789 -1.7195
  295MPD2    H2 4503   4.290   0.120   0.805  1.4502  0.0709 -1.6642
  295MPD2    H3 4504   4.437   0.089   0.991  1.8404 -0.2544 -0.9481
  295MPD2     N 4505   4.409   4.369   0.969  0.1282  0.4453 -0.3187
  295MPD2    H5 4506   4.463   4.366   1.055 -0.3470 -0.3684 -0.0392
  295MPD2    N1 4507   4.158   4.661   0.662 -0.0156 -0.1899 -0.0506
  295MPD2    H7 4508   4.133   4.570   0.624  0.8331  0.3660 -1.9350
  296TMC3    C1 4509   4.407   4.137   1.011  0.3634 -0.9757  0.2168
  296TMC3    C2 4510   4.457   4.176   1.137 -0.3401 -0.2105 -0.0393
  296TMC3    C3 4511   4.508   4.075   1.214  0.4850 -0.0100  0.2260
  296TMC3    C4 4512   4.385   4.007   0.979 -0.0225 -0.9496  0.5458
  296TMC3    C5 4513   4.473   3.921   1.039  0.1832  0.6873  0.5123
  296TMC3    C6 4514   4.525   3.950   1.162  0.4353  0.9125 -0.4176
  296TMC3     C 4515   4.366   4.245   0.923  0.4371  0.7200  0.2608
  296TMC3     O 4516   4.286   4.223   0.833  0.3494 -0.1318  0.1067
  296TMC3     H 4517   4.453   4.278   1.174  0.3131  0.9162 -3.1117
  296TMC3    H1 4518   4.344   3.977   0.883 -0.3324 -1.5626  0.8746
  296TMC3    H2 4519   4.567   3.877   1.230  0.3312  1.2114 -0.0268
  296TMC3    C7 4520   4.445   3.780   1.017  0.4009  0.0638 -0.3337
  296TMC3    C8 4521   4.536   4.095   1.354  0.1676 -0.2550 -0.4624
  296TMC3    O1 4522   4.530   3.694   1.040  0.3720 -0.3547  0.3389
  296TMC3    O2 4523   4.620   4.022   1.408  0.2104 -0.1377 -0.1735
  297MPD2     C 4524   0.629   1.372  16.452 -0.5417 -0.1819  0.6127
  297MPD2    C1 4525   0.570   1.427  16.343  0.2619  0.2209 -0.1827
  297MPD2    C2 4526   0.630   1.532  16.276 -0.5819 -0.0465  0.4256
  297MPD2    C3 4527   0.750   1.584  16.320 -0.2857  0.0318 -0.1510
  297MPD2    C4 4528   0.809   1.528  16.436 -0.5642  0.3648 -0.0673
  297MPD2    C5 4529   0.751   1.419  16.490  0.4820  0.2100 -0.1826
  297MPD2     H 4530   0.575   1.583  16.197 -1.9437 -1.2931  0.5482
  297MPD2    H1 4531   0.901   1.562  16.482 -1.1971  0.6337  1.0042
  297MPD2    H2 4532   0.583   1.295  16.513 -1.5076  0.3864  0.5957
  297MPD2    H3 4533   0.796   1.380  16.580  1.0116 -0.5191 -0.7626
  297MPD2     N 4534   0.818   1.690  16.265  0.4612  0.2428 -0.8351
  297MPD2    H5 4535   0.904   1.721  16.309 -0.4833  0.5265  0.8156
  297MPD2    N1 4536   0.446   1.379  16.293  0.3138 -1.1567  0.2718
  297MPD2    H7 4537   0.404   1.424  16.212 -0.7748 -1.5356  0.6117
  298TMC3    C1 4538   0.241   1.272  16.266 -0.8329  0.2342  0.1943
  298TMC3    C2 4539   0.260   1.272  16.134  0.6273  0.9022  0.6299
  298TMC3    C3 4540   0.148   1.274  16.055  0.0638  0.1267  0.0017
  298TMC3    C4 4541   0.125   1.287  16.328 -0.1209  0.3269  1.0108
  298TMC3    C5 4542   0.016   1.314  16.253 -0.1955 -0.1104 -0.6332
  298TMC3    C6 4543   0.025   1.291  16.118 -0.6638  0.3341 -0.5398
  298TMC3     C 4544   0.370   1.282  16.342  0.2391 -0.1169 -0.1460
  298TMC3     O 4545   0.372   1.218  16.446  1.2251  0.4563  0.1373
  298TMC3     H 4546   0.359   1.254  16.095  0.5051 -2.1184  1.7244
  298TMC3    H1 4547   0.125   1.304  16.435 -0.2613 -1.3649  1.2883
  298TMC3    H2 4548   4.674   1.302  16.058  0.4534  0.8530 -2.1107
  298TMC3    C7 4549   4.716   1.450  16.296 -0.6035 -0.1005 -0.3154
  298TMC3    C8 4550   0.150   1.288  15.913 -0.0181 -0.3783 -0.0528
  298TMC3    O1 4551   4.718   1.473  16.421 -0.5058 -0.3513  0.4200
  298TMC3    O2 4552   0.050   1.334  15.862  0.2046 -0.1785  0.2781
  299MPD2     C 4553   0.312   1.086  10.643  0.0395 -0.3484  1.1573
  299MPD2    C1 4554   0.327   1.202  10.571  0.2232 -0.0593 -0.7760
  299MPD2    C2 4555   0.220   1.244  10.491  0.9151  0.1036 -0.7449
  299MPD2    C3 4556   0.102   1.175  10.487  0.8357 -0.4539  0.1955
  299MPD2    C4 4557   0.096   1.051  10.553  0.2465 -0.0553  0.1294
  299MPD2    C5 4558   0.198   1.010  10.634  0.3075 -0.9569  0.5605
  299MPD2     H 4559   0.233   1.344  10.449 -1.9801  0.1494 -1.5246
  299MPD2    H1 4560   0.011   0.985  10.539  0.1155  0.6041 -2.2080
  299MPD2    H2 4561   0.387   1.054  10.715  1.4754 -1.9479 -1.0655
  299MPD2    H3 4562   0.183   0.921  10.694  0.0088 -1.7018 -0.6083
  299MPD2     N 4563   0.003   1.215  10.404  0.0191  0.4687 -0.3480
  299MPD2    H5 4564   4.660   1.156  10.406  0.0894  0.3019 -2.7674
  299MPD2    N1 4565   0.446   1.281  10.592  0.4317 -0.2970  0.4951
  299MPD2    H7 4566   0.504   1.242  10.665  0.8747 -0.5688 -0.0050
  300TMC3    C1 4567   4.599   1.363  10.286 -0.0321 -0.7010 -0.8747
  300TMC3    C2 4568   4.591   1.483  10.216 -0.3273  0.4058 -0.5142
  300TMC3    C3 4569   4.478   1.556  10.219  0.6285 -0.3762  0.0052
  300TMC3    C4 4570   4.489   1.323  10.356 -0.3615 -0.1788  0.0113
  300TMC3    C5 4571   4.373   1.396  10.341  0.1254 -0.1482 -0.0640
  300TMC3    C6 4572   4.367   1.519  10.285  0.2213 -0.2594 -0.2616
  300TMC3     C 4573   4.733   1.331  10.328  0.5190 -0.4449  0.7531
  300TMC3     O 4574   0.089   1.396  10.289  0.6891  0.0008  0.3455
  300TMC3     H 4575   4.681   1.510  10.162  0.4380 -0.9836  0.0559
  300TMC3    H1 4576   4.485   1.225  10.404 -0.8651 -0.3048 -0.2944
  300TMC3    H2 4577   4.273   1.573  10.284  0.4110  0.0590 -0.8133
  300TMC3    C7 4578   4.270   1.369  10.436 -0.2126 -0.4610 -0.1335
  300TMC3    C8 4579   4.506   1.696  10.204 -0.5325  0.4270 -0.5055
  300TMC3    O1 4580   4.157   1.387  10.391 -0.0158  0.1174 -0.0090
  300TMC3    O2 4581   4.618   1.742  10.193 -0.2769  0.0817  0.2756
  301MPD2     C 4582   3.795   2.630   1.048  0.0471  0.3276 -0.6994
  301MPD2    C1 4583   3.721   2.623   0.933 -0.6379 -0.2936 -0.3481
  301MPD2    C2 4584   3.684   2.500   0.888  0.0948  0.2636 -0.1523
  301MPD2    C3 4585   3.704   2.388   0.962  0.6585 -0.7441  0.5830
  301MPD2    C4 4586   3.774   2.400   1.080  0.8308  0.0282 -0.0792
  301MPD2    C5 4587   3.845   2.513   1.102  0.2468  0.7578  0.5777
  301MPD2     H 4588   3.647   2.497   0.786  0.2470 -0.2525 -0.1908
  301MPD2    H1 4589   3.792   2.316   1.147 -0.8270 -0.2881 -0.0356
  301MPD2    H2 4590   3.829   2.726   1.086 -1.0454  0.6798 -0.6112
  301MPD2    H3 4591   3.923   2.515   1.177 -0.1977  0.8169  1.0385
  301MPD2     N 4592   3.659   2.258   0.928  0.2110  0.0890  0.1753
  301MPD2    H5 4593   3.671   2.181   0.994 -1.5204 -0.2915  0.0640
  301MPD2    N1 4594   3.671   2.744   0.864  0.1024  0.4658 -0.2622
  301MPD2    H7 4595   3.625   2.729   0.776  1.5486  3.9635 -1.6106
  302TMC3    C1 4596   3.520   2.107   0.827 -0.3615  0.3571  0.1495
  302TMC3    C2 4597   3.594   2.001   0.866  0.1855 -0.1297  0.1299
  302TMC3    C3 4598   3.537   1.877   0.842  0.2473  0.5312  0.5851
  302TMC3    C4 4599   3.390   2.103   0.780 -0.3860 -0.1188 -0.0687
  302TMC3    C5 4600   3.341   1.972   0.762  0.6675  0.0065  0.3533
  302TMC3    C6 4601   3.412   1.860   0.792 -0.9802 -0.0738  0.5716
  302TMC3     C 4602   3.587   2.233   0.819  0.5953 -0.3970 -0.0195
  302TMC3     O 4603   3.534   2.303   0.735  0.0837  0.3236  0.0883
  302TMC3     H 4604   3.702   2.006   0.878  0.1285 -0.6052  0.8641
  302TMC3    H1 4605   3.334   2.193   0.762  0.0756  0.3882  1.0008
  302TMC3    H2 4606   3.373   1.759   0.786 -2.1144  0.2897  1.8221
  302TMC3    C7 4607   3.231   1.954   0.670  0.0514 -0.6457 -1.1438
  302TMC3    C8 4608   3.607   1.755   0.872 -0.6189  0.0496 -0.4476
  302TMC3    O1 4609   3.218   1.837   0.632  0.1618 -0.2446  0.2674
  302TMC3    O2 4610   3.727   1.767   0.857  0.1967  0.0587  0.0310
  303MPD2     C 4611   2.669   0.585  10.067 -0.2535  0.0549 -0.4803
  303MPD2    C1 4612   2.605   0.462  10.082  0.0088  0.6843 -0.5777
  303MPD2    C2 4613   2.471   0.453  10.057 -0.2774 -0.1881 -0.5763
  303MPD2    C3 4614   2.396   0.560  10.025 -1.0443  0.3479  0.7278
  303MPD2    C4 4615   2.461   0.680  10.013  0.0950 -0.6632 -0.1745
  303MPD2    C5 4616   2.595   0.687  10.032 -0.6543  0.0189 -0.3351
  303MPD2     H 4617   2.423   0.356  10.050 -1.7553  0.4391  0.7557
  303MPD2    H1 4618   2.400   0.767   9.988 -2.3969 -1.7416  2.1148
  303MPD2    H2 4619   2.771   0.603  10.100 -0.5332  0.8366 -0.0405
  303MPD2    H3 4620   2.645   0.781  10.014  0.7229 -1.0792 -2.3001
  303MPD2     N 4621   2.251   0.559  10.001 -0.7837 -0.3372  0.9991
  303MPD2    H5 4622   2.216   0.649   9.970 -1.0943 -0.7886  0.0262
  303MPD2    N1 4623   2.665   0.340  10.115  0.1263 -0.0257 -0.3947
  303MPD2    H7 4624   2.592   0.270  10.123 -0.9787  1.0763 -0.8316
  304TMC3    C1 4625   2.810   0.168  10.156 -0.1442 -0.3447  0.0519
  304TMC3    C2 4626   2.738   0.133  10.266  0.0649 -0.1617  0.3980
  304TMC3    C3 4627   2.744   4.731  10.299  0.3303 -0.5357  0.2233
  304TMC3    C4 4628   2.880   0.075  10.083  0.5238  0.1067  0.3843
  304TMC3    C5 4629   2.895   4.687  10.133  0.1496 -0.0914  0.2052
  304TMC3    C6 4630   2.828   4.645  10.239  0.1273 -0.6376 -0.4544
  304TMC3     C 4631   2.797   0.304  10.109  0.0647  0.3183 -0.2830
  304TMC3     O 4632   2.887   0.365  10.057 -0.0221  0.3511 -0.2850
  304TMC3     H 4633   2.680   0.209  10.317  1.2973  1.5099 -0.6867
  304TMC3    H1 4634   2.950   0.113  10.010 -1.0481  2.0660 -0.1076
  304TMC3    H2 4635   2.852   4.548  10.283  0.7452 -1.0752 -1.7742
  304TMC3    C7 4636   2.888   4.585  10.024  0.4089 -0.5565  0.2012
  304TMC3    C8 4637   2.627   4.662  10.342 -1.4321  0.4496  0.8851
  304TMC3    O1 4638   2.980   4.567   9.945  0.5518  0.0739 -0.5473
  304TMC3    O2 4639   2.623   4.551  10.294 -0.4069  0.5984 -0.8405
  305MPD2     C 4640   1.560   3.172  13.748  0.2669  0.2173  0.2243
  305MPD2    C1 4641   1.632   3.079  13.817  0.6411 -0.2110  0.2363
  305MPD2    C2 4642   1.692   2.984  13.737  0.4759 -0.4453  0.4892
  305MPD2    C3 4643   1.663   2.983  13.601  0.1088  0.1980  0.1065
  305MPD2    C4 4644   1.589   3.077  13.535 -0.0334  0.0649 -0.5341
  305MPD2    C5 4645   1.545   3.179  13.616 -0.4588  0.3649 -0.5780
  305MPD2     H 4646   1.757   2.909  13.780 -0.0315  0.1005  2.2466
  305MPD2    H1 4647   1.577   3.086  13.428  0.9069  2.7055 -0.4110
  305MPD2    H2 4648   1.516   3.252  13.807  0.7350  0.5083  0.1739
  305MPD2    H3 4649   1.482   3.259  13.581  0.6186  0.9716 -1.1195
  305MPD2     N 4650   1.725   2.886  13.513 -0.4988 -0.5562  0.5678
  305MPD2    H5 4651   1.704   2.897  13.414  0.0819 -0.2244  0.4827
  305MPD2    N1 4652   1.646   3.099  13.955 -0.1197  0.3213 -0.0803
  305MPD2    H7 4653   1.607   3.184  13.994 -0.2879 -0.6773  1.8909
  306TMC3    C1 4654   1.715   3.058  14.175  0.2830  1.0839 -0.2961
  306TMC3    C2 4655   1.752   2.959  14.264  0.0262 -0.2366  0.0433
  306TMC3    C3 4656   1.779   2.988  14.394 -0.0385 -0.4420  0.5167
  306TMC3    C4 4657   1.714   3.186  14.219  0.2980 -0.0212 -0.6255
  306TMC3    C5 4658   1.741   3.216  14.352 -0.0325 -0.5869  0.0202
  306TMC3    C6 4659   1.779   3.119  14.436  0.3567  0.2285 -0.7995
  306TMC3     C 4660   1.719   3.016  14.038  0.5605  0.7002  0.6979
  306TMC3     O 4661   1.757   2.900  14.013  0.6726 -0.3831 -0.3716
  306TMC3     H 4662   1.779   2.859  14.233 -1.8295 -0.2082 -1.6279
  306TMC3    H1 4663   1.705   3.267  14.148 -0.4089  1.7146  1.4522
  306TMC3    H2 4664   1.794   3.142  14.541  0.8343 -1.7978 -0.4257
  306TMC3    C7 4665   1.784   3.354  14.380  1.0664 -0.5999 -0.7172
  306TMC3    C8 4666   1.821   2.882  14.484  0.3419 -0.0921  0.2582
  306TMC3    O1 4667   1.793   3.435  14.287 -0.3272  0.4950 -0.0644
  306TMC3    O2 4668   1.861   2.786  14.420 -0.0502  0.4564  0.3171
  307MPD2     C 4669   3.984   1.544  17.464  0.1528  0.2326 -0.1185
  307MPD2    C1 4670   4.071   1.615  17.538  0.5902 -0.2763 -0.4128
  307MPD2    C2 4671   4.065   1.598  17.678  0.3936 -0.0298  0.2754
  307MPD2    C3 4672   3.982   1.510  17.742  0.2773 -0.2225 -0.2913
  307MPD2    C4 4673   3.906   1.422  17.660 -0.4045 -0.1146  0.4715
  307MPD2    C5 4674   3.913   1.444  17.527 -0.0444 -0.0542 -0.0658
  307MPD2     H 4675   4.123   1.666  17.740 -2.2704  1.5409  1.0758
  307MPD2    H1 4676   3.853   1.340  17.707 -1.6977  0.6331  0.2881
  307MPD2    H2 4677   3.976   1.552  17.356  0.1114  0.2965 -0.1104
  307MPD2    H3 4678   3.845   1.386  17.466  0.2991  0.6276 -1.0831
  307MPD2     N 4679   3.992   1.505   0.129  0.8453  0.6530 -0.8315
  307MPD2    H5 4680   4.052   1.579   0.165  0.1026  0.5198  0.6711
  307MPD2    N1 4681   4.161   1.704  17.486 -0.4829 -0.2466  0.5758
  307MPD2    H7 4682   4.214   1.758  17.554 -1.0127  0.5775  0.3422
  308TMC3    C1 4683   3.792   1.441   0.540 -0.8350  0.2272  0.6256
  308TMC3    C2 4684   3.804   1.578   0.562 -0.0930  0.0016  0.5671
  308TMC3    C3 4685   3.884   1.646   0.471 -0.1986  0.3958  0.5207
  308TMC3    C4 4686   3.861   1.383   0.438  0.2147 -0.5602  0.5452
  308TMC3    C5 4687   3.941   1.455   0.350  0.1821  0.4197 -1.0399
  308TMC3    C6 4688   3.952   1.588   0.367 -0.2040  0.5200 -0.1017
  308TMC3     C 4689   3.682   1.368   0.593  0.1741  0.6505 -0.2079
  308TMC3     O 4690   3.689   1.247   0.599 -0.2345 -0.1263  0.0152
  308TMC3     H 4691   3.759   1.620   0.651 -0.9747  0.9988 -0.3399
  308TMC3    H1 4692   3.859   1.276   0.419 -1.5684 -0.7041  1.5269
  308TMC3    H2 4693   4.025   1.650   0.316 -1.5785  3.9695  2.1388
  308TMC3    C7 4694   3.927   1.420   0.209 -0.0619 -0.3132 -0.3436
  308TMC3    C8 4695   3.897   1.792   0.473  0.6387  0.5874  0.1693
  308TMC3    O1 4696   3.886   1.305   0.195 -0.3002  0.3211  0.1622
  308TMC3    O2 4697   3.925   1.852   0.369  0.3064  0.1535 -0.4436
  309MPD2     C 4698   3.199   1.870  17.205 -0.0571  0.2241 -0.1479
  309MPD2    C1 4699   3.139   1.754  17.162 -0.3067  0.2632 -0.2819
  309MPD2    C2 4700   3.004   1.748  17.167 -0.1335  0.4678 -0.0221
  309MPD2    C3 4701   2.932   1.842  17.244  0.1860 -0.0058  0.9790
  309MPD2    C4 4702   2.993   1.957  17.291  0.3598  0.0501 -0.6195
  309MPD2    C5 4703   3.124   1.967  17.264  0.3010  0.1286  0.3258
  309MPD2     H 4704   2.954   1.661  17.127 -1.6628  0.6902  1.3974
  309MPD2    H1 4705   2.943   2.043  17.333  1.0992  0.1447  0.0840
  309MPD2    H2 4706   3.305   1.890  17.195 -0.2656  0.6357 -1.4919
  309MPD2    H3 4707   3.176   2.058  17.291 -0.4450 -0.2192  2.9095
  309MPD2     N 4708   2.791   1.828  17.263 -0.2179  0.1382  0.2109
  309MPD2    H5 4709   2.736   1.909  17.289 -0.2293  0.1588  0.1230
  309MPD2    N1 4710   3.204   1.658  17.084 -0.1789  0.0727 -0.8582
  309MPD2    H7 4711   3.148   1.590  17.032 -0.2834 -0.7737  0.3458
  310TMC3    C1 4712   3.362   1.528  16.995 -0.3393  0.4928  0.7443
  310TMC3    C2 4713   3.281   1.530  16.882 -0.2627 -0.1859 -0.1636
  310TMC3    C3 4714   3.288   1.418  16.805 -0.2460  1.1119 -0.1656
  310TMC3    C4 4715   3.450   1.433  17.022 -0.0120  0.7897  0.3725
  310TMC3    C5 4716   3.463   1.332  16.938 -0.2952 -0.0366 -0.1774
  310TMC3    C6 4717   3.378   1.319  16.833 -0.1980 -0.2220 -0.0610
  310TMC3     C 4718   3.335   1.622  17.095 -0.3750  0.4822  0.2030
  310TMC3     O 4719   3.422   1.672  17.171  0.1442  0.4217 -0.2497
  310TMC3     H 4720   3.226   1.615  16.844 -0.8161  0.8277  2.9681
  310TMC3    H1 4721   3.479   1.430  17.127  2.0077  1.8285 -0.1597
  310TMC3    H2 4722   3.386   1.240  16.759 -1.1244 -0.8480  0.5135
  310TMC3    C7 4723   3.564   1.231  16.951  1.0971 -0.1995  0.1044
  310TMC3    C8 4724   3.222   1.414  16.678  0.0083  0.3653 -0.0254
  310TMC3    O1 4725   3.551   1.128  16.888  0.4379  0.6455 -0.4242
  310TMC3    O2 4726   3.267   1.354  16.583 -0.0971  0.3847  0.2157
  311MPD2     C 4727   0.716   2.443  12.599 -0.0341  0.7604  0.0265
  311MPD2    C1 4728   0.712   2.533  12.701  0.7448  0.0517 -1.0545
  311MPD2    C2 4729   0.622   2.530  12.806 -0.3141 -0.2274  0.3750
  311MPD2    C3 4730   0.521   2.437  12.800 -1.1645  0.2395 -0.5906
  311MPD2    C4 4731   0.525   2.338  12.702 -0.5266 -0.4646  1.0417
  311MPD2    C5 4732   0.629   2.336  12.607 -0.1339  0.0091  0.4824
  311MPD2     H 4733   0.637   2.606  12.881 -3.9699  2.1174 -1.2943
  311MPD2    H1 4734   0.441   2.270  12.695  0.6983 -1.6905 -1.6922
  311MPD2    H2 4735   0.787   2.446  12.517  0.7552 -0.7232  0.6467
  311MPD2    H3 4736   0.628   2.264  12.526 -1.6481  0.0650  0.4536
  311MPD2     N 4737   0.428   2.442  12.898  0.2552  0.7750  0.3467
  311MPD2    H5 4738   0.430   2.522  12.961 -1.0171  0.9206  0.1998
  311MPD2    N1 4739   0.799   2.640  12.697 -0.8129 -0.1284 -0.9226
  311MPD2    H7 4740   0.791   2.690  12.785  1.0376 -2.6212  0.6650
  312TMC3    C1 4741   0.250   2.386  13.033  0.6115  0.0657  0.4873
  312TMC3    C2 4742   0.118   2.358  13.019 -0.4018 -0.0511  0.1919
  312TMC3    C3 4743   0.022   2.446  13.077  0.1795 -0.5944  0.4229
  312TMC3    C4 4744   0.296   2.481  13.122  0.8606  0.2038  0.5212
  312TMC3    C5 4745   0.198   2.557  13.188 -0.0948 -1.0294 -0.0026
  312TMC3    C6 4746   0.066   2.543  13.161  0.0811  0.1813 -0.8271
  312TMC3     C 4747   0.342   2.342  12.932  0.5591  0.1753  0.0528
  312TMC3     O 4748   0.340   2.226  12.892  0.4577 -0.4738  0.3982
  312TMC3     H 4749   0.076   2.278  12.958 -1.2276  2.5280 -2.6032
  312TMC3    H1 4750   0.401   2.485  13.148  0.1183  1.6032  3.2802
  312TMC3    H2 4751   4.737   2.612  13.210 -0.5306 -0.7135 -0.4226
  312TMC3    C7 4752   0.226   2.704  13.203  0.4080  0.2041  0.4262
  312TMC3    C8 4753   4.624   2.440  13.029 -0.3873 -0.0967  0.4550
  312TMC3    O1 4754   0.140   2.784  13.165  0.3753  0.1136  0.0877
  312TMC3    O2 4755   4.592   2.334  12.976 -0.0244 -0.1117  0.6600
  313MPD2     C 4756   4.390   1.796  10.746  0.0760  1.0613 -0.0789
  313MPD2    C1 4757   4.291   1.715  10.791 -1.1580  0.2797  0.2092
  313MPD2    C2 4758   4.197   1.664  10.699  0.3518 -0.3086  0.1369
  313MPD2    C3 4759   4.187   1.717  10.576 -0.0013 -0.2867  0.1657
  313MPD2    C4 4760   4.296   1.797  10.524 -0.3318  0.5028  0.0935
  313MPD2    C5 4761   4.389   1.837  10.613  0.8314 -0.0406  0.3302
  313MPD2     H 4762   4.112   1.607  10.734 -1.5136  2.5859  0.3586
  313MPD2    H1 4763   4.295   1.839  10.424  0.3025 -1.1938 -0.6242
  313MPD2    H2 4764   4.468   1.835  10.810  0.8637 -2.5305  1.1731
  313MPD2    H3 4765   4.463   1.906  10.574  0.0647  0.6395  0.0851
  313MPD2     N 4766   4.066   1.696  10.507 -0.1734 -0.3305  0.4476
  313MPD2    H5 4767   4.000   1.632  10.551  0.1715  0.0772  1.5600
  313MPD2    N1 4768   4.264   1.687  10.925 -0.3019  0.2505 -0.3014
  313MPD2    H7 4769   4.183   1.628  10.944 -1.2647  1.4701 -0.6145
  314TMC3    C1 4770   4.220   1.776  11.139  0.2505 -0.3030 -0.9729
  314TMC3    C2 4771   4.243   1.900  11.173  0.2063  0.5725  0.8528
  314TMC3    C3 4772   4.136   1.981  11.161  0.5501  0.5468  0.3250
  314TMC3    C4 4773   4.103   1.730  11.093 -0.4377 -0.1280 -0.0505
  314TMC3    C5 4774   4.001   1.820  11.068  0.0247  0.4531 -0.2733
  314TMC3    C6 4775   4.021   1.952  11.095 -0.5969  0.0672  0.3266
  314TMC3     C 4776   4.323   1.740  11.041  0.2824  0.3797 -0.1545
  314TMC3     O 4777   4.434   1.789  11.036 -0.4739 -0.3575 -0.7197
  314TMC3     H 4778   4.338   1.937  11.210  0.6539  2.3458 -2.0883
  314TMC3    H1 4779   4.081   1.625  11.077 -0.7891 -0.7399  4.5250
  314TMC3    H2 4780   3.950   2.033  11.077 -0.4269  0.4130  1.2033
  314TMC3    C7 4781   3.915   1.783  10.958 -0.4929 -0.1638  1.0281
  314TMC3    C8 4782   4.174   2.123  11.164 -0.2021 -0.0681 -0.3834
  314TMC3    O1 4783   3.881   1.667  10.960 -0.4010  0.1216  0.3545
  314TMC3    O2 4784   4.296   2.136  11.166 -0.1303 -0.1791  0.0649
  315MPD2     C 4785   4.351   1.196  17.628 -0.6328  0.5136  0.7471
  315MPD2    C1 4786   4.422   1.210  17.745  0.8616  0.4922  0.2579
  315MPD2    C2 4787   4.478   1.339   0.017  0.1208 -0.0682  0.1818
  315MPD2    C3 4788   4.449   1.450  17.688  0.0238 -0.6264 -0.4344
  315MPD2    C4 4789   4.361   1.435  17.581 -0.7969  0.0435 -0.0305
  315MPD2    C5 4790   4.315   1.304  17.554  0.5972 -0.4781 -0.6302
  315MPD2     H 4791   4.540   1.354   0.105 -2.9245 -0.0599  2.3246
  315MPD2    H1 4792   4.337   1.522  17.522  2.2873  0.3951 -0.8003
  315MPD2    H2 4793   4.317   1.103  17.585 -3.0691  1.2864  0.9841
  315MPD2    H3 4794   4.261   1.285  17.462  0.4049 -0.0097 -0.6164
  315MPD2     N 4795   4.524   1.563  17.714  0.1183  0.1418  0.0585
  315MPD2    H5 4796   4.597   1.549   0.027 -1.1350 -1.9293  0.9736
  315MPD2    N1 4797   4.475   1.100   0.065 -0.3324 -0.0938  0.3383
  315MPD2    H7 4798   4.538   1.117   0.142 -0.1320 -0.8333  0.3402
  316TMC3    C1 4799   4.651   1.763  17.673 -0.0989 -0.5488  0.1816
  316TMC3    C2 4800   4.735   1.722   0.018  0.4050  0.5456  0.0312
  316TMC3    C3 4801   0.104   1.796   0.030  0.4345 -1.0714 -0.2404
  316TMC3    C4 4802   4.668   1.872  17.601 -0.2948 -0.4235 -0.5648
  316TMC3    C5 4803   0.048   1.934  17.616  0.7255  0.1160  0.1039
  316TMC3    C6 4804   0.127   1.905  17.715 -0.1550  0.3863  0.2904
  316TMC3     C 4805   4.530   1.683  17.641  0.2504  0.3665 -0.3971
  316TMC3     O 4806   4.448   1.735  17.567 -0.2703  0.0565 -0.1550
  316TMC3     H 4807   4.722   1.634   0.080  0.3860 -0.4838 -1.4284
  316TMC3    H1 4808   4.591   1.908  17.533  0.2542  2.8400  0.5435
  316TMC3    H2 4809   0.219   1.957  17.738 -0.4913  2.9538 -4.1548
  316TMC3    C7 4810   0.073   2.056  17.550 -0.8122  0.1327  0.5605
  316TMC3    C8 4811   0.186   1.791   0.149 -0.8869  0.0652  0.5064
  316TMC3    O1 4812   0.147   2.141  17.601 -0.4369 -0.5235  0.1379
  316TMC3    O2 4813   0.201   1.894   0.217 -1.0952 -0.3685 -0.7831
  317MPD2     C 4814   1.610   4.585  12.906  0.2339 -0.1945 -0.3637
  317MPD2    C1 4815   1.692   4.495  12.838  0.6092  0.1726  0.6459
  317MPD2    C2 4816   1.763   4.412  12.921  0.4571  0.0533 -0.1444
  317MPD2    C3 4817   1.752   4.410  13.054 -0.0301 -0.2025  0.1825
  317MPD2    C4 4818   1.656   4.486  13.111 -0.3820 -0.0589  0.9038
  317MPD2    C5 4819   1.596   4.580  13.035  0.0040 -0.3669 -0.5599
  317MPD2     H 4820   1.831   4.342  12.872 -1.0684  0.8328 -3.3605
  317MPD2    H1 4821   1.625   4.492  13.215 -1.3615 -1.5699  0.7039
  317MPD2    H2 4822   1.547   4.653  12.850 -0.0836 -1.1730 -1.1960
  317MPD2    H3 4823   1.532   4.651  13.086  1.1719  0.7753 -0.6919
  317MPD2     N 4824   1.827   4.314  13.120  0.0348  0.3277 -0.9220
  317MPD2    H5 4825   1.887   4.248  13.072  1.3523  0.9407 -0.1308
  317MPD2    N1 4826   1.708   4.498  12.698  0.3898  0.4088 -0.3992
  317MPD2    H7 4827   1.769   4.428  12.657 -1.7888 -1.9053  0.2995
  318TMC3    C1 4828   1.898   4.173  13.296  0.8109 -0.8174 -0.0877
  318TMC3    C2 4829   1.916   4.071  13.210 -0.2631  0.4394  0.1442
  318TMC3    C3 4830   2.004   3.968  13.248 -0.3169  0.4899  0.1969
  318TMC3    C4 4831   1.955   4.170  13.422  0.2875 -0.0595  0.4327
  318TMC3    C5 4832   2.050   4.069  13.447 -0.1086  0.1202 -0.7336
  318TMC3    C6 4833   2.074   3.964  13.366 -0.0478 -0.3217 -0.2007
  318TMC3     C 4834   1.821   4.290  13.258 -1.0204 -0.6769 -0.2220
  318TMC3     O 4835   1.786   4.360  13.349  0.5752  0.0523 -0.2795
  318TMC3     H 4836   1.867   4.072  13.113 -0.5268  2.9635  0.3110
  318TMC3    H1 4837   1.932   4.250  13.491 -3.2948 -0.2838 -0.5070
  318TMC3    H2 4838   2.147   3.888  13.390 -0.2246 -1.4427 -3.1127
  318TMC3    C7 4839   2.152   4.100  13.543 -0.2320 -0.2739 -0.2056
  318TMC3    C8 4840   1.979   3.836  13.188 -0.1066  0.4231  0.7426
  318TMC3    O1 4841   2.139   4.207  13.600  0.1555 -0.3433  0.0556
  318TMC3    O2 4842   2.031   3.742  13.240 -0.1169 -0.1523  0.1772
  319MPD2     C 4843   2.624   1.274  16.641 -0.5682 -0.2140  0.9157
  319MPD2    C1 4844   2.558   1.187  16.718 -0.1876  0.2030  0.2285
  319MPD2    C2 4845   2.465   1.108  16.656  0.0678 -0.0768 -0.5670
  319MPD2    C3 4846   2.434   1.108  16.522  0.3555 -0.3218 -0.2041
  319MPD2    C4 4847   2.482   1.213  16.448  0.2316  0.2941  0.3420
  319MPD2    C5 4848   2.582   1.284  16.514  0.1193 -0.6546 -0.1296
  319MPD2     H 4849   2.419   1.033  16.719  1.0072  1.0077  1.4300
  319MPD2    H1 4850   2.452   1.236  16.346 -0.3337  1.3682  0.7449
  319MPD2    H2 4851   2.708   1.336  16.670 -1.2200  0.2597  1.7970
  319MPD2    H3 4852   2.626   1.353  16.442  1.8734 -2.5950 -0.9214
  319MPD2     N 4853   2.334   1.023  16.464  0.0534 -0.8390  0.1668
  319MPD2    H5 4854   2.324   1.045  16.366  3.8039 -0.9291 -0.2120
  319MPD2    N1 4855   2.583   1.167  16.856  0.3672  0.0731  0.5918
  319MPD2    H7 4856   2.526   1.096  16.901 -0.0637  0.4899  0.7019
  320TMC3    C1 4857   2.184   0.838  16.427  0.4263  0.5096 -0.5763
  320TMC3    C2 4858   2.129   0.911  16.326 -0.1876 -0.1566 -0.3758
  320TMC3    C3 4859   2.050   0.843  16.235 -0.5787  0.2193 -0.2696
  320TMC3    C4 4860   2.176   0.702  16.432  0.2271 -0.4494 -0.1370
  320TMC3    C5 4861   2.094   0.638  16.346  0.3908 -0.5946  0.4377
  320TMC3    C6 4862   2.035   0.705  16.250 -0.8765 -0.2647  0.7210
  320TMC3     C 4863   2.275   0.905  16.519 -0.1541 -0.2839 -0.1824
  320TMC3     O 4864   2.290   0.871  16.635 -0.4605  0.3470 -0.1048
  320TMC3     H 4865   2.126   1.020  16.323  0.4722 -0.1529 -0.9013
  320TMC3    H1 4866   2.222   0.661  16.521 -1.0283 -2.1987 -0.3006
  320TMC3    H2 4867   1.969   0.645  16.188 -2.7094  2.8705 -0.3362
  320TMC3    C7 4868   2.123   0.494  16.330  0.3650  0.3005 -0.3446
  320TMC3    C8 4869   1.989   0.918  16.129  0.5535 -0.3734 -0.6353
  320TMC3    O1 4870   2.103   0.439  16.222 -0.1261 -0.2503 -1.0728
  320TMC3    O2 4871   2.031   1.029  16.105 -0.1570  0.2528  0.6538
  321TMC3    C1 4872   2.654   1.203  17.067  0.0071 -0.4111 -0.2801
  321TMC3    C2 4873   2.583   1.081  17.091 -0.2643  0.3171 -0.5864
  321TMC3    C3 4874   2.570   1.045  17.221  0.3581  0.2946 -0.7515
  321TMC3    C4 4875   2.700   1.286  17.167 -0.7956 -0.8438 -0.6133
  321TMC3    C5 4876   2.669   1.259  17.301  0.3756 -0.1980  0.4222
  321TMC3    C6 4877   2.593   1.140  17.323  0.1457 -0.3665 -0.4891
  321TMC3     C 4878   2.665   1.242  16.928  0.1090  0.3443 -0.0184
  321TMC3     O 4879   2.738   1.339  16.900 -0.2243  0.6303 -0.1005
  321TMC3     H 4880   2.572   1.000  17.020  1.3166 -2.7002  2.5880
  321TMC3    H1 4881   2.772   1.364  17.144 -0.4625 -1.3248 -1.1808
  321TMC3    H2 4882   2.563   1.104  17.421  0.6871  3.0193  0.9072
  321TMC3    C7 4883   2.776   1.265  17.397 -0.6261 -0.1840 -0.2589
  321TMC3    C8 4884   2.611   0.907  17.257  0.2901  0.1291 -0.3404
  321TMC3    O1 4885   2.778   1.160  17.455  0.6637 -0.2114  0.1440
  321TMC3    O2 4886   2.582   0.813  17.180  0.5117  0.4146 -0.6662
  322MPD2     C 4887   1.704   1.909  13.380  0.3284 -0.2606 -0.6736
  322MPD2    C1 4888   1.711   1.821  13.480 -0.3640  0.6211 -0.0765
  322MPD2    C2 4889   1.681   1.689  13.463  0.2041  0.5214 -0.3315
  322MPD2    C3 4890   1.663   1.644  13.331  0.5430 -0.3989  0.0639
  322MPD2    C4 4891   1.662   1.737  13.228  0.2407 -0.2631 -0.2136
  322MPD2    C5 4892   1.686   1.874  13.251  0.6953 -0.4816  1.0709
  322MPD2     H 4893   1.671   1.612  13.539  2.6463 -0.7164 -1.2633
  322MPD2    H1 4894   1.646   1.691  13.131 -0.8560 -2.1808  0.8720
  322MPD2    H2 4895   1.722   2.014  13.400 -0.4628  0.4118 -3.5328
  322MPD2    H3 4896   1.687   1.949  13.172  1.3433 -0.3580  1.1947
  322MPD2     N 4897   1.642   1.509  13.304 -0.3245  0.4612  0.2119
  322MPD2    H5 4898   1.606   1.450  13.379 -1.3875  0.6905 -0.1227
  322MPD2    N1 4899   1.740   1.873  13.609  0.3783  0.3299 -0.0951
  322MPD2    H7 4900   1.787   1.963  13.601 -3.1617  2.3147  1.1755
  323TMC3    C1 4901   1.830   1.853  13.834  0.2119  0.1348 -0.3277
  323TMC3    C2 4902   1.857   1.990  13.838  1.0593 -0.4784 -0.3212
  323TMC3    C3 4903   1.949   2.022  13.932 -0.7844 -0.4600  0.6777
  323TMC3    C4 4904   1.867   1.760  13.933  0.0018  0.4831  0.0672
  323TMC3    C5 4905   1.937   1.811  14.035 -0.0589 -0.2189 -0.4601
  323TMC3    C6 4906   1.980   1.939  14.038  0.5489  0.0967 -0.6185
  323TMC3     C 4907   1.746   1.798  13.723 -0.2254 -0.0023  0.3265
  323TMC3     O 4908   1.694   1.689  13.748 -0.2907  0.3129  0.0803
  323TMC3     H 4909   1.839   2.052  13.751  0.0377  0.8273  0.8278
  323TMC3    H1 4910   1.837   1.657  13.943  1.6611 -0.1892 -2.0379
  323TMC3    H2 4911   2.037   1.978  14.121 -0.8137 -0.4002  0.5463
  323TMC3    C7 4912   1.995   1.721  14.128 -0.1445 -0.0416  0.0678
  323TMC3    C8 4913   2.055   2.115  13.897  0.0686 -0.6382  0.4757
  323TMC3    O1 4914   2.015   1.607  14.084  0.1936 -0.0526  0.2543
  323TMC3    O2 4915   2.166   2.092  13.936 -0.2937 -0.2827 -0.2645
  324MPD2     C 4916   3.237   3.070  14.452  0.1116 -0.1564 -0.0352
  324MPD2    C1 4917   3.259   3.190  14.383  0.3964  0.3880  0.0996
  324MPD2    C2 4918   3.148   3.260  14.330  0.2170 -0.0331 -0.1719
  324MPD2    C3 4919   3.023   3.212  14.343  0.4833  0.1711  0.3966
  324MPD2    C4 4920   3.005   3.086  14.387 -0.4284  0.0765 -0.4139
  324MPD2    C5 4921   3.108   3.019  14.445 -0.5624  0.1789  0.0561
  324MPD2     H 4922   3.162   3.362  14.296  1.9658 -0.0751  0.4130
  324MPD2    H1 4923   2.910   3.036  14.372  0.0404 -0.9231 -0.0891
  324MPD2    H2 4924   3.314   3.012  14.502  0.3916  1.7178  1.6948
  324MPD2    H3 4925   3.098   2.916  14.476  0.0535  0.0689 -0.1228
  324MPD2     N 4926   2.908   3.273  14.288 -0.7855 -0.2251 -0.4540
  324MPD2    H5 4927   2.817   3.229  14.299 -0.7762 -0.2763 -0.5765
  324MPD2    N1 4928   3.383   3.259  14.375  0.2771 -0.0739 -0.4504
  324MPD2    H7 4929   3.394   3.357  14.352 -1.7166  0.1054 -0.5619
  325TMC3    C1 4930   2.782   3.418  14.170 -0.3282 -0.7722 -0.4651
  325TMC3    C2 4931   2.705   3.324  14.116  1.0661  0.5146 -0.0837
  325TMC3    C3 4932   2.570   3.345  14.115  0.5838 -0.1526  0.7849
  325TMC3    C4 4933   2.740   3.540  14.212  0.4168 -0.6403  0.3526
  325TMC3    C5 4934   2.602   3.565  14.191  0.3555  0.7810 -0.7694
  325TMC3    C6 4935   2.513   3.467  14.155  0.1633 -1.1219 -0.3165
  325TMC3     C 4936   2.915   3.388  14.211  0.1854  0.1538 -0.2893
  325TMC3     O 4937   3.000   3.479  14.206  0.5760 -0.3099  0.1015
  325TMC3     H 4938   2.753   3.229  14.091  0.3453 -0.0184  0.5602
  325TMC3    H1 4939   2.801   3.628  14.229 -0.6622  0.6330 -2.3417
  325TMC3    H2 4940   2.408   3.489  14.167  0.7456  1.8556 -0.5692
  325TMC3    C7 4941   2.561   3.653  14.302  0.7625 -0.2029  0.0418
  325TMC3    C8 4942   2.490   3.255  14.034 -0.6730 -0.8504 -0.3822
  325TMC3    O1 4943   2.618   3.645  14.410  0.5990 -0.2521 -0.5786
  325TMC3    O2 4944   2.552   3.168  13.972  0.0190  0.2081 -0.0612
  326MPD2     C 4945   4.186   0.177  11.165  0.1838  0.1653  0.2424
  326MPD2    C1 4946   4.196   0.051  11.223 -0.0442 -0.1453 -0.4891
  326MPD2    C2 4947   4.316   4.728  11.214  0.6285 -0.5186  0.1501
  326MPD2    C3 4948   4.428   0.039  11.151 -0.1217 -0.0686 -1.2392
  326MPD2    C4 4949   4.417   0.165  11.098  0.5716  0.0254  0.1401
  326MPD2    C5 4950   4.299   0.232  11.106  0.2248  0.3748  0.1335
  326MPD2     H 4951   4.316   4.629  11.257  1.2875 -0.7767 -0.4502
  326MPD2    H1 4952   4.506   0.211  11.057  0.6074 -1.4930 -1.4764
  326MPD2    H2 4953   4.094   0.233  11.172 -0.8155 -1.4223 -0.3603
  326MPD2    H3 4954   4.293   0.330  11.060 -0.6049  0.5429  0.5975
  326MPD2     N 4955   4.557   4.713  11.143 -0.1483  0.1654  0.0562
  326MPD2    H5 4956   4.636   0.025  11.105 -2.0289  0.9197 -2.8794
  326MPD2    N1 4957   4.088   4.719  11.283 -0.2362 -0.1325 -0.3042
  326MPD2    H7 4958   4.097   4.621  11.310 -1.4838 -0.7217 -2.0776
  327TMC3    C1 4959   3.871   4.689  11.368 -0.3023  0.0270  0.3279
  327TMC3    C2 4960   3.757   0.010  11.409  0.3147  0.5232 -0.6119
  327TMC3    C3 4961   3.635   4.687  11.396  0.1439  0.0259  0.4286
  327TMC3    C4 4962   3.863   4.572  11.306 -0.5448  0.1048 -0.1045
  327TMC3    C5 4963   3.741   4.510  11.291 -0.9406 -0.3615  0.1983
  327TMC3    C6 4964   3.629   4.559  11.343  0.0239  0.0583 -0.3219
  327TMC3     C 4965   3.977   0.042  11.323 -0.0148 -0.2147 -0.0282
  327TMC3     O 4966   3.965   0.159  11.352  0.0103  0.2793  0.1001
  327TMC3     H 4967   3.766   0.104  11.463  2.6135  0.6043 -1.1259
  327TMC3    H1 4968   3.947   4.525  11.256  0.3276  1.1764  0.3458
  327TMC3    H2 4969   3.537   4.508  11.316  1.0126 -1.1725 -1.3391
  327TMC3    C7 4970   3.744   4.374  11.257 -0.0347 -0.0918 -0.4024
  327TMC3    C8 4971   3.535   0.034  11.361  0.8635  0.6369 -0.4258
  327TMC3    O1 4972   3.675   4.340  11.161  0.3804  0.2541  0.6892
  327TMC3    O2 4973   3.571   0.150  11.373 -0.5775  0.1117 -0.1694
  328MPD2     C 4974   2.215   4.583  16.865 -0.3148 -0.2225 -0.7059
  328MPD2    C1 4975   2.108   4.499  16.890  0.0321  0.2577 -0.5849
  328MPD2    C2 4976   1.996   4.500  16.804  1.0868 -1.0463  0.6250
  328MPD2    C3 4977   1.990   4.581  16.695 -0.4852  0.0236  0.3987
  328MPD2    C4 4978   2.107   4.653  16.662 -0.8165 -0.4046 -0.9463
  328MPD2    C5 4979   2.209   4.656  16.749  0.1109 -0.1803 -0.0311
  328MPD2     H 4980   1.916   4.428  16.818  0.0720  0.0163  0.2655
  328MPD2    H1 4981   2.107   4.717  16.575 -1.3047 -1.1427 -1.4904
  328MPD2    H2 4982   2.311   4.582  16.916 -0.9411 -0.7226  0.4527
  328MPD2    H3 4983   2.300   4.708  16.719 -0.8768  0.3653 -2.0333
  328MPD2     N 4984   1.874   4.590  16.610  0.1721  0.5392 -0.0347
  328MPD2    H5 4985   1.865   4.663  16.540  3.2000 -1.0031 -2.0185
  328MPD2    N1 4986   2.098   4.429  17.010 -0.4756  0.5456 -0.2678
  328MPD2    H7 4987   2.170   4.451  17.079 -1.1069 -0.7527  0.7895
  329TMC3    C1 4988   2.034   4.273  17.176 -1.0418 -0.2288  0.6897
  329TMC3    C2 4989   2.121   4.327  17.262  0.0851 -0.3239  0.2088
  329TMC3    C3 4990   2.131   4.264  17.388  0.1845  0.3649 -0.1184
  329TMC3    C4 4991   1.948   4.173  17.205 -0.2879  0.1833 -0.2051
  329TMC3    C5 4992   1.960   4.116  17.331 -0.2501 -0.0526  0.3798
  329TMC3    C6 4993   2.052   4.151  17.418  0.0075  0.5321 -0.0676
  329TMC3     C 4994   2.009   4.329  17.042 -0.4023 -0.1091 -0.8575
  329TMC3     O 4995   1.922   4.272  16.977  0.2756 -0.5194 -0.2585
  329TMC3     H 4996   2.186   4.409  17.232 -0.5925  0.3379  0.5495
  329TMC3    H1 4997   1.886   4.119  17.135  0.9601 -0.9235 -0.4510
  329TMC3    H2 4998   2.077   4.100  17.511  0.0628  0.8405  0.0867
  329TMC3    C7 4999   1.898   3.986  17.334 -0.3435  0.1884  0.1377
  329TMC3    C8 5000   2.209   4.318  17.494  0.1703 -0.5402 -0.1272
  329TMC3    O1 5001   1.789   3.982  17.278  0.4263  0.0221 -0.1364
  329TMC3    O2 5002   2.326   4.342  17.469  0.1777  0.0458 -0.1785
  330TMC3    C1 5003   4.100   3.506   9.431 -0.0151 -0.2908 -0.6550
  330TMC3    C2 5004   4.011   3.417   9.393 -1.0676 -0.1734 -0.0399
  330TMC3    C3 5005   4.026   3.288   9.433  0.0900  0.7506  0.4384
  330TMC3    C4 5006   4.202   3.466   9.509 -0.6623  0.3035  0.6096
  330TMC3    C5 5007   4.212   3.337   9.549  0.1369 -0.0748 -0.3242
  330TMC3    C6 5008   4.130   3.239   9.510 -0.3432  0.5405  0.3213
  330TMC3     C 5009   4.096   3.646   9.383  0.6964  0.7547  0.5141
  330TMC3     O 5010   4.202   3.709   9.378 -0.2739  0.0651 -0.2755
  330TMC3     H 5011   3.919   3.443   9.342 -0.4748 -1.1674 -1.6126
  330TMC3    H1 5012   4.282   3.533   9.539 -0.0127  1.3406 -3.5130
  330TMC3    H2 5013   4.130   3.133   9.533  1.5227  0.1640 -1.5002
  330TMC3    C7 5014   4.309   3.308   9.660 -0.0089  0.3603 -0.1137
  330TMC3    C8 5015   3.920   3.202   9.382 -0.7621  0.2661  0.4890
  330TMC3    O1 5016   4.405   3.378   9.672  0.0603 -0.6543 -0.7207
  330TMC3    O2 5017   3.876   3.223   9.271 -0.7925 -0.3197 -0.2161
  331MPD2     C 5018   2.673   3.346  12.520  0.2329 -0.5123  0.0567
  331MPD2    C1 5019   2.734   3.364  12.400  0.8401  0.4217  0.3635
  331MPD2    C2 5020   2.803   3.265  12.337 -0.1772  0.0448  0.2434
  331MPD2    C3 5021   2.824   3.144  12.398 -0.2139  0.1643 -0.3586
  331MPD2    C4 5022   2.783   3.129  12.526  1.3073 -0.4723 -0.1088
  331MPD2    C5 5023   2.708   3.230  12.585 -0.1818 -0.3213 -0.3197
  331MPD2     H 5024   2.838   3.277  12.235 -0.0085 -1.0551  0.1675
  331MPD2    H1 5025   2.814   3.041  12.582 -1.9360 -0.7946  1.1973
  331MPD2    H2 5026   2.609   3.414  12.575 -1.1232 -2.4537  0.9049
  331MPD2    H3 5027   2.653   3.204  12.674 -1.0967  0.0900 -0.7605
  331MPD2     N 5028   2.871   3.036  12.319 -0.6911  0.7537 -0.6417
  331MPD2    H5 5029   2.872   3.048  12.219 -2.1757 -0.2109 -0.7698
  331MPD2    N1 5030   2.717   3.485  12.323  0.2559 -0.5926 -0.1171
  331MPD2    H7 5031   2.775   3.496  12.241  1.1611 -1.5540  0.3887
  332TMC3    C1 5032   2.930   2.823  12.240  0.3561 -0.0874 -0.2796
  332TMC3    C2 5033   2.883   2.861  12.120  0.2324  0.5386  0.2482
  332TMC3    C3 5034   2.893   2.766  12.021 -0.7132 -0.0252 -0.0851
  332TMC3    C4 5035   3.008   2.714  12.260 -0.1205  0.4604  0.0033
  332TMC3    C5 5036   3.016   2.618  12.157  0.3269  0.6541  0.2135
  332TMC3    C6 5037   2.963   2.644  12.036  0.4246 -0.1958  0.0094
  332TMC3     C 5038   2.906   2.909  12.358 -0.3938 -0.1478  0.4630
  332TMC3     O 5039   2.921   2.858  12.472  0.1952  0.1693 -0.5622
  332TMC3     H 5040   2.821   2.949  12.106  0.5491  0.6579 -0.4399
  332TMC3    H1 5041   3.025   2.688  12.364  0.8705 -0.1834 -0.3157
  332TMC3    H2 5042   2.986   2.576  11.954  1.9139  1.4870 -0.9712
  332TMC3    C7 5043   3.037   2.479  12.203 -0.4599 -0.0834  0.1745
  332TMC3    C8 5044   2.873   2.807  11.883  0.1008 -0.9948  0.2601
  332TMC3    O1 5045   2.950   2.403  12.159  0.0258 -0.2411  0.0349
  332TMC3    O2 5046   2.855   2.925  11.865  0.0001 -0.5969 -0.1116
  333MPD2     C 5047   2.540   2.532  11.076  0.2450 -0.3771  0.1179
  333MPD2    C1 5048   2.630   2.439  11.033  0.1250 -0.1534  0.2411
  333MPD2    C2 5049   2.687   2.349  11.122  0.4790 -0.3498 -0.2742
  333MPD2    C3 5050   2.654   2.361  11.260  0.4267 -0.1174  0.5981
  333MPD2    C4 5051   2.570   2.456  11.301  0.2493 -0.2545  0.0786
  333MPD2    C5 5052   2.516   2.540  11.212  0.2897  0.6060  0.0926
  333MPD2     H 5053   2.744   2.269  11.075  1.8676 -0.5978  1.8067
  333MPD2    H1 5054   2.551   2.466  11.407  0.8262  1.2824  0.0501
  333MPD2    H2 5055   2.497   2.600  11.003  0.0714 -0.5943  0.0187
  333MPD2    H3 5056   2.447   2.617  11.243 -2.3708 -1.8340  0.1870
  333MPD2     N 5057   2.720   2.280  11.351 -0.1479  0.4266  0.3038
  333MPD2    H5 5058   2.680   2.283  11.444  2.2319 -1.6190  1.3836
  333MPD2    N1 5059   2.665   2.432  10.899 -0.2212  0.0457 -0.2492
  333MPD2    H7 5060   2.750   2.381  10.879  0.0355  0.7491 -0.9581
  334TMC3    C1 5061   2.675   2.467  10.673 -0.5258 -1.1062 -0.0655
  334TMC3    C2 5062   2.775   2.373  10.675  0.0840  0.5436  0.3268
  334TMC3    C3 5063   2.877   2.380  10.589  0.1976  0.4631  0.1440
  334TMC3    C4 5064   2.678   2.567  10.576 -0.6971 -0.1740  0.1087
  334TMC3    C5 5065   2.780   2.573  10.487 -0.7300 -0.9336 -0.1846
  334TMC3    C6 5066   2.882   2.474  10.492  0.3348  0.5436  0.4321
  334TMC3     C 5067   2.603   2.494  10.795 -0.0299 -0.2915  0.3399
  334TMC3     O 5068   2.509   2.571  10.786  0.0456  0.0199  0.0312
  334TMC3     H 5069   2.760   2.291  10.744 -1.4849  0.1699 -0.4591
  334TMC3    H1 5070   2.606   2.647  10.592 -2.8648 -2.0914 -0.0059
  334TMC3    H2 5071   2.965   2.486  10.423 -0.0584  2.9693  0.4116
  334TMC3    C7 5072   2.830   2.707  10.470 -0.0461  0.5324 -0.2684
  334TMC3    C8 5073   2.993   2.299  10.603 -0.4412  0.3729  0.0286
  334TMC3    O1 5074   2.949   2.724  10.484 -0.1791  0.1942 -0.1217
  334TMC3    O2 5075   2.978   2.180  10.624 -0.3054 -0.1223 -0.3944
  335TMC3    C1 5076   3.241   4.466  17.241  0.2425 -0.4292 -0.1905
  335TMC3    C2 5077   3.161   4.462  17.134  0.5712 -0.1065 -0.4485
  335TMC3    C3 5078   3.213   4.470  17.003 -0.0819 -0.0165  0.2698
  335TMC3    C4 5079   3.377   4.488  17.234  0.0230 -0.0246 -0.4672
  335TMC3    C5 5080   3.431   4.491  17.103 -0.7482 -0.6035  0.1830
  335TMC3    C6 5081   3.349   4.488  16.991  0.4247  0.0948 -0.1827
  335TMC3     C 5082   3.176   4.428  17.363 -0.4423  0.0889  0.0177
  335TMC3     O 5083   3.055   4.410  17.365 -0.3847 -0.2635 -0.0101
  335TMC3     H 5084   3.058   4.429  17.144 -0.0660  1.6814 -1.2815
  335TMC3    H1 5085   3.448   4.496  17.316  0.4646 -0.8266 -0.7824
  335TMC3    H2 5086   3.392   4.495  16.891  1.4494 -1.0054  0.1849
  335TMC3    C7 5087   3.578   4.513  17.084 -0.1379 -0.2348  0.8579
  335TMC3    C8 5088   3.155   4.395  16.897 -0.8377  0.8010  0.1903
  335TMC3    O1 5089   3.612   4.491  16.967 -0.4681  0.6564  0.2479
  335TMC3    O2 5090   3.216   4.394  16.791  0.1966  0.6713 -0.0872
  336MPD2     C 5091   2.539   2.423  16.122 -0.3984 -0.1915  0.5942
  336MPD2    C1 5092   2.439   2.368  16.045  0.2871 -0.4401  0.2593
  336MPD2    C2 5093   2.416   2.229  16.040 -0.2197  0.5222  0.6621
  336MPD2    C3 5094   2.486   2.144  16.116 -0.5273  0.1415  0.8533
  336MPD2    C4 5095   2.588   2.199  16.190 -0.1888 -0.5256  0.6448
  336MPD2    C5 5096   2.608   2.335  16.197 -0.4671 -0.3411 -0.2447
  336MPD2     H 5097   2.343   2.187  15.972  2.2689 -0.4311 -1.3952
  336MPD2    H1 5098   2.653   2.134  16.247 -0.5341 -2.5587 -1.2889
  336MPD2    H2 5099   2.568   2.527  16.126  2.7282 -0.9358 -2.6482
  336MPD2    H3 5100   2.678   2.378  16.267  1.0825 -2.1106 -0.7135
  336MPD2     N 5101   2.477   2.004  16.102 -0.2233 -0.0210 -0.3493
  336MPD2    H5 5102   2.548   1.950  16.152 -1.5342 -1.5642 -0.1613
  336MPD2    N1 5103   2.352   2.446  15.968 -0.4938  0.9892 -0.1094
  336MPD2    H7 5104   2.275   2.400  15.921 -1.4246  0.7413  1.6695
  337TMC3    C1 5105   2.251   2.628  15.870  0.7696  0.8879 -0.1749
  337TMC3    C2 5106   2.128   2.564  15.855 -0.3418  0.6159  0.6805
  337TMC3    C3 5107   2.034   2.634  15.785 -0.0730 -0.0973  0.1388
  337TMC3    C4 5108   2.285   2.739  15.797 -0.5328 -0.2293 -0.0413
  337TMC3    C5 5109   2.185   2.811  15.731  0.0646  0.0661 -0.0626
  337TMC3    C6 5110   2.060   2.754  15.725  0.6658 -0.1970 -1.0375
  337TMC3     C 5111   2.357   2.582  15.943 -0.6867  0.1700  0.1014
  337TMC3     O 5112   2.453   2.657  15.966 -0.8418  0.7506  0.2864
  337TMC3     H 5113   2.093   2.468  15.893 -2.9798  1.3378  0.0536
  337TMC3    H1 5114   2.388   2.770  15.787 -0.3696 -0.7082  0.1622
  337TMC3    H2 5115   1.990   2.802  15.658 -3.1382 -3.0560  0.8616
  337TMC3    C7 5116   2.235   2.914  15.644  1.1491 -0.2963 -0.1607
  337TMC3    C8 5117   1.913   2.568  15.748  0.2569 -0.5571 -0.8583
  337TMC3    O1 5118   2.357   2.935  15.638  0.3756 -0.0946  0.4950
  337TMC3    O2 5119   1.858   2.492  15.824  0.2891  0.1909 -0.3478
  338MPD2     C 5120   2.714   2.110   1.025 -0.0632 -0.2225 -0.4038
  338MPD2    C1 5121   2.642   2.070   0.917 -0.3545 -0.5283 -0.4617
  338MPD2    C2 5122   2.505   2.087   0.919 -0.1439 -0.6361 -0.1645
  338MPD2    C3 5123   2.432   2.136   1.023 -0.1062 -0.8946 -0.0526
  338MPD2    C4 5124   2.505   2.200   1.122 -1.1514 -0.4067  0.2322
  338MPD2    C5 5125   2.644   2.173   1.121  0.4950 -0.0738  0.5924
  338MPD2     H 5126   2.453   2.038   0.837  0.1736 -0.4740 -0.4615
  338MPD2    H1 5127   2.464   2.246   1.210 -1.8015 -0.2379 -0.1630
  338MPD2    H2 5128   2.818   2.088   1.045  0.7456  2.3091 -1.8552
  338MPD2    H3 5129   2.701   2.189   1.212  2.3345 -3.1124 -0.0171
  338MPD2     N 5130   2.295   2.128   1.012 -0.3709  0.4359  0.4507
  338MPD2    H5 5131   2.260   2.068   0.937  1.4509  0.7749 -0.6646
  338MPD2    N1 5132   2.690   2.015   0.796 -0.1848 -0.3040 -0.6118
  338MPD2    H7 5133   2.626   1.979   0.725  3.2793 -0.1385 -3.8349
  339TMC3    C1 5134   2.082   2.192   1.055 -0.5465 -0.4851  0.4738
  339TMC3    C2 5135   1.974   2.145   1.120  0.0910  0.1689 -0.4318
  339TMC3    C3 5136   1.859   2.147   1.051  0.0758  0.8008  0.0144
  339TMC3    C4 5137   2.079   2.234   0.925  0.1674 -0.3073  0.1156
  339TMC3    C5 5138   1.963   2.230   0.862 -0.1604  0.3101 -0.0807
  339TMC3    C6 5139   1.846   2.192   0.923  0.5206 -0.4827 -0.1436
  339TMC3     C 5140   2.208   2.162   1.111  0.2699 -0.1674 -0.7664
  339TMC3     O 5141   2.235   2.202   1.222  0.4463  0.5288  0.4636
  339TMC3     H 5142   1.974   2.105   1.221 -2.3585 -0.0270 -0.4955
  339TMC3    H1 5143   2.161   2.277   0.868  1.3839  0.1939  2.2634
  339TMC3    H2 5144   1.749   2.193   0.874  0.1336  3.5721  0.7072
  339TMC3    C7 5145   1.960   2.274   0.721  0.4853  0.6913 -0.1902
  339TMC3    C8 5146   1.743   2.134   1.136 -0.5668  0.2226 -0.3909
  339TMC3    O1 5147   2.025   2.375   0.693 -0.2709  0.2561  0.2766
  339TMC3    O2 5148   1.641   2.198   1.106  0.1739 -0.1525 -0.1719
  340MPD2     C 5149   1.391   3.596   9.079  0.2542  0.6846  0.4048
  340MPD2    C1 5150   1.517   3.608   9.139 -0.4617  0.4043 -0.1143
  340MPD2    C2 5151   1.546   3.707   9.235 -0.2175 -0.5950  0.3092
  340MPD2    C3 5152   1.455   3.808   9.251  0.1629 -0.0050  0.3558
  340MPD2    C4 5153   1.335   3.804   9.184 -0.0078 -0.5333  0.5691
  340MPD2    C5 5154   1.301   3.702   9.101 -1.1735  0.3461  0.5312
  340MPD2     H 5155   1.639   3.717   9.289 -0.8613 -2.0229  1.6912
  340MPD2    H1 5156   1.255   3.872   9.211  0.4750  0.6243 -0.8950
  340MPD2    H2 5157   1.368   3.519   9.005  1.3947  0.1074  0.6625
  340MPD2    H3 5158   1.206   3.691   9.050 -1.5103 -4.3966  2.2010
  340MPD2     N 5159   1.476   3.910   9.351  0.0972  0.3294 -0.1314
  340MPD2    H5 5160   1.414   3.990   9.345 -1.5319 -0.8306  1.5600
  340MPD2    N1 5161   1.617   3.510   9.119 -0.1880  0.2639  0.3481
  340MPD2    H7 5162   1.590   3.425   9.071  0.7317 -0.2838  0.7939
  341TMC3    C1 5163   1.806   3.382   9.174 -0.9102 -0.5905 -0.4480
  341TMC3    C2 5164   1.716   3.277   9.183  0.1408  0.0709  0.2912
  341TMC3    C3 5165   1.771   3.156   9.173  0.6877 -0.0847  0.4533
  341TMC3    C4 5166   1.936   3.371   9.165 -0.4584  0.0952  0.4242
  341TMC3    C5 5167   1.988   3.247   9.162 -0.7684 -0.2141 -0.8070
  341TMC3    C6 5168   1.907   3.140   9.154 -0.2083  0.3406  0.6203
  341TMC3     C 5169   1.745   3.514   9.162 -0.2029  0.5339 -0.5163
  341TMC3     O 5170   1.818   3.608   9.197 -0.1192 -0.8348  0.0296
  341TMC3     H 5171   1.609   3.289   9.193  0.0856 -0.6681  0.5681
  341TMC3    H1 5172   1.996   3.462   9.159 -2.7538  1.5254 -0.7846
  341TMC3    H2 5173   1.959   3.045   9.158 -1.0177 -0.1918 -1.6477
  341TMC3    C7 5174   2.124   3.235   9.113 -0.2849  0.3341 -0.7048
  341TMC3    C8 5175   1.691   3.044   9.198  0.1529 -0.4300 -0.1047
  341TMC3    O1 5176   2.201   3.320   9.144  0.0023 -0.7651 -0.0948
  341TMC3    O2 5177   1.592   3.052   9.272 -0.5647  1.1396 -0.2452
  342MPD2     C 5178   0.787   2.678  17.623 -0.2106  0.0057  0.9596
  342MPD2    C1 5179   0.823   2.687  17.490  0.6694  0.1165 -0.7139
  342MPD2    C2 5180   0.877   2.808  17.436 -0.0899 -0.1729  0.0424
  342MPD2    C3 5181   0.895   2.915  17.518  0.8661 -0.0670  0.6031
  342MPD2    C4 5182   0.855   2.903  17.643  0.1704 -0.1052  0.1181
  342MPD2    C5 5183   0.800   2.787  17.693  0.0236 -0.0218 -0.0167
  342MPD2     H 5184   0.899   2.812  17.330 -0.5782  2.7713  0.0575
  342MPD2    H1 5185   0.856   2.989  17.709  0.5369  0.6770 -0.9130
  342MPD2    H2 5186   0.737   2.593  17.667  1.8776 -1.5766  0.2619
  342MPD2    H3 5187   0.768   2.779   0.041 -0.2404  1.8596  0.0442
  342MPD2     N 5188   0.949   3.043  17.485  0.3538  0.2951  0.5426
  342MPD2    H5 5189   0.965   3.112  17.558 -0.2110  0.9361  0.0624
  342MPD2    N1 5190   0.827   2.580  17.393  0.3099  0.0838 -0.0655
  342MPD2    H7 5191   0.862   2.604  17.300  2.2133  1.8968  1.1255
  343TMC3    C1 5192   0.809   2.357  17.314  0.7799  0.2523  0.0126
  343TMC3    C2 5193   0.887   2.399  17.203 -0.4653 -0.5712 -0.8012
  343TMC3    C3 5194   0.901   2.318  17.093  0.2744 -0.7387 -0.0569
  343TMC3    C4 5195   0.766   2.227  17.320  0.0560  0.1698 -0.4499
  343TMC3    C5 5196   0.773   2.157  17.198  0.6647  0.0557 -0.1592
  343TMC3    C6 5197   0.836   2.197  17.083 -0.4933 -0.0311  0.0722
  343TMC3     C 5198   0.793   2.446  17.425 -0.4012  0.1540  0.3530
  343TMC3     O 5199   0.746   2.397  17.525 -0.7535  0.3204  0.0663
  343TMC3     H 5200   0.938   2.495  17.201  0.8264 -1.2521 -0.1959
  343TMC3    H1 5201   0.709   2.186  17.402  0.3752  0.4645 -0.0818
  343TMC3    H2 5202   0.834   2.134  16.994 -1.5329  0.8471 -0.5357
  343TMC3    C7 5203   0.725   2.019  17.199  0.2650 -0.3475 -0.4458
  343TMC3    C8 5204   1.011   2.356  17.001 -0.2036 -0.3485  0.6172
  343TMC3    O1 5205   0.655   1.982  17.110  0.0883 -0.0266 -0.3666
  343TMC3    O2 5206   1.045   2.472  17.005  0.1907  0.3048 -0.1600
  344MPD2     C 5207   0.888   1.987  10.275  0.4698  0.8097 -0.2305
  344MPD2    C1 5208   0.951   1.933  10.383  0.7605  0.0883 -0.0992
  344MPD2    C2 5209   1.083   1.972  10.401 -0.3412  0.0499 -0.2068
  344MPD2    C3 5210   1.141   2.064  10.316 -0.2660 -0.7422 -0.0067
  344MPD2    C4 5211   1.076   2.114  10.209  0.0769  0.3626 -0.1480
  344MPD2    C5 5212   0.946   2.080  10.192  0.5123  0.0296  0.0596
  344MPD2     H 5213   1.139   1.932  10.484  0.3418 -0.8408 -1.0940
  344MPD2    H1 5214   1.127   2.182  10.142  0.3759  3.1915  2.9139
  344MPD2    H2 5215   0.786   1.957  10.253  0.9246 -1.4413  0.7300
  344MPD2    H3 5216   0.898   2.106  10.098 -0.5731 -1.3655  0.2363
  344MPD2     N 5217   1.268   2.123  10.337 -0.3802 -0.3611  0.4277
  344MPD2    H5 5218   1.289   2.199  10.273 -0.7822  0.6267  1.4653
  344MPD2    N1 5219   0.897   1.818  10.462 -0.4613  0.1080  0.7448
  344MPD2    H7 5220   0.954   1.792  10.542  0.7474  0.3645 -0.0427
  345TMC3    C1 5221   1.463   2.193  10.438 -1.1834  0.3647 -0.1958
  345TMC3    C2 5222   1.512   2.212  10.561 -0.8513 -0.5751 -0.1339
  345TMC3    C3 5223   1.626   2.283  10.579 -0.3076 -0.2650  0.0023
  345TMC3    C4 5224   1.532   2.248  10.326  0.1629  0.2137  0.3101
  345TMC3    C5 5225   1.652   2.314  10.348 -0.4250 -0.2112 -0.6165
  345TMC3    C6 5226   1.689   2.343  10.472  0.2759  0.0502  0.3296
  345TMC3     C 5227   1.355   2.094  10.433  0.4577  0.7993  0.4948
  345TMC3     O 5228   1.339   2.003  10.517  0.0034  0.0703 -0.3766
  345TMC3     H 5229   1.461   2.174  10.649 -2.1677  2.7535  0.5414
  345TMC3    H1 5230   1.490   2.219  10.230  3.3608  0.3378 -1.1014
  345TMC3    H2 5231   1.790   2.376  10.494  0.5680 -0.5308 -0.1486
  345TMC3    C7 5232   1.701   2.402  10.245  0.7574  0.2698 -0.0688
  345TMC3    C8 5233   1.651   2.348  10.702  0.3112 -0.0482  0.1289
  345TMC3    O1 5234   1.772   2.497  10.286 -0.3929  0.1597  0.1943
  345TMC3    O2 5235   1.743   2.434  10.712 -0.2830  0.1688 -0.7415
  346MPD2     C 5236   1.494   3.641  13.655 -0.7183  0.0442  0.3843
  346MPD2    C1 5237   1.608   3.603  13.729  0.1459 -0.7080 -0.8756
  346MPD2    C2 5238   1.633   3.672  13.845 -0.3065 -0.8297  0.3497
  346MPD2    C3 5239   1.557   3.777  13.880  0.7644  0.6668  0.0421
  346MPD2    C4 5240   1.445   3.813  13.810  0.5291  0.0026 -0.1281
  346MPD2    C5 5241   1.414   3.744  13.698  0.6084  0.3349 -0.7971
  346MPD2     H 5242   1.720   3.645  13.904  1.2066  1.0171 -1.0212
  346MPD2    H1 5243   1.393   3.905  13.831 -0.7473 -0.2891 -2.0059
  346MPD2    H2 5244   1.464   3.585  13.568 -2.1444  1.5692 -0.1011
  346MPD2    H3 5245   1.327   3.778  13.643 -1.3821 -0.0442  2.1002
  346MPD2     N 5246   1.609   3.852  13.983 -0.1226 -0.0484  0.0763
  346MPD2    H5 5247   1.698   3.820  14.021 -0.3622 -0.9855 -0.1639
  346MPD2    N1 5248   1.689   3.503  13.679  0.1973  0.2221 -0.2616
  346MPD2    H7 5249   1.664   3.476  13.584 -0.4269  2.3212 -0.6984
  347TMC3    C1 5250   1.643   4.032  14.124 -0.4235  0.4653 -0.3499
  347TMC3    C2 5251   1.780   4.016  14.113 -0.0575  0.6760  0.1106
  347TMC3    C3 5252   1.851   4.060  14.213 -0.3612  0.8515  0.2912
  347TMC3    C4 5253   1.581   4.077  14.235  0.6027 -0.1130  0.2038
  347TMC3    C5 5254   1.661   4.123  14.338 -0.3138  0.0268  0.2894
  347TMC3    C6 5255   1.798   4.111  14.329  0.4141 -0.0865 -0.4556
  347TMC3     C 5256   1.563   3.974  14.021  0.0972  0.6011  0.2303
  347TMC3     O 5257   1.455   4.031  13.998  0.8896  0.0560 -0.1372
  347TMC3     H 5258   1.829   3.962  14.032 -0.7235 -1.7532  1.3030
  347TMC3    H1 5259   1.473   4.085  14.239  0.7912  2.7644 -0.7931
  347TMC3    H2 5260   1.867   4.136  14.409  1.4374  0.6506 -1.5592
  347TMC3    C7 5261   1.596   4.137  14.475 -0.1583 -0.1836  0.3792
  347TMC3    C8 5262   1.990   4.017  14.215  0.0800  0.5730  0.6443
  347TMC3    O1 5263   1.474   4.130  14.480  0.3356  0.2152  0.5099
  347TMC3    O2 5264   2.028   3.957  14.114  0.6844  0.3876  0.1333
  348MPD2     C 5265   4.482   2.620  11.937 -0.7679  0.4280 -0.0458
  348MPD2    C1 5266   4.543   2.746  11.938  0.1258  0.7604 -0.0506
  348MPD2    C2 5267   4.488   2.842  11.860 -0.9715  0.3000  0.1740
  348MPD2    C3 5268   4.380   2.820  11.771 -0.4760 -0.5539  0.2711
  348MPD2    C4 5269   4.322   2.697  11.775 -0.0074  0.4458 -0.1005
  348MPD2    C5 5270   4.377   2.595  11.848 -0.3833 -0.2182 -0.3528
  348MPD2     H 5271   4.533   2.940  11.856 -1.0565  0.2768 -1.4284
  348MPD2    H1 5272   4.240   2.671  11.708  1.2078 -2.0853 -0.6012
  348MPD2    H2 5273   4.511   2.531  11.991 -1.5956 -0.3527 -0.8734
  348MPD2    H3 5274   4.316   2.505  11.847  0.2905 -0.6800 -0.4070
  348MPD2     N 5275   4.334   2.928  11.694  0.7177 -0.0082 -0.7045
  348MPD2    H5 5276   4.380   3.018  11.708 -0.1281  0.5570 -1.5355
  348MPD2    N1 5277   4.651   2.784  12.018  0.3180  0.1495  0.3161
  348MPD2    H7 5278   4.696   2.874  12.005 -0.6328  0.7977  1.5043
  349TMC3    C1 5279   0.088   2.757  12.169 -0.6794  0.4401 -0.4773
  349TMC3    C2 5280   0.191   2.675  12.212  0.3074  0.5990  1.2135
  349TMC3    C3 5281   0.303   2.723  12.266 -0.5870  0.1991 -0.3959
  349TMC3    C4 5282   0.105   2.894  12.168 -0.6449 -0.3505 -0.0319
  349TMC3    C5 5283   0.209   2.944  12.241  0.4927  0.0276  0.4271
  349TMC3    C6 5284   0.309   2.861  12.290 -0.4511 -0.3566 -0.4260
  349TMC3     C 5285   4.720   2.697  12.101  0.2895 -0.0663 -0.5951
  349TMC3     O 5286   4.693   2.585  12.141  0.1111  0.3019 -0.6196
  349TMC3     H 5287   0.177   2.569  12.194 -1.0255  0.3491  3.7427
  349TMC3    H1 5288   0.032   2.962  12.125  0.4703 -0.6903 -2.5021
  349TMC3    H2 5289   0.398   2.905  12.334  2.0323 -2.3287 -3.4685
  349TMC3    C7 5290   0.243   3.072  12.188 -0.2803 -0.0513 -0.3722
  349TMC3    C8 5291   0.428   2.646  12.288 -0.1665 -0.2511  0.7360
  349TMC3    O1 5292   0.152   3.135  12.140 -0.2217 -0.2621 -0.2094
  349TMC3    O2 5293   0.521   2.715  12.333  0.2822 -0.2660 -0.6270
  350MPD2     C 5294   3.250   1.911   9.819 -0.6654  0.3287 -0.2978
  350MPD2    C1 5295   3.225   1.807   9.904  0.1240 -0.2372 -0.2033
  350MPD2    C2 5296   3.325   1.765   9.986 -0.4329  0.0214 -0.1180
  350MPD2    C3 5297   3.447   1.825   9.987 -0.2810  0.1887  0.0911
  350MPD2    C4 5298   3.473   1.927   9.901 -0.2513  0.4279  0.0770
  350MPD2    C5 5299   3.375   1.973   9.814 -0.5065 -0.7062  0.8573
  350MPD2     H 5300   3.302   1.679  10.047  0.8116 -0.0957  0.1880
  350MPD2    H1 5301   3.569   1.978   9.907  0.5695 -1.0403 -0.4633
  350MPD2    H2 5302   3.182   1.929   9.737 -3.0044  0.1095  1.6203
  350MPD2    H3 5303   3.389   2.047   9.735 -0.3016 -0.5579  1.0325
  350MPD2     N 5304   3.544   1.761  10.074 -0.1031 -0.4608 -0.0556
  350MPD2    H5 5305   3.522   1.688  10.140 -1.7914 -1.4565 -1.7276
  350MPD2    N1 5306   3.102   1.744   9.912  0.4691  0.0413 -0.5137
  350MPD2    H7 5307   3.095   1.677   9.988 -2.7484  1.1413  0.1929
  351TMC3    C1 5308   2.888   1.666   9.855 -0.2523  0.0450  0.3934
  351TMC3    C2 5309   2.918   1.540   9.910  0.2457  0.2974  0.0154
  351TMC3    C3 5310   2.826   1.439   9.891  0.8188 -0.9962  0.0964
  351TMC3    C4 5311   2.764   1.683   9.795 -0.0623 -0.2392 -0.5467
  351TMC3    C5 5312   2.671   1.580   9.801  0.0651 -0.4788 -0.0897
  351TMC3    C6 5313   2.704   1.458   9.844 -0.1357  0.3853  0.5799
  351TMC3     C 5314   2.995   1.756   9.828  0.1366  0.0541  0.9966
  351TMC3     O 5315   2.974   1.841   9.746 -0.2649  0.4689  0.4406
  351TMC3     H 5316   3.015   1.511   9.949  0.9016 -0.5680 -2.2623
  351TMC3    H1 5317   2.727   1.772   9.747 -0.9201 -0.3077 -0.0193
  351TMC3    H2 5318   2.643   1.372   9.819  2.6096 -0.8696 -1.7662
  351TMC3    C7 5319   2.533   1.611   9.757  0.4210 -0.4019  0.1996
  351TMC3    C8 5320   2.864   1.299   9.895 -0.0868 -0.3988 -0.1907
  351TMC3    O1 5321   2.519   1.721   9.709 -0.0221 -0.3103 -0.0587
  351TMC3    O2 5322   2.815   1.216   9.820 -0.1901 -0.4576 -0.0546
  352MPD2     C 5323   3.394   3.789   1.007  0.4941  0.1128 -0.1203
  352MPD2    C1 5324   3.292   3.716   0.947  0.4203  0.2843  0.4302
  352MPD2    C2 5325   3.310   3.589   0.893  0.0536  0.1799  0.5181
  352MPD2    C3 5326   3.434   3.538   0.890  0.3084  0.2363  0.0972
  352MPD2    C4 5327   3.542   3.617   0.929  0.1476 -0.9446 -0.0560
  352MPD2    C5 5328   3.516   3.733   0.996 -0.6420  0.2943  0.6531
  352MPD2     H 5329   3.229   3.529   0.855  0.6688  0.5999 -1.4214
  352MPD2    H1 5330   3.644   3.578   0.925  0.7848  0.3712  3.2941
  352MPD2    H2 5331   3.386   3.883   1.061 -0.0154  0.4917 -0.8500
  352MPD2    H3 5332   3.600   3.790   1.034 -1.9010  2.1235  0.6390
  352MPD2     N 5333   3.450   3.407   0.849 -0.0657 -0.7019 -0.2838
  352MPD2    H5 5334   3.360   3.362   0.837 -0.2469 -0.9281  1.9725
  352MPD2    N1 5335   3.160   3.783   0.940  0.4439 -0.8902  0.3036
  352MPD2    H7 5336   3.144   3.861   1.002 -0.7513 -1.9192  1.2951
  353TMC3    C1 5337   3.546   3.190   0.814  0.5265  0.6973 -0.3198
  353TMC3    C2 5338   3.644   3.101   0.845  0.1932 -0.2370  0.2673
  353TMC3    C3 5339   3.614   2.968   0.826 -0.2347 -0.0462 -0.1812
  353TMC3    C4 5340   3.424   3.147   0.763 -0.0468 -0.1710 -0.0671
  353TMC3    C5 5341   3.398   3.015   0.757 -0.6188 -0.2280  0.3272
  353TMC3    C6 5342   3.495   2.920   0.783  0.6247  0.0523  0.1555
  353TMC3     C 5343   3.565   3.335   0.838  0.3273 -0.0943 -0.5921
  353TMC3     O 5344   3.678   3.372   0.848  0.4264  0.3077 -0.0443
  353TMC3     H 5345   3.739   3.128   0.890 -0.0615  1.9094 -0.4752
  353TMC3    H1 5346   3.345   3.216   0.735  0.4198  0.4692  0.1995
  353TMC3    H2 5347   3.471   2.816   0.765  1.0044 -0.1708  0.9319
  353TMC3    C7 5348   3.268   2.969   0.700 -0.1812  0.0048  0.4634
  353TMC3    C8 5349   3.694   2.871   0.911  0.7051  0.4082  0.1447
  353TMC3    O1 5350   3.248   2.848   0.696 -0.1035 -0.7128 -0.2394
  353TMC3    O2 5351   3.766   2.913   1.004  0.0018 -0.6516  0.4480
  354TMC3    C1 5352   4.474   4.248  13.846  0.0652  0.0565  0.2398
  354TMC3    C2 5353   4.568   4.346  13.864  0.0474  0.7117 -0.4622
  354TMC3    C3 5354   4.646   4.379  13.754  0.3055 -0.4056 -0.7396
  354TMC3    C4 5355   4.443   4.197  13.724  0.1398  0.3963 -0.0496
  354TMC3    C5 5356   4.527   4.226  13.619  0.0192 -0.5274 -0.3886
  354TMC3    C6 5357   4.635   4.311  13.636 -0.1922 -0.1360  0.5015
  354TMC3     C 5358   4.392   4.198  13.960 -0.1236 -1.3080 -0.0680
  354TMC3     O 5359   4.286   4.147  13.934  0.1084 -0.1817 -0.2099
  354TMC3     H 5360   4.567   4.406  13.954 -1.3416  0.3559 -0.2407
  354TMC3    H1 5361   4.369   4.118  13.715 -1.0865  1.7944 -2.2748
  354TMC3    H2 5362   4.717   4.314  13.565  0.0691  1.8343  0.8916
  354TMC3    C7 5363   4.462   4.233  13.491  0.4893 -0.1318  0.2236
  354TMC3    C8 5364   4.653   4.525  13.741 -0.3693  0.8260 -0.0535
  354TMC3    O1 5365   4.341   4.264  13.487 -0.2454 -0.0094 -0.1713
  354TMC3    O2 5366   4.625   4.581  13.848 -0.1113  0.5508 -0.0737
  355MPD2     C 5367   4.338   0.617  11.305  0.4676  0.2288  0.2232
  355MPD2    C1 5368   4.437   0.556  11.239  0.2856 -0.4764  0.7110
  355MPD2    C2 5369   4.531   0.490  11.321  0.0115  0.1346  0.1961
  355MPD2    C3 5370   4.530   0.485  11.456 -0.0390 -0.1661 -0.6465
  355MPD2    C4 5371   4.424   0.541  11.527 -0.4097 -0.2376 -0.2430
  355MPD2    C5 5372   4.328   0.598  11.448 -0.9810 -0.2803  0.3846
  355MPD2     H 5373   4.614   0.444  11.268  0.5150  1.7022 -0.3547
  355MPD2    H1 5374   4.424   0.545  11.635  0.3297  1.6104 -0.2971
  355MPD2    H2 5375   4.250   0.660  11.256  0.7951  0.4668 -0.1567
  355MPD2    H3 5376   4.247   0.638  11.508  0.0567  1.0099  0.9300
  355MPD2     N 5377   4.645   0.428  11.518  0.7233  0.0048  0.0716
  355MPD2    H5 5378   4.712   0.386  11.454  0.4251 -1.4243  0.7131
  355MPD2    N1 5379   4.442   0.573  11.100  0.4025 -0.3770  0.2562
  355MPD2    H7 5380   4.367   0.614  11.047  0.8917 -0.8178 -0.7851
  356TMC3    C1 5381   0.080   0.437  11.677  0.5883 -0.3789 -0.9049
  356TMC3    C2 5382   0.165   0.459  11.569 -0.3961 -0.4790  0.4352
  356TMC3    C3 5383   0.254   0.558  11.586 -0.0321  0.3553 -0.3259
  356TMC3    C4 5384   0.102   0.494  11.802  0.1918 -0.7304  0.6552
  356TMC3    C5 5385   0.205   0.589  11.815 -0.1340  0.4388  0.4527
  356TMC3    C6 5386   0.278   0.620  11.703  0.1361 -0.0947 -0.4943
  356TMC3     C 5387   4.676   0.440  11.655 -0.3785  0.8021  0.4192
  356TMC3     O 5388   4.619   0.501  11.743 -0.3441  0.4764  0.4502
  356TMC3     H 5389   0.133   0.437  11.468  1.5587  1.1586 -0.5390
  356TMC3    H1 5390   0.040   0.475  11.889  1.6793  0.3147  1.9409
  356TMC3    H2 5391   0.364   0.685  11.718  0.4496 -0.5682 -0.2340
  356TMC3    C7 5392   0.227   0.654  11.941  0.0043  0.2916  0.3776
  356TMC3    C8 5393   0.334   0.592  11.467 -0.2082 -0.0258  0.1123
  356TMC3    O1 5394   0.207   0.591  12.041 -0.1643  0.3536  0.3864
  356TMC3    O2 5395   0.350   0.498  11.387  0.7010 -0.2525 -0.4972
  357MPD2     C 5396   4.273   0.601   0.725  0.6681 -0.3320 -0.1537
  357MPD2    C1 5397   4.364   0.568   0.825 -0.2005  0.4630 -0.4925
  357MPD2    C2 5398   4.320   0.486   0.924 -0.0907  0.3029 -0.0142
  357MPD2    C3 5399   4.187   0.442   0.932  0.4386 -0.3530  0.6136
  357MPD2    C4 5400   4.109   0.461   0.824  0.6880 -0.1445 -0.0193
  357MPD2    C5 5401   4.147   0.551   0.729  0.1251 -0.4726  0.5341
  357MPD2     H 5402   4.383   0.467   1.009 -1.4600  1.8677  1.3618
  357MPD2    H1 5403   4.010   0.422   0.806  0.7339 -0.4307  0.3593
  357MPD2    H2 5404   4.290   0.682   0.655  1.1021 -0.8824 -0.6850
  357MPD2    H3 5405   4.072   0.576   0.656  0.9553 -0.3610 -0.2874
  357MPD2     N 5406   4.135   0.361   1.032  0.3894 -0.3010 -0.3581
  357MPD2    H5 5407   4.056   0.303   1.005 -0.7533  0.2333  1.8177
  357MPD2    N1 5408   4.503   0.591   0.817 -1.1232 -0.0190 -0.1631
  357MPD2    H7 5409   4.557   0.539   0.885 -0.3969  1.9443  0.7500
  358TMC3    C1 5410   4.675   0.553   0.680  0.6584  0.4443  0.7609
  358TMC3    C2 5411   4.696   0.541   0.542 -0.0507 -0.1262  0.0447
  358TMC3    C3 5412   0.016   0.427   0.485 -0.1221  1.0055 -0.8045
  358TMC3    C4 5413   4.704   0.446   0.767  0.1134  0.3831 -0.0847
  358TMC3    C5 5414   0.000   0.335   0.699  1.4653  0.5244  0.2385
  358TMC3    C6 5415   0.038   0.323   0.572 -0.1287  0.4323  0.0550
  358TMC3     C 5416   4.572   0.649   0.714  0.3560  0.1513  0.1299
  358TMC3     O 5417   4.538   0.723   0.623 -0.1813  0.0526 -0.0903
  358TMC3     H 5418   4.651   0.611   0.473  2.5487  2.3975  0.9252
  358TMC3    H1 5419   4.670   0.439   0.870  1.1841  2.2712  0.3856
  358TMC3    H2 5420   0.088   0.233   0.539  1.7027  1.3698  0.2953
  358TMC3    C7 5421   0.028   0.226   0.787 -0.2005 -0.3302 -0.0450
  358TMC3    C8 5422   4.726   0.409   0.354  0.7303  0.2349 -0.6099
  358TMC3    O1 5423   0.112   0.255   0.871  0.3285  0.1990  0.3912
  358TMC3    O2 5424   4.725   0.506   0.279  0.0077  0.5074 -0.2819
  359MPD2     C 5425   0.462   4.035  12.900 -0.2898 -0.6189  0.0711
  359MPD2    C1 5426   0.349   4.032  12.815 -0.2423 -0.8718 -0.1011
  359MPD2    C2 5427   0.230   3.982  12.864  0.1255  0.5628  0.2000
  359MPD2    C3 5428   0.224   3.926  12.995  0.1960  0.1817  0.0252
  359MPD2    C4 5429   0.339   3.914  13.075 -0.1571 -0.0424 -0.0630
  359MPD2    C5 5430   0.453   3.971  13.022  0.3217 -0.3195 -0.1830
  359MPD2     H 5431   0.139   3.998  12.807  0.3702  0.4136 -0.2381
  359MPD2    H1 5432   0.335   3.869  13.173  0.4121  1.4516  0.6500
  359MPD2    H2 5433   0.559   4.078  12.875 -0.9297 -1.1138 -3.1382
  359MPD2    H3 5434   0.543   3.968  13.082  0.7404 -0.9603 -0.8554
  359MPD2     N 5435   0.100   3.896  13.063  0.3622  0.5234 -0.6049
  359MPD2    H5 5436   0.099   3.867  13.160  1.2321 -1.0986 -1.0815
  359MPD2    N1 5437   0.349   4.090  12.683  0.1471  0.0687  0.0990
  359MPD2    H7 5438   0.259   4.080  12.638  0.2357 -2.3244  0.4681
  360TMC3    C1 5439   0.436   4.174  12.473  0.1269 -0.4955  0.0828
  360TMC3    C2 5440   0.548   4.200  12.400  0.4537 -0.5798 -0.1129
  360TMC3    C3 5441   0.534   4.179  12.266  0.8343  0.2485 -0.3913
  360TMC3    C4 5442   0.310   4.167  12.422  0.2939  0.7190  0.3739
  360TMC3    C5 5443   0.293   4.174  12.288 -0.1817  0.3293 -0.6386
  360TMC3    C6 5444   0.408   4.176  12.206  0.0370 -0.3657  0.2064
  360TMC3     C 5445   0.456   4.138  12.617  0.2642 -0.1524 -0.7440
  360TMC3     O 5446   0.575   4.136  12.656  0.6098 -0.6057  0.5214
  360TMC3     H 5447   0.650   4.198  12.438 -0.6341 -0.5908  2.8365
  360TMC3    H1 5448   0.222   4.153  12.483  0.3557 -0.0535  0.2879
  360TMC3    H2 5449   0.386   4.184  12.100 -1.0415 -0.8973  0.3954
  360TMC3    C7 5450   0.166   4.124  12.227  0.4998  1.1709 -0.2119
  360TMC3    C8 5451   0.642   4.229  12.188 -0.0180 -0.5965 -0.1031
  360TMC3    O1 5452   0.176   4.080  12.115 -0.1906  0.1116 -0.2071
  360TMC3    O2 5453   0.726   4.297  12.245  0.2192 -0.1554  0.3061
  361MPD2     C 5454   1.957   3.587  16.643  0.0617  0.3187 -0.5068
  361MPD2    C1 5455   1.884   3.473  16.675  0.4076  0.6712  0.0076
  361MPD2    C2 5456   1.946   3.372  16.743 -0.3246  0.4987  0.2144
  361MPD2    C3 5457   2.074   3.380  16.796 -0.5227  0.2695  0.2610
  361MPD2    C4 5458   2.139   3.501  16.776 -0.1919 -0.1929  0.3216
  361MPD2    C5 5459   2.085   3.597  16.694 -0.7982  0.6701  0.2797
  361MPD2     H 5460   1.897   3.275  16.742  3.1716 -1.2174 -2.2120
  361MPD2    H1 5461   2.236   3.523  16.819  1.0700  0.0444 -2.6733
  361MPD2    H2 5462   1.920   3.667  16.581 -0.1499  1.5925  1.2815
  361MPD2    H3 5463   2.140   3.686  16.664 -2.5021  1.7587  0.3603
  361MPD2     N 5464   2.145   3.279  16.872 -0.3411 -0.1957 -0.0888
  361MPD2    H5 5465   2.238   3.307  16.903 -1.2939  4.1869 -1.2246
  361MPD2    N1 5466   1.743   3.461  16.641 -0.5227 -0.2428  0.2540
  361MPD2    H7 5467   1.697   3.375  16.669  0.1253 -1.9923 -3.9772
  362TMC3    C1 5468   1.540   3.508  16.531  0.0329  0.1226  0.3204
  362TMC3    C2 5469   1.478   3.413  16.611  1.0716 -0.3929  0.0317
  362TMC3    C3 5470   1.348   3.385  16.586 -0.0651  0.0063  0.0262
  362TMC3    C4 5471   1.469   3.572  16.430  0.3194 -0.1563 -0.6503
  362TMC3    C5 5472   1.342   3.528  16.407 -0.9155 -0.3046 -0.6657
  362TMC3    C6 5473   1.272   3.440  16.487 -0.0552 -0.1118  0.0643
  362TMC3     C 5474   1.680   3.538  16.545  0.5757 -0.3544  0.4477
  362TMC3     O 5475   1.726   3.629  16.479  0.1623 -0.2496  0.0990
  362TMC3     H 5476   1.537   3.348  16.675  0.5938  0.0773  0.9587
  362TMC3    H1 5477   1.512   3.656  16.376  2.4775  0.2758  1.7463
  362TMC3    H2 5478   1.166   3.423  16.480 -0.1042  1.1857 -2.3229
  362TMC3    C7 5479   1.258   3.592  16.310  0.8119 -0.0660  0.1179
  362TMC3    C8 5480   1.285   3.294  16.676  0.0215 -0.2408 -0.4777
  362TMC3    O1 5481   1.296   3.694  16.257  0.1471  0.4002  0.8191
  362TMC3    O2 5482   1.310   3.170  16.678 -0.1502  0.2485  0.3114
  363TMC3    C1 5483   3.473   0.463   9.585  0.6176  0.8395 -0.4876
  363TMC3    C2 5484   3.564   0.430   9.686  0.4579  0.7444 -0.1394
  363TMC3    C3 5485   3.630   0.534   9.742 -0.5814  0.2074  0.3657
  363TMC3    C4 5486   3.422   0.590   9.579  0.1041  0.2690  0.2321
  363TMC3    C5 5487   3.482   0.690   9.650  0.0015 -0.2474 -0.5239
  363TMC3    C6 5488   3.597   0.667   9.728 -0.4003  0.2339 -0.4616
  363TMC3     C 5489   3.418   0.364   9.491 -0.1220 -0.4765  0.5468
  363TMC3     O 5490   3.310   0.382   9.432  0.3949 -0.3917  0.0873
  363TMC3     H 5491   3.599   0.330   9.709  1.2433  0.5900 -2.0053
  363TMC3    H1 5492   3.337   0.618   9.517  0.4880 -1.2466 -0.9620
  363TMC3    H2 5493   3.663   0.740   9.774 -1.8444  1.0568  0.3061
  363TMC3    C7 5494   3.418   0.818   9.664  0.1173  0.2947 -0.4645
  363TMC3    C8 5495   3.738   0.508   9.827  0.3614  0.6795 -0.2070
  363TMC3    O1 5496   3.316   0.842   9.594 -0.0135 -0.0101  0.1166
  363TMC3    O2 5497   3.754   0.588   9.916 -0.4389 -0.3859 -0.3242
  364MPD2     C 5498   3.296   0.162  10.919  0.5067  0.9477 -0.3633
  364MPD2    C1 5499   3.372   0.236  11.008  0.2073 -0.0049 -0.6123
  364MPD2    C2 5500   3.412   0.184  11.125 -0.6606 -0.2841  0.6887
  364MPD2    C3 5501   3.398   0.046  11.152 -0.1225 -0.0912 -0.1277
  364MPD2    C4 5502   3.324   4.708  11.060 -0.3430 -0.4208 -0.0917
  364MPD2    C5 5503   3.270   0.029  10.948  1.1884  0.1563  0.0575
  364MPD2     H 5504   3.472   0.239  11.197  0.5535 -0.9159  0.1546
  364MPD2    H1 5505   3.286   4.614  11.098 -2.3025  0.7131  0.7504
  364MPD2    H2 5506   3.273   0.194  10.818  2.0039  1.5375 -0.5162
  364MPD2    H3 5507   3.211   4.709  10.879 -0.6711  1.6434  0.3839
  364MPD2     N 5508   3.449   4.718  11.268  0.7548  0.1286 -0.4303
  364MPD2    H5 5509   3.445   4.617  11.263  3.1093 -0.1407  2.6925
  364MPD2    N1 5510   3.411   0.363  10.970 -1.2163  0.2349  1.0839
  364MPD2    H7 5511   3.401   0.398  10.875 -0.1460 -0.1318  0.8347
  365TMC3    C1 5512   3.581   0.533  10.994 -0.1797 -0.0787 -0.6073
  365TMC3    C2 5513   3.631   0.497  10.870 -0.1227 -0.2061 -0.3759
  365TMC3    C3 5514   3.721   0.582  10.814 -0.1880 -0.5684  0.2958
  365TMC3    C4 5515   3.601   0.656  11.044  0.0872 -0.7193  0.8157
  365TMC3    C5 5516   3.679   0.746  10.984  0.2104  0.3431  0.3192
  365TMC3    C6 5517   3.750   0.707  10.873  0.4565  0.4414 -0.0400
  365TMC3     C 5518   3.488   0.444  11.059  0.2955  0.3460 -1.1740
  365TMC3     O 5519   3.488   0.454  11.180 -0.2040 -0.3964  0.4072
  365TMC3     H 5520   3.620   0.394  10.839  1.1959 -0.6155  0.5453
  365TMC3    H1 5521   3.542   0.685  11.130 -4.5241 -4.3229 -1.1293
  365TMC3    H2 5522   3.808   0.781  10.819  0.4970  0.8614  0.5812
  365TMC3    C7 5523   3.723   0.867  11.052  0.3938 -0.0394 -0.8279
  365TMC3    C8 5524   3.750   0.566  10.671 -0.3869  0.1291  0.3221
  365TMC3    O1 5525   3.794   0.945  10.990  0.3851 -0.5078 -0.3353
  365TMC3    O2 5526   3.830   0.644  10.622 -0.0873 -0.1493  0.1961
  366MPD2     C 5527   2.179   1.224  15.041 -0.0879  0.4001  0.0020
  366MPD2    C1 5528   2.255   1.282  15.139 -0.0863  0.0101 -0.0557
  366MPD2    C2 5529   2.331   1.194  15.208  0.2873  0.0627 -0.4001
  366MPD2    C3 5530   2.334   1.061  15.186 -0.1780  0.1521 -0.0891
  366MPD2    C4 5531   2.243   1.004  15.098 -0.3897  0.8769 -0.3781
  366MPD2    C5 5532   2.169   1.090  15.028 -0.4218  0.1915 -0.1000
  366MPD2     H 5533   2.403   1.235  15.277  0.5188 -0.7100 -0.1791
  366MPD2    H1 5534   2.238   0.896  15.085  1.7488  0.5810  1.2354
  366MPD2    H2 5535   2.123   1.283  14.969  1.8584  2.0914 -0.1315
  366MPD2    H3 5536   2.127   1.061  14.932 -0.2543  2.4219 -0.8499
  366MPD2     N 5537   2.443   0.998  15.252 -0.4089  0.1785  0.2961
  366MPD2    H5 5538   2.508   1.055  15.305 -0.3061 -1.5905  2.0755
  366MPD2    N1 5539   2.278   1.422  15.169 -0.1095 -0.9145 -0.3402
  366MPD2    H7 5540   2.350   1.450  15.236 -0.0692  2.0762 -1.6716
  367TMC3    C1 5541   2.258   1.656  15.127  0.0096 -0.5546  0.1211
  367TMC3    C2 5542   2.311   1.680  15.247  0.3672  0.1414  0.1202
  367TMC3    C3 5543   2.338   1.806  15.287 -0.8490 -0.0216 -0.2365
  367TMC3    C4 5544   2.261   1.750  15.029  0.1695 -0.2182 -0.1109
  367TMC3    C5 5545   2.292   1.876  15.067  0.3742  0.0251  0.1955
  367TMC3    C6 5546   2.332   1.907  15.193  0.3409 -0.0022  0.2085
  367TMC3     C 5547   2.217   1.519  15.097  0.3456  0.3232 -0.3472
  367TMC3     O 5548   2.150   1.503  14.995  0.0504  0.1810 -0.1191
  367TMC3     H 5549   2.313   1.604  15.324 -1.1312  0.9744  0.9823
  367TMC3    H1 5550   2.226   1.736  14.928 -0.2484 -1.3057  0.1823
  367TMC3    H2 5551   2.350   2.011  15.219  0.8079 -0.0360  0.0187
  367TMC3    C7 5552   2.250   1.989  14.985 -0.6325 -0.2751  0.2544
  367TMC3    C8 5553   2.428   1.816  15.393 -0.1137 -0.3785  0.8168
  367TMC3    O1 5554   2.206   2.081  15.052  0.1688  0.1298  0.5337
  367TMC3    O2 5555   2.483   1.711  15.422  0.0373  0.3277  0.4268
  368MPD2     C 5556   3.196   3.121  12.522  0.0237  0.3417  0.0235
  368MPD2    C1 5557   3.224   3.254  12.534  0.3897  0.7724  0.2564
  368MPD2    C2 5558   3.354   3.295  12.545  0.0173  0.7447 -0.2911
  368MPD2    C3 5559   3.455   3.208  12.508 -0.2387 -0.0900  0.1212
  368MPD2    C4 5560   3.432   3.077  12.482  0.1357  0.3626  0.0012
  368MPD2    C5 5561   3.304   3.037  12.506 -0.0176 -0.4898  0.0571
  368MPD2     H 5562   3.378   3.389  12.593 -0.4444  0.8076 -0.1801
  368MPD2    H1 5563   3.513   3.008  12.462  0.4247  0.1007  2.0359
  368MPD2    H2 5564   3.096   3.088  12.497  0.4898 -2.9474  2.3738
  368MPD2    H3 5565   3.278   2.932  12.496 -1.6109 -0.1459  0.5777
  368MPD2     N 5566   3.591   3.248  12.499 -0.0281 -0.5792  0.1456
  368MPD2    H5 5567   3.659   3.176  12.521  1.2282  0.7035  0.4585
  368MPD2    N1 5568   3.114   3.345  12.558 -0.4647  0.3825  0.1389
  368MPD2    H7 5569   3.021   3.305  12.567 -0.5003  0.5057  0.3041
  369TMC3    C1 5570   3.004   3.556  12.572  0.6117 -0.0311 -0.2424
  369TMC3    C2 5571   3.008   3.683  12.524 -0.7112 -0.0178 -0.1691
  369TMC3    C3 5572   2.910   3.772  12.561 -0.3519 -0.4092  0.0130
  369TMC3    C4 5573   2.909   3.516  12.661  0.0876 -0.2362 -0.4024
  369TMC3    C5 5574   2.814   3.610  12.697  0.0855 -0.1513 -0.1187
  369TMC3    C6 5575   2.813   3.740  12.651 -0.1928  0.0733 -0.1267
  369TMC3     C 5576   3.123   3.478  12.543  0.4316  0.5305  0.0765
  369TMC3     O 5577   3.220   3.543  12.507 -0.1146 -0.1189 -0.5581
  369TMC3     H 5578   3.089   3.718  12.460  0.1602 -0.7094  0.5543
  369TMC3    H1 5579   2.907   3.413  12.695 -0.3452 -0.6602 -1.6909
  369TMC3    H2 5580   2.748   3.817  12.692 -0.5505 -0.8950  1.1214
  369TMC3    C7 5581   2.713   3.568  12.795 -1.0862 -0.3335  0.3210
  369TMC3    C8 5582   2.942   3.911  12.551 -0.2108 -0.1576  0.0334
  369TMC3    O1 5583   2.733   3.463  12.854 -0.0820  0.2192 -0.3166
  369TMC3    O2 5584   2.858   3.984  12.496  0.0046 -0.0964  0.1361
  370TMC3    C1 5585   3.000   4.072  15.994 -0.4151  0.7624 -0.0033
  370TMC3    C2 5586   2.940   3.996  16.091  0.1489  0.1086  0.0580
  370TMC3    C3 5587   2.903   3.864  16.069 -0.3188 -0.6382  0.4060
  370TMC3    C4 5588   3.026   4.010  15.871 -0.1544  0.0998  0.4117
  370TMC3    C5 5589   2.994   3.878  15.852 -0.2890 -0.1337 -0.2238
  370TMC3    C6 5590   2.937   3.802  15.953  0.2262 -0.6693 -0.2697
  370TMC3     C 5591   3.102   4.168  16.048  0.5133 -0.1710 -0.0090
  370TMC3     O 5592   3.138   4.154  16.163  0.0741 -0.1365 -0.3118
  370TMC3     H 5593   2.926   4.037  16.190 -3.2155 -3.5125  1.0837
  370TMC3    H1 5594   3.073   4.059  15.786  0.7014  1.0994  1.4634
  370TMC3    H2 5595   2.900   3.701  15.937  0.4295 -0.4527 -2.1628
  370TMC3    C7 5596   3.035   3.825  15.729 -0.0065  0.2576 -0.0645
  370TMC3    C8 5597   2.855   3.787  16.180 -0.0656 -0.3346  0.1528
  370TMC3    O1 5598   3.075   3.906  15.641 -0.1610 -0.4634  0.6927
  370TMC3    O2 5599   2.776   3.696  16.158  0.1036  0.4259  0.3761
  371TMC3    C1 5600   4.145   2.075  15.563 -0.0819 -0.5888  0.0829
  371TMC3    C2 5601   4.018   2.071  15.620 -0.5577  0.1779 -0.2747
  371TMC3    C3 5602   3.970   2.191  15.669  0.0393 -0.5862  0.0801
  371TMC3    C4 5603   4.211   2.192  15.533 -0.4269 -0.0938  0.6495
  371TMC3    C5 5604   4.143   2.306  15.570 -0.3794 -0.6633  0.4857
  371TMC3    C6 5605   4.022   2.318  15.643  0.0386 -0.0181 -0.4893
  371TMC3     C 5606   4.200   1.951  15.503  0.6967  0.3077 -0.3817
  371TMC3     O 5607   4.283   1.975  15.415 -0.2383  0.0639 -0.2239
  371TMC3     H 5608   3.973   1.974  15.635  0.7282 -0.6793 -1.8996
  371TMC3    H1 5609   4.307   2.187  15.481  0.1522  0.2525  1.6919
  371TMC3    H2 5610   3.994   2.416  15.681  0.7152  0.2342 -0.6289
  371TMC3    C7 5611   4.173   2.430  15.499  0.1740 -0.3623  0.2761
  371TMC3    C8 5612   3.837   2.189  15.727 -0.4204  0.0448  0.3214
  371TMC3    O1 5613   4.110   2.528  15.535  0.1634  0.0525 -0.2790
  371TMC3    O2 5614   3.796   2.076  15.742 -0.6617  0.4020 -0.0382
  372MPD2     C 5615   3.137   3.054  12.903  0.4543  0.3187  0.1955
  372MPD2    C1 5616   3.187   3.084  13.027  0.2826  0.9915  0.3152
  372MPD2    C2 5617   3.223   2.978  13.111 -0.8435 -0.2609  0.4426
  372MPD2    C3 5618   3.201   2.847  13.073 -0.4901  0.6076  0.4028
  372MPD2    C4 5619   3.148   2.820  12.948 -0.0300 -0.5355  0.4733
  372MPD2    C5 5620   3.107   2.925  12.865  0.8747 -0.2667  0.1841
  372MPD2     H 5621   3.264   3.001  13.209  1.7090  0.2452 -0.7416
  372MPD2    H1 5622   3.131   2.720  12.907 -0.3884  0.1429 -1.0521
  372MPD2    H2 5623   3.114   3.124  12.823  3.3095 -0.3144 -1.1784
  372MPD2    H3 5624   3.060   2.899  12.771  2.0007 -1.6723  0.0069
  372MPD2     N 5625   3.236   2.749  13.166  0.0300 -0.8144 -0.0568
  372MPD2    H5 5626   3.273   2.783  13.254 -2.3029 -0.0703  0.6498
  372MPD2    N1 5627   3.200   3.214  13.081  0.2050 -0.5099  0.4744
  372MPD2    H7 5628   3.232   3.230  13.176 -0.8885 -1.1182  0.9425
  373TMC3    C1 5629   3.272   2.527  13.261  0.2132  0.0013  0.0231
  373TMC3    C2 5630   3.270   2.572  13.395  0.5548  0.1116  0.5584
  373TMC3    C3 5631   3.317   2.494  13.490  0.1743 -0.2062  0.3984
  373TMC3    C4 5632   3.314   2.397  13.237 -0.2031 -0.4548 -0.7938
  373TMC3    C5 5633   3.351   2.315  13.339  0.0616  1.1376 -0.4473
  373TMC3    C6 5634   3.346   2.360  13.466  0.2219 -0.2193 -0.5976
  373TMC3     C 5635   3.223   2.609  13.149  0.0340 -0.7267 -0.6068
  373TMC3     O 5636   3.214   2.547  13.043  0.1221 -0.0758  0.2174
  373TMC3     H 5637   3.237   2.674  13.415  1.3305  1.1095 -3.0882
  373TMC3    H1 5638   3.323   2.354  13.138 -0.2689  0.6831 -1.3009
  373TMC3    H2 5639   3.388   2.293  13.541 -0.6844 -0.9073 -0.6989
  373TMC3    C7 5640   3.484   2.256  13.319 -0.2816 -0.4205  0.0981
  373TMC3    C8 5641   3.357   2.565  13.613 -0.1363  0.1138 -0.3984
  373TMC3    O1 5642   3.577   2.324  13.354  0.0232  0.3375  0.4883
  373TMC3    O2 5643   3.345   2.691  13.602 -0.1870  0.2561 -0.0752
  374TMC3    C1 5644   3.516   3.259   9.498 -0.2267  0.6902 -0.1363
  374TMC3    C2 5645   3.617   3.352   9.512 -0.5508 -0.6736  0.1361
  374TMC3    C3 5646   3.668   3.369   9.639  0.5498 -0.1005  0.5146
  374TMC3    C4 5647   3.470   3.178   9.596 -0.5903  0.0978 -0.4547
  374TMC3    C5 5648   3.529   3.194   9.719 -0.1071 -0.1416 -0.1410
  374TMC3    C6 5649   3.627   3.287   9.747  0.3120 -0.6069  0.1898
  374TMC3     C 5650   3.458   3.246   9.365  0.6379 -0.5541 -0.3277
  374TMC3     O 5651   3.507   3.313   9.276  0.3339 -0.7725  0.6011
  374TMC3     H 5652   3.658   3.409   9.430  1.5039 -1.7045  0.4364
  374TMC3    H1 5653   3.401   3.095   9.585 -2.6317  1.3928  2.4440
  374TMC3    H2 5654   3.665   3.283   9.849 -2.8621  1.0675  1.4165
  374TMC3    C7 5655   3.484   3.104   9.825 -0.3383 -0.0492 -0.2448
  374TMC3    C8 5656   3.788   3.448   9.660 -0.3502 -0.6111 -0.2964
  374TMC3    O1 5657   3.566   3.062   9.905  0.6283 -0.1583  0.1816
  374TMC3    O2 5658   3.809   3.534   9.574  0.2725 -0.2776  0.1012
  375MPD2     C 5659   0.032   4.012  16.698 -0.6809 -0.2575 -0.1675
  375MPD2    C1 5660   4.701   4.051  16.587 -0.4158  0.4540 -0.2815
  375MPD2    C2 5661   0.000   4.005  16.464  0.6805  0.0048 -0.5823
  375MPD2    C3 5662   0.108   3.918  16.449 -1.1210  0.4107  0.1187
  375MPD2    C4 5663   0.176   3.885  16.561 -0.8092 -0.5411  1.0412
  375MPD2    C5 5664   0.147   3.939  16.677  0.4379  0.2838  0.0642
  375MPD2     H 5665   4.682   4.049  16.383 -0.3093 -0.5159 -0.1683
  375MPD2    H1 5666   0.264   3.823  16.557  1.0152  1.9452  2.4604
  375MPD2    H2 5667   0.010   4.030  16.802  4.4281 -1.7026  1.1876
  375MPD2    H3 5668   0.191   3.910  16.771  1.3515  0.3679 -0.3413
  375MPD2     N 5669   0.161   3.883  16.323  0.0963  0.2191 -0.5487
  375MPD2    H5 5670   0.223   3.802  16.324 -1.1509 -0.7377  1.2337
  375MPD2    N1 5671   4.581   4.130  16.594 -0.0095 -0.5133 -0.3448
  375MPD2    H7 5672   4.525   4.135  16.509 -0.4216  3.4423  0.1880
  376TMC3    C1 5673   0.146   3.855  16.089  0.9449  0.0459 -0.5624
  376TMC3    C2 5674   0.263   3.786  16.083 -0.0642  0.8374  0.3814
  376TMC3    C3 5675   0.265   3.689  15.980 -0.8195  0.1026 -0.1128
  376TMC3    C4 5676   0.047   3.854  16.000 -0.0570  0.4146 -0.3288
  376TMC3    C5 5677   0.063   3.779  15.885  0.3324  0.5728 -0.8279
  376TMC3    C6 5678   0.177   3.701  15.875 -0.6892  0.4802  0.2037
  376TMC3     C 5679   0.113   3.933  16.204  0.2685 -0.2829  0.8583
  376TMC3     O 5680   0.061   4.040  16.180 -0.2710 -0.4463 -0.1141
  376TMC3     H 5681   0.347   3.802  16.150  1.2291  3.4770 -1.8276
  376TMC3    H1 5682   4.696   3.913  16.012  0.2160  1.6168 -4.2918
  376TMC3    H2 5683   0.200   3.654  15.780 -1.2754 -0.6376  0.6129
  376TMC3    C7 5684   0.041   3.864  15.773  0.6936 -0.4888 -0.2384
  376TMC3    C8 5685   0.395   3.655  15.926 -0.6695 -0.5906  0.1630
  376TMC3    O1 5686   0.053   3.980  15.799  0.3576 -0.2380  0.5343
  376TMC3    O2 5687   0.491   3.727  15.953  0.1376  0.5195  0.2625
  377MPD2     C 5688   2.057   3.978  12.616  0.3281 -0.0780 -0.2688
  377MPD2    C1 5689   2.052   3.914  12.493 -0.6372  0.0984 -0.0509
  377MPD2    C2 5690   1.987   3.790  12.470  0.2210  0.2752 -0.1398
  377MPD2    C3 5691   1.932   3.725  12.582 -0.1287  0.5956  0.3542
  377MPD2    C4 5692   1.931   3.797  12.703 -0.2085  0.5544 -0.2560
  377MPD2    C5 5693   1.990   3.919  12.720 -0.3387  0.5555 -0.9331
  377MPD2     H 5694   1.995   3.739  12.374 -1.5791  2.2961 -1.3541
  377MPD2    H1 5695   1.892   3.749  12.792 -0.6228  1.7732  0.2320
  377MPD2    H2 5696   2.096   4.079  12.622 -0.2388  0.1090  0.2422
  377MPD2    H3 5697   1.981   3.963  12.818 -0.3618  1.1518 -1.2046
  377MPD2     N 5698   1.875   3.596  12.576 -1.1550 -0.0129 -0.2448
  377MPD2    H5 5699   1.864   3.547  12.665 -0.4087  1.6528  0.7732
  377MPD2    N1 5700   2.120   3.969  12.379  0.0779 -0.1803  0.2577
  377MPD2    H7 5701   2.191   4.036  12.409 -0.6555  1.0562 -0.7387
  378TMC3    C1 5702   2.213   4.158  11.978 -0.2681 -0.1620  0.5518
  378TMC3    C2 5703   2.120   4.089  12.064 -0.5427 -0.0985 -0.0748
  378TMC3    C3 5704   2.179   4.019  12.165  0.3427 -0.8439  0.4933
  378TMC3    C4 5705   2.347   4.135  11.992 -0.1765 -0.1842  0.1101
  378TMC3    C5 5706   2.395   4.081  12.109  0.3262  0.5296  0.4787
  378TMC3    C6 5707   2.310   4.025  12.202 -0.7667 -0.6578  0.0564
  378TMC3     C 5708   2.156   4.195  11.849  0.3967 -0.1142 -0.2129
  378TMC3     O 5709   2.040   4.161  11.840  0.0536  0.0684  0.4726
  378TMC3     H 5710   2.013   4.103  12.053 -0.4432  1.5119  0.9440
  378TMC3    H1 5711   2.411   4.179  11.917  1.3800 -0.6288  1.1876
  378TMC3    H2 5712   2.340   3.960  12.284 -1.7418 -0.5740  0.4861
  378TMC3    C7 5713   2.539   4.058  12.139  0.5826  0.0230  0.8844
  378TMC3    C8 5714   2.090   3.945  12.245 -0.3834  0.6194 -0.6743
  378TMC3    O1 5715   2.560   4.030  12.261 -0.2488  0.0479  0.6194
  378TMC3    O2 5716   1.988   3.900  12.193 -0.0578  0.1463 -0.7215
  379MPD2     C 5717   2.823   1.591  16.412 -0.0263  0.9679  0.2685
  379MPD2    C1 5718   2.946   1.560  16.372  0.6290 -0.0509  0.6029
  379MPD2    C2 5719   3.041   1.524  16.467 -0.1291 -0.1561  0.3818
  379MPD2    C3 5720   3.009   1.514  16.600 -0.4352 -0.3291  0.4519
  379MPD2    C4 5721   2.876   1.545  16.641  0.1140  0.2006  0.2529
  379MPD2    C5 5722   2.793   1.590  16.546 -0.1454 -0.0148 -0.2718
  379MPD2     H 5723   3.135   1.485  16.431 -0.2732 -1.5518  1.5188
  379MPD2    H1 5724   2.833   1.536  16.741 -3.4475 -1.1888 -1.3839
  379MPD2    H2 5725   2.743   1.623  16.346 -1.0535 -2.4976 -0.1645
  379MPD2    H3 5726   2.694   1.622  16.575 -0.0156 -1.1390  1.3793
  379MPD2     N 5727   3.096   1.461  16.698 -0.1041 -0.0862 -0.1876
  379MPD2    H5 5728   3.062   1.470  16.793  1.4324 -0.5608  0.4121
  379MPD2    N1 5729   2.979   1.590  16.234  0.3358 -0.1304  0.7937
  379MPD2    H7 5730   2.903   1.644  16.194 -1.1485 -0.6430  2.9667
  380TMC3    C1 5731   3.098   1.673  16.057  0.0295 -0.2636  0.4566
  380TMC3    C2 5732   3.186   1.647  15.964 -0.4808 -0.1613  0.3283
  380TMC3    C3 5733   3.138   1.674  15.836  0.1991  0.7083  0.1645
  380TMC3    C4 5734   2.984   1.753  16.040 -0.5205  0.1518 -0.0789
  380TMC3    C5 5735   2.953   1.795  15.920 -0.7853 -0.2930 -0.7683
  380TMC3    C6 5736   3.033   1.751  15.814 -0.7269  0.4604  0.1355
  380TMC3     C 5737   3.100   1.593  16.174  0.2462 -0.2844  0.8076
  380TMC3     O 5738   3.201   1.534  16.207  0.1948  0.2527 -0.8281
  380TMC3     H 5739   3.260   1.572  15.988 -1.3852 -1.3581 -0.6266
  380TMC3    H1 5740   2.908   1.777  16.113  0.1620  1.1872  0.2802
  380TMC3    H2 5741   3.011   1.779  15.711  1.7349 -1.0085 -0.7900
  380TMC3    C7 5742   2.835   1.876  15.890 -0.2264 -0.1924 -0.3227
  380TMC3    C8 5743   3.237   1.696  15.738  0.2846  0.5010  0.0240
  380TMC3    O1 5744   2.806   1.952  15.983 -0.1443 -0.4959 -0.1629
  380TMC3    O2 5745   3.205   1.738  15.626  0.2238  0.1874  0.1422
  381TMC3    C1 5746   2.880   2.967  15.938 -0.0570 -0.6014 -0.4199
  381TMC3    C2 5747   2.985   3.054  15.942 -0.4112  0.2034  1.2592
  381TMC3    C3 5748   2.987   3.153  16.034  0.1063 -0.0520  0.1909
  381TMC3    C4 5749   2.770   2.981  16.010  0.6783  0.4377  0.6776
  381TMC3    C5 5750   2.769   3.091  16.088  0.0422  0.3780  0.5207
  381TMC3    C6 5751   2.874   3.178  16.107  0.3527 -0.3599  0.0819
  381TMC3     C 5752   2.863   2.899  15.814 -0.5487 -0.0209 -0.0095
  381TMC3     O 5753   2.784   2.806  15.806 -0.0764 -0.0209  0.7851
  381TMC3     H 5754   3.080   3.023  15.902 -0.7271  2.5219 -1.3060
  381TMC3    H1 5755   2.687   2.914  15.992  2.2534 -0.7537 -2.2014
  381TMC3    H2 5756   2.871   3.261  16.177 -1.9216 -0.1723 -0.2570
  381TMC3    C7 5757   2.677   3.082  16.195  0.7683 -0.8166 -0.1078
  381TMC3    C8 5758   3.091   3.254  16.009  0.2805  0.1244 -0.1142
  381TMC3    O1 5759   2.628   2.971  16.213 -0.2396  0.0324 -0.0568
  381TMC3    O2 5760   3.166   3.216  15.922  0.0676 -0.5417 -0.6043
  382MPD2     C 5761   1.837   0.912  16.533  0.3303 -1.0084 -0.5883
  382MPD2    C1 5762   1.945   0.896  16.620  0.0146 -0.6852  0.3626
  382MPD2    C2 5763   1.968   0.772  16.669  0.3076 -0.3470 -0.7245
  382MPD2    C3 5764   1.896   0.665  16.614  0.5643 -0.7450  0.6744
  382MPD2    C4 5765   1.796   0.685  16.530 -0.4824 -0.4827  0.1033
  382MPD2    C5 5766   1.769   0.806  16.493  0.0694  0.1637  0.1289
  382MPD2     H 5767   2.051   0.764  16.739 -2.0585  2.2091  2.3610
  382MPD2    H1 5768   1.736   0.607  16.485 -1.9843  1.5684 -1.4449
  382MPD2    H2 5769   1.789   1.007  16.513 -0.4952 -1.4070 -0.4611
  382MPD2    H3 5770   1.691   0.824  16.420 -2.4302 -0.5337  2.6522
  382MPD2     N 5771   1.923   0.534  16.643 -0.3118  0.2797 -0.2623
  382MPD2    H5 5772   1.861   0.459  16.614  0.7478 -1.1796  1.3088
  382MPD2    N1 5773   2.022   1.010  16.666  0.1536 -0.1809  0.4568
  382MPD2    H7 5774   2.066   0.993  16.756 -1.3764 -1.5406  0.9563
  383TMC3    C1 5775   2.012   0.365  16.781 -0.4224 -0.5086  0.4850
  383TMC3    C2 5776   1.897   0.294  16.771 -0.0602  0.3645  0.2577
  383TMC3    C3 5777   1.890   0.173  16.842  0.3845 -0.2247 -0.4266
  383TMC3    C4 5778   2.117   0.328  16.864  0.0511  0.9287 -0.9093
  383TMC3    C5 5779   2.110   0.196  16.922 -0.3742 -0.1671 -0.2673
  383TMC3    C6 5780   1.997   0.123  16.917 -0.1113  0.0099 -0.0993
  383TMC3     C 5781   2.025   0.496  16.719 -0.1204 -0.3697 -0.2337
  383TMC3     O 5782   2.138   0.550  16.721 -0.6823  0.2325  1.0682
  383TMC3     H 5783   1.814   0.342  16.722 -1.8666 -0.2684  2.7009
  383TMC3    H1 5784   2.215   0.374  16.862  0.8848 -0.6803  3.5235
  383TMC3    H2 5785   2.004   0.024  16.960  2.5801  0.2533  0.0651
  383TMC3    C7 5786   2.224   0.150  16.992 -0.4990 -0.3480  0.4215
  383TMC3    C8 5787   1.776   0.090  16.825  0.1970 -0.0005 -0.5471
  383TMC3    O1 5788   2.334   0.173  16.947  0.0608 -0.4436  0.0973
  383TMC3    O2 5789   1.711   0.121  16.727 -0.5144  0.3929 -0.5395
  384MPD2     C 5790   3.415   1.805  12.435 -0.6592 -0.5740 -0.5714
  384MPD2    C1 5791   3.403   1.684  12.501 -0.6438 -0.1739 -0.0675
  384MPD2    C2 5792   3.513   1.615  12.542 -0.3980 -0.1754  0.7808
  384MPD2    C3 5793   3.640   1.677  12.527 -0.0718  0.2623 -0.4817
  384MPD2    C4 5794   3.653   1.799  12.454  0.4839 -0.2794 -0.2605
  384MPD2    C5 5795   3.540   1.868  12.417  0.0817  0.1434 -0.1071
  384MPD2     H 5796   3.489   1.523  12.594 -0.4630 -0.7134 -0.1912
  384MPD2    H1 5797   3.752   1.837  12.428  0.4677 -0.2420 -0.2675
  384MPD2    H2 5798   3.329   1.857  12.394 -0.3488 -0.4757 -1.1025
  384MPD2    H3 5799   3.556   1.946  12.343  1.2874 -0.8581 -0.9147
  384MPD2     N 5800   3.752   1.595  12.564  0.3009 -0.5523  0.0815
  384MPD2    H5 5801   3.838   1.642  12.591  0.4249 -1.0076  0.4916
  384MPD2    N1 5802   3.287   1.612  12.520  0.3113 -0.0690 -0.8914
  384MPD2    H7 5803   3.297   1.523  12.568 -0.4547  0.2020 -0.2427
  385TMC3    C1 5804   3.860   1.406  12.643 -0.0321  0.1852  0.0161
  385TMC3    C2 5805   3.885   1.276  12.621  0.2173 -0.2709 -0.0229
  385TMC3    C3 5806   3.887   1.189  12.727  0.0552  0.3362  0.6225
  385TMC3    C4 5807   3.857   1.459  12.777  0.0859  0.1905  0.1251
  385TMC3    C5 5808   3.837   1.365  12.875  0.7404  0.4956 -0.2408
  385TMC3    C6 5809   3.856   1.230  12.855 -0.1006 -0.5438 -0.3087
  385TMC3     C 5810   3.750   1.462  12.578 -0.0734  0.1747 -0.6606
  385TMC3     O 5811   3.662   1.383  12.543  0.0023  0.1356 -0.4064
  385TMC3     H 5812   3.907   1.253  12.517  2.0027 -1.1944  0.5782
  385TMC3    H1 5813   3.841   1.564  12.802  3.2450  1.4352 -3.0292
  385TMC3    H2 5814   3.842   1.158  12.935 -2.1932  1.4524  1.1187
  385TMC3    C7 5815   3.703   1.377  12.917  0.1900 -0.1839 -0.6389
  385TMC3    C8 5816   3.837   1.057  12.697  0.6367  0.7139  0.2681
  385TMC3    O1 5817   3.644   1.470  12.859  0.1974 -0.4566  0.3884
  385TMC3    O2 5818   3.781   1.003  12.792 -0.1731 -0.4323  0.1969
  386TMC3    C1 5819   3.813   3.795  11.478 -0.0455  0.2133 -0.0131
  386TMC3    C2 5820   3.771   3.713  11.380 -0.4348  0.7171  0.0348
  386TMC3    C3 5821   3.657   3.754  11.305 -0.2420 -0.0300 -0.5682
  386TMC3    C4 5822   3.753   3.915  11.510  0.3292 -0.5831  0.3773
  386TMC3    C5 5823   3.647   3.952  11.436 -0.3541  0.1558 -0.0114
  386TMC3    C6 5824   3.593   3.870  11.333 -0.2121  0.0778  0.0927
  386TMC3     C 5825   3.911   3.740  11.573  0.5113  0.5489 -0.2592
  386TMC3     O 5826   3.939   3.815  11.662 -0.2119  0.4284  0.7335
  386TMC3     H 5827   3.816   3.617  11.356 -1.9340  0.6515 -2.5971
  386TMC3    H1 5828   3.792   3.978  11.590 -2.9561  0.6326  0.9917
  386TMC3    H2 5829   3.498   3.898  11.288 -2.6698 -2.2445  3.7933
  386TMC3    C7 5830   3.559   4.055  11.502 -0.5338  0.3773 -1.1121
  386TMC3    C8 5831   3.612   3.674  11.193  0.4143 -0.4872  0.0803
  386TMC3    O1 5832   3.578   4.083  11.620  0.3860 -0.2217  0.6060
  386TMC3    O2 5833   3.506   3.716  11.149  0.1566  0.6141 -0.1385
  387MPD2     C 5834   1.009   3.644   9.864 -0.2107  0.2145 -0.4492
  387MPD2    C1 5835   1.131   3.674   9.921 -0.2275 -0.2083  0.0478
  387MPD2    C2 5836   1.236   3.594   9.884  0.0336 -0.6254 -0.7607
  387MPD2    C3 5837   1.225   3.474   9.812  0.2040 -0.1957  0.5535
  387MPD2    C4 5838   1.101   3.438   9.754 -0.0879  0.0562  0.7964
  387MPD2    C5 5839   1.004   3.527   9.784 -0.0537  0.3389  0.3913
  387MPD2     H 5840   1.336   3.628   9.910 -0.2150 -0.0899 -0.5209
  387MPD2    H1 5841   1.084   3.353   9.688  0.5414  0.8833 -0.4392
  387MPD2    H2 5842   0.926   3.714   9.867 -0.6554 -0.4561  2.4648
  387MPD2    H3 5843   0.913   3.510   9.727  0.6810 -0.6131 -0.4840
  387MPD2     N 5844   1.344   3.393   9.805  0.4656 -0.1304  0.6261
  387MPD2    H5 5845   1.418   3.431   9.864  0.3218  2.0601 -0.5851
  387MPD2    N1 5846   1.163   3.790  10.003  0.2542 -0.1941 -0.0608
  387MPD2    H7 5847   1.259   3.814  10.025  0.1669 -0.3714  0.5161
  388TMC3    C1 5848   1.148   3.965  10.146 -0.5227  0.1461 -0.6752
  388TMC3    C2 5849   1.146   4.100  10.129 -0.7785  0.3351 -0.6408
  388TMC3    C3 5850   1.248   4.174  10.188  0.6346  0.7706 -0.3869
  388TMC3    C4 5851   1.243   3.902  10.214  0.0695  0.0902 -0.2142
  388TMC3    C5 5852   1.340   3.970  10.280 -0.6295  0.0002 -0.4385
  388TMC3    C6 5853   1.345   4.114  10.254  0.6497 -0.0947  0.2048
  388TMC3     C 5854   1.074   3.882  10.056 -0.3374  0.0340  0.2925
  388TMC3     O 5855   0.956   3.892  10.024 -0.4436 -0.6243  0.2581
  388TMC3     H 5856   1.080   4.136  10.051 -0.2607 -0.4746 -1.4580
  388TMC3    H1 5857   1.225   3.798  10.235 -3.3167  0.7936  0.4065
  388TMC3    H2 5858   1.413   4.181  10.305 -0.2843 -0.9458  2.5756
  388TMC3    C7 5859   1.471   3.902  10.301 -0.0035  0.2933  0.3305
  388TMC3    C8 5860   1.238   4.318  10.183 -0.4492  0.4384 -0.4148
  388TMC3    O1 5861   1.563   3.975  10.332  0.5924 -0.3770 -0.4205
  388TMC3    O2 5862   1.325   4.387  10.237  0.1403  0.0005 -0.6824
  389MPD2     C 5863   0.509   2.357  10.695  0.4749 -0.6491  0.3354
  389MPD2    C1 5864   0.408   2.280  10.664 -0.2790  0.7147  0.0578
  389MPD2    C2 5865   0.370   2.184  10.760 -0.2740 -0.0256 -0.1034
  389MPD2    C3 5866   0.433   2.172  10.887 -0.2454 -0.0357  0.0875
  389MPD2    C4 5867   0.542   2.259  10.908  0.2034  0.1749 -0.3224
  389MPD2    C5 5868   0.575   2.355  10.813 -0.1283  0.3055  0.6052
  389MPD2     H 5869   0.287   2.120  10.733  0.0507  0.2256 -1.6912
  389MPD2    H1 5870   0.601   2.255  10.999 -0.5080 -0.0240  0.1263
  389MPD2    H2 5871   0.548   2.436  10.631 -0.5163  0.1589  0.7244
  389MPD2    H3 5872   0.663   2.416  10.832  0.0571 -0.1278  1.1571
  389MPD2     N 5873   0.399   2.081  10.993 -0.4491 -0.0186 -0.3564
  389MPD2    H5 5874   0.456   2.086  11.077 -1.0263 -3.4159  0.2183
  389MPD2    N1 5875   0.338   2.299  10.542 -0.4398  0.2390 -0.0092
  389MPD2    H7 5876   0.378   2.379  10.493  1.6789  0.0386  1.3625
  390TMC3    C1 5877   0.265   1.911  11.093  0.2134 -0.1557  0.1531
  390TMC3    C2 5878   0.219   1.786  11.084 -0.0333 -0.8521  0.4051
  390TMC3    C3 5879   0.213   1.706  11.198  0.2568  1.1116  0.4151
  390TMC3    C4 5880   0.289   1.969  11.214  0.4739  0.0823 -0.0726
  390TMC3    C5 5881   0.267   1.896  11.329 -0.2492 -0.1708  0.6129
  390TMC3    C6 5882   0.236   1.763  11.321  0.5903 -0.4698 -0.2264
  390TMC3     C 5883   0.296   1.989  10.975  0.2507  0.1699  0.2242
  390TMC3     O 5884   0.207   1.978  10.894 -0.2718  0.4538  0.0602
  390TMC3     H 5885   0.198   1.745  10.986 -1.4313 -0.6448  0.6128
  390TMC3    H1 5886   0.295   2.074  11.238  0.1269  0.1622 -0.3420
  390TMC3    H2 5887   0.230   1.707  11.413 -1.1195  1.5014  0.8678
  390TMC3    C7 5888   0.251   1.971  11.451  0.5492 -0.0580  0.0830
  390TMC3    C8 5889   0.185   1.563  11.186  0.1653  0.6303  0.1893
  390TMC3    O1 5890   0.335   2.063  11.472  0.1847  0.4141 -0.0832
  390TMC3    O2 5891   0.162   1.523  11.074 -0.1329 -0.1595  0.1048
  391MPD2     C 5892   3.884   2.917  11.036  0.0521  1.2053 -0.6214
  391MPD2    C1 5893   3.962   3.029  11.059 -0.6910 -0.6310  0.2620
  391MPD2    C2 5894   4.026   3.087  10.954  0.1207 -0.0080  0.1804
  391MPD2    C3 5895   4.019   3.042  10.823  0.0567 -0.3624 -0.7247
  391MPD2    C4 5896   3.946   2.926  10.801  0.4997  0.5368  0.2638
  391MPD2    C5 5897   3.877   2.869  10.909  0.2505 -0.1346 -0.1150
  391MPD2     H 5898   4.085   3.176  10.973 -0.2140  0.9287 -3.1922
  391MPD2    H1 5899   3.936   2.872  10.707  1.2496  1.1476 -0.1672
  391MPD2    H2 5900   3.851   2.855  11.118  0.2919 -0.8731 -2.0987
  391MPD2    H3 5901   3.838   2.768  10.902  1.1944 -0.5402  0.3649
  391MPD2     N 5902   4.090   3.123  10.732  0.3184  0.4946  0.3845
  391MPD2    H5 5903   4.142   3.204  10.763  1.0131  0.5421 -0.9054
  391MPD2    N1 5904   3.984   3.066  11.194 -0.3091  0.0565  0.2570
  391MPD2    H7 5905   3.948   3.002  11.264 -0.4864 -0.3316 -0.1881
  392TMC3    C1 5906   4.160   3.207  10.523  0.1267  0.4392 -0.1582
  392TMC3    C2 5907   4.137   3.200  10.386  0.5559 -0.5206 -0.9451
  392TMC3    C3 5908   4.194   3.300  10.312  0.2347  0.5955  0.6708
  392TMC3    C4 5909   4.243   3.297  10.583  0.6086 -0.6404  0.0695
  392TMC3    C5 5910   4.301   3.385  10.493 -0.6448  0.2842 -0.1869
  392TMC3    C6 5911   4.276   3.395  10.362 -0.3744 -0.7305 -0.0616
  392TMC3     C 5912   4.079   3.113  10.596  0.1403 -0.5939  0.2203
  392TMC3     O 5913   4.016   3.028  10.536  0.1214  0.3659  0.0541
  392TMC3     H 5914   4.072   3.128  10.339 -1.3305  0.9673 -0.6194
  392TMC3    H1 5915   4.261   3.297  10.690  0.1010 -0.9739  0.1559
  392TMC3    H2 5916   4.336   3.453  10.293  2.6432 -1.9190  1.5843
  392TMC3    C7 5917   4.420   3.454  10.542 -0.4263 -0.2811 -0.9999
  392TMC3    C8 5918   4.161   3.308  10.169  0.4884  0.3894 -0.3184
  392TMC3    O1 5919   4.463   3.423  10.654  0.4363  0.0139 -0.1425
  392TMC3    O2 5920   4.076   3.228  10.138  0.4943  0.5591  0.4632
  393TMC3    C1 5921   3.031   1.275  10.882 -0.5958  0.4859  0.0541
  393TMC3    C2 5922   2.929   1.187  10.902  0.3959  0.5044  0.4840
  393TMC3    C3 5923   2.960   1.054  10.909 -0.2274  0.5354 -0.6714
  393TMC3    C4 5924   3.155   1.237  10.840  0.2240  0.2039  0.3466
  393TMC3    C5 5925   3.174   1.103  10.834 -0.5320  0.0475 -0.0178
  393TMC3    C6 5926   3.086   1.003  10.870 -0.5764 -1.4422 -0.0612
  393TMC3     C 5927   2.986   1.413  10.861  0.1559 -1.0037  0.0903
  393TMC3     O 5928   2.868   1.445  10.849 -0.0579  0.8360  0.1132
  393TMC3     H 5929   2.833   1.221  10.938 -0.7656 -1.6291 -0.6001
  393TMC3    H1 5930   3.231   1.308  10.808 -0.9139  1.3675  0.2627
  393TMC3    H2 5931   3.098   0.896  10.858 -0.1700 -1.3608 -0.3997
  393TMC3    C7 5932   3.299   1.046  10.785  0.6471  0.5361  0.0285
  393TMC3    C8 5933   2.845   0.965  10.913  0.1814  0.0125  0.1490
  393TMC3    O1 5934   3.325   0.935  10.813  0.0768  0.5170  0.2307
  393TMC3    O2 5935   2.752   0.991  10.837 -0.3695 -0.2170  0.1903
  394TMC3    C1 5936   0.171   2.299  10.371  0.3058  0.2679  0.3454
  394TMC3    C2 5937   0.040   2.321  10.345  0.1907  0.2101 -0.2121
  394TMC3    C3 5938   4.737   2.372  10.223 -0.6066 -0.3317 -0.3120
  394TMC3    C4 5939   0.274   2.351  10.290  0.1563 -0.3630 -0.5006
  394TMC3    C5 5940   0.227   2.416  10.173 -0.3942  0.4013  0.1603
  394TMC3    C6 5941   0.091   2.433  10.140  0.3713 -0.1831 -0.3506
  394TMC3     C 5942   0.224   2.236  10.495 -0.3943 -0.5171 -0.4356
  394TMC3     O 5943   0.148   2.154  10.543 -0.4105  0.0021 -0.0216
  394TMC3     H 5944   4.710   2.276  10.415 -1.1802 -1.0634 -2.3820
  394TMC3    H1 5945   0.380   2.335  10.307 -0.1599 -1.5857  0.3244
  394TMC3    H2 5946   0.057   2.466  10.043 -1.2223 -1.4191 -0.2219
  394TMC3    C7 5947   0.313   2.468  10.068 -0.1040 -0.2904 -0.4086
  394TMC3    C8 5948   4.614   2.333  10.171  0.3300 -0.1658 -0.5245
  394TMC3    O1 5949   0.268   2.536   9.979  0.2207  0.6522 -0.6721
  394TMC3    O2 5950   4.576   2.382  10.069 -0.1923  0.0832  0.5641
  395TMC3    C1 5951   0.638   4.021  14.384 -0.4911  0.6101  0.0006
  395TMC3    C2 5952   0.574   3.979  14.267 -0.5581 -0.1162  0.0234
  395TMC3    C3 5953   0.617   4.045  14.152  0.3559 -0.9408 -0.0437
  395TMC3    C4 5954   0.739   4.110  14.380  0.2471  0.4735  0.2600
  395TMC3    C5 5955   0.776   4.168  14.265 -0.5232 -0.2375 -0.5965
  395TMC3    C6 5956   0.718   4.132  14.148 -0.3251  0.6252 -0.2608
  395TMC3     C 5957   0.594   3.966  14.514 -0.2113  0.0886 -0.5791
  395TMC3     O 5958   0.630   4.029  14.615  0.1688 -0.3242  0.6550
  395TMC3     H 5959   0.499   3.901  14.271 -0.8581  0.1155 -0.9523
  395TMC3    H1 5960   0.787   4.140  14.473  1.1614 -0.9812  0.2481
  395TMC3    H2 5961   0.739   4.186  14.056 -2.6928 -0.6394 -1.5596
  395TMC3    C7 5962   0.842   4.293  14.275  0.7153  0.2014 -0.6185
  395TMC3    C8 5963   0.542   4.021  14.022  0.5046  0.0860  0.1645
  395TMC3    O1 5964   0.931   4.306  14.363 -0.1457 -0.3219 -0.2599
  395TMC3    O2 5965   0.609   4.043  13.921 -0.0952 -0.7701 -0.0559
  396MPD2     C 5966   4.427   0.428  17.197  0.0510  0.0147  0.4884
  396MPD2    C1 5967   4.556   0.391  17.179  0.9695 -0.3574  0.4457
  396MPD2    C2 5968   4.627   0.471  17.084 -0.1571  0.3161 -0.1367
  396MPD2    C3 5969   4.566   0.577  17.012 -0.5683 -0.0219 -0.1492
  396MPD2    C4 5970   4.432   0.609  17.039 -0.5351 -0.3907 -0.6346
  396MPD2    C5 5971   4.368   0.534  17.134 -0.3916  0.3494 -0.0432
  396MPD2     H 5972   4.731   0.460  17.055  0.9773 -0.2091  4.0864
  396MPD2    H1 5973   4.383   0.698  17.002  2.5118  2.5596  2.5152
  396MPD2    H2 5974   4.369   0.378  17.274  0.3733 -0.3035  0.5285
  396MPD2    H3 5975   4.267   0.553  17.167  0.1171  0.2974  1.5688
  396MPD2     N 5976   4.645   0.650  16.919 -0.0472 -0.3542 -0.0729
  396MPD2    H5 5977   0.006   0.634  16.918  0.1981  1.2511 -0.7750
  396MPD2    N1 5978   4.614   0.295  17.264 -0.3773 -0.2831 -0.3056
  396MPD2    H7 5979   4.554   0.239  17.324  0.0392 -0.6414 -0.2193
  397TMC3    C1 5980   0.005   0.139  17.363 -0.6794  0.4792 -0.2647
  397TMC3    C2 5981   0.133   0.102  17.364  1.1623  0.4672  0.5745
  397TMC3    C3 5982   0.168   4.712  17.349  0.1866 -0.0506  0.2774
  397TMC3    C4 5983   4.648   0.037  17.339 -0.1071 -0.2046 -0.2575
  397TMC3    C5 5984   4.684   4.641  17.347 -0.6220  0.1089  0.4818
  397TMC3    C6 5985   0.081   4.607  17.347 -0.0695 -0.1287 -0.1599
  397TMC3     C 5986   0.002   0.252  17.277  0.1797  0.6200 -0.7289
  397TMC3     O 5987   0.099   0.285  17.212  1.0775 -0.0484  0.1275
  397TMC3     H 5988   0.207   0.180  17.359  1.8920 -0.3293 -0.9117
  397TMC3    H1 5989   4.543   0.056  17.359 -0.0176  0.4459 -0.3978
  397TMC3    H2 5990   0.118   4.506  17.333  0.7549  0.2521 -0.7452
  397TMC3    C7 5991   4.601   4.565  17.438 -0.2265 -1.0771 -0.4133
  397TMC3    C8 5992   0.298   4.680  17.281 -0.5805 -0.4141  0.3060
  397TMC3    O1 5993   4.482   4.571  17.423 -0.1064  0.0187  0.2715
  397TMC3    O2 5994   0.286   4.597  17.193  0.3374 -0.1407  0.1846
  398MPD2     C 5995   3.085   2.317   0.125 -0.8505 -0.1688  0.6698
  398MPD2    C1 5996   3.190   2.226   0.127  0.4367  0.2999 -0.1069
  398MPD2    C2 5997   3.322   2.265   0.167  0.4632 -0.0762 -0.4068
  398MPD2    C3 5998   3.353   2.398   0.174 -0.4142  0.4896  0.2662
  398MPD2    C4 5999   3.250   2.490   0.168  1.0044 -0.0623 -0.4365
  398MPD2    C5 6000   3.121   2.447   0.145 -0.0706 -0.3379  0.4698
  398MPD2     H 6001   3.398   2.187   0.172 -0.9191 -1.2089  3.0657
  398MPD2    H1 6002   3.268   2.597   0.177 -0.6006 -0.2303  4.3718
  398MPD2    H2 6003   2.988   2.289   0.085  0.3529 -0.2748 -2.1816
  398MPD2    H3 6004   3.049   2.528   0.142 -0.1904 -0.4379  0.6318
  398MPD2     N 6005   3.486   2.441   0.216 -0.5882  0.1819 -0.3708
  398MPD2    H5 6006   3.559   2.372   0.231 -0.1994  0.9450  1.2689
  398MPD2    N1 6007   3.171   2.089   0.095 -0.0554 -0.0161  0.0874
  398MPD2    H7 6008   3.245   2.021   0.109  0.6276  0.6955 -0.0689
  399TMC3    C1 6009   3.070   1.884   0.025 -0.2162  0.6818 -0.4374
  399TMC3    C2 6010   3.136   1.813   0.117 -0.5179  0.6219 -0.0210
  399TMC3    C3 6011   3.097   1.681   0.134  0.2653  0.4391  0.0177
  399TMC3    C4 6012   2.971   1.829  17.703  0.1511  0.4311 -0.5786
  399TMC3    C5 6013   2.936   1.696  17.715  0.3938 -0.7591  0.2723
  399TMC3    C6 6014   2.993   1.621   0.060  0.0843 -0.3743  0.4319
  399TMC3     C 6015   3.062   2.030   0.034  0.2332  0.2417  0.0220
  399TMC3     O 6016   2.972   2.089  17.728  0.4075 -0.5564 -0.8128
  399TMC3     H 6017   3.205   1.857   0.189  2.4650 -2.2986 -1.0967
  399TMC3    H1 6018   2.910   1.888  17.635 -0.6194 -1.3810 -1.4590
  399TMC3    H2 6019   2.950   1.525   0.085 -2.0892  0.0521 -1.7079
  399TMC3    C7 6020   2.796   1.666  17.674 -0.0191 -0.7379  0.4576
  399TMC3    C8 6021   3.186   1.602   0.208  0.2417 -0.0848 -0.2483
  399TMC3    O1 6022   2.735   1.755  17.619 -0.4387 -0.3072 -0.6490
  399TMC3    O2 6023   3.295   1.653   0.239 -0.4003 -0.0851  0.7588
  400TMC3    C1 6024   1.653   4.533  16.531  0.3570 -0.3861  0.5649
  400TMC3    C2 6025   1.559   4.428  16.519  0.0544  0.2729 -0.0977
  400TMC3    C3 6026   1.445   4.464  16.455  0.0391  0.2928  0.5433
  400TMC3    C4 6027   1.618   4.661  16.511  0.0176  0.9556  0.0260
  400TMC3    C5 6028   1.502   4.686  16.444 -0.2708 -0.3600  0.4393
  400TMC3    C6 6029   1.412   4.589  16.416 -0.7400 -0.1564 -0.4921
  400TMC3     C 6030   1.772   4.499  16.616  0.4781 -0.3797 -0.2335
  400TMC3     O 6031   1.757   4.389  16.665 -0.6521 -0.3969 -0.0288
  400TMC3     H 6032   1.580   4.328  16.557 -1.3162 -0.9187 -2.4836
  400TMC3    H1 6033   1.684   0.008  16.510  0.3192  0.7262 -0.0545
  400TMC3    H2 6034   1.324   4.624  16.364  0.7356  1.7759 -1.7242
  400TMC3    C7 6035   1.463   0.085  16.425 -0.2184  0.1425  0.0230
  400TMC3    C8 6036   1.335   4.365  16.464 -0.6381  0.1148 -0.0017
  400TMC3    O1 6037   1.415   0.115  16.312 -0.4436 -0.1375  0.3253
  400TMC3    O2 6038   1.343   4.309  16.571  0.3507 -0.0713 -0.0293
  401MPD2     C 6039   4.328   3.475   0.609 -0.4138  0.6390 -0.0383
  401MPD2    C1 6040   4.437   3.405   0.668  0.0005  0.1550  0.4469
  401MPD2    C2 6041   4.445   3.269   0.649  0.2617  0.7143  0.3981
  401MPD2    C3 6042   4.334   3.199   0.601 -0.6554  0.0791 -0.0282
  401MPD2    C4 6043   4.230   3.269   0.543  0.3263  0.3226  0.3157
  401MPD2    C5 6044   4.230   3.405   0.548  1.5866 -1.0036 -0.2006
  401MPD2     H 6045   4.532   3.212   0.680  0.2961 -0.9934 -2.8851
  401MPD2    H1 6046   4.145   3.224   0.493  0.0226  0.4086  0.7541
  401MPD2    H2 6047   4.335   3.583   0.619 -2.6440  0.7558  0.0837
  401MPD2    H3 6048   4.154   3.463   0.498  1.3975  0.7788  2.1190
  401MPD2     N 6049   4.344   3.058   0.610 -0.0532  0.1411  0.1167
  401MPD2    H5 6050   4.424   3.013   0.654  0.9694 -0.7519 -2.6617
  401MPD2    N1 6051   4.553   3.467   0.722 -0.4255  0.1242 -0.3371
  401MPD2    H7 6052   4.622   3.402   0.756 -0.8079  0.3460  0.8565
  402TMC3    C1 6053   4.301   2.838   0.566 -0.7181  0.4940  0.6601
  402TMC3    C2 6054   4.381   2.803   0.671  0.1459 -0.7445 -0.6803
  402TMC3    C3 6055   4.428   2.678   0.665  0.2554 -0.0264 -0.3890
  402TMC3    C4 6056   4.267   2.748   0.473  0.0542 -0.2626  0.2737
  402TMC3    C5 6057   4.318   2.625   0.467 -0.1191  1.2139 -0.9060
  402TMC3    C6 6058   4.406   2.588   0.563  0.8136  0.6370  0.1570
  402TMC3     C 6059   4.266   2.972   0.535 -0.6604 -0.4783 -0.5485
  402TMC3     O 6060   4.183   2.993   0.442  0.2939  0.2033 -0.2963
  402TMC3     H 6061   4.380   2.862   0.761  1.5686 -1.4689 -0.1868
  402TMC3    H1 6062   4.210   2.773   0.385  0.6023  0.5446  0.1456
  402TMC3    H2 6063   4.438   2.485   0.567 -1.0030 -0.0107 -1.4817
  402TMC3    C7 6064   4.340   2.564   0.333  0.9275 -0.5692  0.3399
  402TMC3    C8 6065   4.539   2.640   0.756 -0.3681 -0.0324 -0.0526
  402TMC3    O1 6066   4.242   2.548   0.262  0.7298  0.1970 -0.6077
  402TMC3    O2 6067   4.602   2.535   0.729 -0.4941 -0.4297  0.2623
  403MPD2     C 6068   3.294   0.739  13.343  0.3267  0.2663  0.0476
  403MPD2    C1 6069   3.256   0.866  13.376 -0.0811 -0.1913  0.2508
  403MPD2    C2 6070   3.334   0.951  13.455  0.0917  0.3306 -1.0295
  403MPD2    C3 6071   3.450   0.898  13.503  0.5416 -0.4670  0.0467
  403MPD2    C4 6072   3.495   0.764  13.473 -0.1369  0.2402 -0.5489
  403MPD2    C5 6073   3.417   0.693  13.391  0.4312  0.3550 -0.2079
  403MPD2     H 6074   3.301   1.054  13.472 -1.2038 -0.6857  2.6778
  403MPD2    H1 6075   3.585   0.715  13.506 -1.2076 -1.0425  0.4631
  403MPD2    H2 6076   3.234   0.680  13.275  1.5696 -0.1830 -0.6496
  403MPD2    H3 6077   3.446   0.589  13.379 -2.3905 -0.2108 -2.0481
  403MPD2     N 6078   3.519   0.985  13.593 -0.3519 -0.3466 -0.5924
  403MPD2    H5 6079   3.479   1.076  13.613 -0.6191 -0.3280 -1.1872
  403MPD2    N1 6080   3.123   0.910  13.337  0.1384  1.2172 -0.3467
  403MPD2    H7 6081   3.066   0.831  13.308  2.5054 -0.1609 -1.2905
  404TMC3    C1 6082   2.941   1.022  13.284 -0.8108 -0.7001 -0.2968
  404TMC3    C2 6083   2.858   0.925  13.329 -0.3431 -0.0577  0.1361
  404TMC3    C3 6084   2.744   0.904  13.259 -0.5013  0.4917  0.0159
  404TMC3    C4 6085   2.906   1.106  13.189 -1.0567  0.9856 -0.3343
  404TMC3    C5 6086   2.789   1.078  13.119 -1.0729 -0.0151  0.4081
  404TMC3    C6 6087   2.708   0.969  13.146  0.4437  0.4359  0.9961
  404TMC3     C 6088   3.075   1.037  13.349  0.4614  0.3214  0.7914
  404TMC3     O 6089   3.127   1.147  13.351 -0.4012  0.3617  0.1185
  404TMC3     H 6090   2.885   0.868  13.417 -1.7120  1.0370  1.2713
  404TMC3    H1 6091   2.966   1.194  13.170  0.7099 -0.2804 -0.5860
  404TMC3    H2 6092   2.613   0.961  13.094  0.9157 -1.9376  0.5011
  404TMC3    C7 6093   2.794   1.138  12.986  0.1362 -0.4999  0.1856
  404TMC3    C8 6094   2.646   0.824  13.322  0.2462 -0.6400 -0.2091
  404TMC3    O1 6095   2.906   1.172  12.952  0.0176 -0.1467 -0.1338
  404TMC3    O2 6096   2.573   0.759  13.250 -0.1930  0.1136 -0.0232
  405MPD2     C 6097   3.653   2.277  14.437 -0.4833  0.4634 -1.1160
  405MPD2    C1 6098   3.544   2.212  14.391  0.2379  0.0647  0.3970
  405MPD2    C2 6099   3.440   2.279  14.336 -1.1278  0.0664  0.3755
  405MPD2    C3 6100   3.452   2.416  14.311  0.5165  0.0122 -0.0752
  405MPD2    C4 6101   3.563   2.485  14.341  0.0329  0.2778  0.6664
  405MPD2    C5 6102   3.658   2.411  14.411  0.8866 -0.3672  0.1574
  405MPD2     H 6103   3.350   2.220  14.321 -0.3342 -0.2717 -3.0400
  405MPD2    H1 6104   3.573   2.592  14.324 -1.6605  0.2134 -0.6853
  405MPD2    H2 6105   3.734   2.221  14.481 -0.6460 -0.3247 -1.8033
  405MPD2    H3 6106   3.741   2.474  14.439 -1.2431  2.2669  0.5255
  405MPD2     N 6107   3.346   2.472  14.237 -0.0805 -0.1382 -0.3743
  405MPD2    H5 6108   3.262   2.417  14.221 -0.1869 -0.0564 -0.1089
  405MPD2    N1 6109   3.546   2.071  14.403  0.5218 -0.5415 -0.0326
  405MPD2    H7 6110   3.617   2.026  14.461  0.4967 -1.7176 -0.9070
  406TMC3    C1 6111   3.051   2.711  13.988  0.4160 -0.1111  0.4334
  406TMC3    C2 6112   2.990   2.592  13.948 -0.0357  0.0061 -0.2703
  406TMC3    C3 6113   3.060   2.474  13.971  0.0526  0.0774  0.3556
  406TMC3    C4 6114   3.171   2.716  14.052 -0.1285  0.0038 -0.5968
  406TMC3    C5 6115   3.229   2.596  14.078 -0.2198 -0.1506 -0.3706
  406TMC3    C6 6116   3.181   2.477  14.035 -0.7650 -1.1315 -0.1517
  406TMC3     C 6117   2.954   2.795  14.042  0.6618 -0.6116  0.3599
  406TMC3     O 6118   2.975   2.913  14.058  1.0639 -0.2982 -0.3915
  406TMC3     H 6119   2.890   2.584  13.908 -0.7404 -0.1049  1.5116
  406TMC3    H1 6120   3.195   2.808  14.103 -0.3448  0.4865 -1.3559
  406TMC3    H2 6121   3.241   2.388  14.048 -0.0911 -0.7748 -0.7807
  406TMC3    C7 6122   3.340   2.592  14.172 -0.5527 -0.5256 -0.0940
  406TMC3    C8 6123   2.980   2.353  13.978  0.4341 -0.3153  0.3814
  406TMC3    O1 6124   3.411   2.692  14.197  0.2281  0.0919 -0.1985
  406TMC3    O2 6125   2.860   2.373  13.970 -0.6355 -0.0778 -0.0172
  407MPD2     C 6126   0.673   3.621   9.364  0.6081 -0.1218  0.1629
  407MPD2    C1 6127   0.741   3.654   9.481  0.0705  0.0264 -1.1019
  407MPD2    C2 6128   0.658   3.669   9.596  0.3648  0.2140  0.3163
  407MPD2    C3 6129   0.522   3.673   9.591  0.1433  0.1047  0.1286
  407MPD2    C4 6130   0.457   3.653   9.470 -0.6974 -0.6904 -0.7971
  407MPD2    C5 6131   0.537   3.612   9.361  0.3625 -0.5281  0.1443
  407MPD2     H 6132   0.714   3.695   9.685 -0.5448 -1.1224  1.2819
  407MPD2    H1 6133   0.350   3.632   9.467 -0.5780 -1.6534  1.5111
  407MPD2    H2 6134   0.725   3.589   9.275 -0.0945 -2.5053  0.6084
  407MPD2    H3 6135   0.487   3.578   9.271  0.2592  0.7627 -0.2927
  407MPD2     N 6136   0.443   3.681   9.707  0.2219 -0.2130  0.3218
  407MPD2    H5 6137   0.348   3.715   9.702  0.0628 -0.9787 -1.7379
  407MPD2    N1 6138   0.877   3.676   9.488  0.6710  0.1368 -0.4232
  407MPD2    H7 6139   0.911   3.714   9.576  0.7588  1.7483 -1.1634
  408TMC3    C1 6140   1.101   3.670   9.435 -0.4512 -0.2658 -0.0748
  408TMC3    C2 6141   1.190   3.568   9.422 -0.4344  0.4123  0.4929
  408TMC3    C3 6142   1.313   3.580   9.483 -0.4566 -0.1268  0.1141
  408TMC3    C4 6143   1.112   3.766   9.526 -0.1619  0.0744 -0.8397
  408TMC3    C5 6144   1.239   3.776   9.582 -0.2932  0.1874 -0.8008
  408TMC3    C6 6145   1.346   3.692   9.564 -0.3343 -0.2753  0.4079
  408TMC3     C 6146   0.966   3.634   9.394  0.6468 -0.9521 -0.1093
  408TMC3     O 6147   0.954   3.579   9.290 -0.2047 -0.4421 -0.2052
  408TMC3     H 6148   1.184   3.487   9.351 -0.0111  1.0717 -0.2985
  408TMC3    H1 6149   1.038   3.845   9.531 -0.8584 -0.4952 -2.1153
  408TMC3    H2 6150   1.433   3.698   9.629  0.8360 -2.2929 -0.9955
  408TMC3    C7 6151   1.268   3.901   9.655 -0.1386  0.3278  0.8716
  408TMC3    C8 6152   1.412   3.481   9.455  0.2612  0.7318 -0.0755
  408TMC3    O1 6153   1.376   3.898   9.715 -0.0283 -0.4150 -0.3112
  408TMC3    O2 6154   1.381   3.376   9.401  0.6175  0.0715 -0.2230
  409MPD2     C 6155   0.525   4.058  16.754 -0.6202 -0.3634  0.7129
  409MPD2    C1 6156   0.634   4.097  16.826  0.2180  0.7127  0.2698
  409MPD2    C2 6157   0.713   4.199  16.775  0.0315  0.0319 -0.2578
  409MPD2    C3 6158   0.688   4.272  16.657  0.0239 -0.1808 -0.7127
  409MPD2    C4 6159   0.581   4.227  16.587 -0.6849 -0.2232  0.2755
  409MPD2    C5 6160   0.500   4.130  16.636  0.1576 -0.7242 -0.3749
  409MPD2     H 6161   0.799   4.218  16.838  0.3054 -1.7583 -0.0950
  409MPD2    H1 6162   0.566   4.273  16.490  0.9092 -0.7717 -0.2330
  409MPD2    H2 6163   0.456   3.983  16.791 -2.7689 -0.2058 -3.0967
  409MPD2    H3 6164   0.415   4.099  16.576  0.2029 -0.4314 -0.5888
  409MPD2     N 6165   0.770   4.379  16.619  0.3851  0.2575  0.2856
  409MPD2    H5 6166   0.753   4.408  16.524  0.1337 -0.6489  0.0518
  409MPD2    N1 6167   0.674   4.034  16.951  0.5223 -0.5876  0.0897
  409MPD2    H7 6168   0.756   4.073  16.996  1.0112 -0.0729 -1.2195
  410TMC3    C1 6169   0.947   4.531  16.633  0.1318  0.3887  0.0264
  410TMC3    C2 6170   1.070   4.531  16.695 -0.4720 -0.3214  0.2698
  410TMC3    C3 6171   1.143   4.645  16.670 -0.3800  0.5678 -0.2934
  410TMC3    C4 6172   0.904   4.615  16.538 -0.4088  0.0742  0.2701
  410TMC3    C5 6173   0.991   4.710  16.495  0.6104 -0.2383 -0.4290
  410TMC3    C6 6174   1.115   4.726  16.563  0.0056 -0.1267  0.0077
  410TMC3     C 6175   0.852   4.445  16.702 -0.4568  0.3072 -0.3807
  410TMC3     O 6176   0.855   4.436  16.819 -0.4618  0.0669  0.1258
  410TMC3     H 6177   1.101   4.461  16.771 -1.6247 -1.5245 -0.3661
  410TMC3    H1 6178   0.800   4.620  16.508  0.3128  3.9286 -1.5601
  410TMC3    H2 6179   1.193   0.056  16.536 -0.1746  0.3495  0.7260
  410TMC3    C7 6180   0.943   0.077  16.411  0.0883  0.2289 -0.1210
  410TMC3    C8 6181   1.273   4.674  16.738  0.3551 -0.7353  0.1489
  410TMC3    O1 6182   0.830   0.060  16.362 -0.6267 -0.0634  0.5795
  410TMC3    O2 6183   1.309   0.051  16.729  0.2360 -0.1500 -0.2649
  411MPD2     C 6184   1.173   0.785  15.034 -0.9758  0.2901 -0.4867
  411MPD2    C1 6185   1.089   0.822  14.936  0.0881 -0.1335  0.3384
  411MPD2    C2 6186   1.012   0.720  14.878 -0.0744 -0.1775  0.5941
  411MPD2    C3 6187   1.012   0.588  14.908 -0.4278 -0.1252  0.4650
  411MPD2    C4 6188   1.100   0.553  15.014 -0.5087 -0.0224  0.8418
  411MPD2    C5 6189   1.183   0.650  15.066  0.1009  0.4764  0.0370
  411MPD2     H 6190   0.942   0.757  14.805  1.4052  1.1461 -0.1500
  411MPD2    H1 6191   1.118   0.448  15.028  0.8922  0.0659 -0.4131
  411MPD2    H2 6192   1.238   0.856  15.085 -1.1506  0.7492 -0.9012
  411MPD2    H3 6193   1.256   0.614  15.137 -1.2894 -2.1683  0.1124
  411MPD2     N 6194   0.940   0.489  14.842  0.1632  0.4227 -0.2887
  411MPD2    H5 6195   0.971   0.393  14.850 -0.0283  0.2480 -1.6523
  411MPD2    N1 6196   1.080   0.965  14.912  0.0242 -0.7576  0.1662
  411MPD2    H7 6197   1.158   1.025  14.938 -0.8639  1.0241 -1.2576
  412TMC3    C1 6198   0.773   0.403  14.702  0.3336  0.1982  0.1158
  412TMC3    C2 6199   0.699   0.433  14.588  0.0800  0.0363  0.4895
  412TMC3    C3 6200   0.711   0.349  14.478  0.4145 -0.3439 -0.2025
  412TMC3    C4 6201   0.836   0.283  14.722  0.5155 -0.4234 -0.3556
  412TMC3    C5 6202   0.832   0.200  14.612 -0.2981  0.8080 -0.0808
  412TMC3    C6 6203   0.782   0.236  14.493 -0.1809 -0.1684  0.5598
  412TMC3     C 6204   0.826   0.518  14.770  0.0764 -0.4069 -0.2422
  412TMC3     O 6205   0.781   0.627  14.734 -0.5693 -0.7375 -0.3435
  412TMC3     H 6206   0.649   0.529  14.577 -0.2060 -0.3228 -1.2555
  412TMC3    H1 6207   0.876   0.247  14.817  1.7013  0.0555 -0.6747
  412TMC3    H2 6208   0.815   0.180  14.406 -1.5688 -1.1187  0.6532
  412TMC3    C7 6209   0.798   0.064  14.646 -0.1166  0.0897  0.9202
  412TMC3    C8 6210   0.596   0.313  14.404  0.0327  0.0602  0.1754
  412TMC3    O1 6211   0.795   0.035  14.764  0.4182  0.0958  0.1737
  412TMC3    O2 6212   0.628   0.237  14.315  1.1586  0.2861  0.1544
  413MPD2     C 6213   2.788   3.718  15.234 -0.7178  0.2152  0.0113
  413MPD2    C1 6214   2.704   3.615  15.194 -0.0095  0.0445  0.1236
  413MPD2    C2 6215   2.761   3.491  15.157  0.6551  0.5452  0.5594
  413MPD2    C3 6216   2.897   3.485  15.156  0.1242  0.4334  0.2914
  413MPD2    C4 6217   2.980   3.599  15.180 -0.5247 -0.2685  0.5197
  413MPD2    C5 6218   2.928   3.720  15.223 -0.1492 -0.1228 -0.2299
  413MPD2     H 6219   2.700   3.403  15.145 -0.2507  1.5405 -1.9447
  413MPD2    H1 6220   3.087   3.584  15.174 -0.3828  1.2968 -0.7562
  413MPD2    H2 6221   2.752   3.814  15.269  2.7873  0.4402  3.0616
  413MPD2    H3 6222   2.978   3.813  15.247  0.9162 -1.4629  2.7261
  413MPD2     N 6223   2.958   3.362  15.123  0.6226  0.2213 -0.0493
  413MPD2    H5 6224   2.892   3.296  15.084 -0.4881  1.7717 -0.7754
  413MPD2    N1 6225   2.564   3.638  15.200  0.1870  0.4400  0.3139
  413MPD2    H7 6226   2.527   3.719  15.249  0.0930  0.4691  0.1958
  414TMC3    C1 6227   3.119   3.195  15.065  1.0144 -0.4562  0.4359
  414TMC3    C2 6228   3.196   3.117  15.148  0.7402  0.1570  0.2620
  414TMC3    C3 6229   3.195   2.983  15.120  0.1654 -0.1419  0.4636
  414TMC3    C4 6230   3.045   3.155  14.962  0.2761  0.1302  0.7427
  414TMC3    C5 6231   3.053   3.020  14.937 -0.3680 -0.9585  0.5882
  414TMC3    C6 6232   3.116   2.932  15.019 -0.5718 -0.7035 -0.7147
  414TMC3     C 6233   3.093   3.330  15.108  0.0514  0.0148  0.0377
  414TMC3     O 6234   3.189   3.382  15.161  0.0193 -0.0013 -0.2841
  414TMC3     H 6235   3.256   3.157  15.229  0.1816  0.5040  0.5029
  414TMC3    H1 6236   2.988   3.230  14.907  0.0301 -0.1047  0.6792
  414TMC3    H2 6237   3.119   2.828  14.989 -0.9910 -1.1651  0.8336
  414TMC3    C7 6238   2.949   2.971  14.848  0.2723 -0.6270  0.2266
  414TMC3    C8 6239   3.295   2.892  15.177  1.0741  0.5815  0.5508
  414TMC3    O1 6240   2.839   3.021  14.852  0.3572 -0.2751  0.0589
  414TMC3    O2 6241   3.285   2.780  15.130 -0.2924 -0.0728 -0.0069
  415TMC3    C1 6242   2.046   0.472   9.949 -0.2866 -0.4845  0.2920
  415TMC3    C2 6243   1.987   0.592   9.959  0.4921  0.5579 -0.0391
  415TMC3    C3 6244   1.866   0.615   9.901  0.2270  0.1599 -0.9704
  415TMC3    C4 6245   1.970   0.370   9.898 -0.8024  0.4645  0.2684
  415TMC3    C5 6246   1.847   0.388   9.847 -0.7260 -0.0345  0.3039
  415TMC3    C6 6247   1.796   0.515   9.844  0.3895 -0.1510  0.0671
  415TMC3     C 6248   2.174   0.448  10.010  0.4063  0.0691  0.3769
  415TMC3     O 6249   2.201   0.338  10.047 -0.0283 -0.5157  0.6806
  415TMC3     H 6250   2.037   0.672  10.011  0.8528 -1.5521  2.8126
  415TMC3    H1 6251   2.039   0.286   9.896 -2.3127 -0.7643 -0.4704
  415TMC3    H2 6252   1.705   0.537   9.790  0.4929 -1.0872 -0.4791
  415TMC3    C7 6253   1.765   0.270   9.817  0.3386  0.7927  0.6756
  415TMC3    C8 6254   1.801   0.741   9.925  0.7257  0.6349 -0.0666
  415TMC3    O1 6255   1.654   0.283   9.763 -0.0476 -0.0515 -0.5168
  415TMC3    O2 6256   1.681   0.738   9.925  0.3202 -0.1198  0.1948
  416MPD2     C 6257   0.129   4.212  11.795  0.0356 -0.0184  0.0853
  416MPD2    C1 6258   0.003   4.208  11.748  0.0568  0.1417 -0.7082
  416MPD2    C2 6259   4.706   4.122  11.642 -0.1795  0.1551  0.0668
  416MPD2    C3 6260   0.059   4.038  11.582 -0.0048 -0.8531 -0.4241
  416MPD2    C4 6261   0.194   4.056  11.619  0.0458  0.2195  0.4334
  416MPD2    C5 6262   0.225   4.133  11.734 -0.1786 -0.5569  0.8831
  416MPD2     H 6263   4.608   4.119  11.597  0.5708  0.6458 -1.5740
  416MPD2    H1 6264   0.270   3.998  11.568 -1.3276 -1.0995 -0.0911
  416MPD2    H2 6265   0.153   4.279  11.877  0.9297 -0.6161  0.3076
  416MPD2    H3 6266   0.323   4.126  11.779 -0.0578 -0.0812  0.6942
  416MPD2     N 6267   0.025   3.941  11.481 -0.8091 -0.2276  0.0267
  416MPD2    H5 6268   0.104   3.894  11.439 -1.3039 -0.1255 -1.0128
  416MPD2    N1 6269   4.655   4.290  11.812  0.1467 -0.8234  0.8168
  416MPD2    H7 6270   4.685   4.349  11.890 -2.5239  0.1982  1.0773
  417TMC3    C1 6271   4.460   4.413  11.856  0.3334 -0.0412  0.4360
  417TMC3    C2 6272   4.483   4.430  11.986 -0.7116  0.4677 -0.6163
  417TMC3    C3 6273   4.432   4.545  12.040 -0.5742  0.2040 -0.3157
  417TMC3    C4 6274   4.363   4.482  11.787  0.2085 -0.4600 -0.3304
  417TMC3    C5 6275   4.311   4.592  11.857  0.6018 -0.5921 -0.0290
  417TMC3    C6 6276   4.346   4.627  11.980 -0.6153 -0.1223  0.2687
  417TMC3     C 6277   4.519   4.306  11.779 -0.4898  0.1002 -0.9403
  417TMC3     O 6278   4.452   4.256  11.685 -0.0559  0.7793 -0.4526
  417TMC3     H 6279   4.539   4.364  12.051 -1.5812  0.4641  0.1205
  417TMC3    H1 6280   4.332   4.457  11.686 -2.5518  0.6033  0.2685
  417TMC3    H2 6281   4.310   4.720  12.021 -0.1745  0.4121 -0.5419
  417TMC3    C7 6282   4.204   4.664  11.800  0.0439  0.4143 -0.4058
  417TMC3    C8 6283   4.456   4.573  12.181 -0.4373 -0.1485  0.0313
  417TMC3    O1 6284   4.216   4.683  11.678 -0.1641 -0.8046  0.1233
  417TMC3    O2 6285   4.376   4.648  12.234 -0.0180  0.4815  0.6471
  418TMC3    C1 6286   3.868   2.657   0.230  0.9030  0.1201 -0.2967
  418TMC3    C2 6287   3.735   2.648   0.195 -0.4994  0.0908 -0.3956
  418TMC3    C3 6288   3.658   2.585   0.283 -0.5496 -0.1251  0.3344
  418TMC3    C4 6289   3.924   2.590   0.339 -0.6590  0.4637 -0.3209
  418TMC3    C5 6290   3.841   2.517   0.413 -0.8043  0.0520  0.2753
  418TMC3    C6 6291   3.706   2.508   0.389 -0.4402  0.1479  0.2804
  418TMC3     C 6292   3.952   2.700   0.120  0.0635  0.8198  0.2101
  418TMC3     O 6293   3.937   2.813   0.081 -0.2029 -0.2574  0.0730
  418TMC3     H 6294   3.696   2.709   0.115 -2.8554  0.8585  1.3468
  418TMC3    H1 6295   4.027   2.612   0.367 -0.8157  0.3663  0.3321
  418TMC3    H2 6296   3.638   2.458   0.457 -0.6210 -1.2818 -0.9702
  418TMC3    C7 6297   3.885   2.440   0.524  0.5842  0.1235  0.0221
  418TMC3    C8 6298   3.524   2.574   0.226 -0.1935 -0.1187 -0.1120
  418TMC3    O1 6299   3.970   2.485   0.597  0.3978  0.0463 -0.1496
  418TMC3    O2 6300   3.474   2.680   0.184 -0.2310  0.6681  0.3446
  419MPD2     C 6301   2.250   4.651  12.421  0.7447  0.2592  0.4463
  419MPD2    C1 6302   2.158   0.006  12.379  0.5581 -0.0494  0.6946
  419MPD2    C2 6303   2.076   0.056  12.479 -0.1640 -0.3796  0.1939
  419MPD2    C3 6304   2.086   0.018  12.611  0.2697  0.0252 -0.2887
  419MPD2    C4 6305   2.182   4.670  12.648 -0.6015  0.0727 -0.7295
  419MPD2    C5 6306   2.260   4.616  12.551 -0.1953  0.1803  0.0388
  419MPD2     H 6307   1.991   0.117  12.453  0.2442  0.4896  0.9432
  419MPD2    H1 6308   2.200   4.639  12.750  1.5550 -1.3808 -1.5479
  419MPD2    H2 6309   2.308   4.591  12.352  2.3120  1.8315  0.3894
  419MPD2    H3 6310   2.342   4.546  12.570  0.9619  1.3327 -0.7245
  419MPD2     N 6311   1.994   0.071  12.702 -0.1623  0.1266 -1.0130
  419MPD2    H5 6312   1.933   0.148  12.677 -1.8794 -0.9042 -0.0109
  419MPD2    N1 6313   2.138   0.044  12.246 -0.1732  0.3076  0.8034
  419MPD2    H7 6314   2.061   0.109  12.230  0.1647  0.6700  0.6271
  420TMC3    C1 6315   1.877   0.111  12.914  0.3034  0.1539  0.4226
  420TMC3    C2 6316   1.772   0.184  12.863 -0.0860  0.2833  0.0259
  420TMC3    C3 6317   1.683   0.230  12.953 -0.0241 -0.1625  0.7167
  420TMC3    C4 6318   1.897   0.097  13.051  0.2893  0.6305 -0.3360
  420TMC3    C5 6319   1.804   0.146  13.138  0.3593 -0.4690  0.6420
  420TMC3    C6 6320   1.694   0.210  13.091  0.6155  0.5755 -0.5515
  420TMC3     C 6321   1.984   0.043  12.836 -0.3047 -0.7048 -0.5124
  420TMC3     O 6322   2.058   4.706  12.901 -0.1830  0.6327 -0.7121
  420TMC3     H 6323   1.760   0.199  12.757  0.8196 -2.4977 -0.4809
  420TMC3    H1 6324   1.985   0.051  13.093  1.4370  1.7932 -1.4701
  420TMC3    H2 6325   1.634   0.257  13.168  1.3756 -0.4999  0.7080
  420TMC3    C7 6326   1.835   0.132  13.277 -0.2986 -0.3751  1.1399
  420TMC3    C8 6327   1.573   0.307  12.897 -0.0484  0.3818 -0.0826
  420TMC3    O1 6328   1.897   0.030  13.308 -0.2092  0.1173  0.2488
  420TMC3    O2 6329   1.571   0.329  12.776  0.0661  0.7736  0.2895
  421TMC3    C1 6330   3.701   1.063  13.736  0.1767 -0.2177 -0.3088
  421TMC3    C2 6331   3.670   1.193  13.710 -0.3574  0.4367 -0.3061
  421TMC3    C3 6332   3.736   1.286  13.789 -0.1876  0.4816  0.5153
  421TMC3    C4 6333   3.800   1.033  13.824  0.1805  0.1543 -1.4510
  421TMC3    C5 6334   3.855   1.124  13.909 -0.1905  0.4652 -0.4432
  421TMC3    C6 6335   3.824   1.257  13.892  0.3108 -0.4676  0.0829
  421TMC3     C 6336   3.651   0.960  13.645  0.0731 -0.3924  0.5249
  421TMC3     O 6337   3.723   0.866  13.623 -0.2328 -0.0837 -0.2382
  421TMC3     H 6338   3.621   1.217  13.616 -0.6946  3.4713  0.6681
  421TMC3    H1 6339   3.833   0.929  13.824 -2.4468 -0.6816 -0.4506
  421TMC3    H2 6340   3.852   1.330  13.967 -0.0686  0.8375 -1.0417
  421TMC3    C7 6341   3.983   1.095  13.959 -0.5785 -0.1069  0.3154
  421TMC3    C8 6342   3.694   1.425  13.778  0.2581 -0.3251 -0.7936
  421TMC3    O1 6343   4.060   1.192  13.958  0.0329  0.5130 -0.0089
  421TMC3    O2 6344   3.778   1.502  13.818 -0.0094 -0.4899 -0.3669
  422TMC3    C1 6345   1.201   2.862  12.672  0.0727 -0.4626  1.0205
  422TMC3    C2 6346   1.188   2.888  12.806  0.4559 -0.0242  0.1915
  422TMC3    C3 6347   1.064   2.870  12.859 -0.4483 -0.1644 -0.0636
  422TMC3    C4 6348   1.113   2.793  12.589  0.5715 -0.2589  0.3251
  422TMC3    C5 6349   0.992   2.776  12.655 -0.6180  0.4125  0.1596
  422TMC3    C6 6350   0.964   2.818  12.785 -0.2421 -0.7690  0.1197
  422TMC3     C 6351   1.340   2.846  12.643  0.4488 -0.6710 -0.3423
  422TMC3     O 6352   1.411   2.820  12.740 -0.3811 -0.0890 -0.3393
  422TMC3     H 6353   1.262   2.941  12.865  1.0600  0.5444 -1.0797
  422TMC3    H1 6354   1.131   2.767  12.486 -3.5224 -1.4600 -0.0650
  422TMC3    H2 6355   0.865   2.828  12.830 -0.2482  0.3037 -0.1331
  422TMC3    C7 6356   0.892   2.675  12.604 -0.6295  0.0896  0.2191
  422TMC3    C8 6357   1.027   2.980  12.946  0.7755 -0.5931  0.0979
  422TMC3    O1 6358   0.910   2.630  12.494  0.4093  0.0266 -0.2020
  422TMC3    O2 6359   1.120   3.045  12.993  0.1372  0.4065  0.6907
  423MPD2     C 6360   2.439   3.773   0.515  0.3883  0.0165 -0.5892
  423MPD2    C1 6361   2.568   3.811   0.490 -0.5645 -1.2501 -0.2162
  423MPD2    C2 6362   2.618   3.800   0.366 -0.1166 -0.6103 -0.2882
  423MPD2    C3 6363   2.544   3.748   0.256 -0.0668 -0.0137  0.4466
  423MPD2    C4 6364   2.418   3.707   0.284 -0.1231 -0.2405  0.4002
  423MPD2    C5 6365   2.365   3.709   0.414 -0.0104  0.1742  1.1419
  423MPD2     H 6366   2.719   3.839   0.354 -0.4040  1.3031  3.5781
  423MPD2    H1 6367   2.356   3.665   0.206 -0.8613  1.3376  0.1277
  423MPD2    H2 6368   2.397   3.774   0.614 -0.7013  2.0348 -1.0770
  423MPD2    H3 6369   2.261   3.684   0.427 -0.3685 -0.6737 -3.2209
  423MPD2     N 6370   2.592   3.736   0.121  0.4740 -0.2440  0.1142
  423MPD2    H5 6371   2.533   3.694   0.050 -0.3573  1.2553 -0.0877
  423MPD2    N1 6372   2.656   3.857   0.586 -0.5194 -0.0229 -0.6014
  423MPD2    H7 6373   2.755   3.845   0.564  0.1157  2.0838  1.1280
  424TMC3    C1 6374   2.726   3.893   0.812  0.0772 -0.6167  0.6358
  424TMC3    C2 6375   2.836   3.818   0.791 -0.2061 -0.4522  0.5774
  424TMC3    C3 6376   2.932   3.813   0.895 -0.4196  0.2986  0.6700
  424TMC3    C4 6377   2.703   3.963   0.933 -0.0432  0.5986 -0.1640
  424TMC3    C5 6378   2.804   3.952   1.030 -0.3451 -0.4607  1.1809
  424TMC3    C6 6379   2.922   3.886   1.008  0.2492  0.2594 -0.2087
  424TMC3     C 6380   2.621   3.898   0.709 -0.1601  0.1297 -0.2994
  424TMC3     O 6381   2.514   3.943   0.749 -0.1602  0.2529  0.5256
  424TMC3     H 6382   2.846   3.762   0.699  3.5123 -0.7692  1.1800
  424TMC3    H1 6383   2.620   4.031   0.947 -0.3468  0.6301 -2.1290
  424TMC3    H2 6384   2.980   3.858   1.094  0.3991  2.3274  0.3590
  424TMC3    C7 6385   2.792   4.038   1.146  0.1257  1.0986 -0.4919
  424TMC3    C8 6386   3.056   3.741   0.866 -0.7577 -0.3148  0.9425
  424TMC3    O1 6387   2.889   4.038   1.221  0.4287  0.2570 -0.0442
  424TMC3    O2 6388   3.054   3.673   0.765  0.9334 -0.4482  0.0326
  425MPD2     C 6389   1.657   3.146  16.869  0.9742 -0.7181 -1.0197
  425MPD2    C1 6390   1.560   3.060  16.903  0.3668 -1.0591 -0.0290
  425MPD2    C2 6391   1.442   3.105  16.964 -0.0022  0.1892  0.2809
  425MPD2    C3 6392   1.438   3.241  16.996 -0.9070  0.0712  0.1052
  425MPD2    C4 6393   1.542   3.322  16.976 -0.2488  0.2269  0.3754
  425MPD2    C5 6394   1.652   3.274  16.912  0.4504  0.3120 -0.3453
  425MPD2     H 6395   1.360   3.040  16.990 -0.3427  0.1830 -0.7969
  425MPD2    H1 6396   1.540   3.425  17.008 -1.5656  0.6992 -1.2338
  425MPD2    H2 6397   1.747   3.112  16.819  1.3586 -0.5741 -0.4202
  425MPD2    H3 6398   1.731   3.346  16.895 -0.1427  0.7643 -1.1903
  425MPD2     N 6399   1.327   3.274  17.077  0.6677 -0.4904 -0.1506
  425MPD2    H5 6400   1.250   3.208  17.086 -0.2217  0.1957 -2.8094
  425MPD2    N1 6401   1.581   2.918  16.881  0.0250 -0.4458  0.9346
  425MPD2    H7 6402   1.660   2.891  16.823 -1.7253 -0.5624 -1.4018
  426TMC3    C1 6403   1.550   2.684  16.894 -0.2320  0.4993  0.0521
  426TMC3    C2 6404   1.614   2.666  16.772  0.3359 -1.0404 -0.3827
  426TMC3    C3 6405   1.668   2.542  16.746  0.2953 -0.3376 -0.0530
  426TMC3    C4 6406   1.526   2.579  16.979  0.4140 -0.0406  0.0079
  426TMC3    C5 6407   1.579   2.455  16.943  0.4391 -0.5782  0.1962
  426TMC3    C6 6408   1.656   2.435  16.831 -0.4625 -0.1682  0.3621
  426TMC3     C 6409   1.506   2.818  16.937 -0.9268  0.0305  0.3022
  426TMC3     O 6410   1.428   2.826  17.034 -0.5075  0.8906 -0.8488
  426TMC3     H 6411   1.607   2.747  16.702 -1.7691 -1.5605 -0.7808
  426TMC3    H1 6412   1.463   2.590  17.066 -1.2808  1.3859 -1.3781
  426TMC3    H2 6413   1.710   2.343  16.811 -0.7133  0.1174 -1.6333
  426TMC3    C7 6414   1.520   2.329  17.000  0.1417 -0.3616  0.3990
  426TMC3    C8 6415   1.711   2.507  16.609 -0.0927 -0.3743 -0.3414
  426TMC3    O1 6416   1.568   2.227  16.952 -0.3727  0.2707  0.1492
  426TMC3    O2 6417   1.696   2.391  16.573  0.3470  0.0047 -0.5427
  427MPD2     C 6418   0.039   0.743  14.848 -0.1072  0.4427 -0.6403
  427MPD2    C1 6419   4.712   0.650  14.931 -0.0987 -0.5792  0.2748
  427MPD2    C2 6420   4.584   0.669  14.971 -0.7011  0.2031 -0.2537
  427MPD2    C3 6421   4.510   0.783  14.927 -0.8032 -0.2433  0.3430
  427MPD2    C4 6422   4.581   0.878  14.858  0.1090  0.0310 -0.1387
  427MPD2    C5 6423   4.701   0.854  14.815  1.1044 -0.5583 -0.8462
  427MPD2     H 6424   4.547   0.595  15.041  0.2853 -0.3419 -0.3131
  427MPD2    H1 6425   4.539   0.972  14.824  3.4287  0.3969 -3.1414
  427MPD2    H2 6426   0.142   0.734  14.814  0.7841  0.3003  2.1474
  427MPD2    H3 6427   4.737   0.931  14.748  1.6303  1.3661  1.6161
  427MPD2     N 6428   4.370   0.801  14.950  0.0326  0.2719  0.3215
  427MPD2    H5 6429   4.325   0.883  14.911 -0.6138 -1.2718 -2.1502
  427MPD2    N1 6430   0.033   0.533  14.971 -0.0143  0.0374 -1.1847
  427MPD2    H7 6431   4.721   0.468  15.028  0.6766  1.3591  0.9262
  428TMC3    C1 6432   0.196   0.372  15.009  0.1266 -0.2778 -0.2277
  428TMC3    C2 6433   0.096   0.287  15.049 -0.0840 -0.5302  0.4315
  428TMC3    C3 6434   0.132   0.169  15.109  0.4121 -0.4774  0.0090
  428TMC3    C4 6435   0.324   0.340  15.016 -0.3412  0.1847 -0.6638
  428TMC3    C5 6436   0.361   0.218  15.065 -0.3063  0.1906  0.3440
  428TMC3    C6 6437   0.267   0.125  15.111  0.4551 -0.6255  0.1368
  428TMC3     C 6438   0.164   0.496  14.951  0.0639  0.0040 -0.2463
  428TMC3     O 6439   0.247   0.559  14.887  0.0996  0.0166 -0.1686
  428TMC3     H 6440   4.731   0.307  15.069  0.3444  1.2277  0.9071
  428TMC3    H1 6441   0.387   0.411  14.964 -0.8876  0.9257 -0.3197
  428TMC3    H2 6442   0.299   0.041  15.171 -1.5656 -1.5054 -0.0286
  428TMC3    C7 6443   0.489   0.212  15.132 -0.1763  0.6460  0.0308
  428TMC3    C8 6444   0.039   0.109  15.206  0.3412 -0.0546 -0.3850
  428TMC3    O1 6445   0.495   0.133  15.224  0.7449 -0.0936  0.5226
  428TMC3    O2 6446   4.713   0.171  15.288 -0.4873 -0.0782  0.4767
  429MPD2     C 6447   1.678   0.178   0.027  0.2027 -0.5172  0.6745
  429MPD2    C1 6448   1.598   0.112  17.693 -0.3076  0.7412 -0.2852
  429MPD2    C2 6449   1.543   0.184  17.587 -0.1226  0.4272  0.5691
  429MPD2    C3 6450   1.560   0.326  17.577 -0.3430 -0.3341 -0.5787
  429MPD2    C4 6451   1.640   0.394  17.669  0.3398 -0.5492 -0.0797
  429MPD2    C5 6452   1.692   0.316   0.013 -0.2588  0.1397  0.2453
  429MPD2     H 6453   1.482   0.134  17.512  2.3382 -1.4236 -0.1805
  429MPD2    H1 6454   1.657   0.501  17.668 -0.0739 -0.4527  2.6982
  429MPD2    H2 6455   1.723   0.129   0.112 -0.4052 -1.9087  0.1887
  429MPD2    H3 6456   1.768   0.362   0.077  1.5923 -0.1720 -1.7403
  429MPD2     N 6457   1.504   0.393  17.460  0.4217 -0.5148  0.3196
  429MPD2    H5 6458   1.452   0.332  17.397  2.9449 -2.1631 -0.1636
  429MPD2    N1 6459   1.575   4.712  17.693  0.6400 -0.3327  0.4605
  429MPD2    H7 6460   1.501   4.678  17.633  1.5640 -3.9568  1.3767
  430TMC3    C1 6461   1.478   0.571  17.308  0.5159 -0.2584 -0.1793
  430TMC3    C2 6462   1.443   0.705  17.295 -0.0179  0.0741  0.2288
  430TMC3    C3 6463   1.447   0.756  17.166  0.0364 -0.5939 -0.5400
  430TMC3    C4 6464   1.519   0.496  17.200 -0.3101  0.3849  0.7380
  430TMC3    C5 6465   1.503   0.548  17.075 -0.2791 -0.1973 -0.1034
  430TMC3    C6 6466   1.476   0.681  17.051  0.4192 -0.7199  0.4298
  430TMC3     C 6467   1.532   0.527  17.432  0.0217  0.0837  0.1699
  430TMC3     O 6468   1.598   0.612  17.490 -0.3445  0.1137  0.5010
  430TMC3     H 6469   1.414   0.761  17.384  0.7827  3.5676 -1.7266
  430TMC3    H1 6470   1.533   0.390  17.217 -3.1348  0.1419  1.4749
  430TMC3    H2 6471   1.454   0.735  16.959  0.1829  1.2414  1.6283
  430TMC3    C7 6472   1.510   0.458  16.964  0.4246 -0.3046  0.0788
  430TMC3    C8 6473   1.366   0.873  17.144  0.7609  0.1732 -0.1809
  430TMC3    O1 6474   1.536   0.341  16.989 -0.9279 -0.2229  0.3954
  430TMC3    O2 6475   1.384   0.947  17.051 -0.4571  0.4418  0.2139
  431MPD2     C 6476   1.805   0.647  12.468 -0.4167 -0.5756 -0.2366
  431MPD2    C1 6477   1.876   0.708  12.363 -0.2114 -0.7358  0.2521
  431MPD2    C2 6478   1.902   0.638  12.245 -0.6164  0.1975  0.5435
  431MPD2    C3 6479   1.855   0.506  12.237 -0.2866 -0.3130  0.0011
  431MPD2    C4 6480   1.793   0.445  12.345 -0.1116 -0.3837 -0.3874
  431MPD2    C5 6481   1.767   0.517  12.459  0.0865  0.1727 -0.4057
  431MPD2     H 6482   1.954   0.675  12.157 -1.0193  0.2100  0.3115
  431MPD2    H1 6483   1.752   0.345  12.339 -0.6985 -0.0281 -2.2627
  431MPD2    H2 6484   1.795   0.696  12.564 -0.1933 -0.5698 -0.2161
  431MPD2    H3 6485   1.711   0.476  12.543 -3.7962  2.7483 -1.7059
  431MPD2     N 6486   1.888   0.432  12.122  0.2482  0.1306 -0.0458
  431MPD2    H5 6487   1.941   0.476  12.048 -0.9661  1.4592 -0.1104
  431MPD2    N1 6488   1.932   0.837  12.377  0.1390 -0.1024 -0.0658
  431MPD2    H7 6489   1.994   0.876  12.307 -0.2011  1.3279  0.4198
  432TMC3    C1 6490   1.977   0.249  12.020 -0.5939 -0.8875 -0.7688
  432TMC3    C2 6491   2.045   0.343  11.947  0.3008  0.4261  0.2743
  432TMC3    C3 6492   2.170   0.307  11.916 -0.5655  0.4576 -0.1525
  432TMC3    C4 6493   2.025   0.127  12.058  0.5554 -0.8389  0.3135
  432TMC3    C5 6494   2.158   0.101  12.036  0.8719  0.2686 -0.0250
  432TMC3    C6 6495   2.235   0.196  11.966 -0.0983  0.4452  1.3017
  432TMC3     C 6496   1.872   0.298  12.105 -0.6669 -0.3530  0.6694
  432TMC3     O 6497   1.806   0.216  12.161  0.2699  0.0424  0.3065
  432TMC3     H 6498   2.000   0.431  11.901 -0.4071  0.3727  0.8582
  432TMC3    H1 6499   1.953   0.055  12.095  1.2725 -0.5472  2.2850
  432TMC3    H2 6500   2.336   0.168  11.939  0.3601  3.5466 -0.2652
  432TMC3    C7 6501   2.217   0.022  12.137  0.2030 -0.0371 -0.1598
  432TMC3    C8 6502   2.261   0.416  11.877  0.5409 -0.0949 -0.6921
  432TMC3    O1 6503   2.333   4.723  12.129  0.1504 -0.2479 -0.0331
  432TMC3    O2 6504   2.229   0.495  11.792 -0.0836 -0.0865 -0.0032
  433MPD2     C 6505   0.624   3.894  10.805  0.1212  1.0285  0.0864
  433MPD2    C1 6506   0.571   3.790  10.871 -0.3114  0.4709  0.4400
  433MPD2    C2 6507   0.618   3.757  10.994 -0.2307 -0.1584  0.4487
  433MPD2    C3 6508   0.727   3.819  11.044  0.6506  0.5815  0.2042
  433MPD2    C4 6509   0.793   3.914  10.969 -0.8040  0.5982  0.0669
  433MPD2    C5 6510   0.743   3.953  10.848  0.1299  0.6225  0.6453
  433MPD2     H 6511   0.598   3.671  11.058 -1.7867 -0.6337 -0.6743
  433MPD2    H1 6512   0.882   3.971  10.994 -0.4632  0.5714 -1.0835
  433MPD2    H2 6513   0.600   3.917  10.702  1.2848  0.9179 -0.2040
  433MPD2    H3 6514   0.798   4.027  10.792 -1.5033 -0.3034 -2.1553
  433MPD2     N 6515   0.775   3.763  11.164 -0.5871 -0.1008 -0.3841
  433MPD2    H5 6516   0.722   3.693  11.215 -1.4802  0.0175 -1.1427
  433MPD2    N1 6517   0.486   3.701  10.795 -0.8926  0.2699 -0.3204
  433MPD2    H7 6518   0.449   3.729  10.705 -1.6632 -3.4660 -1.1562
  434TMC3    C1 6519   0.375   3.497  10.754 -0.3418 -0.4538 -0.0067
  434TMC3    C2 6520   0.350   3.373  10.811 -0.2395 -0.7540  0.0324
  434TMC3    C3 6521   0.362   3.258  10.735 -0.0335 -0.4472 -0.0520
  434TMC3    C4 6522   0.388   3.515  10.612  0.8407 -0.1686  0.1595
  434TMC3    C5 6523   0.393   3.393  10.541 -0.3814 -0.0130 -0.8331
  434TMC3    C6 6524   0.378   3.271  10.600 -0.2371  0.0996  0.5949
  434TMC3     C 6525   0.448   3.581  10.850  1.2669 -0.0280 -0.1151
  434TMC3     O 6526   0.460   3.530  10.963  0.3767  0.0388 -0.0826
  434TMC3     H 6527   0.325   3.375  10.917  0.2416  0.3757  0.1370
  434TMC3    H1 6528   0.415   3.603  10.555  0.2212 -0.7360 -1.0308
  434TMC3    H2 6529   0.353   3.181  10.545 -3.6061  1.9230 -0.8432
  434TMC3    C7 6530   0.383   3.398  10.401  0.2300 -0.1202 -0.4307
  434TMC3    C8 6531   0.444   3.162  10.798  0.0821 -0.1912  0.0011
  434TMC3    O1 6532   0.446   3.487  10.343 -0.3772 -0.6846  1.2493
  434TMC3    O2 6533   0.469   3.177  10.914  0.0468  0.5641  0.1598
  435MPD2     C 6534   3.310   4.085  15.191  0.0931 -1.3497  0.3321
  435MPD2    C1 6535   3.268   4.061  15.322  0.3662  0.1819  0.2891
  435MPD2    C2 6536   3.329   3.973  15.405 -0.0759  0.3971 -0.2737
  435MPD2    C3 6537   3.448   3.923  15.358  0.5633  0.1809  0.1021
  435MPD2    C4 6538   3.486   3.939  15.229  0.4514  0.3262 -0.1217
  435MPD2    C5 6539   3.410   4.014  15.147 -0.8005 -0.4518 -0.1568
  435MPD2     H 6540   3.276   3.943  15.494  0.2361  1.3921  0.2382
  435MPD2    H1 6541   3.574   3.900  15.179  0.4726  2.3795 -1.6553
  435MPD2    H2 6542   3.269   4.157  15.121  1.3212 -1.2367 -0.2751
  435MPD2    H3 6543   3.442   4.027  15.044  1.9139  1.2223  0.9246
  435MPD2     N 6544   3.518   3.849  15.455  0.1088  0.3082  0.3141
  435MPD2    H5 6545   3.490   3.846  15.552 -1.9992 -0.0385 -0.2902
  435MPD2    N1 6546   3.151   4.125  15.370  0.4832 -0.1195  1.1400
  435MPD2    H7 6547   3.119   4.096  15.461 -2.2262 -0.7531 -0.0034
  436TMC3    C1 6548   2.776   4.142  15.493 -0.4354 -0.0600 -0.6550
  436TMC3    C2 6549   2.886   4.109  15.417  0.3040 -0.3655  0.4251
  436TMC3    C3 6550   2.940   4.215  15.349  0.3965  0.4592 -0.0656
  436TMC3    C4 6551   2.723   4.270  15.510 -0.0901  0.4049 -0.4611
  436TMC3    C5 6552   2.783   4.367  15.435 -0.6093  0.7970 -0.9108
  436TMC3    C6 6553   2.891   4.343  15.350 -0.4661  0.1148 -0.1566
  436TMC3     C 6554   2.722   4.029  15.575 -0.8098 -0.0636 -0.6308
  436TMC3     O 6555   2.755   3.913  15.551 -0.4541  0.1377  0.6226
  436TMC3     H 6556   2.919   4.006  15.426 -3.3223 -1.6398 -0.7251
  436TMC3    H1 6557   2.639   4.288  15.577 -1.4850 -0.0159 -2.1114
  436TMC3    H2 6558   2.938   4.415  15.284 -2.0103  1.5456  0.2988
  436TMC3    C7 6559   2.744   4.495  15.481  0.5394  0.0933 -0.1341
  436TMC3    C8 6560   3.070   4.207  15.297 -0.2282  0.2596 -0.2734
  436TMC3    O1 6561   2.690   4.502  15.591  0.3125  0.3935  0.0331
  436TMC3    O2 6562   3.104   4.282  15.209 -0.0962 -0.4473  0.5232
  437TMC3    C1 6563   1.638   1.172  12.117  0.6180  0.2881  0.2032
  437TMC3    C2 6564   1.631   1.200  11.980  0.4919  0.3856 -0.0509
  437TMC3    C3 6565   1.644   1.335  11.947 -0.4646 -0.1230  0.1172
  437TMC3    C4 6566   1.681   1.274  12.201 -0.6094  0.4291 -0.5276
  437TMC3    C5 6567   1.707   1.399  12.152 -1.1279 -0.1246  0.4020
  437TMC3    C6 6568   1.683   1.438  12.024  0.3195  0.0991  0.0302
  437TMC3     C 6569   1.635   1.033  12.167 -0.5873 -1.2709 -0.0375
  437TMC3     O 6570   1.643   1.020  12.291 -0.5915 -0.3599  0.3315
  437TMC3     H 6571   1.593   1.134  11.903  0.6304  1.2233 -0.8475
  437TMC3    H1 6572   1.701   1.246  12.303 -1.5219 -1.8214 -0.9680
  437TMC3    H2 6573   1.703   1.539  11.988  0.7366  0.2707  0.7311
  437TMC3    C7 6574   1.797   1.489  12.227  0.2811 -0.1504  0.5731
  437TMC3    C8 6575   1.619   1.372  11.814 -0.1755 -0.4588  0.2878
  437TMC3    O1 6576   1.840   1.586  12.173  0.1685  0.1226  0.9501
  437TMC3    O2 6577   1.677   1.470  11.770  0.1591  0.4256  0.2685
  438MPD2     C 6578   4.069   2.292  16.678  1.0463  0.1367 -0.1681
  438MPD2    C1 6579   4.074   2.165  16.725  0.1149  0.0780 -0.0033
  438MPD2    C2 6580   4.032   2.148  16.856  0.4604 -0.3310 -0.2222
  438MPD2    C3 6581   3.993   2.250  16.934  0.2683 -0.4475  0.3074
  438MPD2    C4 6582   3.988   2.381  16.887 -0.2451  0.0096 -0.7895
  438MPD2    C5 6583   4.029   2.398  16.760  0.3469  0.6423 -0.3315
  438MPD2     H 6584   4.042   2.051  16.904 -0.2338 -0.5119 -0.4537
  438MPD2    H1 6585   3.957   2.460  16.954  1.5558  0.3890 -0.4159
  438MPD2    H2 6586   4.101   2.309  16.575  1.6264 -0.0811 -0.0199
  438MPD2    H3 6587   4.017   2.497  16.718  3.2628  0.4838 -1.5820
  438MPD2     N 6588   3.967   2.226  17.074  0.3039  0.1557 -0.7041
  438MPD2    H5 6589   3.973   2.315  17.124 -2.1612 -0.3879  0.5372
  438MPD2    N1 6590   4.126   2.053  16.660 -0.5602 -0.5644  0.0082
  438MPD2    H7 6591   4.134   1.966  16.711  0.3178  0.9401  2.4551
  439TMC3    C1 6592   4.247   1.920  16.509 -0.1552 -0.2021  0.4606
  439TMC3    C2 6593   4.231   1.879  16.378 -0.1232  0.2525 -0.2527
  439TMC3    C3 6594   4.250   1.745  16.351 -0.0776 -0.3655  0.5930
  439TMC3    C4 6595   4.276   1.831  16.610 -0.1636  0.1430  0.5177
  439TMC3    C5 6596   4.294   1.698  16.584 -0.0320 -0.4158  0.1220
  439TMC3    C6 6597   4.275   1.656  16.455 -0.5371  0.2266  0.4477
  439TMC3     C 6598   4.185   2.049  16.536  0.7689 -0.6453 -0.2068
  439TMC3     O 6599   4.195   2.130  16.444 -0.7509  0.4498 -0.1639
  439TMC3     H 6600   4.194   1.950  16.305 -0.8334 -0.7039 -0.8180
  439TMC3    H1 6601   4.287   1.873  16.709 -0.4732 -0.9062  0.9881
  439TMC3    H2 6602   4.294   1.553  16.425 -0.8318  0.9174 -2.1228
  439TMC3    C7 6603   4.368   1.616  16.675 -0.6671  0.3695  0.2158
  439TMC3    C8 6604   4.248   1.704  16.210  1.0508  0.1395 -0.2870
  439TMC3    O1 6605   4.434   1.670  16.758  0.0235  0.0375  0.5746
  439TMC3    O2 6606   4.222   1.583  16.192 -0.0508  0.3595  0.1933
  440MPD2     C 6607   3.048   2.305  14.719 -0.1328  0.7715  0.8373
  440MPD2    C1 6608   3.062   2.355  14.844  0.0324 -0.1534 -0.2542
  440MPD2    C2 6609   3.166   2.312  14.925 -0.5319 -0.4360  0.2682
  440MPD2    C3 6610   3.266   2.234  14.873  0.3797  0.3093 -0.3118
  440MPD2    C4 6611   3.253   2.183  14.746 -0.1778  0.2958 -0.1235
  440MPD2    C5 6612   3.137   2.215  14.670 -0.4277  0.1904 -0.5248
  440MPD2     H 6613   3.163   2.351  15.026  0.7369 -0.8321  0.4645
  440MPD2    H1 6614   3.337   2.128  14.704 -0.8487 -0.5007 -0.4115
  440MPD2    H2 6615   2.964   2.330  14.655  0.4813 -0.9050 -0.6070
  440MPD2    H3 6616   3.122   2.196  14.565  1.4071  0.5258 -0.8449
  440MPD2     N 6617   3.384   2.200  14.944  0.9839 -0.3790  0.7000
  440MPD2    H5 6618   3.457   2.153  14.891  0.3495 -1.2920  0.6297
  440MPD2    N1 6619   2.961   2.439  14.900 -0.5051  0.0997  1.0456
  440MPD2    H7 6620   2.970   2.473  14.996  0.2841 -2.7878  1.9823
  441TMC3    C1 6621   3.556   2.219  15.102 -0.1677  0.0648  0.4242
  441TMC3    C2 6622   3.614   2.327  15.166 -0.5999 -0.1969  0.0463
  441TMC3    C3 6623   3.671   2.308  15.291 -0.6358  0.2782  0.5404
  441TMC3    C4 6624   3.555   2.091  15.165 -0.5581  0.1771  0.0351
  441TMC3    C5 6625   3.614   2.082  15.285  0.5003  0.0770 -0.2896
  441TMC3    C6 6626   3.680   2.180  15.349  0.4714 -0.3940  0.6195
  441TMC3     C 6627   3.421   2.254  15.067  0.4551  0.4796  0.8297
  441TMC3     O 6628   3.371   2.334  15.143 -0.0064  0.6894 -0.1809
  441TMC3     H 6629   3.625   2.422  15.115  0.0873 -0.3481 -0.0915
  441TMC3    H1 6630   3.488   2.011  15.137  0.9425 -0.8085 -0.7282
  441TMC3    H2 6631   3.705   2.171  15.455 -1.9199 -1.0174  1.1286
  441TMC3    C7 6632   3.548   1.983  15.374  0.0167 -0.6616 -0.3312
  441TMC3    C8 6633   3.679   2.423  15.381 -0.1253  1.3119  0.0629
  441TMC3    O1 6634   3.427   1.976  15.369 -0.1456  0.7186  0.2261
  441TMC3    O2 6635   3.766   2.438  15.458 -0.0905  0.3662  0.1773
  442MPD2     C 6636   1.300   2.557  16.353 -0.6842  0.9475 -0.2898
  442MPD2    C1 6637   1.177   2.509  16.399 -0.6411  0.4141 -0.3339
  442MPD2    C2 6638   1.127   2.389  16.350  0.0921 -0.8481  0.3671
  442MPD2    C3 6639   1.199   2.325  16.255 -0.8939 -0.4373 -0.7471
  442MPD2    C4 6640   1.312   2.375  16.203  0.3543 -0.3072 -0.0639
  442MPD2    C5 6641   1.377   2.482  16.258 -0.1563  0.1908  0.1017
  442MPD2     H 6642   1.029   2.356  16.382 -0.6372  0.8924 -0.0460
  442MPD2    H1 6643   1.369   2.333  16.122  2.5307  1.8465  0.3609
  442MPD2    H2 6644   1.352   2.645  16.387  1.3103 -1.1320  2.0186
  442MPD2    H3 6645   1.464   2.528  16.212  0.1373  0.4021  0.8702
  442MPD2     N 6646   1.162   2.201  16.196 -0.4230 -0.0561 -0.7458
  442MPD2    H5 6647   1.228   2.174  16.124  0.8009  2.8073 -0.7223
  442MPD2    N1 6648   1.099   2.577  16.494  0.8288 -0.4308 -0.0649
  442MPD2    H7 6649   1.005   2.545  16.514  1.2677 -1.0427  1.0253
  443TMC3    C1 6650   1.022   2.755  16.621 -0.9919  0.4656 -0.4941
  443TMC3    C2 6651   0.993   2.882  16.608 -0.2347 -0.2926 -0.3461
  443TMC3    C3 6652   0.888   2.934  16.683 -0.1978 -0.0829 -0.3713
  443TMC3    C4 6653   0.972   2.672  16.717  0.1286 -0.0475 -0.2586
  443TMC3    C5 6654   0.882   2.720  16.803 -0.5487 -0.2616 -0.2103
  443TMC3    C6 6655   0.839   2.855  16.786  0.6740 -0.1091  0.4631
  443TMC3     C 6656   1.135   2.694  16.551 -1.2698 -0.4377 -0.4404
  443TMC3     O 6657   1.238   2.763  16.538  0.1382  1.0873  0.4936
  443TMC3     H 6658   1.035   2.940  16.526 -0.9157  1.1614  0.3348
  443TMC3    H1 6659   1.001   2.568  16.723  0.2838  0.0335  0.3800
  443TMC3    H2 6660   0.736   2.867  16.817  0.5558  0.1070 -0.0057
  443TMC3    C7 6661   0.805   2.622  16.868  0.0670 -0.1618 -0.0618
  443TMC3    C8 6662   0.797   2.994  16.582 -0.3344  0.1805 -0.6005
  443TMC3    O1 6663   0.782   2.513  16.816 -0.1391 -0.2365  0.2841
  443TMC3    O2 6664   0.809   3.109  16.547  0.0586 -0.6738 -0.0000
  444MPD2     C 6665   1.227   2.395  16.792  0.2054 -0.7998  0.6054
  444MPD2    C1 6666   1.151   2.281  16.812  0.1497  0.3684 -0.7147
  444MPD2    C2 6667   1.174   2.177  16.721  0.1648  0.4207  0.1428
  444MPD2    C3 6668   1.268   2.185  16.617  0.7372 -0.2200  0.4421
  444MPD2    C4 6669   1.329   2.303  16.597 -0.2582 -0.6002  0.2850
  444MPD2    C5 6670   1.304   2.409  16.683 -0.2404  0.0413  0.1396
  444MPD2     H 6671   1.112   2.088  16.730 -0.2106  0.4711 -2.0258
  444MPD2    H1 6672   1.384   2.323  16.506  1.0237 -0.7614  1.0106
  444MPD2    H2 6673   1.222   2.481  16.857  0.6204 -0.0002 -0.4019
  444MPD2    H3 6674   1.358   2.501  16.663  1.1058 -1.2688 -2.1886
  444MPD2     N 6675   1.281   2.071  16.532 -0.2861 -0.5051  0.4115
  444MPD2    H5 6676   1.228   1.991  16.566 -0.6812 -0.5363 -0.3032
  444MPD2    N1 6677   1.054   2.257  16.912 -0.6832 -0.3266  0.3082
  444MPD2    H7 6678   1.018   2.163  16.925  0.7523 -0.5983  2.3289
  445TMC3    C1 6679   1.387   1.939  16.367  0.9658 -0.2541  0.3852
  445TMC3    C2 6680   1.291   1.844  16.372  0.3931 -0.3184  1.0452
  445TMC3    C3 6681   1.309   1.732  16.292 -0.5609  0.8137  0.3435
  445TMC3    C4 6682   1.501   1.918  16.294 -0.1379  0.4912  0.1166
  445TMC3    C5 6683   1.519   1.797  16.228  0.0342 -0.0346 -0.4938
  445TMC3    C6 6684   1.420   1.705  16.223 -0.0779  0.4769  0.3022
  445TMC3     C 6685   1.394   2.046  16.459  0.0603  0.3727  0.3251
  445TMC3     O 6686   1.502   2.105  16.459 -0.0154 -0.2989  0.1865
  445TMC3     H 6687   1.192   1.861  16.415 -0.8344 -1.7298 -1.2213
  445TMC3    H1 6688   1.587   1.982  16.308  0.3370 -0.1465  0.1112
  445TMC3    H2 6689   1.426   1.619  16.157 -3.1166 -0.1207  0.7737
  445TMC3    C7 6690   1.653   1.750  16.201 -0.0367  0.4242 -0.6112
  445TMC3    C8 6691   1.203   1.640  16.284  0.8622  0.2194  0.3860
  445TMC3    O1 6692   1.737   1.835  16.182  0.4065  0.0691  0.3155
  445TMC3    O2 6693   1.089   1.683  16.284 -0.6880  0.1629 -0.5106
  446MPD2     C 6694   0.332   2.928  11.383 -0.0870  0.0663 -0.1836
  446MPD2    C1 6695   0.311   2.957  11.250 -0.0545 -0.2238  0.3853
  446MPD2    C2 6696   0.395   3.043  11.185 -0.0263 -0.0462  0.2052
  446MPD2    C3 6697   0.511   3.090  11.242 -0.5419  0.6128 -0.2048
  446MPD2    C4 6698   0.532   3.057  11.377  0.2034 -0.2336  0.3871
  446MPD2    C5 6699   0.439   2.983  11.451 -0.3373  0.1881 -0.5604
  446MPD2     H 6700   0.371   3.057  11.080 -1.3612  1.3766  0.6987
  446MPD2    H1 6701   0.614   3.103  11.430  0.5773  1.4476 -1.6383
  446MPD2    H2 6702   0.257   2.875  11.440 -0.1941 -1.0142 -1.3054
  446MPD2    H3 6703   0.447   2.970  11.558  0.2457  2.0913 -0.3812
  446MPD2     N 6704   0.602   3.163  11.159 -0.1426  0.4083 -0.0939
  446MPD2    H5 6705   0.568   3.201  11.071 -0.9120  0.8260  0.3856
  446MPD2    N1 6706   0.204   2.911  11.179 -0.0436 -0.2985  0.5180
  446MPD2    H7 6707   0.201   2.951  11.086  0.9447 -2.9364 -0.6405
  447TMC3    C1 6708   0.810   3.212  11.064 -0.2427 -0.2778  0.2523
  447TMC3    C2 6709   0.748   3.290  10.970 -0.5521 -0.1421 -0.2975
  447TMC3    C3 6710   0.823   3.331  10.871  0.3933 -0.6901 -0.6612
  447TMC3    C4 6711   0.940   3.165  11.051  0.0741  0.1110  0.3845
  447TMC3    C5 6712   1.011   3.201  10.938  0.1626 -0.4374 -0.4017
  447TMC3    C6 6713   0.952   3.284  10.846 -0.3830  0.3163 -0.3691
  447TMC3     C 6714   0.741   3.164  11.179  0.8060 -0.2062  0.1275
  447TMC3     O 6715   0.806   3.079  11.244 -0.1153  0.1886  0.3961
  447TMC3     H 6716   0.655   3.343  10.986 -0.3545 -0.4087  1.8123
  447TMC3    H1 6717   0.986   3.097  11.123 -2.1287  0.0894  1.7529
  447TMC3    H2 6718   0.992   3.294  10.746 -1.1235  0.8659 -0.6107
  447TMC3    C7 6719   1.143   3.140  10.926 -0.0131 -0.2866 -0.4513
  447TMC3    C8 6720   0.770   3.402  10.761 -0.3777 -0.1646 -0.3969
  447TMC3    O1 6721   1.175   3.046  10.997 -0.8104  0.1743  0.4473
  447TMC3    O2 6722   0.668   3.359  10.705  0.4106  0.1714 -0.0662
  448TMC3    C1 6723   4.199   3.296  16.888  0.5490 -0.7237 -0.5896
  448TMC3    C2 6724   4.221   3.183  16.821 -0.0903  0.8088  0.2043
  448TMC3    C3 6725   4.236   3.071  16.895 -0.3414  0.1653  0.6126
  448TMC3    C4 6726   4.198   3.302  17.024  0.5246  0.7571 -0.1565
  448TMC3    C5 6727   4.185   3.190  17.089  0.0086 -0.4318  0.3362
  448TMC3    C6 6728   4.206   3.070  17.027  0.4449 -0.0571  0.1644
  448TMC3     C 6729   4.181   3.426  16.825  0.1756 -0.0241  0.1194
  448TMC3     O 6730   4.226   3.527  16.880  0.2528 -0.0187 -0.2172
  448TMC3     H 6731   4.244   3.183  16.715 -0.2511  1.1627  0.1705
  448TMC3    H1 6732   4.170   3.397  17.068  0.0823 -0.1556  1.5432
  448TMC3    H2 6733   4.199   2.976  17.081 -1.8818  0.6836  1.1284
  448TMC3    C7 6734   4.146   3.195  17.227 -0.1911  0.1128 -1.0344
  448TMC3    C8 6735   4.245   2.944  16.836  0.6022 -0.0879 -0.3810
  448TMC3    O1 6736   4.101   3.091  17.271  0.2285 -0.1423  0.2460
  448TMC3    O2 6737   4.288   2.856  16.908 -0.3253  0.0552  0.2335
  449MPD2     C 6738   0.981   1.512  13.958  0.0407  0.0971 -0.3271
  449MPD2    C1 6739   0.893   1.614  13.924  0.0645  0.6973 -0.1634
  449MPD2    C2 6740   0.773   1.615  13.988  0.0773 -0.1797  0.2163
  449MPD2    C3 6741   0.735   1.529  14.090  0.5768  0.1317 -0.6971
  449MPD2    C4 6742   0.826   1.435  14.121  0.6166 -0.3673 -0.8132
  449MPD2    C5 6743   0.944   1.421  14.057 -0.5564  0.3355 -0.1584
  449MPD2     H 6744   0.705   1.694  13.957 -0.5494 -1.5019 -1.7486
  449MPD2    H1 6745   0.802   1.356  14.190  2.4448  0.4386  0.7799
  449MPD2    H2 6746   1.079   1.502  13.913 -0.7822 -0.3417 -2.0005
  449MPD2    H3 6747   1.010   1.336  14.074 -1.9255 -0.3097  2.0107
  449MPD2     N 6748   0.603   1.534  14.130 -0.1005  0.2491  0.0379
  449MPD2    H5 6749   0.547   1.597  14.072 -2.1500  0.1896  1.9405
  449MPD2    N1 6750   0.920   1.716  13.832  0.4743 -0.2326 -0.1743
  449MPD2    H7 6751   0.850   1.789  13.823 -0.5433 -1.0830  0.7267
  450TMC3    C1 6752   1.018   1.865  13.694 -0.8699 -0.4267 -0.2278
  450TMC3    C2 6753   1.013   1.855  13.561 -0.7747 -0.3443  0.5993
  450TMC3    C3 6754   0.923   1.936  13.495 -0.1350  0.0263 -0.1083
  450TMC3    C4 6755   0.936   1.952  13.767  0.3175 -0.1730  0.0967
  450TMC3    C5 6756   0.836   2.018  13.700 -0.2400 -0.5406  0.0994
  450TMC3    C6 6757   0.826   2.003  13.563  0.2303 -0.4469 -0.2492
  450TMC3     C 6758   1.031   1.739  13.754  0.5699  0.2134  0.8209
  450TMC3     O 6759   1.119   1.657  13.731 -0.8483  0.3853  0.5503
  450TMC3     H 6760   1.087   1.797  13.508  2.0881  4.2557 -0.4220
  450TMC3    H1 6761   0.954   1.969  13.873 -0.2047  0.9803 -0.0037
  450TMC3    H2 6762   0.739   2.045  13.515  1.8014  3.4420  0.3205
  450TMC3    C7 6763   0.713   1.996  13.774  0.7015 -0.6404 -1.5026
  450TMC3    C8 6764   0.905   1.925  13.348 -0.0658  0.1272  0.7886
  450TMC3    O1 6765   0.721   1.889  13.835 -0.2907 -0.1721  0.3813
  450TMC3    O2 6766   0.815   1.995  13.303 -0.3739  0.1352 -0.6900
  451MPD2     C 6767   3.031   0.063   0.605  0.2095  0.2927  0.3725
  451MPD2    C1 6768   2.982   0.085   0.480 -0.0997 -0.3421 -0.6871
  451MPD2    C2 6769   3.068   0.098   0.375 -0.1021 -1.1755  0.2029
  451MPD2    C3 6770   3.200   0.050   0.392 -0.6814 -0.0053 -0.3730
  451MPD2    C4 6771   3.248   0.014   0.509  0.0848 -0.4172 -0.4349
  451MPD2    C5 6772   3.167   0.028   0.622 -0.1568 -0.5104 -0.4909
  451MPD2     H 6773   3.041   0.147   0.283 -1.0739 -0.8160  0.6861
  451MPD2    H1 6774   3.355   4.736   0.521  0.3050  1.5042  0.4815
  451MPD2    H2 6775   2.960   0.067   0.686  1.1777 -0.8791  1.2801
  451MPD2    H3 6776   3.201   0.015   0.724  2.7699 -1.5353 -1.5938
  451MPD2     N 6777   3.300   0.048   0.290 -0.4784  0.1457 -0.5165
  451MPD2    H5 6778   3.396   0.060   0.323 -0.5894 -1.7372  0.4783
  451MPD2    N1 6779   2.845   0.105   0.466  0.4834  0.4507 -0.2502
  451MPD2    H7 6780   2.788   0.132   0.546 -3.0325 -2.3778 -1.7968
  452TMC3    C1 6781   3.159   0.016   0.086  0.9304  0.1674  0.1269
  452TMC3    C2 6782   3.085   4.652   0.150  0.1282 -0.5775 -0.6125
  452TMC3    C3 6783   2.960   4.619   0.089 -0.0387 -0.2048  0.3528
  452TMC3    C4 6784   3.113   0.093  17.738 -0.0435  0.1328 -0.3957
  452TMC3    C5 6785   2.986   0.057  17.694  0.9118  0.2536  0.9110
  452TMC3    C6 6786   2.917   4.687  17.736 -0.5541 -0.2293 -0.3831
  452TMC3     C 6787   3.282   0.063   0.151  0.4357  0.6781  0.2501
  452TMC3     O 6788   3.373   0.087   0.069  0.4794  0.3046 -0.5751
  452TMC3     H 6789   3.126   4.584   0.224 -2.5266 -1.1219  0.3437
  452TMC3    H1 6790   3.163   0.181  17.699  3.5136 -1.9308 -0.4214
  452TMC3    H2 6791   2.819   4.668  17.693  0.5347 -2.2907 -1.9240
  452TMC3    C7 6792   2.908   0.176  17.666  0.2262 -0.1665  0.4783
  452TMC3    C8 6793   2.862   4.537   0.166 -0.2000  0.0945 -0.0615
  452TMC3    O1 6794   2.941   0.281  17.722  0.2800  0.1972 -0.6094
  452TMC3    O2 6795   2.761   4.519   0.103  0.7275  0.1157  0.4134
  453TMC3    C1 6796   3.402   2.411  12.005  0.5337 -0.3023 -0.0151
  453TMC3    C2 6797   3.331   2.291  12.017 -0.5446 -0.2737  0.2915
  453TMC3    C3 6798   3.221   2.280  11.934  0.2952 -0.0574 -0.1924
  453TMC3    C4 6799   3.368   2.520  11.924  0.1358  0.0668  0.3854
  453TMC3    C5 6800   3.253   2.497  11.852 -0.2748  0.1407  0.4841
  453TMC3    C6 6801   3.184   2.379  11.846 -0.6336  0.0392  0.2842
  453TMC3     C 6802   3.514   2.419  12.093  0.0093 -0.2024 -0.4369
  453TMC3     O 6803   3.547   2.533  12.123 -0.5462 -0.1576  0.8244
  453TMC3     H 6804   3.353   2.224  12.100 -0.0991 -4.4479 -3.2035
  453TMC3    H1 6805   3.433   2.606  11.908 -1.6139  0.9808 -1.8648
  453TMC3    H2 6806   3.097   2.368  11.783  0.4984 -0.1155 -1.2559
  453TMC3    C7 6807   3.225   2.579  11.737 -0.0490 -0.0808 -0.8411
  453TMC3    C8 6808   3.139   2.166  11.945 -0.3704 -0.1372 -0.0518
  453TMC3    O1 6809   3.208   2.517  11.628  0.4348  0.2170 -0.3154
  453TMC3    O2 6810   3.018   2.189  11.927 -0.1605  0.1686 -0.2709
  454MPD2     C 6811   2.138   1.687  15.634  0.8092  0.0056 -0.2169
  454MPD2    C1 6812   2.025   1.728  15.574  0.3262 -0.4680  0.6018
  454MPD2    C2 6813   1.964   1.854  15.590  0.2747 -0.4401 -0.0410
  454MPD2    C3 6814   2.030   1.947  15.665  0.1381 -0.4219  0.7675
  454MPD2    C4 6815   2.150   1.913  15.721  0.1273 -0.0759  1.1958
  454MPD2    C5 6816   2.206   1.785  15.702 -0.5855 -0.0571 -0.4920
  454MPD2     H 6817   1.869   1.881  15.545  0.6771  0.7361 -0.2034
  454MPD2    H1 6818   2.204   1.988  15.777  0.2601  0.2831  0.5862
  454MPD2    H2 6819   2.168   1.583  15.638  0.0175 -0.2364 -0.5812
  454MPD2    H3 6820   2.309   1.762  15.724 -0.4068  1.6751  0.4921
  454MPD2     N 6821   1.965   2.064  15.714  0.4034 -0.3892 -0.3886
  454MPD2    H5 6822   2.006   2.102  15.799  1.4154 -0.1606 -0.9742
  454MPD2    N1 6823   1.930   1.635  15.511  0.0336 -0.2482 -0.6368
  454MPD2    H7 6824   1.840   1.677  15.492 -0.7494 -1.8563 -0.4359
  455TMC3    C1 6825   1.751   2.159  15.771  1.2617  0.0413 -0.0079
  455TMC3    C2 6826   1.780   2.225  15.888  0.4014  0.4240  0.2481
  455TMC3    C3 6827   1.685   2.228  15.984  0.2043 -0.2130  0.2027
  455TMC3    C4 6828   1.628   2.092  15.761 -0.0391  0.0026 -0.7685
  455TMC3    C5 6829   1.543   2.088  15.861 -0.4161 -0.4481 -0.2073
  455TMC3    C6 6830   1.566   2.161  15.971  0.0933  0.2950 -0.1736
  455TMC3     C 6831   1.848   2.116  15.669  0.6101 -0.0155  0.0726
  455TMC3     O 6832   1.793   2.096  15.558 -0.7444 -0.0775 -0.2311
  455TMC3     H 6833   1.879   2.267  15.904  0.9959 -0.8489 -0.1157
  455TMC3    H1 6834   1.614   2.037  15.669 -0.4751  0.5579 -1.0397
  455TMC3    H2 6835   1.501   2.149  16.058 -0.3323  0.5468 -0.4576
  455TMC3    C7 6836   1.514   1.951  15.889  0.2872  0.4953 -0.4810
  455TMC3    C8 6837   1.700   2.309  16.099 -0.1076 -1.0654  0.4422
  455TMC3    O1 6838   1.419   1.924  15.963 -0.0856  0.1908 -0.2841
  455TMC3    O2 6839   1.660   2.265  16.207 -0.1378 -0.1738 -0.9011
  456MPD2     C 6840   4.683   1.732  16.055 -0.6577  0.8966 -0.3635
  456MPD2    C1 6841   4.683   1.666  16.174 -0.5131  0.0481  0.2606
  456MPD2    C2 6842   4.670   1.744  16.291  0.0876 -0.2837  0.9014
  456MPD2    C3 6843   4.646   1.880  16.282  0.0067 -0.4715 -0.3409
  456MPD2    C4 6844   4.652   1.942  16.162  0.2523  0.3329  0.1641
  456MPD2    C5 6845   4.681   1.865  16.054 -0.9946 -0.0151  0.3402
  456MPD2     H 6846   4.671   1.687  16.383  0.0927 -0.6480  0.6767
  456MPD2    H1 6847   4.648   2.050  16.156  0.6201  0.4058  1.2515
  456MPD2    H2 6848   4.697   1.674  15.964  1.3803  1.1570 -0.2289
  456MPD2    H3 6849   4.695   1.911  15.957 -0.6789  0.6541  0.7029
  456MPD2     N 6850   4.614   1.940  16.408  0.0188  0.0147 -0.9292
  456MPD2    H5 6851   4.607   1.886  16.494 -3.6676  0.5406 -0.8994
  456MPD2    N1 6852   4.706   1.525  16.185 -0.2412 -0.1622 -0.0288
  456MPD2    H7 6853   4.723   1.478  16.097  1.1648 -1.2812  0.8395
  457TMC3    C1 6854   4.533   2.128  16.549 -0.7649  0.5512  0.2104
  457TMC3    C2 6855   4.451   2.242  16.551 -0.9664  0.0477 -0.7188
  457TMC3    C3 6856   4.439   2.308  16.666 -0.7339 -0.3481  0.1818
  457TMC3    C4 6857   4.591   2.075  16.657 -0.1630  0.2541 -0.4619
  457TMC3    C5 6858   4.580   2.152  16.772  0.7394 -0.5528 -0.9292
  457TMC3    C6 6859   4.506   2.266  16.781  1.0332 -0.1061 -0.0098
  457TMC3     C 6860   4.571   2.075  16.418  0.0215  0.0734 -0.3817
  457TMC3     O 6861   4.535   2.150  16.331 -0.0672 -0.1700 -0.3450
  457TMC3     H 6862   4.421   2.286  16.456 -0.7655  1.7627  0.0159
  457TMC3    H1 6863   4.654   1.987  16.647  1.8707  1.8986 -2.4020
  457TMC3    H2 6864   4.482   2.326  16.868 -0.1250 -0.4043 -0.1239
  457TMC3    C7 6865   4.641   2.106  16.901 -1.0118 -0.2089  0.5691
  457TMC3    C8 6866   4.391   2.443  16.665  0.0641  0.3232 -0.7109
  457TMC3    O1 6867   4.653   1.988  16.929  0.3947  0.3570 -0.7859
  457TMC3    O2 6868   4.430   2.524  16.750  0.2992  0.0959  0.3822
  458MPD2     C 6869   2.131   1.582  12.607 -0.1724 -0.3373 -0.9172
  458MPD2    C1 6870   2.040   1.486  12.652 -0.3728 -0.5549  0.3408
  458MPD2    C2 6871   1.939   1.438  12.566  0.2791  0.3320 -0.0584
  458MPD2    C3 6872   1.925   1.495  12.441 -0.4266  0.0403 -0.0580
  458MPD2    C4 6873   2.024   1.594  12.402 -0.3335 -0.5090 -0.7231
  458MPD2    C5 6874   2.116   1.637  12.486  0.2782 -0.3019 -0.6611
  458MPD2     H 6875   1.875   1.355  12.592  0.5591  0.2726  0.4448
  458MPD2    H1 6876   2.021   1.646  12.307  1.1564  2.0128  0.6369
  458MPD2    H2 6877   2.216   1.616  12.665 -0.3998 -0.9435 -0.2326
  458MPD2    H3 6878   2.180   1.721  12.460  0.5381  0.0266  0.9853
  458MPD2     N 6879   1.823   1.448  12.354 -0.0539  0.9154 -0.3479
  458MPD2    H5 6880   1.763   1.374  12.390  0.2815  1.3361  1.0792
  458MPD2    N1 6881   2.060   1.432  12.779  0.0172  0.0991 -0.2423
  458MPD2    H7 6882   2.141   1.470  12.827  0.7995 -1.5107 -0.3077
  459TMC3    C1 6883   2.041   1.290  12.971  0.0100  0.1421 -0.5343
  459TMC3    C2 6884   2.131   1.379  13.020  0.7831 -0.0004  0.5160
  459TMC3    C3 6885   2.248   1.332  13.062  0.5014 -0.2130 -0.0120
  459TMC3    C4 6886   2.058   1.159  12.985 -0.4673  0.7508  0.3820
  459TMC3    C5 6887   2.176   1.118  13.045 -0.3106 -0.4076 -0.4867
  459TMC3    C6 6888   2.274   1.202  13.079  0.7439  0.4446 -0.4886
  459TMC3     C 6889   1.989   1.328  12.839  0.6329  0.4035 -0.3552
  459TMC3     O 6890   1.886   1.268  12.806 -0.2553 -0.3934  0.2759
  459TMC3     H 6891   2.102   1.484  13.022 -0.9885 -0.4626 -1.6999
  459TMC3    H1 6892   1.999   1.078  12.943  1.1137  0.6572 -1.6998
  459TMC3    H2 6893   2.372   1.165  13.107  0.5474  0.2353 -0.0786
  459TMC3    C7 6894   2.227   0.980  13.032  0.5533 -0.5090  0.9212
  459TMC3    C8 6895   2.369   1.406  13.031  0.5741  0.0163 -0.9422
  459TMC3    O1 6896   2.349   0.963  13.011  0.1114  0.2572 -0.3045
  459TMC3    O2 6897   2.372   1.477  12.933 -0.4431 -0.0911 -0.4846
  460MPD2     C 6898   0.903   3.741  10.653  0.1592 -0.0384 -0.5083
  460MPD2    C1 6899   0.823   3.628  10.646  0.4310  0.8743  0.1525
  460MPD2    C2 6900   0.731   3.623  10.538 -0.7596 -0.1649 -0.4125
  460MPD2    C3 6901   0.716   3.734  10.452 -0.1300  0.8722 -0.4170
  460MPD2    C4 6902   0.790   3.845  10.474  0.0756 -0.0587  0.0470
  460MPD2    C5 6903   0.883   3.848  10.574 -1.2572  0.1218 -0.2971
  460MPD2     H 6904   0.680   3.531  10.515 -0.1008 -0.2701 -1.4528
  460MPD2    H1 6905   0.786   3.936  10.415 -1.1450 -0.4536 -0.4627
  460MPD2    H2 6906   0.977   3.758  10.730  2.2531  0.9482 -2.7036
  460MPD2    H3 6907   0.951   3.932  10.578  3.0031 -3.2659 -1.8438
  460MPD2     N 6908   0.618   3.725  10.341  0.4820 -0.7644  0.1367
  460MPD2    H5 6909   0.584   3.632  10.320 -0.1887  0.0549 -2.4209
  460MPD2    N1 6910   0.844   3.519  10.741 -0.7321  0.1636  0.0955
  460MPD2    H7 6911   0.925   3.519  10.803 -0.1415  0.1465 -0.6686
  461TMC3    C1 6912   0.472   3.814  10.159 -0.2224  0.4421 -0.3144
  461TMC3    C2 6913   0.494   3.713  10.067 -0.7655 -0.1326  0.0877
  461TMC3    C3 6914   0.423   3.713   9.947 -0.6851 -0.2249  0.2724
  461TMC3    C4 6915   0.381   3.911  10.141  0.1243  0.5268 -0.1565
  461TMC3    C5 6916   0.305   3.904  10.027  0.5502  0.3036 -0.4501
  461TMC3    C6 6917   0.318   3.808   9.927 -0.2947  0.6547  0.7573
  461TMC3     C 6918   0.570   3.840  10.272 -0.2167  0.5441 -0.1907
  461TMC3     O 6919   0.584   3.954  10.317  0.3478  0.3968 -0.1660
  461TMC3     H 6920   0.570   3.636  10.076 -1.8507 -1.1957  0.0782
  461TMC3    H1 6921   0.376   3.990  10.215 -0.9302 -1.7425  2.2156
  461TMC3    H2 6922   0.266   3.818   9.833  1.1203  0.3768 -0.0593
  461TMC3    C7 6923   0.206   4.013  10.009 -0.1057  0.7090 -1.1115
  461TMC3    C8 6924   0.489   3.644   9.831  0.7500 -0.2374 -0.6329
  461TMC3    O1 6925   0.158   4.019   9.902 -0.2740 -0.5284 -0.0777
  461TMC3    O2 6926   0.591   3.589   9.861 -0.1060 -0.1419 -0.0970
  462TMC3    C1 6927   1.785   0.216   0.451  0.1184 -0.8653  0.0940
  462TMC3    C2 6928   1.899   0.142   0.442 -0.0767  0.0972 -0.6103
  462TMC3    C3 6929   1.888   0.015   0.389  0.2818 -0.4934 -0.3316
  462TMC3    C4 6930   1.667   0.160   0.409 -0.0433 -0.2741 -0.7767
  462TMC3    C5 6931   1.661   0.030   0.365  0.4790  0.6519 -0.6905
  462TMC3    C6 6932   1.775   4.704   0.346  0.1084  0.2575  0.2735
  462TMC3     C 6933   1.769   0.308   0.561 -0.0041  0.1732 -0.4253
  462TMC3     O 6934   1.825   0.276   0.666 -0.1585  0.0539 -0.2939
  462TMC3     H 6935   1.996   0.189   0.460  1.1188 -3.2265  1.5970
  462TMC3    H1 6936   1.580   0.205   0.455  2.0498  1.0796  1.8677
  462TMC3    H2 6937   1.762   4.600   0.317  0.7450  0.8598 -2.1239
  462TMC3    C7 6938   1.535   4.704   0.344  0.5432 -0.1167 -0.3036
  462TMC3    C8 6939   2.010   4.691   0.338  0.0119  0.0435 -0.5580
  462TMC3    O1 6940   1.546   4.585   0.330 -0.1468 -0.1255 -0.0240
  462TMC3    O2 6941   2.107   4.697   0.417  0.0460 -0.3348  0.5517
  463MPD2     C 6942   3.214   2.861   1.028  0.2429  0.3925  0.8166
  463MPD2    C1 6943   3.154   2.979   1.064 -0.5764  1.2083 -0.1817
  463MPD2    C2 6944   3.229   3.067   1.135  0.0555  0.1548 -0.4924
  463MPD2    C3 6945   3.363   3.051   1.149  1.0035 -0.3656  0.5679
  463MPD2    C4 6946   3.423   2.936   1.108 -0.7866  0.0799 -0.6229
  463MPD2    C5 6947   3.346   2.836   1.058  0.0687  0.0269  0.1002
  463MPD2     H 6948   3.173   3.154   1.170  0.6125  0.9950 -1.6994
  463MPD2    H1 6949   3.528   2.919   1.128 -1.3424 -2.5803  0.0914
  463MPD2    H2 6950   3.167   2.773   0.986 -1.4422  1.9996 -0.6513
  463MPD2    H3 6951   3.395   2.742   1.033  1.2267 -0.0436  2.6186
  463MPD2     N 6952   3.442   3.157   1.203  0.4288 -0.1783  0.0824
  463MPD2    H5 6953   3.542   3.142   1.211  0.6324  0.7387 -0.7795
  463MPD2    N1 6954   3.014   3.000   1.037 -0.2515  0.0546 -0.4633
  463MPD2    H7 6955   2.968   3.088   1.059 -0.6815 -0.5103  0.8669
  464TMC3    C1 6956   2.794   2.956   0.949 -0.2798  0.2313  0.2435
  464TMC3    C2 6957   2.764   3.090   0.931 -0.1854  0.8146  0.3174
  464TMC3    C3 6958   2.645   3.123   0.885 -0.2550 -0.2170 -0.2769
  464TMC3    C4 6959   2.692   2.869   0.954  0.0714 -0.4852  0.1718
  464TMC3    C5 6960   2.563   2.902   0.918 -0.0722  0.1839  0.6376
  464TMC3    C6 6961   2.540   3.032   0.882  0.0597 -0.0102  0.5084
  464TMC3     C 6962   2.927   2.909   0.979  0.0280  0.3616 -0.1584
  464TMC3     O 6963   2.950   2.798   0.943 -0.1054 -0.3697 -0.1648
  464TMC3     H 6964   2.845   3.161   0.914  0.3878  0.1163  0.1581
  464TMC3    H1 6965   2.705   2.765   0.983 -0.1148 -0.8739 -1.1700
  464TMC3    H2 6966   2.438   3.067   0.870 -0.4455 -0.7308  2.7118
  464TMC3    C7 6967   2.452   2.813   0.952 -0.2269 -0.1963 -0.1181
  464TMC3    C8 6968   2.601   3.269   0.890 -0.0179 -0.3816 -0.2394
  464TMC3    O1 6969   2.483   2.734   1.041  0.3146 -0.0730 -0.8218
  464TMC3    O2 6970   2.501   3.295   0.826  0.1289  0.1059 -0.5196
  465MPD2     C 6971   3.787   2.737  16.817  0.2293  0.3214 -0.8681
  465MPD2    C1 6972   3.730   2.617  16.839  0.4862  0.3185 -0.6806
  465MPD2    C2 6973   3.695   2.541  16.728  0.0432  0.1003  0.0874
  465MPD2    C3 6974   3.717   2.583  16.599  0.0463 -0.6059 -0.5612
  465MPD2    C4 6975   3.783   2.708  16.586 -0.2685  0.1573 -0.2160
  465MPD2    C5 6976   3.822   2.778  16.696  0.0484  0.1181  0.1149
  465MPD2     H 6977   3.636   2.454  16.755  1.9239 -1.4625 -0.8524
  465MPD2    H1 6978   3.817   2.743  16.489 -1.0790  1.6098  0.0365
  465MPD2    H2 6979   3.843   2.791  16.892 -0.0924 -1.1136  0.4062
  465MPD2    H3 6980   3.898   2.855  16.684 -1.5302  2.0518  2.6059
  465MPD2     N 6981   3.687   2.502  16.490  0.2013  0.0488 -0.0458
  465MPD2    H5 6982   3.646   2.412  16.512  2.9780 -1.2079 -0.0078
  465MPD2    N1 6983   3.689   2.573  16.969  0.0263 -0.7722  0.4300
  465MPD2    H7 6984   3.657   2.477  16.980  1.0729 -1.0133  1.2800
  466TMC3    C1 6985   3.472   2.280  16.261 -0.1016 -0.4737  0.4674
  466TMC3    C2 6986   3.414   2.337  16.150  0.1380 -0.1287 -0.0014
  466TMC3    C3 6987   3.471   2.455  16.107  0.2114 -0.0942  0.0782
  466TMC3    C4 6988   3.590   2.331  16.312  0.3260  0.4576 -0.1128
  466TMC3    C5 6989   3.651   2.437  16.258  0.3731  0.5023  0.4088
  466TMC3    C6 6990   3.593   2.496  16.147  0.4855  0.6024 -0.1442
  466TMC3     C 6991   3.396   2.186  16.342 -0.4513  1.1713  0.2514
  466TMC3     O 6992   3.434   2.175  16.461  0.1135 -0.7157 -0.4467
  466TMC3     H 6993   3.314   2.315  16.114 -0.2116 -1.2174  1.5866
  466TMC3    H1 6994   3.646   2.262  16.374 -1.6503 -0.1035  1.0411
  466TMC3    H2 6995   3.636   2.592  16.122 -0.9697  1.1134 -0.7209
  466TMC3    C7 6996   3.712   2.529  16.352  0.0160 -0.1065  0.4720
  466TMC3    C8 6997   3.376   2.567  16.089  0.3314  1.3970 -0.8199
  466TMC3    O1 6998   3.762   2.625  16.302 -0.1222  0.1332  0.1589
  466TMC3    O2 6999   3.401   2.678  16.136  0.3602 -0.0649 -0.5564
  467TMC3    C1 7000   4.568   0.795  13.794  0.1267 -0.3760 -0.0050
  467TMC3    C2 7001   4.513   0.910  13.760  0.0506  0.9624 -0.4394
  467TMC3    C3 7002   4.387   0.920  13.721  0.3858 -0.2546  0.2786
  467TMC3    C4 7003   4.492   0.682  13.796  0.5781 -0.1264  0.4420
  467TMC3    C5 7004   4.360   0.695  13.766  0.4802 -0.0075  0.4440
  467TMC3    C6 7005   4.307   0.812  13.711 -0.1727 -0.4232 -0.1424
  467TMC3     C 7006   4.711   0.789  13.830  0.6611 -0.1000 -0.9512
  467TMC3     O 7007   0.023   0.893  13.876  0.2333 -0.3574  0.2381
  467TMC3     H 7008   4.583   0.993  13.754 -1.9140  2.6224 -0.1415
  467TMC3    H1 7009   4.527   0.591  13.842  1.3859  0.1102  0.3103
  467TMC3    H2 7010   4.209   0.830  13.666  0.1979 -0.5435 -0.9989
  467TMC3    C7 7011   4.272   0.591  13.804 -0.6130 -0.1973  0.5329
  467TMC3    C8 7012   4.387   1.014  13.606  0.3185  0.0412  0.0292
  467TMC3    O1 7013   4.320   0.484  13.830 -0.1150 -0.0926  0.7436
  467TMC3    O2 7014   4.451   1.117  13.624  0.5677  0.4313 -0.2773
  468MPD2     C 7015   2.730   3.198  10.390 -0.9145 -0.3404  0.2878
  468MPD2    C1 7016   2.847   3.145  10.435  0.3362  0.1224 -0.6156
  468MPD2    C2 7017   2.849   3.013  10.456 -0.0669 -0.1374  0.2897
  468MPD2    C3 7018   2.741   2.934  10.428  0.8570  0.2419 -0.2966
  468MPD2    C4 7019   2.631   2.993  10.377  0.0313 -0.2528  0.4138
  468MPD2    C5 7020   2.624   3.124  10.359 -0.0273 -0.3543  0.4196
  468MPD2     H 7021   2.933   2.966  10.506 -0.3514  0.3380  1.2199
  468MPD2    H1 7022   2.548   2.928  10.350  0.6531 -1.7257  2.0417
  468MPD2    H2 7023   2.724   3.305  10.376  2.3096 -0.0883  0.6970
  468MPD2    H3 7024   2.539   3.174  10.314 -0.7709 -1.1204  0.9632
  468MPD2     N 7025   2.728   2.789  10.439 -0.0762 -0.4088 -0.4781
  468MPD2    H5 7026   2.642   2.744  10.410 -1.1745  2.9217 -2.2796
  468MPD2    N1 7027   2.954   3.218  10.477  0.2074 -0.1297 -0.1321
  468MPD2    H7 7028   3.015   3.174  10.546 -0.4104  0.4834  0.8043
  469TMC3    C1 7029   3.071   3.422  10.497  0.5403 -1.0259 -0.2397
  469TMC3    C2 7030   3.198   3.370  10.518  0.2878  0.0597 -0.4106
  469TMC3    C3 7031   3.287   3.464  10.567 -0.0797 -0.4763 -0.1075
  469TMC3    C4 7032   3.039   3.561  10.512 -0.1065 -0.2136 -0.1106
  469TMC3    C5 7033   3.142   3.645  10.548  0.2339  0.1791  0.5366
  469TMC3    C6 7034   3.261   3.596  10.583 -0.7346 -0.2709 -0.4528
  469TMC3     C 7035   2.974   3.348  10.430  0.1388 -0.1103 -0.1530
  469TMC3     O 7036   2.910   3.412  10.346 -0.1148 -0.5321 -0.4690
  469TMC3     H 7037   3.226   3.270  10.488  0.9587  0.0529  0.2320
  469TMC3    H1 7038   2.941   3.604  10.491  0.2187 -0.0665 -1.3259
  469TMC3    H2 7039   3.338   3.666  10.612 -0.9400  0.8288 -2.4742
  469TMC3    C7 7040   3.116   3.779  10.597 -0.2755  0.1070  1.2399
  469TMC3    C8 7041   3.402   3.403  10.633 -0.0275 -0.1646  0.3425
  469TMC3    O1 7042   3.204   3.867  10.598  0.1546 -0.6289 -0.5992
  469TMC3    O2 7043   3.455   3.316  10.568  0.3378  1.0276  0.1967
  470TMC3    C1 7044   0.710   4.711   0.313 -0.9823 -0.5147 -0.4783
  470TMC3    C2 7045   0.845   0.007   0.322 -0.4528 -0.1981 -0.1166
  470TMC3    C3 7046   0.921   4.699   0.423 -0.0485  0.1474  0.3585
  470TMC3    C4 7047   0.652   4.638   0.406  0.3650  0.0281 -0.0691
  470TMC3    C5 7048   0.732   4.594   0.509  0.6613  0.3661  0.5608
  470TMC3    C6 7049   0.865   4.623   0.521 -0.3433 -0.3396 -0.0924
  470TMC3     C 7050   0.649   0.015   0.188 -0.2615  0.1490  0.1830
  470TMC3     O 7051   0.723   0.077   0.110 -0.3678 -0.2680  0.2086
  470TMC3     H 7052   0.895   0.052   0.236 -0.9739 -1.5846 -1.1509
  470TMC3    H1 7053   0.545   4.629   0.418  0.2116  0.8938 -0.7577
  470TMC3    H2 7054   0.922   4.614   0.612  0.1559 -1.1809 -0.4922
  470TMC3    C7 7055   0.669   4.569   0.640 -0.9192 -0.1165 -0.3033
  470TMC3    C8 7056   1.038   0.032   0.467 -0.0100 -0.1344 -0.0074
  470TMC3    O1 7057   0.561   4.518   0.633 -0.3142  0.0943  0.3535
  470TMC3    O2 7058   1.103   4.726   0.560 -0.1260 -0.2654  0.0519
  471MPD2     C 7059   0.878   0.954  17.075 -0.2052  0.0156  0.8334
  471MPD2    C1 7060   0.985   0.993  17.006 -0.0209 -0.5802  0.5854
  471MPD2    C2 7061   1.109   0.971  17.059 -0.0626  0.3814 -0.4528
  471MPD2    C3 7062   1.127   0.914  17.180 -0.3781 -0.0600 -0.1001
  471MPD2    C4 7063   1.015   0.890  17.259  0.0119  0.4377  0.4367
  471MPD2    C5 7064   0.884   0.909  17.205 -0.1299 -0.0243  0.8580
  471MPD2     H 7065   1.182   1.003  16.986 -0.1587  1.1817 -0.1960
  471MPD2    H1 7066   1.015   0.843  17.357  0.9612 -0.8728 -0.1961
  471MPD2    H2 7067   0.784   0.967  17.024  0.9199 -0.5224 -1.3619
  471MPD2    H3 7068   0.797   0.901  17.270 -0.9806 -2.6349 -0.6281
  471MPD2     N 7069   1.255   0.869  17.222 -0.1191  0.3650  0.3006
  471MPD2    H5 7070   1.261   0.812  17.306 -0.0680 -0.7062 -0.4394
  471MPD2    N1 7071   0.981   1.037  16.873  0.1362  1.2200 -0.3727
  471MPD2    H7 7072   1.067   1.055  16.824 -0.7758  0.5797 -2.1842
  472TMC3    C1 7073   0.918   1.017  16.653  0.2161  0.5215  0.6620
  472TMC3    C2 7074   0.824   1.055  16.557  0.5644  0.0375  0.6218
  472TMC3    C3 7075   0.846   1.015  16.425 -0.1701  0.6840  0.1734
  472TMC3    C4 7076   1.011   0.922  16.629 -0.2637  0.1495 -0.0391
  472TMC3    C5 7077   1.025   0.877  16.500 -1.2618 -0.0181  0.0246
  472TMC3    C6 7078   0.948   0.927  16.397 -0.3163  0.2597  0.2338
  472TMC3     C 7079   0.872   1.050  16.795  0.9561 -0.0453  0.3615
  472TMC3     O 7080   0.749   1.043  16.819  0.8485 -0.3106  0.0535
  472TMC3     H 7081   0.739   1.114  16.587  0.3626  1.4994 -2.9328
  472TMC3    H1 7082   1.069   0.878  16.709 -1.3154  1.5141  1.4787
  472TMC3    H2 7083   0.952   0.894  16.294 -0.4899  0.8513  0.0381
  472TMC3    C7 7084   1.062   0.735  16.487  0.4702 -0.2721 -0.2799
  472TMC3    C8 7085   0.731   0.979  16.345 -0.5545  0.0519 -0.1245
  472TMC3    O1 7086   1.077   0.676  16.593 -0.1281  0.1618  0.1156
  472TMC3    O2 7087   0.734   1.030  16.233  0.1634 -0.1736  0.4678
  473MPD2     C 7088   1.401   2.837  14.332 -0.2957  0.1798 -0.1391
  473MPD2    C1 7089   1.379   2.898  14.209  0.0619 -0.6654 -0.0695
  473MPD2    C2 7090   1.361   3.039  14.208  0.0712 -1.0855 -0.0784
  473MPD2    C3 7091   1.367   3.111  14.335 -0.2083 -0.2868 -0.1120
  473MPD2    C4 7092   1.384   3.044  14.451  0.3104 -0.1467  0.4353
  473MPD2    C5 7093   1.401   2.906  14.448  0.1271 -0.6262 -0.1411
  473MPD2     H 7094   1.353   3.087  14.111 -0.3809  1.2777  1.1192
  473MPD2    H1 7095   1.392   3.097  14.545  0.6182  1.4503 -0.5041
  473MPD2    H2 7096   1.414   2.730  14.343 -0.5069  0.2541  0.8592
  473MPD2    H3 7097   1.409   2.851  14.541  0.7547  1.2388  0.9130
  473MPD2     N 7098   1.369   3.251  14.338  0.3877  0.2748  1.0320
  473MPD2    H5 7099   1.367   3.298  14.427 -1.5900 -0.8139  1.5593
  473MPD2    N1 7100   1.385   2.834  14.082  0.2441 -0.4667 -0.4712
  473MPD2    H7 7101   1.356   2.888  14.001  1.2469  0.5304 -0.1807
  474TMC3    C1 7102   1.325   3.469  14.262  0.2548 -0.3009 -0.3546
  474TMC3    C2 7103   1.257   3.539  14.164 -0.4227 -0.2510 -0.3132
  474TMC3    C3 7104   1.271   3.674  14.170 -0.2491  0.2741 -0.1743
  474TMC3    C4 7105   1.397   3.531  14.363 -0.3409 -0.2430 -0.7191
  474TMC3    C5 7106   1.406   3.667  14.359 -0.1311  0.3278  0.1985
  474TMC3    C6 7107   1.335   3.740  14.265  0.5107  0.4064 -0.3757
  474TMC3     C 7108   1.351   3.327  14.225  0.2178 -0.2653  0.7778
  474TMC3     O 7109   1.324   3.300  14.109  0.4467 -0.0195  0.6153
  474TMC3     H 7110   1.207   3.493  14.079 -1.7685  0.6652 -0.0128
  474TMC3    H1 7111   1.478   3.478  14.413 -0.2412 -0.2526 -0.8891
  474TMC3    H2 7112   1.355   3.844  14.245 -1.9764  0.9770  0.0807
  474TMC3    C7 7113   1.531   3.724  14.402 -0.0336 -0.4941  0.4881
  474TMC3    C8 7114   1.163   3.742  14.098 -0.2295 -1.0914  0.1820
  474TMC3    O1 7115   1.601   3.779  14.321 -0.0548 -0.1774  0.1180
  474TMC3    O2 7116   1.102   3.678  14.014  0.2830 -0.5406  0.5808
  475MPD2     C 7117   3.743   1.109  10.552 -0.0885  1.0756 -0.6634
  475MPD2    C1 7118   3.665   1.216  10.528 -0.7862 -0.2262 -0.6675
  475MPD2    C2 7119   3.540   1.232  10.585 -0.1494 -0.4541 -0.1732
  475MPD2    C3 7120   3.495   1.127  10.658  0.6614 -0.1441  0.6601
  475MPD2    C4 7121   3.571   1.012  10.677  0.3542  0.5009  0.2718
  475MPD2    C5 7122   3.696   1.005  10.628  0.1665  0.3877  0.5216
  475MPD2     H 7123   3.475   1.318  10.573  1.3453  0.5142 -1.2836
  475MPD2    H1 7124   3.533   0.921  10.721 -0.2431  0.2295 -0.8087
  475MPD2    H2 7125   3.841   1.100  10.508  0.4436  0.8871  0.5408
  475MPD2    H3 7126   3.747   0.909  10.634 -1.7706 -0.7940 -2.2734
  475MPD2     N 7127   3.367   1.136  10.708  0.1444 -0.2061 -0.1185
  475MPD2    H5 7128   3.323   1.224  10.683  2.4267  1.4709  1.7365
  475MPD2    N1 7129   3.720   1.326  10.454  0.2510  0.0925  0.1491
  475MPD2    H7 7130   3.814   1.314  10.418 -0.3147  0.0328 -1.2800
  476TMC3    C1 7131   3.746   1.527  10.338 -0.1107  0.6127  0.2436
  476TMC3    C2 7132   3.676   1.597  10.235 -0.0677  0.1640  0.0683
  476TMC3    C3 7133   3.739   1.710  10.183  0.2109 -0.0130 -0.3730
  476TMC3    C4 7134   3.869   1.567  10.382 -0.2510  0.4301  0.1396
  476TMC3    C5 7135   3.933   1.670  10.318  0.4422  0.5516  0.1444
  476TMC3    C6 7136   3.870   1.728  10.213  0.4071 -0.4022  0.3085
  476TMC3     C 7137   3.660   1.443  10.415  0.5926 -0.3618 -0.1765
  476TMC3     O 7138   3.549   1.488  10.429 -0.2362  0.0201  0.1041
  476TMC3     H 7139   3.582   1.552  10.206  0.1407 -1.0976  1.3277
  476TMC3    H1 7140   3.914   1.505  10.459  1.3413 -0.8116 -1.7931
  476TMC3    H2 7141   3.919   1.808  10.159 -1.9403  0.0834 -1.1202
  476TMC3    C7 7142   4.043   1.736  10.376 -0.0575 -0.7129  0.7217
  476TMC3    C8 7143   3.674   1.804  10.089 -0.4528  0.0336 -0.5076
  476TMC3    O1 7144   4.111   1.803  10.297 -0.4990 -0.0440  0.4544
  476TMC3    O2 7145   3.741   1.888  10.032 -0.0668 -0.2038 -0.0581
  477MPD2     C 7146   1.524   2.706  11.346 -0.1215 -1.2815 -0.4680
  477MPD2    C1 7147   1.426   2.630  11.412 -0.1690  0.0074 -0.1492
  477MPD2    C2 7148   1.466   2.549  11.526 -0.2052  0.1373  0.5540
  477MPD2    C3 7149   1.598   2.555  11.572  0.1631  0.4990 -0.1317
  477MPD2    C4 7150   1.683   2.652  11.515 -0.3664 -0.0472 -0.3729
  477MPD2    C5 7151   1.653   2.713  11.398 -0.6772  0.9973  0.3368
  477MPD2     H 7152   1.399   2.481  11.576 -1.7678 -0.5762 -2.4971
  477MPD2    H1 7153   1.781   2.672  11.557 -0.4837 -0.5423  0.1223
  477MPD2    H2 7154   1.512   2.763  11.255  0.3562 -1.3495 -0.5705
  477MPD2    H3 7155   1.725   2.781  11.357 -2.2019  2.2487 -0.2588
  477MPD2     N 7156   1.630   2.477  11.685  0.1304  0.3078  0.3586
  477MPD2    H5 7157   1.558   2.414  11.716 -0.3926  0.6220 -0.2192
  477MPD2    N1 7158   1.296   2.650  11.364  0.0637 -0.0031 -0.0589
  477MPD2    H7 7159   1.282   2.709  11.283 -0.6058  0.0161  0.0697
  478TMC3    C1 7160   1.059   2.650  11.375  0.1539  0.5227  0.5384
  478TMC3    C2 7161   0.961   2.646  11.469 -0.2673  0.2583 -0.0970
  478TMC3    C3 7162   0.844   2.711  11.435 -0.1069 -0.4671 -0.7522
  478TMC3    C4 7163   1.037   2.687  11.243  0.6836 -0.1405 -0.6509
  478TMC3    C5 7164   0.916   2.745  11.212  0.0192 -0.0718 -0.1312
  478TMC3    C6 7165   0.820   2.767  11.307 -0.4864 -0.9015 -0.2635
  478TMC3     C 7166   1.184   2.593  11.421 -0.4286  0.1623  0.1876
  478TMC3     O 7167   1.180   2.515  11.515  0.1945  0.3220 -0.7951
  478TMC3     H 7168   0.978   2.609  11.569 -0.8435 -2.0594 -0.8315
  478TMC3    H1 7169   1.112   2.654  11.172 -0.5685  0.3420 -2.2071
  478TMC3    H2 7170   0.726   2.809  11.274 -1.0682 -0.1742  2.2894
  478TMC3    C7 7171   0.881   2.748  11.078 -0.3036 -0.1521 -0.2247
  478TMC3    C8 7172   0.793   2.781  11.546 -0.0676 -0.1320 -0.6248
  478TMC3    O1 7173   0.964   2.696  11.006 -0.1482 -0.3766 -0.3653
  478TMC3    O2 7174   0.806   2.731  11.655 -0.5293  0.0687 -0.0304
  479MPD2     C 7175   0.739   0.477  15.088  0.4354  0.1241 -0.4774
  479MPD2    C1 7176   0.689   0.360  15.138  0.0863 -0.4939 -0.2895
  479MPD2    C2 7177   0.736   0.319  15.261 -0.0204  0.4689  0.2719
  479MPD2    C3 7178   0.832   0.388  15.333 -0.1402 -0.0469 -0.1721
  479MPD2    C4 7179   0.882   0.509  15.278  0.8610  0.5555 -0.3605
  479MPD2    C5 7180   0.831   0.544  15.156 -0.3080  0.3530 -0.4445
  479MPD2     H 7181   0.693   0.233  15.310  0.2627 -0.4506 -1.0698
  479MPD2    H1 7182   0.953   0.578  15.323 -0.5334  1.0502  1.0450
  479MPD2    H2 7183   0.698   0.518  14.997  1.2310 -3.0721 -2.2872
  479MPD2    H3 7184   0.862   0.641  15.117 -3.0156  1.0825 -0.8017
  479MPD2     N 7185   0.881   0.365  15.468  0.0262  0.6954 -0.6421
  479MPD2    H5 7186   0.966   0.414  15.495  1.0085 -1.3876  0.0853
  479MPD2    N1 7187   0.571   0.305  15.083  1.1184  0.3568 -0.0216
  479MPD2    H7 7188   0.536   0.353  15.000  2.6119  0.1199 -0.8033
  480TMC3    C1 7189   0.584   0.027  15.534  0.7153 -0.4628 -0.3646
  480TMC3    C2 7190   0.478   0.118  15.528  0.3936 -0.4564 -0.6574
  480TMC3    C3 7191   0.504   0.250  15.525  0.6026  0.2834 -0.0584
  480TMC3    C4 7192   0.708   0.079  15.565  0.2350  0.1067 -0.6800
  480TMC3    C5 7193   0.728   0.214  15.559 -0.1361 -0.0677  0.6672
  480TMC3    C6 7194   0.626   0.303  15.549  0.1742  0.1608  0.3906
  480TMC3     C 7195   0.573   4.621  15.498  0.3522  0.3516  0.1823
  480TMC3     O 7196   0.626   4.536  15.565 -0.1267  0.6081 -0.0090
  480TMC3     H 7197   0.382   0.088  15.489 -0.4278  0.2698  0.8175
  480TMC3    H1 7198   0.795   0.018  15.587  0.7334  1.1426  0.2092
  480TMC3    H2 7199   0.656   0.407  15.544  2.2331 -0.5375 -2.0245
  480TMC3    C7 7200   0.854   0.267  15.561  0.1107 -0.2123 -0.9260
  480TMC3    C8 7201   0.398   0.337  15.463 -0.7369  0.0130  0.1596
  480TMC3    O1 7202   0.915   0.246  15.662 -0.4328  0.7502 -0.0596
  480TMC3    O2 7203   0.278   0.321  15.474 -0.4479  0.6451  0.1902
  481MPD2     C 7204   2.358   4.135  14.063 -0.7231 -0.7183  0.0983
  481MPD2    C1 7205   2.272   4.236  14.097 -0.0686 -0.5877  0.6329
  481MPD2    C2 7206   2.285   4.300  14.219 -0.7025  0.0010 -0.9189
  481MPD2    C3 7207   2.384   4.260  14.306  0.2165 -0.7558  0.6860
  481MPD2    C4 7208   2.465   4.154  14.266  0.1211  0.0178  0.0466
  481MPD2    C5 7209   2.464   4.103  14.143  0.5433 -0.1899  0.0054
  481MPD2     H 7210   2.224   4.386  14.241  0.5246  1.4042 -3.0007
  481MPD2    H1 7211   2.533   4.104  14.334  0.0032 -0.9106 -0.5212
  481MPD2    H2 7212   2.354   4.089  13.965  0.3477 -0.8082  0.0943
  481MPD2    H3 7213   2.534   4.028  14.108  3.1565  2.9056 -1.4285
  481MPD2     N 7214   2.413   4.321  14.429  0.3511  0.1449 -0.0370
  481MPD2    H5 7215   2.500   4.298  14.477  0.6673  1.1391 -0.1430
  481MPD2    N1 7216   2.165   4.266  14.005  0.3065 -0.0453  0.2295
  481MPD2    H7 7217   2.150   4.195  13.934  2.2455 -0.7434  0.5190
  482TMC3    C1 7218   1.975   4.362  13.908  0.5142 -0.0586 -0.4144
  482TMC3    C2 7219   1.922   4.230  13.882  0.4998  0.7213 -0.1986
  482TMC3    C3 7220   1.822   4.219  13.789 -0.2886  0.3712 -0.5177
  482TMC3    C4 7221   1.909   4.469  13.864  0.3968 -0.3240  0.0214
  482TMC3    C5 7222   1.796   4.455  13.784  0.0813 -0.1159  0.1311
  482TMC3    C6 7223   1.768   4.332  13.734 -0.2896 -0.3123  0.1461
  482TMC3     C 7224   2.082   4.375  14.007 -0.2063 -0.2082 -0.5277
  482TMC3     O 7225   2.078   4.476  14.076  0.5797 -1.0068  0.5542
  482TMC3     H 7226   1.964   4.140  13.925  0.8774  1.6425  1.3748
  482TMC3    H1 7227   1.941   4.566  13.902 -1.2596 -0.2233  1.1481
  482TMC3    H2 7228   1.690   4.320  13.659 -0.1192  0.9810 -0.2345
  482TMC3    C7 7229   1.764   4.568  13.691 -0.0760 -0.2484  0.0515
  482TMC3    C8 7230   1.812   4.082  13.729 -0.7322  0.0825  0.0360
  482TMC3    O1 7231   1.724   4.548  13.577 -0.3461  0.2782  0.3056
  482TMC3    O2 7232   1.905   4.006  13.752  0.6821  0.1277 -0.4433
  483TMC3    C1 7233   4.708   3.628   0.764 -0.1369 -0.1911  0.0814
  483TMC3    C2 7234   0.027   3.728   0.697 -0.1571  0.1639  0.2916
  483TMC3    C3 7235   0.163   3.729   0.701 -0.0212 -0.1056 -0.7364
  483TMC3    C4 7236   0.034   3.542   0.853  0.1751 -0.8795 -0.8230
  483TMC3    C5 7237   0.165   3.566   0.872 -0.2989 -0.2921  0.0336
  483TMC3    C6 7238   0.232   3.656   0.798  0.4231  0.3728  0.2521
  483TMC3     C 7239   4.569   3.605   0.727  0.5054  0.7019 -0.2540
  483TMC3     O 7240   4.504   3.695   0.692  0.7623 -0.3048 -0.1246
  483TMC3     H 7241   4.701   3.793   0.641  0.4951 -1.4648 -2.3614
  483TMC3    H1 7242   4.716   3.477   0.918  4.3592 -1.7218  2.0000
  483TMC3    H2 7243   0.341   3.660   0.798  0.4072  0.7493 -0.1676
  483TMC3    C7 7244   0.255   3.463   0.919  0.7828  0.6018 -0.1302
  483TMC3    C8 7245   0.240   3.815   0.610 -0.2151 -0.0554 -0.3025
  483TMC3    O1 7246   0.369   3.494   0.945 -0.0669  0.1850  0.4097
  483TMC3    O2 7247   0.357   3.834   0.646  0.2376  0.7087 -0.0298
  484MPD2     C 7248   2.640   1.387  13.275 -0.4609  0.4104  0.3020
  484MPD2    C1 7249   2.582   1.405  13.149 -0.7526 -0.2024  0.2015
  484MPD2    C2 7250   2.659   1.453  13.045  0.1336  0.8864 -0.3239
  484MPD2    C3 7251   2.793   1.476  13.071 -0.1661  0.3331  0.3038
  484MPD2    C4 7252   2.841   1.457  13.199 -0.3682 -0.4016  0.5703
  484MPD2    C5 7253   2.767   1.426  13.301 -1.2703 -0.7985  0.4114
  484MPD2     H 7254   2.618   1.473  12.947  0.5141 -0.8850 -0.8363
  484MPD2    H1 7255   2.948   1.469  13.213 -0.1296  1.0906 -2.4259
  484MPD2    H2 7256   2.566   1.371  13.352 -0.3055  1.0086  0.5757
  484MPD2    H3 7257   2.813   1.441  13.398 -2.3261  2.2929  0.4382
  484MPD2     N 7258   2.881   1.516  12.975  0.0649 -0.1523  0.3408
  484MPD2    H5 7259   2.980   1.503  12.993  0.5234 -0.6390 -2.5162
  484MPD2    N1 7260   2.447   1.389  13.142  0.2748  0.5336 -0.4489
  484MPD2    H7 7261   2.403   1.350  13.225  0.2037 -0.7480 -1.0989
  485TMC3    C1 7262   2.955   1.533  12.761 -0.2233  0.6992 -0.4028
  485TMC3    C2 7263   3.013   1.411  12.770 -0.6103 -0.6654  0.0165
  485TMC3    C3 7264   3.097   1.373  12.668  0.3120  0.2011  0.6459
  485TMC3    C4 7265   2.968   1.609  12.650 -0.3255 -0.0180 -0.2452
  485TMC3    C5 7266   3.056   1.569  12.554 -0.2656 -0.1065  0.0339
  485TMC3    C6 7267   3.121   1.448  12.555 -0.0433  0.5477  0.3282
  485TMC3     C 7268   2.848   1.554  12.849  0.2782 -0.0552  0.3433
  485TMC3     O 7269   2.749   1.622  12.816 -0.2815 -0.6843  0.4889
  485TMC3     H 7270   2.995   1.349  12.857  1.5729 -0.4472  0.6196
  485TMC3    H1 7271   2.925   1.708  12.640 -0.3699  0.2708  2.5972
  485TMC3    H2 7272   3.171   1.413  12.466 -0.9592  1.6236 -0.6184
  485TMC3    C7 7273   3.159   1.671  12.523  0.8805 -0.1228  0.6348
  485TMC3    C8 7274   3.220   1.304  12.705 -0.3464  0.2567  0.4413
  485TMC3    O1 7275   3.123   1.787  12.504 -0.9302 -0.1577  0.5629
  485TMC3    O2 7276   3.314   1.337  12.636  0.0926  0.0285  0.2732
  486MPD2     C 7277   0.204   0.298  13.162  0.1998  0.1154 -0.3069
  486MPD2    C1 7278   0.166   0.230  13.043 -1.0201 -0.4481 -0.0087
  486MPD2    C2 7279   0.092   0.303  12.955  0.3393 -0.4278 -0.7680
  486MPD2    C3 7280   0.068   0.443  12.975 -0.2166  0.1193  0.7242
  486MPD2    C4 7281   0.116   0.502  13.091  0.5932 -0.3732 -0.4319
  486MPD2    C5 7282   0.182   0.429  13.182  0.0502  0.2295 -0.9509
  486MPD2     H 7283   0.049   0.253  12.869 -1.2622  0.7024 -0.6231
  486MPD2    H1 7284   0.102   0.606  13.118  0.2835 -0.0135 -1.9722
  486MPD2    H2 7285   0.265   0.252  13.239 -1.3689 -0.9763  0.2883
  486MPD2    H3 7286   0.206   0.480  13.275 -1.9082 -0.0268 -0.2999
  486MPD2     N 7287   4.737   0.528  12.890  0.1533  0.0061  0.3356
  486MPD2    H5 7288   4.727   0.627  12.908  0.0560 -0.2116  1.4760
  486MPD2    N1 7289   0.216   0.100  13.022 -0.1032 -0.4639 -0.5051
  486MPD2    H7 7290   0.273   0.063  13.097 -0.1544  0.8845  0.1956
  487TMC3    C1 7291   0.260   4.622  12.936 -0.0866 -0.5700 -0.5254
  487TMC3    C2 7292   0.204   4.503  12.899  0.1595 -0.5455 -0.0254
  487TMC3    C3 7293   0.266   4.390  12.939  0.1038  0.4597  0.6805
  487TMC3    C4 7294   0.367   4.621  13.022  0.2037 -0.6647  0.0688
  487TMC3    C5 7295   0.419   4.502  13.064  0.3210  0.2223  0.0799
  487TMC3    C6 7296   0.383   4.384  12.999 -0.2659 -0.1537  0.5897
  487TMC3     C 7297   0.181   0.009  12.925  0.0841  0.8336  0.1702
  487TMC3     O 7298   0.089   0.005  12.842  0.0428  0.3395 -0.0365
  487TMC3     H 7299   0.112   4.502  12.841 -1.1469  0.6214  2.0299
  487TMC3    H1 7300   0.405   4.715  13.062  0.1817 -1.1851  1.2923
  487TMC3    H2 7301   0.425   4.292  13.038  1.3321  0.0339 -0.6811
  487TMC3    C7 7302   0.432   4.493  13.209  0.2892 -0.1821 -0.2114
  487TMC3    C8 7303   0.166   4.306  13.007 -0.0801  0.2676  0.0546
  487TMC3    O1 7304   0.345   4.554  13.277 -0.1837  0.2994  0.5600
  487TMC3    O2 7305   0.206   4.265  13.112  0.0407  0.7110  0.5083
  488MPD2     C 7306   0.376   1.849  16.270 -0.5668 -0.6651  0.6999
  488MPD2    C1 7307   0.446   1.947  16.329  0.6915 -0.5389  1.1259
  488MPD2    C2 7308   0.429   1.961  16.464  0.2733 -0.5110 -0.3815
  488MPD2    C3 7309   0.335   1.896  16.532 -0.5859 -0.0095  0.5318
  488MPD2    C4 7310   0.245   1.811  16.474 -0.0837  0.2168  0.2871
  488MPD2    C5 7311   0.276   1.788  16.344 -0.4285  0.3864  0.7043
  488MPD2     H 7312   0.504   2.031  16.501 -1.9030  2.1552 -0.9958
  488MPD2    H1 7313   0.166   1.749  16.515  0.7461 -0.6719  0.5245
  488MPD2    H2 7314   0.395   1.822  16.167  0.9193 -0.1351  0.8281
  488MPD2    H3 7315   0.215   1.718  16.288  0.8696 -0.7435  0.6990
  488MPD2     N 7316   0.333   1.937  16.674  0.5422 -0.2507  0.8627
  488MPD2    H5 7317   0.404   2.003  16.704  0.1319 -0.7274  2.8276
  488MPD2    N1 7318   0.541   2.033  16.269  0.1225  0.2113  0.1052
  488MPD2    H7 7319   0.600   2.081  16.336 -0.4621  1.0883 -0.0038
  489TMC3    C1 7320   0.263   1.961  16.902 -0.0388 -0.5160  0.2475
  489TMC3    C2 7321   0.323   2.076  16.900  0.3909  0.2375  0.1668
  489TMC3    C3 7322   0.361   2.131  17.018  0.3927 -0.3482 -0.9832
  489TMC3    C4 7323   0.237   1.893  17.019  0.1566 -0.5490  0.4105
  489TMC3    C5 7324   0.275   1.947  17.137  0.1481 -0.6282  0.3749
  489TMC3    C6 7325   0.338   2.071  17.140  0.7017  0.1591  0.0319
  489TMC3     C 7326   0.254   1.888  16.773  0.7071  0.0310 -0.4423
  489TMC3     O 7327   0.170   1.800  16.773  0.4113 -0.5316 -0.0281
  489TMC3     H 7328   0.338   2.135  16.810  1.4350 -2.1628 -1.2430
  489TMC3    H1 7329   0.178   1.803  17.012 -1.5959  0.5589  0.9618
  489TMC3    H2 7330   0.384   2.112  17.229  1.0948  0.6492 -0.3985
  489TMC3    C7 7331   0.261   1.872  17.264  0.3237  0.4092 -0.1304
  489TMC3    C8 7332   0.454   2.240  17.012 -1.0502  0.4477  0.0598
  489TMC3    O1 7333   0.334   1.901  17.356  0.1603 -0.3315  0.0701
  489TMC3    O2 7334   0.491   2.277  16.902  0.0911 -0.3875 -0.0731
  490MPD2     C 7335   1.400   1.480  16.855 -0.6748 -0.4051 -0.3602
  490MPD2    C1 7336   1.351   1.513  16.978  0.6021  0.0021 -0.5758
  490MPD2    C2 7337   1.426   1.588  17.058  1.0266 -0.2092  0.2064
  490MPD2    C3 7338   1.555   1.626  17.015 -0.5110  0.5155  0.4717
  490MPD2    C4 7339   1.606   1.580  16.890 -0.5001 -0.8045  0.0791
  490MPD2    C5 7340   1.524   1.507  16.812  0.1392  0.3899 -0.4185
  490MPD2     H 7341   1.388   1.622  17.153 -1.5603 -2.5243 -0.0033
  490MPD2    H1 7342   1.704   1.603  16.849 -0.8749 -2.1340 -1.5677
  490MPD2    H2 7343   1.342   1.406  16.800 -0.1811 -0.1813 -1.1848
  490MPD2    H3 7344   1.561   1.459  16.723  2.3399 -0.5017  0.9687
  490MPD2     N 7345   1.639   1.719  17.080  0.1420 -0.6181 -0.1404
  490MPD2    H5 7346   1.722   1.741  17.026  0.4349 -1.6138 -0.0857
  490MPD2    N1 7347   1.223   1.471  17.033 -0.3130 -0.8832 -0.6866
  490MPD2    H7 7348   1.211   1.492  17.132 -3.5075 -1.2044 -1.0028
  491TMC3    C1 7349   1.021   1.361  17.044 -0.0558 -0.2168  0.3024
  491TMC3    C2 7350   1.052   1.313  17.166 -0.7329 -0.6333  0.7337
  491TMC3    C3 7351   0.947   1.266  17.242 -0.2870  1.2245 -0.1249
  491TMC3    C4 7352   0.891   1.361  16.991 -0.3375  0.0310 -0.6457
  491TMC3    C5 7353   0.795   1.304  17.066 -0.6415  0.2876 -0.5868
  491TMC3    C6 7354   0.817   1.262  17.197  0.9137 -0.5543  0.2838
  491TMC3     C 7355   1.124   1.414  16.956  0.7651 -0.9534 -0.6455
  491TMC3     O 7356   1.105   1.411  16.836 -0.3532  0.3574  0.3760
  491TMC3     H 7357   1.144   1.336  17.217 -0.1642  1.0281 -1.0304
  491TMC3    H1 7358   0.880   1.381  16.885  3.1852  0.6857 -0.8868
  491TMC3    H2 7359   0.752   1.198  17.256  2.5240 -0.3472  2.2443
  491TMC3    C7 7360   0.671   1.270  17.007 -0.5431 -0.1409 -0.3162
  491TMC3    C8 7361   0.963   1.241  17.387 -0.5925  0.4369  0.0879
  491TMC3    O1 7362   0.614   1.182  17.065  0.0444 -0.3766 -0.1218
  491TMC3    O2 7363   0.856   1.226  17.448 -0.7707 -0.0404 -0.2987
  492MPD2     C 7364   1.040   1.703  11.071 -0.0744 -0.2061  0.2165
  492MPD2    C1 7365   0.953   1.598  11.035  0.3900  0.6493  0.4618
  492MPD2    C2 7366   0.943   1.491  11.130 -0.6664 -0.1506  0.0885
  492MPD2    C3 7367   0.987   1.501  11.260  0.2780 -0.5051 -0.4721
  492MPD2    C4 7368   1.079   1.605  11.289 -0.1229 -0.9389 -0.1163
  492MPD2    C5 7369   1.095   1.705  11.201  0.2095  0.0202  0.2513
  492MPD2     H 7370   0.886   1.403  11.102 -0.7537 -0.5245  1.4568
  492MPD2    H1 7371   1.122   1.631  11.386  0.4984  0.0738 -0.6651
  492MPD2    H2 7372   1.059   1.788  11.007 -0.3858 -0.5978 -0.3960
  492MPD2    H3 7373   1.146   1.799  11.220  2.7942 -0.9729 -1.7314
  492MPD2     N 7374   0.958   1.406  11.366 -0.0124 -0.1034 -0.0692
  492MPD2    H5 7375   0.997   1.419  11.459 -0.3138  0.5400 -0.0286
  492MPD2    N1 7376   0.896   1.589  10.909 -0.5874  0.6818 -0.1097
  492MPD2    H7 7377   0.900   1.674  10.855  0.0129  0.6358 -0.1300
  493TMC3    C1 7378   0.761   1.518  10.722 -0.4522 -0.6136 -0.8356
  493TMC3    C2 7379   0.806   1.620  10.646  0.4464  0.2837  0.2799
  493TMC3    C3 7380   0.745   1.635  10.523 -0.4498 -0.3069 -0.1270
  493TMC3    C4 7381   0.650   1.446  10.691 -0.1900  0.0391  0.2478
  493TMC3    C5 7382   0.596   1.459  10.563 -0.4955 -0.3118 -0.5403
  493TMC3    C6 7383   0.653   1.547  10.471 -0.3871  0.4787  0.5298
  493TMC3     C 7384   0.818   1.487  10.857 -0.4365 -0.1271  0.0699
  493TMC3     O 7385   0.768   1.394  10.909  0.2503  0.2801  0.2121
  493TMC3     H 7386   0.877   1.689  10.689  0.8803 -0.1346  0.2374
  493TMC3    H1 7387   0.614   1.370  10.759 -1.6137  1.3700  0.9962
  493TMC3    H2 7388   0.604   1.574  10.378  1.1670 -0.2438 -0.5040
  493TMC3    C7 7389   0.472   1.398  10.528 -0.0725 -0.3235 -0.2125
  493TMC3    C8 7390   0.785   1.740  10.434  0.1135 -0.4947  0.6457
  493TMC3    O1 7391   0.415   1.468  10.450  0.2803 -0.0138 -0.0119
  493TMC3    O2 7392   0.735   1.738  10.324 -0.0230 -0.0051  0.2554
  494TMC3    C1 7393   1.993   3.522   0.105  0.1543 -0.5005 -0.4105
  494TMC3    C2 7394   2.016   3.390   0.118  0.4233 -0.2516  0.0395
  494TMC3    C3 7395   2.130   3.330   0.070 -0.1460 -0.0368  0.1256
  494TMC3    C4 7396   2.076   3.596   0.032 -0.4961 -0.2612  0.2060
  494TMC3    C5 7397   2.192   3.541  17.734 -0.1462 -0.3704  0.2461
  494TMC3    C6 7398   2.227   3.409   0.003  0.4734  0.6954  0.5116
  494TMC3     C 7399   1.964   3.581   0.237  0.0199  0.4081 -0.3925
  494TMC3     O 7400   1.993   3.524   0.340 -0.1277 -0.1359 -0.2983
  494TMC3     H 7401   1.952   3.339   0.190 -1.8304  0.3761 -1.5163
  494TMC3    H1 7402   2.060   3.702   0.020 -0.8085  0.0929  3.8450
  494TMC3    H2 7403   2.303   3.358  17.701 -0.7380 -1.4580  0.8481
  494TMC3    C7 7404   2.283   3.610  17.650 -0.0718  0.7612 -0.7396
  494TMC3    C8 7405   2.173   3.204   0.127  0.1579  1.1616  0.1217
  494TMC3    O1 7406   2.361   3.535  17.589 -0.2724 -0.1982 -0.0588
  494TMC3    O2 7407   2.289   3.182   0.141 -0.0767  0.0869 -0.4238
  495TMC3    C1 7408   0.844   0.976  14.835 -0.0483 -0.0728 -0.4533
  495TMC3    C2 7409   0.773   0.991  14.716 -0.4942  0.4798  0.6530
  495TMC3    C3 7410   0.644   0.934  14.723  0.4170  0.2376  0.0082
  495TMC3    C4 7411   0.797   0.931  14.953 -0.5993  0.4577 -0.7494
  495TMC3    C5 7412   0.668   0.897  14.958 -0.0911 -0.5638 -0.2784
  495TMC3    C6 7413   0.592   0.888  14.845 -0.6162 -0.4554  0.1331
  495TMC3     C 7414   0.985   1.026  14.833 -0.4269 -0.3058  0.0697
  495TMC3     O 7415   0.999   1.133  14.776  0.5247 -0.0859  0.7135
  495TMC3     H 7416   0.819   1.043  14.632 -0.8488 -1.2570 -0.6168
  495TMC3    H1 7417   0.862   0.919  15.039 -0.2654  0.5596 -0.9910
  495TMC3    H2 7418   0.497   0.835  14.846 -0.2245 -1.1548  0.2075
  495TMC3    C7 7419   0.628   0.830  15.076  0.6866 -0.0352 -0.7012
  495TMC3    C8 7420   0.583   0.862  14.605 -0.6824 -0.7768 -0.3652
  495TMC3    O1 7421   0.709   0.801  15.161 -0.3881  0.7547 -0.1889
  495TMC3    O2 7422   0.464   0.834  14.613  0.3234  0.2583 -0.2899
  496MPD2     C 7423   3.117   0.969  15.743  0.0070  0.5157 -0.5154
  496MPD2    C1 7424   3.022   0.899  15.665 -0.3637  0.7295  0.2962
  496MPD2    C2 7425   2.885   0.933  15.681 -0.7324 -0.0003 -0.1584
  496MPD2    C3 7426   2.843   1.024  15.774 -0.5450  0.7812 -0.2473
  496MPD2    C4 7427   2.941   1.084  15.856  0.9189  0.3779 -0.2033
  496MPD2    C5 7428   3.073   1.054  15.837  0.0116  0.0265  0.0717
  496MPD2     H 7429   2.809   0.873  15.632 -0.1614  0.1001 -1.1870
  496MPD2    H1 7430   2.914   1.150  15.937 -2.6232 -0.9053 -0.3254
  496MPD2    H2 7431   3.223   0.957  15.723 -0.3481 -0.8273 -1.6193
  496MPD2    H3 7432   3.147   1.101  15.900 -0.8366 -0.7626  1.6661
  496MPD2     N 7433   2.706   1.039  15.785 -0.1247 -0.7523 -0.4457
  496MPD2    H5 7434   2.660   0.972  15.724 -1.1710  0.5484 -1.0813
  496MPD2    N1 7435   3.079   0.798  15.586 -0.0547  0.5484 -0.3232
  496MPD2    H7 7436   3.179   0.795  15.570  0.0450  0.2802  0.3794
  497TMC3    C1 7437   2.498   1.098  15.861 -0.3137  0.4967  0.1422
  497TMC3    C2 7438   2.454   1.079  15.733  0.2177 -0.7963 -0.7110
  497TMC3    C3 7439   2.335   1.008  15.713  0.1267 -0.4597  0.1009
  497TMC3    C4 7440   2.444   1.028  15.963  0.6299 -0.5381  0.2464
  497TMC3    C5 7441   2.338   0.941  15.941  0.8232  0.3845  0.0428
  497TMC3    C6 7442   2.269   0.943  15.818  0.0995  0.3976  0.1505
  497TMC3     C 7443   2.639   1.107  15.886 -0.3517  0.3119  0.5323
  497TMC3     O 7444   2.679   1.149  15.997 -0.0330 -0.1976 -0.0093
  497TMC3     H 7445   2.498   1.136  15.653 -0.9904  1.0497 -0.0621
  497TMC3    H1 7446   2.494   1.036  16.059  1.3196  0.8204 -0.2252
  497TMC3    H2 7447   2.172   0.895  15.813 -1.5468  3.7173  0.3346
  497TMC3    C7 7448   2.335   0.821  16.011 -0.5388  0.3706  0.5881
  497TMC3    C8 7449   2.264   1.034  15.597  0.0312 -0.1325 -0.0022
  497TMC3    O1 7450   2.243   0.752  15.978  0.0884  0.6931 -0.0082
  497TMC3    O2 7451   2.270   1.148  15.550  0.3548  0.2077  0.0406
  498MPD2     C 7452   1.790   1.251  10.021  0.6470 -0.0859  0.2347
  498MPD2    C1 7453   1.914   1.194  10.064  0.4237 -0.6149 -0.1018
  498MPD2    C2 7454   1.946   1.063  10.027 -0.7130  0.3848 -0.2586
  498MPD2    C3 7455   1.847   0.973   9.992 -0.7596  0.4986 -0.2608
  498MPD2    C4 7456   1.722   1.025   9.971 -0.2965  0.2720  0.3214
  498MPD2    C5 7457   1.693   1.161   9.984  0.0994  0.3148  0.6961
  498MPD2     H 7458   2.049   1.032  10.039 -0.9264 -0.1302  0.2009
  498MPD2    H1 7459   1.637   0.968   9.935  0.6203 -0.4032 -0.7418
  498MPD2    H2 7460   1.771   1.353  10.052 -1.5953 -0.4627  0.0952
  498MPD2    H3 7461   1.591   1.197   9.972  0.2364  1.3415  2.5915
  498MPD2     N 7462   1.892   0.843   9.957 -1.0467  0.3894  0.6629
  498MPD2    H5 7463   1.992   0.829   9.959 -1.1885 -0.2666  3.0923
  498MPD2    N1 7464   2.011   1.271  10.130 -0.5000  0.5779  0.3408
  498MPD2    H7 7465   2.087   1.223  10.177  0.9544  2.2531 -0.2988
  499TMC3    C1 7466   2.124   1.463  10.215  0.4685  0.1459  0.1992
  499TMC3    C2 7467   2.138   1.403  10.333 -0.1123  1.0750 -0.2500
  499TMC3    C3 7468   2.224   1.444  10.422  0.4113 -0.1096 -0.2284
  499TMC3    C4 7469   2.220   1.548  10.167  0.3403  0.6018 -0.2566
  499TMC3    C5 7470   2.328   1.574  10.249 -0.1182  0.3538  0.0109
  499TMC3    C6 7471   2.324   1.530  10.383 -0.0474 -0.3748 -0.4086
  499TMC3     C 7472   2.021   1.413  10.120  0.2088 -0.4401  1.3069
  499TMC3     O 7473   1.967   1.490  10.044 -0.0821  0.6145  0.5938
  499TMC3     H 7474   2.059   1.339  10.373  0.8631 -0.6528 -1.0659
  499TMC3    H1 7475   2.222   1.573  10.062 -0.8184 -0.4910 -0.5433
  499TMC3    H2 7476   2.403   1.551  10.455 -1.4017 -0.7089  1.1531
  499TMC3    C7 7477   2.432   1.668  10.196 -0.9553 -0.4409 -0.0006
  499TMC3    C8 7478   2.262   1.358  10.534  0.7901 -0.3677  0.1999
  499TMC3    O1 7479   2.405   1.732  10.095  0.4140 -0.7762  0.3757
  499TMC3    O2 7480   2.281   1.240  10.502 -0.2188 -0.3279 -0.1466
  500MPD2     C 7481   4.542   2.408  10.549 -0.0690  0.1554 -0.5715
  500MPD2    C1 7482   4.501   2.508  10.462 -0.4316  0.5000  0.0627
  500MPD2    C2 7483   4.387   2.481  10.385  0.4643 -0.4309  0.7521
  500MPD2    C3 7484   4.313   2.366  10.400  0.1337 -0.3453  0.7992
  500MPD2    C4 7485   4.361   2.275  10.492 -0.5869  0.1469 -0.0575
  500MPD2    C5 7486   4.474   2.290  10.563  0.7880  0.2214 -0.8577
  500MPD2     H 7487   4.355   2.569  10.330 -1.6039 -2.0956 -0.7046
  500MPD2    H1 7488   4.307   2.181  10.499  0.3819 -0.5971 -2.4788
  500MPD2    H2 7489   4.620   2.427  10.621 -0.5688  1.3234 -0.3418
  500MPD2    H3 7490   4.506   2.216  10.635 -3.7713 -0.3914  0.5108
  500MPD2     N 7491   4.197   2.332  10.329  0.1506  0.5186 -0.3846
  500MPD2    H5 7492   4.156   2.241  10.344 -0.3563  0.6410 -1.0182
  500MPD2    N1 7493   4.584   2.624  10.445 -0.1963 -0.3428 -0.3790
  500MPD2    H7 7494   4.552   2.672  10.362  1.2588  0.8226 -0.2493
  501TMC3    C1 7495   0.060   2.730  10.417  0.1840 -0.1861 -0.2355
  501TMC3    C2 7496   0.025   2.805  10.309 -0.4569 -0.3483  0.5148
  501TMC3    C3 7497   0.121   2.861  10.231  0.3798 -0.9532 -0.7647
  501TMC3    C4 7498   0.190   2.730  10.455  0.5807  0.2924  0.0830
  501TMC3    C5 7499   0.287   2.782  10.367  0.5156  0.2856 -0.1462
  501TMC3    C6 7500   0.256   2.841  10.252  0.4182  0.0376  0.4610
  501TMC3     C 7501   4.710   2.654  10.503  0.6799 -0.9955  0.7402
  501TMC3     O 7502   0.022   2.618  10.609 -0.2169 -0.1313  0.2007
  501TMC3     H 7503   4.657   2.817  10.294 -0.6679 -0.3842  2.0052
  501TMC3    H1 7504   0.231   2.678  10.541  0.6959 -0.6245 -0.5222
  501TMC3    H2 7505   0.329   2.848  10.172 -2.7722 -0.9102 -2.5014
  501TMC3    C7 7506   0.414   2.692  10.372 -0.1090 -0.2303 -0.3436
  501TMC3    C8 7507   0.089   2.867  10.093  0.0839  0.2692 -0.0908
  501TMC3    O1 7508   0.408   2.594  10.448 -0.2110 -0.0133  0.3402
  501TMC3    O2 7509   0.022   2.771  10.052  0.8583 -0.4924 -0.1841
  502TMC3    C1 7510   0.242   1.608  14.887  0.0863  0.0462 -0.3262
  502TMC3    C2 7511   0.193   1.733  14.900  0.2261 -0.3778  0.3779
  502TMC3    C3 7512   0.067   1.751  14.850  1.1776 -0.0092  0.3634
  502TMC3    C4 7513   0.182   1.504  14.820  0.1371 -0.4540  0.5477
  502TMC3    C5 7514   0.052   1.524  14.785 -1.0364  0.5380  0.0034
  502TMC3    C6 7515   4.729   1.647  14.807  0.1013 -0.1612 -0.3441
  502TMC3     C 7516   0.309   1.554  15.002  0.0033 -1.0215 -0.1740
  502TMC3     O 7517   0.419   1.599  15.037 -0.1422 -0.5441  0.3730
  502TMC3     H 7518   0.258   1.816  14.925  2.3875 -1.4976 -1.5394
  502TMC3    H1 7519   0.228   1.405  14.817  1.4916  0.1998 -0.4157
  502TMC3    H2 7520   4.636   1.666  14.755  0.2180 -0.0726 -0.5188
  502TMC3    C7 7521   4.704   1.410  14.806  0.3480 -0.4339  0.3505
  502TMC3    C8 7522   4.736   1.859  14.908  0.0284  0.4163 -0.1638
  502TMC3    O1 7523   0.017   1.301  14.812  0.1135  0.3864 -0.2352
  502TMC3    O2 7524   4.619   1.843  14.941 -0.0582  0.2363 -0.4900
  503MPD2     C 7525   2.337   2.442  16.747  0.3044 -0.5492 -0.5183
  503MPD2    C1 7526   2.321   2.471  16.880 -0.2390 -0.0846  0.1323
  503MPD2    C2 7527   2.342   2.369  16.968 -0.7053 -0.3560 -0.7673
  503MPD2    C3 7528   2.382   2.236  16.938  0.0858 -0.2558 -0.3214
  503MPD2    C4 7529   2.384   2.208  16.800  0.1362 -0.1608  0.6025
  503MPD2    C5 7530   2.359   2.311  16.709  0.0477 -0.0816 -0.3385
  503MPD2     H 7531   2.335   2.399  17.072  1.3509  0.6456 -0.9123
  503MPD2    H1 7532   2.408   2.111  16.757 -2.4586  0.1738 -1.6366
  503MPD2    H2 7533   2.329   2.518  16.671 -0.2212 -0.5523 -0.4714
  503MPD2    H3 7534   2.360   2.294  16.602 -0.3227 -1.9196 -0.0438
  503MPD2     N 7535   2.411   2.133  17.037  0.2739  0.2497 -0.2576
  503MPD2    H5 7536   2.408   2.180  17.127  0.3740 -0.5937  0.1870
  503MPD2    N1 7537   2.287   2.604  16.927  0.5475 -0.1095  0.2076
  503MPD2    H7 7538   2.270   2.615  17.026  1.7325  1.1708  0.2701
  504TMC3    C1 7539   2.457   1.923  17.147 -0.1085 -0.2166 -1.0413
  504TMC3    C2 7540   2.388   1.952  17.264 -0.0401 -0.3628  0.3858
  504TMC3    C3 7541   2.424   1.887  17.379  0.1800  0.0340 -0.3229
  504TMC3    C4 7542   2.538   1.814  17.133  0.2999 -1.0583 -0.0349
  504TMC3    C5 7543   2.564   1.746  17.254 -0.3455  0.6658  0.4874
  504TMC3    C6 7544   2.514   1.782  17.376 -0.2141 -0.2349 -0.1923
  504TMC3     C 7545   2.453   2.002  17.026 -0.2910 -0.0854  0.5446
  504TMC3     O 7546   2.496   1.948  16.925  0.4912 -0.2115  0.4123
  504TMC3     H 7547   2.336   2.047  17.270 -0.4097 -0.6572  1.9299
  504TMC3    H1 7548   2.596   1.793  17.044  0.1890  0.0427 -0.3613
  504TMC3    H2 7549   2.559   1.743  17.467 -0.5069 -0.1775 -0.0257
  504TMC3    C7 7550   2.713   1.715  17.259  0.2813 -0.5174  0.2726
  504TMC3    C8 7551   2.415   1.966  17.499 -0.3965 -0.3674  0.6226
  504TMC3    O1 7552   2.741   1.600  17.239  0.1040 -0.7224  0.2714
  504TMC3    O2 7553   2.337   2.061  17.504 -0.4863 -0.1329  0.5361
  505MPD2     C 7554   2.169   4.583  10.547  1.0011 -0.1056  0.2971
  505MPD2    C1 7555   2.244   4.516  10.451 -0.7436 -0.0925  0.4786
  505MPD2    C2 7556   2.365   4.566  10.403 -0.3435 -0.5115  0.0923
  505MPD2    C3 7557   2.416   4.681  10.465 -0.4461  0.5270  0.3592
  505MPD2    C4 7558   2.354   4.738  10.572  0.3485  0.0985  0.0146
  505MPD2    C5 7559   2.230   4.692  10.616 -0.3097 -0.2880 -0.6128
  505MPD2     H 7560   2.411   4.522  10.316 -1.1180 -0.9715 -0.0783
  505MPD2    H1 7561   2.400   0.089  10.611 -1.2928 -0.5072  3.3629
  505MPD2    H2 7562   2.072   4.559  10.587  1.1313 -1.7720 -0.3729
  505MPD2    H3 7563   2.192   0.009  10.701  0.0121  0.4264 -0.9389
  505MPD2     N 7564   2.541   4.735  10.423 -0.4542 -0.4127 -0.3011
  505MPD2    H5 7565   2.562   0.082  10.473  1.2447 -1.2047  0.3505
  505MPD2    N1 7566   2.183   4.409  10.376  0.0592  0.2186 -0.4847
  505MPD2    H7 7567   2.085   4.389  10.390 -0.3243  0.8392 -2.4090
  506TMC3    C1 7568   2.173   4.235  10.205 -0.4805  0.3093 -0.1115
  506TMC3    C2 7569   2.063   4.288  10.146  0.2270 -0.6427  0.1081
  506TMC3    C3 7570   2.025   4.232  10.026  0.2952  0.1462 -0.2698
  506TMC3    C4 7571   2.258   4.147  10.144  0.5203 -0.5039  1.1190
  506TMC3    C5 7572   2.223   4.111  10.014 -0.1410  0.1999  0.2712
  506TMC3    C6 7573   2.097   4.134   9.963 -0.5344 -0.3155  0.2651
  506TMC3     C 7574   2.250   4.321  10.293 -0.2946 -0.0561 -0.2900
  506TMC3     O 7575   2.370   4.297  10.284 -0.1517 -0.4543  0.0264
  506TMC3     H 7576   2.016   4.377  10.187  1.5041 -0.6634  1.6351
  506TMC3    H1 7577   2.348   4.104  10.187  0.0908 -0.9570  1.5669
  506TMC3    H2 7578   2.076   4.118   9.858 -1.1528 -1.2229  0.5226
  506TMC3    C7 7579   2.328   4.133   9.916  0.3095  0.7171 -0.2622
  506TMC3    C8 7580   1.914   4.297   9.949 -0.0493 -0.5449  0.8724
  506TMC3    O1 7581   2.322   4.080   9.808  0.4560  0.2548  0.0228
  506TMC3    O2 7582   1.824   4.223   9.910 -0.2350 -0.7336  0.2206
  507TMC3    C1 7583   3.338   1.786  14.600 -0.2931 -0.1005  0.1462
  507TMC3    C2 7584   3.243   1.711  14.529  0.3690 -0.1443  0.9932
  507TMC3    C3 7585   3.250   1.709  14.395  1.0268  0.0051 -0.3225
  507TMC3    C4 7586   3.443   1.857  14.538  0.1151 -0.5051 -0.1576
  507TMC3    C5 7587   3.441   1.857  14.401  0.2078  0.0444 -0.8429
  507TMC3    C6 7588   3.355   1.770  14.328 -0.1578 -0.4642  0.1512
  507TMC3     C 7589   3.326   1.812  14.738  0.1938  0.2146 -0.1635
  507TMC3     O 7590   3.430   1.816  14.800 -0.0081  0.6834  0.4092
  507TMC3     H 7591   3.148   1.687  14.574  0.1624  1.1091  1.2339
  507TMC3    H1 7592   3.512   1.918  14.595 -0.9474  1.2023 -0.6941
  507TMC3    H2 7593   3.377   1.755  14.223  3.9319 -1.2373  1.0994
  507TMC3    C7 7594   3.455   1.986  14.343 -0.5898 -0.0213  0.4793
  507TMC3    C8 7595   3.121   1.732  14.336  0.5230  0.4948  0.2140
  507TMC3    O1 7596   3.373   1.994  14.251 -0.1716 -0.5517 -0.1461
  507TMC3    O2 7597   3.024   1.660  14.350  0.9625  0.2775 -0.4650
  508MPD2     C 7598   0.028   3.795  15.415  0.0864 -0.6515  0.1407
  508MPD2    C1 7599   0.014   3.866  15.532  0.9023 -0.1728 -0.0416
  508MPD2    C2 7600   4.696   3.993  15.524 -0.0742 -0.0700  0.1591
  508MPD2    C3 7601   4.651   4.041  15.394  0.6297 -0.0457 -0.2263
  508MPD2    C4 7602   4.660   3.958  15.279 -0.0110  0.1871  0.8113
  508MPD2    C5 7603   4.732   3.847  15.292  0.7350 -0.2848  0.0527
  508MPD2     H 7604   4.674   4.050  15.613 -0.0832 -1.6570  1.1595
  508MPD2    H1 7605   4.614   3.982  15.184  1.0785  2.6992  0.8978
  508MPD2    H2 7606   0.077   3.698  15.414  0.7232 -0.3045 -1.4260
  508MPD2    H3 7607   0.009   3.785  15.204  0.8460  0.9231 -0.7834
  508MPD2     N 7608   4.593   4.169  15.386  0.6137 -0.1900  0.2706
  508MPD2    H5 7609   4.564   4.212  15.474  0.5091  1.1565 -0.4312
  508MPD2    N1 7610   0.048   3.803  15.651 -0.0424  0.3693  0.5816
  508MPD2    H7 7611   0.064   3.703  15.651 -1.0867  0.2083 -1.4757
  509TMC3    C1 7612   4.351   4.536  15.217  0.6187 -0.9800 -0.1663
  509TMC3    C2 7613   4.347   4.593  15.340  0.2301 -0.3084  1.0852
  509TMC3    C3 7614   4.399   4.517  15.449  0.0641  0.2740  1.3452
  509TMC3    C4 7615   4.411   4.419  15.197  0.3598 -0.8608 -0.0983
  509TMC3    C5 7616   4.452   4.342  15.311  0.2010  0.5868 -0.3143
  509TMC3    C6 7617   4.448   4.390  15.437 -0.7644 -0.4995 -0.1466
  509TMC3     C 7618   4.363   4.617  15.094 -0.1014 -0.0979  0.4592
  509TMC3     O 7619   4.437   4.577  15.003 -0.3170 -0.1819 -0.4339
  509TMC3     H 7620   4.302   4.689  15.363 -0.0446 -0.1405 -0.1714
  509TMC3    H1 7621   4.421   4.380  15.097 -3.1163 -3.0147  0.3850
  509TMC3    H2 7622   4.465   4.328  15.524  2.7050 -1.4841 -1.5164
  509TMC3    C7 7623   4.534   4.228  15.277  0.5971 -0.4652  0.3994
  509TMC3    C8 7624   4.391   4.556  15.583 -0.1258  0.8496  0.0301
  509TMC3    O1 7625   4.547   4.207  15.158  0.3127  0.3310  0.6823
  509TMC3    O2 7626   4.365   4.472  15.671 -0.0175  0.0672 -0.5496
  510MPD2     C 7627   1.989   1.074  14.639  0.6151 -0.6810 -0.1925
  510MPD2    C1 7628   2.028   0.942  14.673 -0.8058 -0.1076 -0.4769
  510MPD2    C2 7629   2.147   0.899  14.621 -0.0541  0.8767  0.1148
  510MPD2    C3 7630   2.232   0.978  14.545  0.4933 -0.0096 -0.3371
  510MPD2    C4 7631   2.185   1.102  14.516 -0.0569 -0.3605 -0.8316
  510MPD2    C5 7632   2.073   1.159  14.570 -0.7134  0.3784  0.6094
  510MPD2     H 7633   2.172   0.796  14.639 -0.8566  0.7268  0.3655
  510MPD2    H1 7634   2.238   1.168  14.448  0.9178 -0.9716 -0.6783
  510MPD2    H2 7635   1.907   1.129  14.683 -0.7231 -0.8092 -2.5145
  510MPD2    H3 7636   2.059   1.266  14.563 -2.4338  0.0328 -1.0759
  510MPD2     N 7637   2.332   0.902  14.479  0.1880  0.2484  0.0438
  510MPD2    H5 7638   2.350   0.812  14.522  2.4093  1.7972  2.3395
  510MPD2    N1 7639   1.956   0.860  14.758 -0.4211 -1.0402  0.0588
  510MPD2    H7 7640   1.987   0.764  14.770  0.5303 -0.5278  1.5967
  511TMC3    C1 7641   1.774   0.795  14.887 -0.4929  0.1431  0.1931
  511TMC3    C2 7642   1.686   0.832  14.984  0.5153 -0.9789 -0.0660
  511TMC3    C3 7643   1.589   0.738  15.024  0.1813  0.1233  0.8126
  511TMC3    C4 7644   1.774   0.668  14.842  0.4371 -0.3825 -0.1285
  511TMC3    C5 7645   1.682   0.576  14.888 -0.2283 -0.3703 -0.3388
  511TMC3    C6 7646   1.583   0.606  14.974 -0.7173 -0.4005  0.2630
  511TMC3     C 7647   1.845   0.902  14.827  0.1217  0.2590 -0.2879
  511TMC3     O 7648   1.800   1.014  14.856 -0.6433 -0.1437 -0.2694
  511TMC3     H 7649   1.719   0.909  15.051 -0.5185 -0.3675 -0.2556
  511TMC3    H1 7650   1.846   0.639  14.765  0.0706 -0.9209 -0.2661
  511TMC3    H2 7651   1.496   0.543  14.989 -0.6634 -0.7885 -1.1541
  511TMC3    C7 7652   1.679   0.451  14.822  0.0907  0.2762 -0.2805
  511TMC3    C8 7653   1.524   0.755  15.151  0.0226  0.0663  0.6910
  511TMC3    O1 7654   1.732   0.425  14.714  0.4831 -0.3522  0.0898
  511TMC3    O2 7655   1.492   0.871  15.177  0.5260 -0.3837  0.3575
  512TMC3    C1 7656   0.755   4.706  13.298  0.5890  0.8509 -0.0310
  512TMC3    C2 7657   0.803   4.637  13.405  0.6493  0.2906 -0.0401
  512TMC3    C3 7658   0.897   4.542  13.389 -0.1051  0.3028  0.8543
  512TMC3    C4 7659   0.787   4.668  13.174  0.1993 -0.3057  0.3929
  512TMC3    C5 7660   0.882   4.569  13.161  0.8286  0.1421 -0.4158
  512TMC3    C6 7661   0.935   4.499  13.263  0.1480  0.2861  0.2757
  512TMC3     C 7662   0.624   0.032  13.315 -0.5081 -0.4011 -0.9499
  512TMC3     O 7663   0.554   0.059  13.217 -0.3821  0.1919  0.0516
  512TMC3     H 7664   0.761   4.648  13.505 -0.3340  0.4969 -0.4782
  512TMC3    H1 7665   0.757   4.724  13.087 -0.3538 -2.4450 -0.8039
  512TMC3    H2 7666   1.038   4.469  13.247  0.1320 -0.5781  1.7793
  512TMC3    C7 7667   0.948   4.556  13.031 -0.2365  0.1331 -0.2981
  512TMC3    C8 7668   1.009   4.541  13.476  0.9173 -0.2245  0.1158
  512TMC3    O1 7669   0.981   4.660  12.973 -0.3812 -0.4881 -0.2526
  512TMC3    O2 7670   1.059   4.431  13.512  0.3080  0.1684 -0.2353
  513MPD2     C 7671   2.919   4.631  13.321  0.7454 -0.3259 -0.1017
  513MPD2    C1 7672   3.015   4.640  13.226  0.2457 -0.1004  0.0497
  513MPD2    C2 7673   3.092   0.015  13.221 -0.3206  0.1579 -1.0469
  513MPD2    C3 7674   3.080   0.115  13.314  0.1503  0.1566 -0.5281
  513MPD2    C4 7675   2.986   0.100  13.409  0.3621 -0.1211  0.7258
  513MPD2    C5 7676   2.904   4.728  13.410 -0.8128 -0.6557  1.2090
  513MPD2     H 7677   3.168   0.023  13.143 -0.3572  0.3757 -1.0576
  513MPD2    H1 7678   2.968   0.179  13.481 -0.1427 -0.4581  0.9733
  513MPD2    H2 7679   2.851   4.547  13.320 -0.6134  0.7566  0.5944
  513MPD2    H3 7680   2.819   4.729  13.477 -2.6586 -0.2418 -1.1691
  513MPD2     N 7681   3.174   0.220  13.303  0.0555  0.5625  0.4143
  513MPD2    H5 7682   3.231   0.216  13.219  0.3001 -1.3121  0.6616
  513MPD2    N1 7683   3.047   4.532  13.136  0.2667 -0.1319 -0.2408
  513MPD2    H7 7684   3.120   4.555  13.069  0.0665  1.6481  0.1419
  514TMC3    C1 7685   3.045   4.323  13.036  1.2719 -0.7668 -0.4045
  514TMC3    C2 7686   2.975   4.310  12.921  0.2081  0.4815  0.6551
  514TMC3    C3 7687   3.029   4.342  12.801 -0.8438  0.1413  0.0729
  514TMC3    C4 7688   3.178   4.360  13.023  0.1748  0.0979  0.5352
  514TMC3    C5 7689   3.235   4.388  12.902 -0.5450  0.0387 -0.2773
  514TMC3    C6 7690   3.160   4.379  12.783  0.1230  0.4738  0.9897
  514TMC3     C 7691   2.972   4.413  13.118  0.0659  0.8793  0.0087
  514TMC3     O 7692   2.878   4.370  13.187  0.3389  0.1226 -0.5375
  514TMC3     H 7693   2.871   4.277  12.928  0.5297 -0.7009 -0.0682
  514TMC3    H1 7694   3.238   4.365  13.113  0.0038  2.1933  0.5331
  514TMC3    H2 7695   3.193   4.394  12.681 -1.3143  0.2837  0.5042
  514TMC3    C7 7696   3.334   4.493  12.912  0.0651 -0.7359  0.5838
  514TMC3    C8 7697   2.933   4.377  12.698  0.5113 -0.7215 -0.8049
  514TMC3    O1 7698   3.284   4.603  12.928  0.4850 -0.3179  0.3631
  514TMC3    O2 7699   2.819   4.359  12.734 -0.4850  0.1052 -0.2531
  515MPD2     C 7700   1.353   2.085  14.197  0.0004 -0.0752  0.3601
  515MPD2    C1 7701   1.305   2.032  14.314  0.2112  0.3289  0.6691
  515MPD2    C2 7702   1.337   2.090  14.435 -0.3290  0.0011  0.3000
  515MPD2    C3 7703   1.440   2.186  14.442  0.5068  0.7520 -0.3369
  515MPD2    C4 7704   1.481   2.235  14.325 -0.1973  0.7121 -0.3786
  515MPD2    C5 7705   1.444   2.180  14.207 -0.2013 -0.2770 -0.3816
  515MPD2     H 7706   1.308   2.045  14.529 -1.1913  2.6152  1.2994
  515MPD2    H1 7707   1.549   2.319  14.312 -0.5561  1.3154  1.6146
  515MPD2    H2 7708   1.319   2.049  14.100 -0.8330 -0.2291  0.7055
  515MPD2    H3 7709   1.483   2.227  14.117 -0.0770  1.1443  0.4070
  515MPD2     N 7710   1.507   2.229  14.562 -0.4199 -0.3586  0.9466
  515MPD2    H5 7711   1.592   2.285  14.553 -0.3464 -0.6151  0.0191
  515MPD2    N1 7712   1.220   1.917  14.307  0.3125 -0.2853  0.1962
  515MPD2    H7 7713   1.200   1.887  14.212  1.6253  0.2804 -0.2651
  516TMC3    C1 7714   1.055   1.762  14.351  0.1332  0.2070 -0.8268
  516TMC3    C2 7715   0.959   1.836  14.297 -0.1475 -0.2279  0.3239
  516TMC3    C3 7716   0.827   1.805  14.336 -0.2982 -0.0707 -0.5705
  516TMC3    C4 7717   1.026   1.656  14.437  0.1694  0.3695  0.0619
  516TMC3    C5 7718   0.900   1.630  14.470  0.0513  0.5464  0.1148
  516TMC3    C6 7719   0.793   1.699  14.424 -0.3015  0.2059  0.1803
  516TMC3     C 7720   1.163   1.843  14.403 -0.8315 -0.0138 -0.2659
  516TMC3     O 7721   1.181   1.851  14.525  0.4079 -0.1149 -0.2090
  516TMC3     H 7722   0.986   1.922  14.238 -0.1590 -1.0633 -0.8930
  516TMC3    H1 7723   1.109   1.592  14.467  1.1634  2.6574  2.1260
  516TMC3    H2 7724   0.689   1.671  14.433 -0.5637  0.5428 -1.7485
  516TMC3    C7 7725   0.878   1.541  14.579 -1.2971  0.6565  0.4508
  516TMC3    C8 7726   0.721   1.891  14.296 -0.0127  0.2739 -0.8489
  516TMC3    O1 7727   0.975   1.518  14.651  0.1043 -0.1478 -0.5278
  516TMC3    O2 7728   0.609   1.890  14.346  0.0141 -0.1217 -0.1018
  517MPD2     C 7729   1.376   3.697  17.719 -0.0535  0.1067 -0.3387
  517MPD2    C1 7730   1.244   3.691  17.675 -0.4324 -0.2850 -0.3121
  517MPD2    C2 7731   1.156   3.785  17.720 -0.0372  0.1720 -0.2220
  517MPD2    C3 7732   1.202   3.889   0.044  0.9605  0.6407  0.6465
  517MPD2    C4 7733   1.333   3.900   0.073  0.4606 -0.0285 -0.4288
  517MPD2    C5 7734   1.422   3.804   0.044 -0.5354 -0.9055  0.8170
  517MPD2     H 7735   1.059   3.787  17.673  0.1346 -1.7540 -0.6966
  517MPD2    H1 7736   1.373   3.977   0.138 -0.3315  0.3067 -0.3364
  517MPD2    H2 7737   1.443   3.612  17.711 -1.7456 -1.2641  0.1992
  517MPD2    H3 7738   1.526   3.807   0.075 -0.3857 -0.4278  0.2659
  517MPD2     N 7739   1.113   3.988   0.096 -0.0573 -0.0015 -0.4182
  517MPD2    H5 7740   1.158   4.069   0.137 -1.5812  1.1407 -0.9898
  517MPD2    N1 7741   1.223   3.579  17.586  0.4765  0.2853 -0.7050
  517MPD2    H7 7742   1.308   3.535  17.554  1.0625  0.1455  1.0481
  518TMC3    C1 7743   1.111   3.426  17.449 -0.1613 -0.1166 -0.1755
  518TMC3    C2 7744   1.031   3.311  17.458 -0.4298  0.3913 -0.1515
  518TMC3    C3 7745   1.046   3.222  17.356  0.5442 -0.6192  0.4676
  518TMC3    C4 7746   1.206   3.446  17.352  0.2319 -0.3269 -0.0126
  518TMC3    C5 7747   1.206   3.360  17.251 -0.3589 -0.3279 -0.8685
  518TMC3    C6 7748   1.135   3.238  17.254 -0.3117 -0.6988  0.5217
  518TMC3     C 7749   1.099   3.527  17.550 -0.5637 -0.2310  0.5897
  518TMC3     O 7750   0.982   3.568  17.576 -0.0258 -0.6726 -0.5884
  518TMC3     H 7751   0.952   3.303  17.532 -0.0975 -1.7588 -0.0228
  518TMC3    H1 7752   1.262   3.539  17.352 -0.7541  0.2693 -0.5866
  518TMC3    H2 7753   1.154   3.154  17.189  0.1663 -0.4935  0.3967
  518TMC3    C7 7754   1.312   3.388  17.155 -0.0709 -0.1891 -0.3204
  518TMC3    C8 7755   1.000   3.085  17.361  0.1103  0.1920  0.7192
  518TMC3    O1 7756   1.377   3.490  17.164 -0.2668  0.0563 -0.2163
  518TMC3    O2 7757   0.997   3.018  17.261  0.3835  0.0939  0.3278
  519MPD2     C 7758   2.370   2.201  13.430 -0.3887  0.2708 -0.1600
  519MPD2    C1 7759   2.286   2.103  13.481  0.0273  0.3397 -0.2070
  519MPD2    C2 7760   2.344   1.994  13.537  0.0146 -0.3887  0.3071
  519MPD2    C3 7761   2.482   1.968  13.533 -0.0055  0.0901  0.3537
  519MPD2    C4 7762   2.563   2.057  13.467  0.4722  0.0651 -0.0054
  519MPD2    C5 7763   2.505   2.174  13.411 -0.7548  0.0857  0.5800
  519MPD2     H 7764   2.282   1.913  13.573 -1.1555  0.8246  1.0349
  519MPD2    H1 7765   2.671   2.050  13.463  0.5692  1.0496  0.9161
  519MPD2    H2 7766   2.339   2.292  13.378  0.3082  0.5058 -0.1625
  519MPD2    H3 7767   2.566   2.246  13.359 -0.1035 -0.5191  0.5047
  519MPD2     N 7768   2.525   1.846  13.585  0.1530  0.0169 -0.5664
  519MPD2    H5 7769   2.625   1.841  13.603  0.0774  1.4904  0.2971
  519MPD2    N1 7770   2.147   2.126  13.492  0.4883  0.2274 -0.2877
  519MPD2    H7 7771   2.126   2.225  13.486  2.0265  0.5339 -0.4521
  520TMC3    C1 7772   2.516   1.619  13.648  0.1103 -0.0709  0.6751
  520TMC3    C2 7773   2.459   1.499  13.630 -0.1077  0.1775 -0.2972
  520TMC3    C3 7774   2.531   1.393  13.656  0.3562  0.3952 -0.3741
  520TMC3    C4 7775   2.632   1.642  13.711 -0.4187 -0.6050  0.1486
  520TMC3    C5 7776   2.696   1.528  13.757  0.5843  0.9575  0.9250
  520TMC3    C6 7777   2.651   1.400  13.728 -0.1797  0.7637 -0.6066
  520TMC3     C 7778   2.446   1.738  13.610  0.4455  0.8957  0.1616
  520TMC3     O 7779   2.336   1.715  13.563 -0.0225 -0.0102  0.4767
  520TMC3     H 7780   2.364   1.495  13.577 -0.9945  0.0142  1.3254
  520TMC3    H1 7781   2.658   1.742  13.744 -1.8782 -0.2061  0.1013
  520TMC3    H2 7782   2.702   1.311  13.763 -0.7909  0.2861 -0.9310
  520TMC3    C7 7783   2.820   1.539  13.834  0.1153  0.1046  0.1400
  520TMC3    C8 7784   2.493   1.257  13.620 -0.7672  0.3637  0.1258
  520TMC3    O1 7785   2.857   1.436  13.887  0.1534  0.5359  0.1671
  520TMC3    O2 7786   2.576   1.171  13.604 -0.4704  0.3136 -0.2513
  521MPD2     C 7787   3.858   4.538  17.326  0.4429 -0.2090 -0.4221
  521MPD2    C1 7788   3.797   4.531  17.204 -0.2428  1.1051  0.8942
  521MPD2    C2 7789   3.873   4.506  17.093 -0.6269  0.2195  0.5079
  521MPD2    C3 7790   4.005   4.472  17.111 -0.3491  0.3939  0.2126
  521MPD2    C4 7791   4.063   4.475  17.239  0.3496 -0.3076 -0.9101
  521MPD2    C5 7792   3.988   4.506  17.350 -0.3626 -0.4715 -0.0385
  521MPD2     H 7793   3.824   4.492  16.997  0.4484 -1.4170  0.1982
  521MPD2    H1 7794   4.168   4.446  17.249  1.4782  3.7861 -1.0245
  521MPD2    H2 7795   3.796   4.559  17.412  2.1851  0.6574  0.6293
  521MPD2    H3 7796   4.040   4.518  17.444  0.8992 -2.0233 -0.5276
  521MPD2     N 7797   4.079   4.439  16.991  0.7551  0.1264  0.2061
  521MPD2    H5 7798   4.021   4.438  16.907  1.9686 -0.9992 -0.6164
  521MPD2    N1 7799   3.656   4.547  17.195 -0.2642  0.2078 -0.0424
  521MPD2    H7 7800   3.609   4.564  17.284 -2.9390 -0.8902 -1.2633
  522TMC3    C1 7801   4.247   4.377  16.843 -0.0619  0.1845  0.6442
  522TMC3    C2 7802   4.373   4.331  16.827  0.2052 -0.0626 -0.6485
  522TMC3    C3 7803   4.403   4.249  16.724  0.0451 -0.0040  0.8734
  522TMC3    C4 7804   4.148   4.351  16.753  0.3912  0.1780 -0.1972
  522TMC3    C5 7805   4.181   4.275  16.648 -0.9276  1.2787  0.0212
  522TMC3    C6 7806   4.307   4.218  16.630 -0.3051  0.1202  0.6130
  522TMC3     C 7807   4.217   4.420  16.980 -0.1291  0.1594 -0.2693
  522TMC3     O 7808   4.304   4.395  17.062  0.7566  0.3465 -0.1647
  522TMC3     H 7809   4.450   4.366  16.895  2.9674 -0.3883 -3.6317
  522TMC3    H1 7810   4.049   4.393  16.762  0.5756  0.5582  0.0207
  522TMC3    H2 7811   4.330   4.144  16.554  1.4814  0.1251  1.1571
  522TMC3    C7 7812   4.079   4.228  16.557  0.8934  0.3753 -0.8482
  522TMC3    C8 7813   4.541   4.192  16.715  0.4550 -0.6211 -0.3998
  522TMC3    O1 7814   4.093   4.112  16.515 -0.5181 -0.5313 -0.5461
  522TMC3    O2 7815   4.608   4.217  16.813 -0.2286 -0.0988 -0.1869
  523MPD2     C 7816   0.022   4.175  10.291  0.0102 -0.7131  0.2063
  523MPD2    C1 7817   0.061   4.152  10.158  0.2004 -0.1696  0.4014
  523MPD2    C2 7818   4.733   4.222  10.064 -0.3485  0.6560 -0.5318
  523MPD2    C3 7819   4.627   4.305  10.091  1.1372 -0.0456  0.2747
  523MPD2    C4 7820   4.587   4.332  10.222  0.2179 -0.0385 -0.0477
  523MPD2    C5 7821   4.663   4.267  10.316 -0.7575 -0.5793  0.4003
  523MPD2     H 7822   0.025   4.221   9.961 -0.9000  0.4158 -0.6967
  523MPD2    H1 7823   4.502   4.397  10.240  0.9895  0.9572 -0.0286
  523MPD2    H2 7824   0.074   4.118  10.367  1.0158  0.1230  0.1481
  523MPD2    H3 7825   4.650   4.300  10.419  2.2118  0.9213  0.2805
  523MPD2     N 7826   4.552   4.372   9.990  0.0947 -0.6720 -0.4124
  523MPD2    H5 7827   4.479   4.436  10.019  0.9330 -0.1987  0.6480
  523MPD2    N1 7828   0.163   4.056  10.131 -0.5260  0.4645  0.0459
  523MPD2    H7 7829   0.196   4.011  10.216 -2.3570  0.7497  0.9059
  524TMC3    C1 7830   4.460   4.433   9.779 -0.0665 -0.1590 -0.2575
  524TMC3    C2 7831   4.435   4.407   9.651  0.0990 -0.2015  0.6444
  524TMC3    C3 7832   4.339   4.479   9.595 -0.3941  0.3059 -0.1091
  524TMC3    C4 7833   4.406   4.538   9.846  0.0339 -0.3246  0.2829
  524TMC3    C5 7834   4.303   4.604   9.786  0.0761  0.1186  0.4613
  524TMC3    C6 7835   4.275   4.585   9.656 -0.4748 -0.7255 -0.6158
  524TMC3     C 7836   4.545   4.341   9.855  0.5199 -0.5184  0.2129
  524TMC3     O 7837   4.607   4.254   9.793 -0.1082  0.3692  0.1889
  524TMC3     H 7838   4.463   4.308   9.615  0.9080 -0.7741  2.8475
  524TMC3    H1 7839   4.453   4.584   9.932 -0.3862  0.8384 -0.1006
  524TMC3    H2 7840   4.206   4.653   9.608 -0.2202  1.1737  1.6940
  524TMC3    C7 7841   4.242   4.705   9.872  0.3049 -0.0200 -0.1068
  524TMC3    C8 7842   4.323   4.461   9.454 -0.1582  0.3299  0.4854
  524TMC3    O1 7843   4.267   4.696   9.991  0.1922  0.2034 -0.0919
  524TMC3    O2 7844   4.249   4.543   9.401 -0.1194 -0.3976 -0.4335
  525MPD2     C 7845   3.766   1.588  14.424 -0.2247  0.3214 -0.7836
  525MPD2    C1 7846   3.884   1.569  14.486  0.3138 -0.2550 -0.4566
  525MPD2    C2 7847   3.976   1.666  14.468 -0.3427 -0.4470 -0.6454
  525MPD2    C3 7848   3.952   1.778  14.390  0.1782 -0.2498 -0.6901
  525MPD2    C4 7849   3.830   1.787  14.324  0.1537  0.5982 -0.1042
  525MPD2    C5 7850   3.739   1.692  14.347  0.1027  0.3589  0.5303
  525MPD2     H 7851   4.071   1.657  14.521 -0.1261  0.2454 -0.9145
  525MPD2    H1 7852   3.812   1.869  14.255  2.1526  0.1867 -1.1243
  525MPD2    H2 7853   3.687   1.513  14.424 -0.0410  0.1231  0.4369
  525MPD2    H3 7854   3.643   1.697  14.297 -0.3253  1.8190  1.5182
  525MPD2     N 7855   4.042   1.888  14.377 -0.2197 -0.8151 -0.2446
  525MPD2    H5 7856   4.009   1.961  14.316  0.6287  1.2768  1.8023
  525MPD2    N1 7857   3.918   1.462  14.569 -0.2065 -0.8449  0.6208
  525MPD2    H7 7858   4.007   1.476  14.616  0.7482  1.7340 -1.9750
  526TMC3    C1 7859   3.902   1.256  14.671 -0.6604 -0.2229  0.1516
  526TMC3    C2 7860   3.832   1.185  14.766  0.2081 -0.0379 -0.5902
  526TMC3    C3 7861   3.899   1.128  14.876 -0.3970  0.3386  0.0900
  526TMC3    C4 7862   4.038   1.261  14.665 -0.1826  0.3440  0.3927
  526TMC3    C5 7863   4.101   1.182  14.753  0.3287 -0.5454  0.2477
  526TMC3    C6 7864   4.040   1.123  14.863  0.1411 -0.5409  0.2503
  526TMC3     C 7865   3.832   1.360  14.603  0.1237  0.2776  0.0369
  526TMC3     O 7866   3.709   1.360  14.599  0.1212  0.5136 -0.1478
  526TMC3     H 7867   3.725   1.203  14.768  0.2538  0.2258 -0.5575
  526TMC3    H1 7868   4.079   1.298  14.572  1.1793  0.4176  1.0293
  526TMC3    H2 7869   4.096   1.088  14.949  2.5121 -1.6742 -1.7506
  526TMC3    C7 7870   4.240   1.131  14.726 -0.3418  0.5489 -0.1943
  526TMC3    C8 7871   3.837   1.075  14.994  0.4200 -0.6310 -0.4725
  526TMC3    O1 7872   4.276   1.023  14.776  0.5228 -0.0417 -0.2333
  526TMC3    O2 7873   3.897   0.990  15.060  0.4253  0.4612  0.1593
  527MPD2     C 7874   2.569   4.384   1.438 -0.1114  0.3166 -0.1797
  527MPD2    C1 7875   2.473   4.323   1.363  0.3100 -0.5869 -0.0602
  527MPD2    C2 7876   2.506   4.222   1.276 -0.3684  0.4788 -0.0330
  527MPD2    C3 7877   2.638   4.180   1.270 -0.8976  0.0777 -0.5608
  527MPD2    C4 7878   2.731   4.236   1.352  0.2502 -0.1041 -0.0055
  527MPD2    C5 7879   2.696   4.344   1.425 -0.0737  0.2817  0.1376
  527MPD2     H 7880   2.428   4.170   1.222 -0.6795 -0.5455  1.3999
  527MPD2    H1 7881   2.836   4.218   1.330  0.3222  0.2876  0.0081
  527MPD2    H2 7882   2.548   4.473   1.498  2.6077  0.6979  0.2139
  527MPD2    H3 7883   2.767   4.405   1.479  2.3828 -0.8306 -1.8171
  527MPD2     N 7884   2.670   4.085   1.167  0.0863  0.9602 -0.2359
  527MPD2    H5 7885   2.596   4.048   1.108  0.4570 -1.0395  0.5622
  527MPD2    N1 7886   2.339   4.365   1.355  0.0371  0.6452 -0.4165
  527MPD2    H7 7887   2.276   4.306   1.301  1.0114 -0.5291 -0.2915
  528TMC3    C1 7888   2.159   4.522   1.344 -0.1419 -0.7017 -0.5619
  528TMC3    C2 7889   2.132   4.487   1.212 -0.1114  0.6121 -0.4160
  528TMC3    C3 7890   2.018   4.534   1.159  0.1299 -0.3125 -0.0224
  528TMC3    C4 7891   2.073   4.589   1.427 -0.0833 -0.0553  0.3453
  528TMC3    C5 7892   1.956   4.629   1.367  0.1808  0.6635 -0.5401
  528TMC3    C6 7893   1.926   4.598   1.238  0.1860  0.3115 -0.4253
  528TMC3     C 7894   2.289   4.483   1.401 -0.1710 -0.1257  0.6674
  528TMC3     O 7895   2.334   4.556   1.490 -0.9831 -0.1366 -0.4984
  528TMC3     H 7896   2.215   4.446   1.155  0.8643  0.8281  0.8513
  528TMC3    H1 7897   2.102   4.607   1.530  0.9850  1.2554 -0.1861
  528TMC3    H2 7898   1.835   4.636   1.193  0.5653  1.0154 -0.5922
  528TMC3    C7 7899   1.840   4.678   1.450  0.1208  0.4335 -0.1347
  528TMC3    C8 7900   2.010   4.527   1.013  0.8843  0.3005  0.1372
  528TMC3    O1 7901   1.730   4.697   1.398 -0.0609  0.2093  0.8032
  528TMC3    O2 7902   2.106   4.483   0.955  0.5687  0.3437  0.3164
  529MPD2     C 7903   4.087   2.878   0.879 -0.1804 -0.1848  0.0410
  529MPD2    C1 7904   4.039   2.781   0.789  0.3730 -0.9916  0.7934
  529MPD2    C2 7905   3.963   2.825   0.683  0.6227 -0.5418  0.4686
  529MPD2    C3 7906   3.948   2.960   0.655 -0.5540  0.0447 -0.3456
  529MPD2    C4 7907   4.010   3.056   0.733 -0.2518 -0.7055 -0.4616
  529MPD2    C5 7908   4.068   3.013   0.852  0.5089  0.0103 -0.0964
  529MPD2     H 7909   3.921   2.746   0.623 -0.8803 -0.4678  1.4180
  529MPD2    H1 7910   4.012   3.163   0.716  0.0464 -0.8500 -1.3663
  529MPD2    H2 7911   4.140   2.853   0.970 -0.2287 -0.8634 -0.1168
  529MPD2    H3 7912   4.112   3.085   0.920  0.6481  0.1288 -0.3100
  529MPD2     N 7913   3.888   3.018   0.545  0.4173 -0.1857  0.4555
  529MPD2    H5 7914   3.888   3.119   0.530 -0.0662 -0.2413  0.0581
  529MPD2    N1 7915   4.074   2.643   0.793  0.2381 -0.5943 -0.2273
  529MPD2    H7 7916   4.067   2.583   0.711  2.6505 -1.8611  0.5074
  530TMC3    C1 7917   4.225   2.478   0.882 -0.4523 -0.1505 -0.6047
  530TMC3    C2 7918   4.305   2.456   0.991 -0.1709 -0.4348  0.6011
  530TMC3    C3 7919   4.410   2.370   0.981 -0.1843  0.2208 -0.1934
  530TMC3    C4 7920   4.244   2.412   0.766 -0.4557 -0.3958  0.3283
  530TMC3    C5 7921   4.347   2.321   0.768  0.2693 -0.7173  0.9246
  530TMC3    C6 7922   4.433   2.296   0.869 -0.2888 -0.0984 -0.2510
  530TMC3     C 7923   4.138   2.594   0.904  0.3507 -0.4348  0.4207
  530TMC3     O 7924   4.128   2.632   1.024 -0.2798  0.1167  0.1952
  530TMC3     H 7925   4.295   2.512   1.083  0.2050 -0.0537  0.4072
  530TMC3    H1 7926   4.174   2.418   0.683  0.1654 -0.3861 -0.1889
  530TMC3    H2 7927   4.504   2.215   0.857  2.0125  1.8465  0.2005
  530TMC3    C7 7928   4.329   2.217   0.667  0.2067  0.7093 -0.3548
  530TMC3    C8 7929   4.507   2.378   1.088 -0.5117  1.0538 -0.1673
  530TMC3    O1 7930   4.308   2.254   0.552 -0.1932  0.7923  0.0317
  530TMC3    O2 7931   4.467   2.415   1.198 -0.2778 -0.1433 -0.8263
  531MPD2     C 7932   3.749   4.650  13.175 -0.2310  0.2490 -0.4035
  531MPD2    C1 7933   3.647   4.720  13.119 -0.3752 -0.2495  0.2218
  531MPD2    C2 7934   3.548   4.648  13.044  0.4079 -0.4716  0.2896
  531MPD2    C3 7935   3.557   4.515  13.023 -0.6272  0.4682  0.5898
  531MPD2    C4 7936   3.672   4.448  13.065  0.6945 -0.3194 -0.1097
  531MPD2    C5 7937   3.765   4.515  13.140  0.4550 -0.5831  0.1696
  531MPD2     H 7938   3.466   4.702  13.000  1.2519  0.5475 -0.0159
  531MPD2    H1 7939   3.696   4.345  13.044  0.3840 -0.6101  0.9724
  531MPD2    H2 7940   3.819   4.693  13.245 -1.5611 -1.3021  1.8635
  531MPD2    H3 7941   3.857   4.464  13.168  1.3727  1.3829  0.7173
  531MPD2     N 7942   3.452   4.442  12.961 -0.4890  0.2109 -0.5055
  531MPD2    H5 7943   3.467   4.342  12.960 -0.1709  0.2689 -1.0994
  531MPD2    N1 7944   3.622   0.119  13.161  0.2369  0.1558 -0.7226
  531MPD2    H7 7945   3.685   0.145  13.236  0.7830 -0.3530 -1.0033
  532TMC3    C1 7946   3.507   0.318  13.222  0.1010  0.5308 -1.0180
  532TMC3    C2 7947   3.383   0.359  13.253 -0.0071 -0.9147 -0.0389
  532TMC3    C3 7948   3.342   0.356  13.381  0.1694 -0.4991 -0.3858
  532TMC3    C4 7949   3.591   0.307  13.330 -0.4112 -1.0368 -0.8665
  532TMC3    C5 7950   3.553   0.336  13.456 -0.2453  0.2904 -0.2855
  532TMC3    C6 7951   3.427   0.347  13.489 -0.9743 -0.5839  0.0153
  532TMC3     C 7952   3.515   0.203  13.131 -0.0663  0.5482  0.6148
  532TMC3     O 7953   3.418   0.182  13.056  0.1560 -0.0991 -0.0503
  532TMC3     H 7954   3.312   0.371  13.172  0.6243 -1.9940 -0.7452
  532TMC3    H1 7955   3.694   0.274  13.325 -0.5412 -1.8317  2.0826
  532TMC3    H2 7956   3.388   0.348  13.590  1.3180 -2.2311  0.9225
  532TMC3    C7 7957   3.641   0.269  13.553 -0.3244 -0.3325 -0.1193
  532TMC3    C8 7958   3.212   0.300  13.407 -0.1905 -0.3037 -0.4570
  532TMC3    O1 7959   3.739   0.335  13.591 -0.1384  0.4008 -0.3345
  532TMC3    O2 7960   3.162   0.319  13.514 -0.6228  0.1853 -0.6476
  533TMC3    C1 7961   4.212   2.021  14.423 -0.1026 -0.5164 -0.7562
  533TMC3    C2 7962   4.343   2.034  14.449  0.2902  0.5590 -0.0836
  533TMC3    C3 7963   4.391   2.114  14.551 -0.3944 -0.3908 -0.2776
  533TMC3    C4 7964   4.121   2.103  14.490 -0.6006 -0.2059  0.0524
  533TMC3    C5 7965   4.163   2.169  14.607  0.4969 -0.0674  0.4746
  533TMC3    C6 7966   4.297   2.179  14.625  0.0042  0.7751 -0.3663
  533TMC3     C 7967   4.173   1.884  14.402 -0.2376  0.7136  0.1046
  533TMC3     O 7968   4.238   1.807  14.470  0.1475 -0.3274 -0.1103
  533TMC3     H 7969   4.409   1.969  14.392  0.1385 -0.2439  0.6435
  533TMC3    H1 7970   4.014   2.094  14.474 -0.6802  1.2991 -0.3027
  533TMC3    H2 7971   4.330   2.237  14.710  0.6953 -0.8330  0.4448
  533TMC3    C7 7972   4.073   2.156  14.720  0.2459 -0.3115 -0.9555
  533TMC3    C8 7973   4.522   2.169  14.555  0.5716  0.3020  0.1680
  533TMC3    O1 7974   3.974   2.084  14.709  0.3566 -0.2334 -0.4173
  533TMC3    O2 7975   4.529   2.287  14.593 -0.9253  0.6178  0.1409
  534MPD2     C 7976   2.219   2.646   0.988 -0.3811 -0.2306  0.0569
  534MPD2    C1 7977   2.215   2.759   0.906  0.0126 -0.2594 -0.7902
  534MPD2    C2 7978   2.107   2.787   0.825  0.3336  0.4106 -0.2533
  534MPD2    C3 7979   1.995   2.702   0.830  0.1033 -0.0147  0.0310
  534MPD2    C4 7980   1.993   2.591   0.914  0.3872  0.3391  0.2080
  534MPD2    C5 7981   2.097   2.567   0.997 -0.2940  0.9128 -0.1562
  534MPD2     H 7982   2.101   2.882   0.772 -1.2766  0.4123 -0.0919
  534MPD2    H1 7983   1.900   2.536   0.910  0.2437  0.5834  0.1563
  534MPD2    H2 7984   2.305   2.618   1.047  0.0785  1.5592  0.2528
  534MPD2    H3 7985   2.102   2.482   1.064 -0.7937 -0.1212 -1.4196
  534MPD2     N 7986   1.874   2.737   0.763 -0.6591 -0.8430 -0.0228
  534MPD2    H5 7987   1.791   2.682   0.780 -1.8128  0.1510 -2.4355
  534MPD2    N1 7988   2.335   2.837   0.885 -0.4331  0.2970  0.6637
  534MPD2    H7 7989   2.333   2.906   0.810 -1.1201 -1.4054 -0.9056
  535TMC3    C1 7990   1.733   2.845   0.620  0.6024  0.2483 -0.0543
  535TMC3    C2 7991   1.623   2.825   0.698  0.4702  0.0929  0.6993
  535TMC3    C3 7992   1.500   2.856   0.650  0.1236 -0.2175 -0.5513
  535TMC3    C4 7993   1.714   2.907   0.502  0.0963  0.0970  0.3519
  535TMC3    C5 7994   1.588   2.935   0.462 -0.1257 -0.2277  0.4847
  535TMC3    C6 7995   1.478   2.909   0.530 -0.1285 -0.0787 -0.0248
  535TMC3     C 7996   1.863   2.840   0.673 -0.0850  0.2592  0.2225
  535TMC3     O 7997   1.952   2.879   0.602 -0.5739 -0.1385 -0.1842
  535TMC3     H 7998   1.638   2.795   0.801  0.2999 -0.7007  0.4928
  535TMC3    H1 7999   1.794   2.944   0.438 -1.6934  1.1378 -1.2728
  535TMC3    H2 8000   1.375   2.925   0.501 -0.1828 -2.1766 -1.0162
  535TMC3    C7 8001   1.573   3.003   0.338  0.3984  0.2999 -0.6943
  535TMC3    C8 8002   1.382   2.805   0.720 -0.1243 -0.5555 -0.1752
  535TMC3    O1 8003   1.659   2.983   0.250 -0.0218 -0.1095  0.0683
  535TMC3    O2 8004   1.299   2.737   0.655  0.2123  0.4642  0.2420
  536MPD2     C 8005   0.319   0.900  16.192  0.6642 -0.0114  0.5547
  536MPD2    C1 8006   0.187   0.914  16.220 -0.6496  0.3297  0.2194
  536MPD2    C2 8007   0.098   0.924  16.113 -0.7688  1.0858  0.3906
  536MPD2    C3 8008   0.145   0.937  15.979  0.1722  0.2976  0.8077
  536MPD2    C4 8009   0.282   0.934  15.955  0.0923 -0.3028 -0.0379
  536MPD2    C5 8010   0.364   0.914  16.064 -0.6653  0.5667  0.1958
  536MPD2     H 8011   4.736   0.958  16.135 -0.0353  1.4883  3.1125
  536MPD2    H1 8012   0.327   0.959  15.860  0.0113 -0.0080  0.0034
  536MPD2    H2 8013   0.398   0.886  16.265 -1.3898 -1.9166  2.4201
  536MPD2    H3 8014   0.472   0.907  16.050 -0.6811  0.4883  0.1086
  536MPD2     N 8015   0.062   0.986  15.872 -0.5627  0.3239 -0.2168
  536MPD2    H5 8016   0.113   1.003  15.786 -1.3696 -1.8699 -1.1498
  536MPD2    N1 8017   0.151   0.912  16.354 -0.7915 -0.5236  0.0697
  536MPD2    H7 8018   0.227   0.900  16.420 -1.4452  0.6918  1.0446
  537TMC3    C1 8019   0.026   0.900  16.550 -0.7633  0.1135  0.0421
  537TMC3    C2 8020   0.131   0.958  16.621  0.3365  0.0355 -0.4331
  537TMC3    C3 8021   0.132   0.941  16.756 -0.0758 -0.2458  0.0397
  537TMC3    C4 8022   4.680   0.808  16.607  0.0592  0.5837  1.0217
  537TMC3    C5 8023   4.696   0.785  16.739  0.6708  0.1572 -0.1499
  537TMC3    C6 8024   0.042   0.861  16.817  0.0815 -0.7986 -0.1426
  537TMC3     C 8025   0.027   0.910  16.403 -0.2703  0.1721 -0.2708
  537TMC3     O 8026   4.656   0.896  16.346  0.2607 -0.5021 -0.0143
  537TMC3     H 8027   0.197   1.030  16.575  3.8406 -3.8482 -1.4262
  537TMC3    H1 8028   4.598   0.763  16.552  1.4839  0.3663 -0.9262
  537TMC3    H2 8029   0.038   0.858  16.925  0.0016  0.0963 -0.1264
  537TMC3    C7 8030   4.593   0.726  16.814 -0.2017  0.0355 -0.0550
  537TMC3    C8 8031   0.198   1.040  16.840 -0.3284  0.3230  0.0267
  537TMC3    O1 8032   4.479   0.740  16.769  0.2892  0.6217  0.5440
  537TMC3    O2 8033   0.270   0.996  16.929 -0.1473 -0.4909 -0.1446
  538TMC3    C1 8034   1.021   4.535  10.708 -0.2898  0.0576 -0.3255
  538TMC3    C2 8035   1.029   4.492  10.575  0.0104  0.1473 -0.3900
  538TMC3    C3 8036   0.950   4.390  10.531  0.0931 -0.8016 -0.3687
  538TMC3    C4 8037   0.923   4.473  10.794 -0.1649 -0.2051  0.3400
  538TMC3    C5 8038   0.825   4.393  10.733  0.0950 -0.2484  0.5324
  538TMC3    C6 8039   0.847   4.344  10.605 -0.3954  0.1400 -0.1197
  538TMC3     C 8040   1.138   4.605  10.752  0.2021 -1.0201 -0.0873
  538TMC3     O 8041   1.178   4.689  10.674 -0.2372  0.2665 -0.3033
  538TMC3     H 8042   1.088   4.551  10.506 -0.1121 -0.2867 -0.8648
  538TMC3    H1 8043   0.914   4.516  10.893  0.6173 -1.0828  0.7993
  538TMC3    H2 8044   0.792   4.262  10.560 -2.2876  1.1446  0.3622
  538TMC3    C7 8045   0.731   4.329  10.818  0.2512  0.3127  0.7864
  538TMC3    C8 8046   1.027   4.278  10.488  0.1970 -0.7520  0.2354
  538TMC3    O1 8047   0.642   4.266  10.761 -0.5338  0.0317 -0.6266
  538TMC3    O2 8048   0.972   4.170  10.461 -0.2125 -0.1570  0.4788
  539MPD2     C 8049   0.723   3.005  11.727  0.0771 -0.3960 -0.1024
  539MPD2    C1 8050   0.775   3.017  11.598  0.7563  0.3618 -0.3928
  539MPD2    C2 8051   0.814   3.140  11.553 -0.8125 -0.0337 -0.1271
  539MPD2    C3 8052   0.821   3.247  11.648 -0.2608 -1.0568 -0.3398
  539MPD2    C4 8053   0.769   3.230  11.775 -0.1059 -0.0903 -0.0950
  539MPD2    C5 8054   0.720   3.106  11.808  0.0832 -0.0078  0.0691
  539MPD2     H 8055   0.862   3.148  11.456 -1.4799  1.7020 -0.3256
  539MPD2    H1 8056   0.774   3.300  11.858 -0.0492 -1.1970  0.8329
  539MPD2    H2 8057   0.696   2.907  11.764  2.0202 -1.6069 -1.8689
  539MPD2    H3 8058   0.680   3.076  11.904  1.8077  1.5220  1.2705
  539MPD2     N 8059   0.847   3.380  11.616  0.2394 -0.6504 -0.0617
  539MPD2    H5 8060   0.809   3.445  11.684 -1.0332  0.1542 -1.5470
  539MPD2    N1 8061   0.789   2.915  11.509  0.6577 -1.1117 -0.4088
  539MPD2    H7 8062   0.817   2.943  11.415 -3.7432  3.9296 -0.2292
  540TMC3    C1 8063   0.882   3.574  11.494 -0.6486 -0.2236 -0.0189
  540TMC3    C2 8064   0.869   3.632  11.372  0.1730  0.4414  0.5873
  540TMC3    C3 8065   0.894   3.768  11.365 -0.7095  1.3397 -0.3188
  540TMC3    C4 8066   0.893   3.651  11.606  0.2500  0.8280  0.1313
  540TMC3    C5 8067   0.903   3.786  11.593 -0.1020 -0.1252 -0.0550
  540TMC3    C6 8068   0.900   3.853  11.473  0.1258  0.3152  0.3904
  540TMC3     C 8069   0.894   3.429  11.498 -0.0544 -0.0127  0.4490
  540TMC3     O 8070   0.929   3.374  11.394 -0.1007  0.3219  0.0987
  540TMC3     H 8071   0.840   3.569  11.288 -0.8616 -0.0321  1.3028
  540TMC3    H1 8072   0.904   3.600  11.701 -0.9370 -1.5122 -0.9711
  540TMC3    H2 8073   0.909   3.960  11.460 -2.6831  0.1434 -2.8729
  540TMC3    C7 8074   0.854   3.864  11.704 -0.2309  0.4564  0.0099
  540TMC3    C8 8075   0.873   3.824  11.238  0.5324  0.0117  0.3300
  540TMC3    O1 8076   0.786   3.812  11.798  0.2736  0.3565 -0.2209
  540TMC3    O2 8077   0.946   3.918  11.214 -0.4769 -0.6063 -0.2465
  541MPD2     C 8078   4.603   0.061  13.651 -0.0574  0.3216  0.3660
  541MPD2    C1 8079   4.619   4.693  13.563 -0.3877  0.1539 -0.0940
  541MPD2    C2 8080   4.597   4.710  13.428 -0.3316  0.1006 -0.3434
  541MPD2    C3 8081   4.573   0.099  13.382  0.2471  0.1155  0.5707
  541MPD2    C4 8082   4.546   0.196  13.473  0.7015 -0.4419 -0.4458
  541MPD2    C5 8083   4.563   0.180  13.608  0.1387  0.1180  0.3691
  541MPD2     H 8084   4.622   4.627  13.363  0.6928  0.7268 -0.7551
  541MPD2    H1 8085   4.520   0.298  13.447 -1.1236 -0.7135  0.3143
  541MPD2    H2 8086   4.620   0.050  13.758  0.5987  0.5877  0.2902
  541MPD2    H3 8087   4.549   0.261  13.678  0.0739  0.8898 -0.5395
  541MPD2     N 8088   4.562   0.136  13.252  0.0064 -0.1127  0.0987
  541MPD2    H5 8089   4.536   0.232  13.228 -0.3462 -0.4856 -0.9941
  541MPD2    N1 8090   4.656   4.561  13.607  0.1733  0.0622  0.0673
  541MPD2    H7 8091   4.685   4.500  13.532  1.2917  1.0377 -0.2893
  542TMC3    C1 8092   4.506   0.112  13.033  0.0419 -0.2170 -0.3152
  542TMC3    C2 8093   4.537   0.074  12.909  0.1908  0.0028  1.1106
  542TMC3    C3 8094   4.488   0.142  12.802  0.6725  0.1581  0.3956
  542TMC3    C4 8095   4.411   0.212  13.062 -0.0395 -0.3792 -0.5123
  542TMC3    C5 8096   4.361   0.279  12.950  0.2121 -0.0673 -0.0047
  542TMC3    C6 8097   4.394   0.243  12.820  0.5560  0.2611  0.1171
  542TMC3     C 8098   4.562   0.046  13.146  0.1608 -0.2402 -0.8368
  542TMC3     O 8099   4.589   4.663  13.137 -0.1254 -0.0864 -0.0472
  542TMC3     H 8100   4.594   4.722  12.909 -0.5293 -0.4443  0.5030
  542TMC3    H1 8101   4.381   0.239  13.163  0.3437  2.2851 -1.1200
  542TMC3    H2 8102   4.350   0.292  12.734  0.4048  1.7967  1.0606
  542TMC3    C7 8103   4.284   0.398  12.973 -0.2758 -0.7983 -0.3541
  542TMC3    C8 8104   4.501   0.077  12.679 -0.2656  0.1164  0.6347
  542TMC3    O1 8105   4.251   0.410  13.090  0.1761  0.7214  0.5812
  542TMC3    O2 8106   4.416   0.102  12.594 -0.0911  0.0898  0.3132
  543TMC3    C1 8107   3.907   2.100  17.274 -0.5044 -0.4641  0.1167
  543TMC3    C2 8108   3.898   1.979  17.325  0.2418  0.4603  0.0840
  543TMC3    C3 8109   3.862   1.967  17.457 -0.2977 -0.1286  0.2051
  543TMC3    C4 8110   3.882   2.213  17.343  0.0380  0.3068  0.0423
  543TMC3    C5 8111   3.837   2.198  17.473  0.2257 -0.3412 -0.3620
  543TMC3    C6 8112   3.825   2.077  17.532  0.2876 -0.6562 -0.0027
  543TMC3     C 8113   3.940   2.103  17.127  0.0320 -0.2454  0.5565
  543TMC3     O 8114   3.939   1.989  17.083 -0.0727 -0.3719 -0.4383
  543TMC3     H 8115   3.904   1.888  17.267 -0.2693  0.3006  0.2776
  543TMC3    H1 8116   3.872   2.300  17.279  0.0723  0.4908  0.2881
  543TMC3    H2 8117   3.778   2.068  17.629  0.3522 -1.8193 -0.0800
  543TMC3    C7 8118   3.779   2.304  17.549  0.2023 -0.3040 -0.9104
  543TMC3    C8 8119   3.790   1.849  17.492 -0.3032 -0.2493  0.5335
  543TMC3    O1 8120   3.711   2.273  17.646  0.4385 -0.2447 -0.1832
  543TMC3    O2 8121   3.771   1.771  17.400 -0.4551  0.2511 -0.4576
  544MPD2     C 8122   3.561   1.516   0.047 -0.2823  0.1481  0.2701
  544MPD2    C1 8123   3.581   1.512  17.663 -0.1432  0.0530 -0.2224
  544MPD2    C2 8124   3.646   1.620  17.607 -0.4079  0.4201 -0.0809
  544MPD2    C3 8125   3.699   1.719  17.688  0.7861  0.8194 -0.4973
  544MPD2    C4 8126   3.676   1.719   0.066 -0.3683 -0.0434 -0.1867
  544MPD2    C5 8127   3.606   1.617   0.123  0.4155 -0.6026  0.6722
  544MPD2     H 8128   3.665   1.621  17.500 -1.9626 -0.6751 -0.3689
  544MPD2    H1 8129   3.713   1.797   0.132  0.8405 -1.5008  0.8420
  544MPD2    H2 8130   3.512   1.433   0.098 -0.3836  0.2406  0.3228
  544MPD2    H3 8131   3.592   1.607   0.230  2.2407 -0.2406  0.9479
  544MPD2     N 8132   3.771   1.829  17.626  0.2244  0.0311  0.0409
  544MPD2    H5 8133   3.813   1.892  17.693  0.1872 -0.2319  0.3096
  544MPD2    N1 8134   3.540   1.402  17.590  0.0892 -0.0142  0.2455
  544MPD2    H7 8135   3.522   1.317  17.642  1.5275  0.4593  1.4955
  545TMC3    C1 8136   3.444   1.285  17.411 -0.8568  0.0893  0.2016
  545TMC3    C2 8137   3.337   1.298  17.322 -0.2713 -0.5775 -0.0140
  545TMC3    C3 8138   3.287   1.187  17.263  0.2439 -0.3559 -0.1288
  545TMC3    C4 8139   3.497   1.156  17.440  0.4412 -0.1614 -0.2921
  545TMC3    C5 8140   3.443   1.053  17.375  0.2237 -0.1113 -0.2900
  545TMC3    C6 8141   3.341   1.064  17.287  0.7991  0.7791  0.2389
  545TMC3     C 8142   3.523   1.400  17.453  0.1731 -0.5414 -0.1132
  545TMC3     O 8143   3.520   1.494  17.372 -0.1852 -0.2505 -0.0635
  545TMC3     H 8144   3.297   1.391  17.283 -1.2440 -1.3558 -0.9025
  545TMC3    H1 8145   3.581   1.136  17.506 -0.5423  0.2065  1.0692
  545TMC3    H2 8146   3.314   0.975  17.231  2.7250  0.7544 -0.6732
  545TMC3    C7 8147   3.470   0.917  17.425 -0.0486  0.0781 -0.3268
  545TMC3    C8 8148   3.177   1.203  17.166  0.0218 -0.1897 -0.4853
  545TMC3    O1 8149   3.377   0.836  17.421 -0.3401 -0.6210  0.2177
  545TMC3    O2 8150   3.137   1.317  17.126  0.0051 -0.8239  0.4229
  546MPD2     C 8151   0.724   1.561  17.430  0.1829  0.2004  0.1686
  546MPD2    C1 8152   0.640   1.608  17.334  0.4693 -0.5648 -0.4486
  546MPD2    C2 8153   0.663   1.733  17.286 -0.2429 -0.4118  0.6261
  546MPD2    C3 8154   0.767   1.814  17.334  0.3529  0.1842 -0.1499
  546MPD2    C4 8155   0.860   1.759  17.418 -1.0738  0.1346  1.0406
  546MPD2    C5 8156   0.835   1.637  17.468  0.3693 -0.0523  0.0529
  546MPD2     H 8157   0.595   1.780  17.215 -0.7202 -1.2878  0.4995
  546MPD2    H1 8158   0.938   1.820  17.463 -1.3786 -0.3067  2.1678
  546MPD2    H2 8159   0.696   1.471  17.485  0.3988 -0.6092 -1.0329
  546MPD2    H3 8160   0.905   1.599  17.541 -1.6717 -0.2879  1.8535
  546MPD2     N 8161   0.788   1.948  17.293 -0.4683 -0.3617 -0.2882
  546MPD2    H5 8162   0.862   1.996  17.344 -0.1465 -0.4161 -0.7022
  546MPD2    N1 8163   0.537   1.521  17.286 -0.0797  0.0928 -0.0234
  546MPD2    H7 8164   0.514   1.436  17.337  0.5543  0.7526  1.3835
  547TMC3    C1 8165   0.356   1.442  17.166  0.1751  0.4616  0.5855
  547TMC3    C2 8166   0.237   1.472  17.097 -0.2644  0.2095  1.0060
  547TMC3    C3 8167   0.136   1.377  17.081  0.1403  0.1283 -0.2042
  547TMC3    C4 8168   0.367   1.319  17.219 -0.2232 -0.9347 -0.9144
  547TMC3    C5 8169   0.269   1.222  17.202  0.2468 -0.2078 -0.1623
  547TMC3    C6 8170   0.146   1.253  17.142  0.3869  0.6078 -0.4303
  547TMC3     C 8171   0.454   1.552  17.184 -0.1456 -0.1382  0.5098
  547TMC3     O 8172   0.451   1.645  17.105 -0.2228 -0.2860  0.2378
  547TMC3     H 8173   0.229   1.564  17.040  0.7173 -0.0850  0.3834
  547TMC3    H1 8174   0.461   1.294  17.267 -0.1123 -0.9191 -1.1238
  547TMC3    H2 8175   0.072   1.175  17.151 -1.1805  2.1753  0.2166
  547TMC3    C7 8176   0.288   1.108  17.282  0.2155 -0.6894 -0.0662
  547TMC3    C8 8177   0.025   1.399  16.989 -0.1675  0.2427 -0.3006
  547TMC3    O1 8178   0.348   1.106  17.387  0.2704 -0.3698  0.0597
  547TMC3    O2 8179   0.024   1.509  16.941  0.4050 -0.3323 -0.3111
  548MPD2     C 8180   0.628   1.689  12.693  0.1269 -0.1690 -0.3805
  548MPD2    C1 8181   0.522   1.630  12.623 -0.0830  0.1175  0.0253
  548MPD2    C2 8182   0.542   1.578  12.498 -0.6801  0.1545 -0.8327
  548MPD2    C3 8183   0.672   1.576  12.440 -0.0301  0.2778 -0.5591
  548MPD2    C4 8184   0.776   1.617  12.521 -0.1141  0.4196  0.0332
  548MPD2    C5 8185   0.750   1.661  12.649  1.3421 -0.6788  0.3950
  548MPD2     H 8186   0.456   1.542  12.442 -1.0750 -1.0860  0.5794
  548MPD2    H1 8187   0.881   1.605  12.495 -1.2707 -3.9151 -2.5893
  548MPD2    H2 8188   0.611   1.732  12.791 -0.7824  2.8500 -1.8491
  548MPD2    H3 8189   0.837   1.681  12.710 -0.3973 -0.1952  2.7361
  548MPD2     N 8190   0.689   1.531  12.309  0.4607  0.2484 -0.3629
  548MPD2    H5 8191   0.604   1.507  12.259  0.3274  0.7061 -0.3619
  548MPD2    N1 8192   0.394   1.658  12.682  0.3010  0.2474 -0.5186
  548MPD2    H7 8193   0.400   1.705  12.772 -1.4328 -0.1583 -0.1994
  549TMC3    C1 8194   0.168   1.641  12.728  0.5758  0.1198  0.5103
  549TMC3    C2 8195   0.163   1.777  12.747 -0.1463  0.6309  0.4733
  549TMC3    C3 8196   0.058   1.832  12.803  0.3362  0.0113 -0.2984
  549TMC3    C4 8197   0.071   1.559  12.764 -0.1520 -0.2205  0.1087
  549TMC3    C5 8198   4.695   1.615  12.823  0.5431 -0.6372 -0.0063
  549TMC3    C6 8199   4.690   1.748  12.846  1.0140  0.4567 -0.3447
  549TMC3     C 8200   0.281   1.585  12.654  0.0960  0.0912  0.0534
  549TMC3     O 8201   0.265   1.486  12.584  0.2563 -0.3272 -0.1663
  549TMC3     H 8202   0.241   1.842  12.709 -1.7636  1.3467 -1.6244
  549TMC3    H1 8203   0.082   1.458  12.727 -0.1892 -0.0762 -0.2958
  549TMC3    H2 8204   4.596   1.784  12.888  1.0580 -1.8554  1.7444
  549TMC3    C7 8205   4.566   1.553  12.795  0.4812  0.4310 -0.7205
  549TMC3    C8 8206   0.003   1.958  12.762  1.0880 -0.3056 -0.2367
  549TMC3    O1 8207   4.470   1.633  12.775 -0.1451  0.1914 -0.4288
  549TMC3    O2 8208   4.620   1.978  12.771 -0.3010  0.1950 -0.2404
  550TMC3    C1 8209   4.161   4.648  12.513 -0.1278  0.1193 -0.2322
  550TMC3    C2 8210   4.126   4.700  12.634 -0.1998 -0.3228 -0.4454
  550TMC3    C3 8211   4.091   0.093  12.648  0.4084 -0.5080 -0.1668
  550TMC3    C4 8212   4.147   4.732  12.403  0.4195 -0.0542 -0.6273
  550TMC3    C5 8213   4.121   0.124  12.415  0.9362  0.2891  0.4900
  550TMC3    C6 8214   4.082   0.174  12.536 -0.4322 -0.5059 -0.2832
  550TMC3     C 8215   4.101   4.519  12.496 -0.5874  0.1217  0.3866
  550TMC3     O 8216   4.154   4.424  12.554 -0.6067  0.0438  0.5914
  550TMC3     H 8217   4.103   4.627  12.711 -0.7326  0.3464  0.0296
  550TMC3    H1 8218   4.154   4.686  12.305 -0.6285 -1.2337 -0.1411
  550TMC3    H2 8219   4.080   0.281  12.549 -1.9361 -0.6005  0.3371
  550TMC3    C7 8220   4.065   0.188  12.300 -0.1074 -0.3758  0.7985
  550TMC3    C8 8221   4.043   0.159  12.767 -0.4521  0.4147 -0.2407
  550TMC3    O1 8222   4.111   0.170  12.186  0.2259  0.5766 -0.0325
  550TMC3    O2 8223   3.978   0.259  12.730 -0.9921 -0.1471 -0.3977
  551TMC3    C1 8224   1.739   2.657  13.230 -0.2184 -0.3788  0.3292
  551TMC3    C2 8225   1.868   2.633  13.177 -0.2363 -0.5312 -0.1824
  551TMC3    C3 8226   1.979   2.661  13.251 -0.0075  0.8382  0.7922
  551TMC3    C4 8227   1.721   2.690  13.362  0.0858 -0.7241  0.1016
  551TMC3    C5 8228   1.839   2.715  13.429  0.5126  0.2702 -0.3087
  551TMC3    C6 8229   1.964   2.706  13.383 -0.7524 -0.8080  0.8246
  551TMC3     C 8230   1.629   2.640  13.138  0.3806  0.9020  0.0181
  551TMC3     O 8231   1.673   2.608  13.025  0.2538  0.2331  0.2339
  551TMC3     H 8232   1.886   2.600  13.075  0.2721 -1.9377  0.3717
  551TMC3    H1 8233   1.622   2.702  13.403 -0.4028  0.3089 -1.3881
  551TMC3    H2 8234   2.040   2.752  13.446 -2.4917  3.0375  0.0818
  551TMC3    C7 8235   1.823   2.801  13.543  0.3028 -0.2965 -0.1469
  551TMC3    C8 8236   2.072   2.738  13.173 -0.3322 -0.1611  0.0935
  551TMC3    O1 8237   1.883   2.765  13.645  0.1824 -0.0557  0.8650
  551TMC3    O2 8238   2.177   2.763  13.230 -0.3994 -0.1616 -0.1139
  552MPD2     C 8239   3.481   0.029  13.846  0.5770  0.2726  0.5494
  552MPD2    C1 8240   3.434   4.665  13.926  0.2613 -0.7256  0.2348
  552MPD2    C2 8241   3.491   4.644  14.048  0.3541 -0.1652 -0.3983
  552MPD2    C3 8242   3.594   4.727  14.091 -0.1512 -0.2299  0.5163
  552MPD2    C4 8243   3.640   0.085  14.011 -0.5932 -0.4421 -0.4080
  552MPD2    C5 8244   3.589   0.104  13.889  0.5006 -0.1167 -0.1160
  552MPD2     H 8245   3.444   4.569  14.110  0.7039 -1.8753 -2.2273
  552MPD2    H1 8246   3.729   0.144  14.030 -0.4547 -1.5276  2.3151
  552MPD2    H2 8247   3.437   0.055  13.750 -1.0804  0.0872  1.2723
  552MPD2    H3 8248   3.630   0.185  13.831 -1.7439  0.4757 -0.8809
  552MPD2     N 8249   3.680   4.714  14.203  0.6872  0.2378  0.1940
  552MPD2    H5 8250   3.749   0.049  14.213 -1.8587  2.6445  0.0428
  552MPD2    N1 8251   3.320   4.587  13.893 -0.0675 -0.0718  0.1679
  552MPD2    H7 8252   3.289   4.513  13.955 -2.5331  0.1853 -0.7254
  553TMC3    C1 8253   3.108   4.532  13.773 -0.1915  0.8605 -0.0059
  553TMC3    C2 8254   3.066   4.515  13.642  0.5073  0.5319  0.1956
  553TMC3    C3 8255   2.982   4.404  13.611 -0.0702  0.8556  0.6250
  553TMC3    C4 8256   3.072   4.453  13.875  0.4258 -0.1514 -0.4532
  553TMC3    C5 8257   2.986   4.349  13.842  0.2985 -0.2547  0.5318
  553TMC3    C6 8258   2.928   4.326  13.718  0.0442 -0.1143 -0.4693
  553TMC3     C 8259   3.228   4.614  13.788 -0.0503 -0.0230  0.5808
  553TMC3     O 8260   3.240   4.702  13.705  0.0140  0.2562 -0.0011
  553TMC3     H 8261   3.109   4.578  13.565 -1.6637 -0.0552 -1.5005
  553TMC3    H1 8262   3.119   4.454  13.973  0.2448  1.0770 -0.3754
  553TMC3    H2 8263   2.866   4.238  13.700  0.7416 -0.6137 -0.3923
  553TMC3    C7 8264   2.957   4.254  13.949  0.1108 -0.3613  0.0191
  553TMC3    C8 8265   3.030   4.328  13.497  0.0600 -0.4810  0.5325
  553TMC3    O1 8266   2.839   4.224  13.952 -0.5127 -0.5288 -0.7906
  553TMC3    O2 8267   3.143   4.352  13.451 -0.3365 -0.5658  0.1315
  554TMC3    C1 8268   4.202   3.053  11.547  0.4873  0.3923  0.3412
  554TMC3    C2 8269   4.116   3.049  11.440 -0.4863 -0.0050 -0.3111
  554TMC3    C3 8270   4.093   3.167  11.372 -0.4796  1.2381  0.2062
  554TMC3    C4 8271   4.282   3.166  11.574  0.6988  0.4675 -0.3664
  554TMC3    C5 8272   4.243   3.283  11.509  0.0787  0.3570  0.0861
  554TMC3    C6 8273   4.141   3.283  11.417 -0.2727  0.6481  0.5212
  554TMC3     C 8274   4.237   2.921  11.599 -0.3275  0.2226  0.5192
  554TMC3     O 8275   4.169   2.829  11.560  0.0811  0.7070 -0.4702
  554TMC3     H 8276   4.084   2.956  11.394 -1.7933  0.3874 -0.2066
  554TMC3    H1 8277   4.369   3.165  11.638 -1.2820  2.5958  2.3657
  554TMC3    H2 8278   4.111   3.377  11.371  0.8382 -0.3203 -2.1675
  554TMC3    C7 8279   4.329   3.394  11.503 -0.0418  0.0886 -0.0335
  554TMC3    C8 8280   4.053   3.173  11.231  0.5882 -0.2179  0.1202
  554TMC3    O1 8281   4.319   3.456  11.401  0.2331 -0.3203 -0.2883
  554TMC3    O2 8282   4.080   3.275  11.175 -0.3813 -0.2715 -0.1343
  555TMC3    C1 8283   4.270   3.303  15.267 -0.3424 -0.6017 -0.5251
  555TMC3    C2 8284   4.294   3.371  15.384 -0.2592 -0.1073  0.3214
  555TMC3    C3 8285   4.281   3.293  15.502 -0.0593  0.3010 -0.6972
  555TMC3    C4 8286   4.254   3.162  15.260  0.7528 -0.4561  0.2611
  555TMC3    C5 8287   4.262   3.093  15.374  0.5768 -0.6816  0.5280
  555TMC3    C6 8288   4.265   3.154  15.503  0.8875  0.2912  0.4389
  555TMC3     C 8289   4.283   3.373  15.146  0.0859 -0.3725  0.0827
  555TMC3     O 8290   4.364   3.465  15.151  0.5564 -0.0210 -0.1117
  555TMC3     H 8291   4.300   3.479  15.394  0.8722 -0.1137 -0.3465
  555TMC3    H1 8292   4.242   3.096  15.175 -1.3646 -0.3703  0.4881
  555TMC3    H2 8293   4.270   3.096  15.594 -1.0983 -1.7662 -0.7513
  555TMC3    C7 8294   4.262   2.945  15.382 -0.5812  0.4914  0.1660
  555TMC3    C8 8295   4.339   3.360  15.616 -0.1151 -0.1006 -0.0190
  555TMC3    O1 8296   4.245   2.894  15.495  0.2612  0.7856  0.1305
  555TMC3    O2 8297   4.327   3.479  15.628  0.2707 -0.3693  0.3423
  556MPD2     C 8298   1.975   0.361  10.949 -0.1165  0.0100 -0.3705
  556MPD2    C1 8299   2.051   0.263  11.004  0.4679  0.4339  0.2159
  556MPD2    C2 8300   2.038   0.132  10.963 -0.7041  0.1718  0.2640
  556MPD2    C3 8301   1.942   0.099  10.869  0.0576 -0.9078  0.0823
  556MPD2    C4 8302   1.859   0.196  10.814 -0.3905  0.0583 -0.0143
  556MPD2    C5 8303   1.879   0.325  10.853  0.6494  0.6352  0.1111
  556MPD2     H 8304   2.098   0.054  11.008 -1.0381 -0.2293  0.0098
  556MPD2    H1 8305   1.780   0.169  10.745 -1.7734 -2.0549  2.3923
  556MPD2    H2 8306   1.992   0.463  10.980 -0.7098  0.1876 -0.6367
  556MPD2    H3 8307   1.823   0.396  10.794  0.2237 -0.7131 -1.0957
  556MPD2     N 8308   1.925   4.706  10.823 -0.1911  0.0374  0.7763
  556MPD2    H5 8309   1.861   4.694  10.744  0.1421  1.3301  0.3229
  556MPD2    N1 8310   2.132   0.289  11.120 -0.3653  0.0085  0.2658
  556MPD2    H7 8311   2.176   0.210  11.166 -0.6325 -0.2854  0.0152
  557TMC3    C1 8312   1.942   4.468  10.818 -0.5631  0.0671 -0.6037
  557TMC3    C2 8313   2.026   4.359  10.837 -0.3473  0.2560 -0.0380
  557TMC3    C3 8314   1.999   4.233  10.777  0.3782 -0.2829 -0.3789
  557TMC3    C4 8315   1.819   4.454  10.765  0.7075  0.0265 -0.0447
  557TMC3    C5 8316   1.786   4.325  10.724  0.2970  0.5926  0.7870
  557TMC3    C6 8317   1.868   4.219  10.726  0.0329  0.4777  0.3371
  557TMC3     C 8318   1.988   4.592  10.868  0.5431  0.1231  0.2946
  557TMC3     O 8319   2.077   4.582  10.952 -0.4874 -0.0801 -0.2774
  557TMC3     H 8320   2.126   4.375  10.877  0.3109 -0.8715 -1.2157
  557TMC3    H1 8321   1.749   4.533  10.742  0.1452 -0.7300 -0.9177
  557TMC3    H2 8322   1.852   4.123  10.680 -0.5730 -0.0120  1.5949
  557TMC3    C7 8323   1.651   4.307  10.672  0.0252  0.6257  0.5635
  557TMC3    C8 8324   2.111   4.170  10.707  0.1684  0.0750 -0.0113
  557TMC3    O1 8325   1.611   4.409  10.616 -0.3706  1.0231 -1.0183
  557TMC3    O2 8326   2.219   4.224  10.733  0.2904 -0.0047  0.3632
  558TMC3    C1 8327   4.007   2.348  10.191  0.4877 -0.2614 -0.3355
  558TMC3    C2 8328   3.938   2.266  10.277 -0.5643 -0.2308 -0.9452
  558TMC3    C3 8329   3.834   2.189  10.227 -0.2396 -1.0154 -0.3021
  558TMC3    C4 8330   3.982   2.347  10.053  0.4853  0.3925  0.2006
  558TMC3    C5 8331   3.868   2.284  10.014 -0.2132 -0.5642 -0.3459
  558TMC3    C6 8332   3.797   2.194  10.093  0.3173  1.1726  0.0839
  558TMC3     C 8333   4.135   2.406  10.229 -0.4556  0.0573  0.5029
  558TMC3     O 8334   4.165   2.507  10.164 -0.2673  0.0321  0.1533
  558TMC3     H 8335   3.953   2.277  10.383  0.0541 -2.0590 -0.8463
  558TMC3    H1 8336   4.033   2.406   9.978 -0.1603  1.4329  0.5779
  558TMC3    H2 8337   3.720   2.124  10.061 -1.9327  3.4957  0.4463
  558TMC3    C7 8338   3.812   2.319   9.889  0.6219  0.1993  0.3072
  558TMC3    C8 8339   3.760   2.097  10.315  0.7610  0.9209  0.0565
  558TMC3    O1 8340   3.891   2.355   9.803  0.0886 -0.3228  0.2087
  558TMC3    O2 8341   3.643   2.073  10.291  0.2440  0.3367 -0.2668
  559MPD2     C 8342   4.341   2.943  10.356 -0.0901 -0.3664 -0.0517
  559MPD2    C1 8343   4.278   2.852  10.436  0.0115  0.3769 -0.0714
  559MPD2    C2 8344   4.337   2.821  10.562  0.1966  0.9575  0.1734
  559MPD2    C3 8345   4.455   2.881  10.605 -0.6297  0.3893  0.2775
  559MPD2    C4 8346   4.528   2.953  10.514  0.0891  0.0895  0.7884
  559MPD2    C5 8347   4.464   2.985  10.394  0.0102 -0.6351 -0.3709
  559MPD2     H 8348   4.295   2.754  10.636  0.2954 -0.1236 -0.7528
  559MPD2    H1 8349   4.626   2.996  10.528 -0.4899  1.3489  0.9736
  559MPD2    H2 8350   4.300   2.977  10.262  0.3390  2.2934  0.7208
  559MPD2    H3 8351   4.520   3.054  10.332 -1.5173  1.2621  0.3282
  559MPD2     N 8352   4.498   2.851  10.734 -0.4425 -0.1182 -0.2944
  559MPD2    H5 8353   4.428   2.793  10.779 -0.3088  1.6732  2.1524
  559MPD2    N1 8354   4.157   2.800  10.397 -0.2621 -0.2815  0.5386
  559MPD2    H7 8355   4.117   2.844  10.315  0.7592 -3.4043 -1.6207
  560TMC3    C1 8356   4.637   2.814  10.920  0.3158 -0.1919  1.0741
  560TMC3    C2 8357   4.551   2.726  10.960  0.2660 -0.7855  0.6081
  560TMC3    C3 8358   4.559   2.683  11.087  0.3436  0.1633  0.3117
  560TMC3    C4 8359   0.004   2.856  11.000  0.2221 -0.2533 -0.0631
  560TMC3    C5 8360   0.021   2.789  11.115  0.8922  1.2730  0.0906
  560TMC3    C6 8361   4.669   2.698  11.159  0.2521 -0.3384 -0.4313
  560TMC3     C 8362   4.607   2.894  10.799 -0.7172  0.3903 -0.3482
  560TMC3     O 8363   4.687   2.978  10.769  0.2060 -0.0314  0.4442
  560TMC3     H 8364   4.471   2.696  10.893  0.9368 -0.7395 -0.2216
  560TMC3    H1 8365   0.065   2.944  10.981 -0.2939  0.0518 -0.2964
  560TMC3    H2 8366   4.673   2.661  11.261 -2.3210  1.4287  0.3065
  560TMC3    C7 8367   0.127   2.804  11.214  0.2228 -0.4913  0.0332
  560TMC3    C8 8368   4.451   2.600  11.136 -0.0331 -0.2300  0.4768
  560TMC3    O1 8369   0.139   2.728  11.308  0.0266  0.1732 -0.1626
  560TMC3    O2 8370   4.479   2.508  11.205 -0.3505  0.2211 -0.0494
  561TMC3    C1 8371   2.972   2.011  11.595 -0.5718 -0.0752  0.6382
  561TMC3    C2 8372   2.872   1.983  11.681 -0.1765 -0.1702  0.0170
  561TMC3    C3 8373   2.746   2.020  11.638  0.2540  0.0860 -0.1954
  561TMC3    C4 8374   2.959   2.069  11.473  0.1630  0.2067  0.0726
  561TMC3    C5 8375   2.836   2.110  11.436  0.5789  1.2005 -0.0282
  561TMC3    C6 8376   2.724   2.091  11.519  0.3369  0.0645 -0.0190
  561TMC3     C 8377   3.099   1.963  11.627 -0.6305 -0.2771 -0.4106
  561TMC3     O 8378   3.112   1.850  11.670 -0.2048 -0.3060  0.6149
  561TMC3     H 8379   2.905   1.940  11.775  0.3722  0.8382  0.2857
  561TMC3    H1 8380   3.042   2.082  11.404 -0.7867  0.2154 -1.0613
  561TMC3    H2 8381   2.623   2.117  11.489  2.1473  0.8507 -5.3369
  561TMC3    C7 8382   2.827   2.196  11.328 -0.0444 -0.0258 -0.3608
  561TMC3    C8 8383   2.641   1.956  11.714 -0.4949 -0.6112  0.3555
  561TMC3    O1 8384   2.882   2.171  11.224  0.0393 -0.2506 -0.1695
  561TMC3    O2 8385   2.677   1.857  11.780 -0.2000  0.2783 -0.1358
  562TMC3    C1 8386   4.439   3.584  16.288 -0.0719 -0.0882  0.2521
  562TMC3    C2 8387   4.411   3.714  16.255  0.2174 -0.2173  0.9863
  562TMC3    C3 8388   4.318   3.738  16.160 -0.2423 -0.7633  0.8829
  562TMC3    C4 8389   4.372   3.476  16.232  0.3721 -0.8848 -0.0732
  562TMC3    C5 8390   4.278   3.510  16.146  0.3604 -0.7357  0.0089
  562TMC3    C6 8391   4.245   3.636  16.106 -0.0102 -0.0015 -0.8248
  562TMC3     C 8392   4.513   3.550  16.416  0.6827  0.7580  0.1592
  562TMC3     O 8393   4.557   3.434  16.426  0.5016 -0.1755  0.1396
  562TMC3     H 8394   4.483   3.792  16.275 -0.0217  0.6871 -1.6527
  562TMC3    H1 8395   4.395   3.375  16.265 -2.5375 -0.9778  1.7396
  562TMC3    H2 8396   4.160   3.664  16.044 -2.6527 -0.4019  2.6143
  562TMC3    C7 8397   4.190   3.408  16.081  0.5248 -0.3836  0.2532
  562TMC3    C8 8398   4.281   3.877  16.142 -0.1675  0.0234  0.0577
  562TMC3    O1 8399   4.093   3.439  16.018  0.7426 -0.3658  0.4283
  562TMC3    O2 8400   4.303   3.949  16.234 -0.0200 -0.5407 -0.2999
  563MPD2     C 8401   1.915   0.150  15.560 -0.4180 -0.0462  0.1462
  563MPD2    C1 8402   1.908   0.173  15.690  0.7547  0.7858  0.6126
  563MPD2    C2 8403   2.028   0.146  15.755  0.2120  0.1410 -0.5323
  563MPD2    C3 8404   2.137   0.087  15.700  0.6316  0.1472  0.0341
  563MPD2    C4 8405   2.129   0.058  15.569 -0.4284 -0.4943 -0.0232
  563MPD2    C5 8406   2.015   0.087  15.499  0.3913 -0.2082 -0.8246
  563MPD2     H 8407   2.018   0.155  15.862 -1.7408 -1.0094 -0.6157
  563MPD2    H1 8408   2.201   0.001  15.511 -1.8875 -2.1576 -0.2176
  563MPD2    H2 8409   1.826   0.164  15.499  0.3061 -0.3794 -0.9694
  563MPD2    H3 8410   2.005   0.060  15.394  1.5896  0.0481 -1.0059
  563MPD2     N 8411   2.242   0.039  15.786 -0.8229 -0.5205  0.0432
  563MPD2    H5 8412   2.232   0.058  15.885  1.5329  0.2627  0.1339
  563MPD2    N1 8413   1.800   0.212  15.768 -0.2504  0.7254  0.1798
  563MPD2    H7 8414   1.815   0.206  15.868  1.1263  1.0713 -0.0104
  564TMC3    C1 8415   1.580   0.192  15.827 -0.2366  0.7102 -0.4888
  564TMC3    C2 8416   1.467   0.125  15.782  0.7069  0.2841  0.2191
  564TMC3    C3 8417   1.407   0.041  15.871 -0.2471 -0.8408 -0.5336
  564TMC3    C4 8418   1.635   0.181  15.954  0.4131 -0.2433  0.1492
  564TMC3    C5 8419   1.566   0.096  16.034 -0.3225 -0.6273  0.0880
  564TMC3    C6 8420   1.451   0.028  15.998 -0.3173 -0.3549 -0.1857
  564TMC3     C 8421   1.672   0.223  15.724  0.9916 -0.4991  1.0455
  564TMC3     O 8422   1.629   0.232  15.610 -0.4855 -0.3986  0.4946
  564TMC3     H 8423   1.437   0.138  15.679  0.1805  0.9145  0.4510
  564TMC3    H1 8424   1.713   0.249  15.986  0.7573 -0.4885 -0.1662
  564TMC3    H2 8425   1.387   4.711  16.064 -0.0888 -1.0416 -0.5446
  564TMC3    C7 8426   1.662   0.010  16.109  0.0349 -0.2329  0.0722
  564TMC3    C8 8427   1.302   4.688  15.831 -0.1032 -0.6856  0.4617
  564TMC3    O1 8428   1.778   0.042  16.107 -0.4056  0.0535 -0.5592
  564TMC3    O2 8429   1.299   4.589  15.903 -0.3960 -0.5362 -0.2221
  565TMC3    C1 8430   1.189   1.068  10.430  0.7345 -0.1592  0.0143
  565TMC3    C2 8431   1.257   1.002  10.528 -0.1235  0.0689 -0.4269
  565TMC3    C3 8432   1.242   0.864  10.537  0.1572  0.2907  0.1128
  565TMC3    C4 8433   1.089   1.005  10.361  0.3168 -0.0582  0.0204
  565TMC3    C5 8434   1.063   0.872  10.381 -0.2636  0.5005  1.0963
  565TMC3    C6 8435   1.141   0.801  10.469 -0.3502 -0.2249 -0.0672
  565TMC3     C 8436   1.258   1.166  10.347 -0.3878 -0.3986  0.1313
  565TMC3     O 8437   1.217   1.176  10.227 -0.2725  0.2157  0.2945
  565TMC3     H 8438   1.326   1.049  10.596  0.7229 -2.9982  0.8309
  565TMC3    H1 8439   1.035   1.065  10.289  0.6518  0.1597 -0.0486
  565TMC3    H2 8440   1.107   0.702  10.496  1.8849 -0.6609  1.1377
  565TMC3    C7 8441   0.955   0.792  10.324  0.7455  0.0025  0.3844
  565TMC3    C8 8442   1.324   0.786  10.624  0.1224 -0.3037 -0.2508
  565TMC3    O1 8443   0.918   0.696  10.388  0.4224 -0.0749  0.0928
  565TMC3    O2 8444   1.390   0.839  10.711 -0.0410 -0.5774  0.0300
  566MPD2     C 8445   3.713   2.602  13.983  0.0306 -0.1010  0.0577
  566MPD2    C1 8446   3.698   2.672  13.868  0.2336 -0.5060  0.3668
  566MPD2    C2 8447   3.592   2.643  13.778  0.0766 -0.7307 -0.2564
  566MPD2    C3 8448   3.509   2.529  13.807  0.2676  0.4152  0.3924
  566MPD2    C4 8449   3.542   2.451  13.916  0.5683 -0.6807 -0.0426
  566MPD2    C5 8450   3.640   2.488  14.006  1.0421  0.7616 -0.0405
  566MPD2     H 8451   3.578   2.696  13.685 -1.5408 -1.7557 -0.5900
  566MPD2    H1 8452   3.487   2.361  13.940 -2.3230  0.9581 -0.6630
  566MPD2    H2 8453   3.798   2.626  14.045  0.1395  0.1879 -0.2002
  566MPD2    H3 8454   3.674   2.420  14.083 -0.7361 -1.0332 -0.8278
  566MPD2     N 8455   3.410   2.485  13.716 -0.1186  0.6371  0.3435
  566MPD2    H5 8456   3.383   2.389  13.732  0.1045  1.0212  2.9343
  566MPD2    N1 8457   3.790   2.781  13.850  0.3264 -0.0254 -0.1925
  566MPD2    H7 8458   3.863   2.778  13.920  0.2648 -1.0312 -0.1700
  567TMC3    C1 8459   3.897   2.965  13.755  0.2531  0.0509  0.4046
  567TMC3    C2 8460   3.932   3.029  13.642 -0.6138  0.2107  0.6540
  567TMC3    C3 8461   3.997   3.151  13.648 -0.3159 -0.3407 -0.0188
  567TMC3    C4 8462   3.943   3.007  13.876 -0.0194 -0.9003  0.5491
  567TMC3    C5 8463   4.010   3.129  13.880  0.8422 -0.6565  0.1635
  567TMC3    C6 8464   4.037   3.204  13.765  0.2744 -0.5826  0.2058
  567TMC3     C 8465   3.798   2.863  13.741  0.2544  0.1158 -0.0067
  567TMC3     O 8466   3.732   2.865  13.639  0.6049 -0.4014  0.6362
  567TMC3     H 8467   3.911   2.978  13.549  1.6287  0.5930 -0.0664
  567TMC3    H1 8468   3.930   2.944  13.964  1.5808  0.3109  1.6616
  567TMC3    H2 8469   4.098   3.294  13.761 -2.4339  1.2436 -0.0906
  567TMC3    C7 8470   4.079   3.181  13.993  0.4237 -0.4476 -0.0144
  567TMC3    C8 8471   3.937   3.234  13.550 -0.0452  0.1192  0.3449
  567TMC3    O1 8472   4.167   3.263  13.974  0.3290 -0.3603  0.0690
  567TMC3    O2 8473   3.875   3.191  13.453 -0.7196 -0.6025  0.1386
  568MPD2     C 8474   1.036   3.386  16.095  0.0939 -0.1060 -1.0124
  568MPD2    C1 8475   1.085   3.505  16.145  0.0954 -0.3932 -0.3644
  568MPD2    C2 8476   1.053   3.625  16.084  0.7427  0.0259 -0.4624
  568MPD2    C3 8477   0.962   3.626  15.980  0.2846 -0.3316 -0.3133
  568MPD2    C4 8478   0.915   3.503  15.930 -0.3182  0.1656 -0.3436
  568MPD2    C5 8479   0.958   3.381  15.981 -0.2305  0.2781 -0.1920
  568MPD2     H 8480   1.110   3.713  16.113  0.1397 -0.0311  0.9395
  568MPD2    H1 8481   0.850   3.503  15.843 -0.8418  1.5528  0.0526
  568MPD2    H2 8482   1.069   3.291  16.134  0.6763  0.6124  0.2345
  568MPD2    H3 8483   0.928   3.282  15.949  1.3725  0.6475 -2.8007
  568MPD2     N 8484   0.915   3.756  15.933  0.4687  0.8188  0.6838
  568MPD2    H5 8485   0.946   3.835  15.988 -2.8904 -0.0585  3.8214
  568MPD2    N1 8486   1.171   3.495  16.259  0.0252 -0.4915 -0.1909
  568MPD2    H7 8487   1.178   3.405  16.306  1.8700  0.5981  1.5957
  569TMC3    C1 8488   0.788   3.910  15.818  0.3383  0.3416  0.4181
  569TMC3    C2 8489   0.742   3.956  15.937 -0.5020 -0.2118  0.2620
  569TMC3    C3 8490   0.741   4.095  15.957 -0.2173  0.5753  1.2401
  569TMC3    C4 8491   0.837   3.999  15.730  0.6608  0.2261  0.1907
  569TMC3    C5 8492   0.828   4.135  15.751 -0.7675 -0.1825 -1.1317
  569TMC3    C6 8493   0.788   4.188  15.866  0.0415  0.6099  0.4809
  569TMC3     C 8494   0.846   3.777  15.816  0.7032  0.8989 -0.3737
  569TMC3     O 8495   0.860   3.716  15.713  0.1265 -0.1247  0.1934
  569TMC3     H 8496   0.691   3.892  16.008 -0.0894 -0.8074  0.0156
  569TMC3    H1 8497   0.885   3.943  15.650  0.4856 -0.5857  0.6522
  569TMC3    H2 8498   0.788   4.295  15.888 -1.0543  0.6082  0.4840
  569TMC3    C7 8499   0.867   4.227  15.653  0.5938  0.0093  0.5411
  569TMC3    C8 8500   0.746   4.119  16.099 -0.2023 -0.7797 -1.2762
  569TMC3    O1 8501   0.849   4.206  15.532 -0.2330 -0.3844 -0.4681
  569TMC3    O2 8502   0.704   4.034  16.174  0.4045 -0.4958 -0.0100
  570TMC3    C1 8503   0.656   2.152  16.109 -0.2937 -0.4490  0.3312
  570TMC3    C2 8504   0.729   2.163  15.992  0.5333  0.3524  0.6094
  570TMC3    C3 8505   0.762   2.287  15.947 -0.5070 -0.9366  0.6603
  570TMC3    C4 8506   0.620   2.268  16.177 -0.2286  0.3958  1.1532
  570TMC3    C5 8507   0.661   2.388  16.130 -0.5558  0.0425  0.2317
  570TMC3    C6 8508   0.728   2.400  16.019  0.8456 -0.8809  0.2538
  570TMC3     C 8509   0.568   2.038  16.136  0.1544 -0.2043  0.0049
  570TMC3     O 8510   0.539   1.959  16.044 -0.7492  0.5890  0.1853
  570TMC3     H 8511   0.742   2.076  15.929  3.5644  1.0561  0.2253
  570TMC3    H1 8512   0.573   2.268  16.274 -2.0746 -0.2811  0.2648
  570TMC3    H2 8513   0.745   2.496  15.972  0.2916 -0.6022  0.6208
  570TMC3    C7 8514   0.628   2.507  16.211 -0.6266 -0.2365  0.7965
  570TMC3    C8 8515   0.874   2.313  15.847  0.7080  0.7462 -0.2902
  570TMC3    O1 8516   0.623   2.480  16.331  0.4127 -0.2997  0.2706
  570TMC3    O2 8517   0.940   2.414  15.868 -0.1754 -0.2995 -0.1979
  571MPD2     C 8518   3.787   3.996   0.303 -0.7203  0.1575  0.1448
  571MPD2    C1 8519   3.736   4.086   0.216 -0.5893 -0.0664  0.7280
  571MPD2    C2 8520   3.751   4.219   0.256  0.1726 -0.2793 -0.1185
  571MPD2    C3 8521   3.806   4.264   0.372  0.4346  0.1750 -0.0111
  571MPD2    C4 8522   3.862   4.170   0.452 -0.2456  0.2587 -0.7903
  571MPD2    C5 8523   3.850   4.038   0.418 -0.1564  0.0953 -0.1096
  571MPD2     H 8524   3.703   4.292   0.192  2.7321 -0.6211 -2.4193
  571MPD2    H1 8525   3.919   4.203   0.538  1.1946 -1.3698 -1.1178
  571MPD2    H2 8526   3.782   3.889   0.285  0.5493  0.1981 -0.4601
  571MPD2    H3 8527   3.899   3.969   0.486 -0.7842 -1.0838 -0.8780
  571MPD2     N 8528   3.834   4.399   0.399 -0.0451  0.4848  0.1519
  571MPD2    H5 8529   3.909   4.404   0.467 -0.2582  1.7287  0.2937
  571MPD2    N1 8530   3.662   4.049   0.102 -0.1987 -0.0086 -0.2763
  571MPD2    H7 8531   3.647   3.950   0.087  1.9865 -0.2060 -1.1631
  572TMC3    C1 8532   3.877   4.629   0.361 -0.7938  0.2272 -0.0148
  572TMC3    C2 8533   3.969   4.634   0.465 -0.1848 -0.5782 -0.9978
  572TMC3    C3 8534   4.025   0.018   0.492 -0.3288 -0.6904 -0.1111
  572TMC3    C4 8535   3.848   0.001   0.280 -0.3479 -0.0473 -0.5015
  572TMC3    C5 8536   3.913   0.116   0.309 -0.1714  0.3589 -0.3781
  572TMC3    C6 8537   4.001   0.128   0.409  0.2736 -0.3339 -0.1110
  572TMC3     C 8538   3.792   4.516   0.340 -0.1448  0.6410 -0.2923
  572TMC3     O 8539   3.688   4.524   0.268 -0.0106 -0.6304 -0.3280
  572TMC3     H 8540   3.962   4.560   0.544 -0.3450  0.9251  0.3953
  572TMC3    H1 8541   3.762   0.005   0.215  0.2281  0.6097 -1.2165
  572TMC3    H2 8542   4.061   0.216   0.434 -0.2867 -0.5386  1.9318
  572TMC3    C7 8543   3.850   0.242   0.273 -0.0967  0.2052 -0.1235
  572TMC3    C8 8544   4.109   0.039   0.610 -0.0543  0.0155  0.5910
  572TMC3    O1 8545   3.738   0.240   0.228 -0.8649 -0.5101  0.3671
  572TMC3    O2 8546   4.115   0.151   0.655  0.0739 -0.0342 -0.3162
  573MPD2     C 8547   4.607   0.090   0.215 -0.5600 -0.3445 -0.3316
  573MPD2    C1 8548   4.647   0.219   0.211 -0.3580 -0.6716  0.1174
  573MPD2    C2 8549   4.623   0.294   0.098 -0.8207 -0.9264 -0.4496
  573MPD2    C3 8550   4.562   0.237  17.743  0.0571  0.0583  0.3611
  573MPD2    C4 8551   4.532   0.105  17.749  0.7697 -0.0161 -0.4787
  573MPD2    C5 8552   4.554   0.029   0.113 -0.2726  0.1703  0.2382
  573MPD2     H 8553   4.645   0.400   0.094  0.4066 -1.2130 -1.1727
  573MPD2    H1 8554   4.474   0.063  17.667  0.5498 -0.4184 -0.1222
  573MPD2    H2 8555   4.615   0.030   0.306  1.6842  2.4175  1.3151
  573MPD2    H3 8556   4.525   4.664   0.119  0.0483 -0.2137 -4.8416
  573MPD2     N 8557   4.532   0.314  17.624  0.1933 -0.0212 -0.1046
  573MPD2    H5 8558   4.462   0.272  17.562  0.5747  1.1195 -1.2946
  573MPD2    N1 8559   4.700   0.278   0.332  0.3170  0.2325  0.0717
  573MPD2    H7 8560   4.698   0.215   0.412 -0.8070 -0.2266 -0.3156
  574TMC3    C1 8561   4.459   0.514  17.522 -0.0647  0.1310  0.0375
  574TMC3    C2 8562   4.329   0.492  17.573  1.0899  0.0667  0.1060
  574TMC3    C3 8563   4.238   0.589  17.547  0.4771  0.2555  0.1840
  574TMC3    C4 8564   4.487   0.630  17.468 -0.4350  0.0985  0.7086
  574TMC3    C5 8565   4.390   0.721  17.439 -0.5975 -0.4971 -0.0674
  574TMC3    C6 8566   4.260   0.705  17.475  0.0121  1.1982  0.4049
  574TMC3     C 8567   4.559   0.446  17.602 -0.6883 -0.1830 -0.4924
  574TMC3     O 8568   4.659   0.512  17.634 -0.5881  0.2615 -0.1618
  574TMC3     H 8569   4.304   0.395  17.615 -1.5776 -0.1191 -1.9266
  574TMC3    H1 8570   4.589   0.650  17.437 -0.8928 -1.6763 -1.8716
  574TMC3    H2 8571   4.187   0.778  17.443  1.4175  2.5578  0.2593
  574TMC3    C7 8572   4.421   0.847  17.371  0.2645 -0.0011 -0.8257
  574TMC3    C8 8573   4.097   0.545  17.566  0.0574  0.2462  0.1827
  574TMC3    O1 8574   4.535   0.894  17.391 -0.2876  0.1969  0.1457
  574TMC3    O2 8575   4.077   0.424  17.577  0.1520 -0.2536  0.4742
  575TMC3    C1 8576   1.804   0.599  11.323 -0.6846 -0.2166  0.6040
  575TMC3    C2 8577   1.848   0.478  11.352  0.1708  0.6261  0.3284
  575TMC3    C3 8578   1.804   0.376  11.274 -0.8081  0.0347 -0.2855
  575TMC3    C4 8579   1.711   0.628  11.228  0.3957 -0.3567  0.3081
  575TMC3    C5 8580   1.683   0.527  11.145  0.8535 -0.7787 -0.3553
  575TMC3    C6 8581   1.734   0.397  11.165  0.9935 -0.3279  0.4807
  575TMC3     C 8582   1.854   0.701  11.413 -0.7595  0.4618  0.2014
  575TMC3     O 8583   1.928   0.672  11.504 -0.0474  0.2465  0.1760
  575TMC3     H 8584   1.925   0.461  11.427  0.4423  0.4576  0.0128
  575TMC3    H1 8585   1.675   0.728  11.209 -0.3520 -0.1033  3.0509
  575TMC3    H2 8586   1.720   0.314  11.097 -1.0898  0.5323 -0.1609
  575TMC3    C7 8587   1.617   0.565  11.019 -0.5416  0.2659  0.4536
  575TMC3    C8 8588   1.842   0.235  11.313 -0.1517 -0.7374  0.8332
  575TMC3    O1 8589   1.582   0.681  10.999 -0.1426  0.1314  0.3236
  575TMC3    O2 8590   1.941   0.224  11.383  0.4086  0.1296 -0.4344
  576MPD2     C 8591   1.338   2.111  12.270 -0.2440  0.2080  0.5472
  576MPD2    C1 8592   1.459   2.160  12.309 -0.0164  0.5320  0.3412
  576MPD2    C2 8593   1.487   2.181  12.443 -0.2092 -0.1427 -0.5498
  576MPD2    C3 8594   1.385   2.160  12.541  0.5125  0.1135  0.2745
  576MPD2    C4 8595   1.268   2.101  12.498 -0.0199 -0.0296  0.6315
  576MPD2    C5 8596   1.249   2.063  12.370 -0.3525  0.4438 -0.0195
  576MPD2     H 8597   1.587   2.219  12.464  0.2113 -1.1989 -0.5944
  576MPD2    H1 8598   1.184   2.076  12.562  0.2429 -0.2476  0.8889
  576MPD2    H2 8599   1.314   2.083  12.168  0.4039  1.3584  0.0794
  576MPD2    H3 8600   1.160   2.010  12.338  0.7779 -0.5257 -1.5528
  576MPD2     N 8601   1.417   2.188  12.684  0.5422  0.1325  0.1911
  576MPD2    H5 8602   1.511   2.222  12.702 -0.7158  3.1812  0.9049
  576MPD2    N1 8603   1.565   2.193  12.227  0.5412  0.2735 -0.4056
  576MPD2    H7 8604   1.654   2.218  12.268  0.2711 -0.3607  0.5712
  577TMC3    C1 8605   1.670   2.266  12.038  0.1797  0.2110  0.0152
  577TMC3    C2 8606   1.777   2.186  12.052 -0.1291 -1.1132 -0.4176
  577TMC3    C3 8607   1.871   2.201  11.961  0.5752  0.3793 -0.2283
  577TMC3    C4 8608   1.668   2.364  11.933 -0.1616  0.0111  0.6910
  577TMC3    C5 8609   1.764   2.368  11.844  0.2005  0.5095 -0.1138
  577TMC3    C6 8610   1.865   2.284  11.857  0.1198 -0.0335  0.2981
  577TMC3     C 8611   1.546   2.221  12.097 -0.2486 -0.6017  0.2466
  577TMC3     O 8612   1.444   2.252  12.039  0.1622 -0.2108  0.2809
  577TMC3     H 8613   1.778   2.093  12.107 -2.2694 -0.4992  0.6500
  577TMC3    H1 8614   1.577   2.423  11.932 -0.0504  0.2055  1.9671
  577TMC3    H2 8615   1.948   2.287  11.788 -2.3652 -0.6109 -2.7280
  577TMC3    C7 8616   1.759   2.451  11.728 -0.2395  0.6182  0.5080
  577TMC3    C8 8617   1.978   2.107  11.974 -0.0001  0.0971  0.0707
  577TMC3    O1 8618   1.867   2.487  11.678 -0.6018  0.1082  0.3546
  577TMC3    O2 8619   1.982   2.040  12.079 -0.1188 -0.1870  0.0338
  578MPD2     C 8620   4.617   2.743   1.102  0.1142 -0.2392  0.8903
  578MPD2    C1 8621   4.646   2.689   0.972 -0.0986 -0.1429 -0.8991
  578MPD2    C2 8622   0.036   2.637   0.946  0.2230 -0.3520  0.0426
  578MPD2    C3 8623   0.126   2.628   1.057  0.4537  0.4835 -0.3143
  578MPD2    C4 8624   0.087   2.658   1.188 -0.4531  0.8442 -0.3210
  578MPD2    C5 8625   4.703   2.721   1.208 -0.1796  0.2338  0.0395
  578MPD2     H 8626   0.059   2.610   0.844  2.3248  1.0338  0.1535
  578MPD2    H1 8627   0.160   2.654   1.268  0.2358 -1.9195 -1.0866
  578MPD2    H2 8628   4.521   2.786   1.128 -0.0537 -0.0067 -0.1119
  578MPD2    H3 8629   4.670   2.751   1.307 -0.3793 -0.1256  0.0839
  578MPD2     N 8630   0.260   2.588   1.020 -0.6729 -0.4599  0.2748
  578MPD2    H5 8631   0.275   2.568   0.922 -2.5311  0.8683 -0.2898
  578MPD2    N1 8632   4.548   2.719   0.874  0.7613  0.3989  0.3018
  578MPD2    H7 8633   4.478   2.789   0.896 -3.0220 -3.4621  0.5521
  579TMC3    C1 8634   0.491   2.545   1.030 -0.7642 -0.2484  0.6151
  579TMC3    C2 8635   0.611   2.592   1.084  0.0093  0.0074  0.0389
  579TMC3    C3 8636   0.721   2.580   1.010 -0.4638 -1.1872  0.2365
  579TMC3    C4 8637   0.486   2.480   0.912  0.0144  0.2226  0.5162
  579TMC3    C5 8638   0.604   2.473   0.842  0.0524  0.4977 -0.1464
  579TMC3    C6 8639   0.722   2.521   0.890  0.0706  0.9121 -0.5370
  579TMC3     C 8640   0.369   2.576   1.102  0.3898 -0.3908 -0.2484
  579TMC3     O 8641   0.386   2.615   1.214 -0.5635  0.1332 -0.4991
  579TMC3     H 8642   0.610   2.661   1.167 -0.2364  2.1827 -1.7635
  579TMC3    H1 8643   0.394   2.435   0.874 -0.0759  0.5959  0.2893
  579TMC3    H2 8644   0.814   2.494   0.840  0.2200 -0.0017  0.2391
  579TMC3    C7 8645   0.613   2.404   0.712 -0.1681  0.4045  0.5643
  579TMC3    C8 8646   0.840   2.632   1.075 -0.1756 -0.5773  0.2776
  579TMC3    O1 8647   0.729   2.375   0.679 -0.7247  0.0933  0.2905
  579TMC3    O2 8648   0.835   2.644   1.197  0.6101  0.1657  0.3013
  580TMC3    C1 8649   4.646   1.660  12.279 -0.0161  0.3170 -0.0793
  580TMC3    C2 8650   4.617   1.683  12.145  0.1100  0.1944  0.1231
  580TMC3    C3 8651   4.637   1.589  12.049  0.1258 -0.7225 -0.2400
  580TMC3    C4 8652   4.706   1.543  12.307  0.1361 -0.0249 -0.0720
  580TMC3    C5 8653   4.723   1.448  12.208 -0.6997 -0.6678 -0.6793
  580TMC3    C6 8654   4.688   1.471  12.075 -0.7869  0.3939  0.6607
  580TMC3     C 8655   4.722   1.771  12.348  0.3685 -0.5111  0.3762
  580TMC3     O 8656   0.096   1.736  12.380 -0.2681 -0.7454 -0.5806
  580TMC3     H 8657   4.563   1.774  12.121 -0.2564  0.0391  0.3447
  580TMC3    H1 8658   0.014   1.528  12.403 -0.4464 -1.1513  0.0412
  580TMC3    H2 8659   4.695   1.399  11.994 -0.4022  0.9160  0.2278
  580TMC3    C7 8660   4.734   1.309  12.240 -0.2804 -0.4655  0.0400
  580TMC3    C8 8661   4.689   1.655  11.931  0.2423  0.0902 -0.2227
  580TMC3    O1 8662   0.003   1.291  12.362  0.4267  0.3338 -0.1291
  580TMC3    O2 8663   4.713   1.580  11.838  0.1590 -0.0417  0.5889
  581MPD2     C 8664   2.968   0.752  14.732  0.7034 -0.0150 -0.3343
  581MPD2    C1 8665   2.888   0.848  14.787 -0.7514  0.3407 -0.2819
  581MPD2    C2 8666   2.833   0.947  14.707 -0.1324  0.4106  0.8438
  581MPD2    C3 8667   2.856   0.941  14.572 -0.2843  0.2082  1.0099
  581MPD2    C4 8668   2.927   0.834  14.514  0.6680 -0.5123 -0.1252
  581MPD2    C5 8669   2.976   0.735  14.596  0.1767  0.7171 -1.0886
  581MPD2     H 8670   2.774   1.027  14.751 -2.9578 -1.3637  0.3087
  581MPD2    H1 8671   2.950   0.836  14.409  1.4910 -1.0037  0.0485
  581MPD2    H2 8672   3.013   0.678  14.797 -2.1887 -1.1666  0.3648
  581MPD2    H3 8673   3.037   0.653  14.558 -2.4553 -1.2428 -1.0780
  581MPD2     N 8674   2.808   1.049  14.497 -0.2459  0.4881 -0.1869
  581MPD2    H5 8675   2.779   1.131  14.549 -1.7057 -0.4521  0.4843
  581MPD2    N1 8676   2.878   0.858  14.929  1.0472  0.2395  0.3162
  581MPD2    H7 8677   2.866   0.769  14.976  0.7078  0.2758  0.2976
  582TMC3    C1 8678   2.808   0.957  15.123  0.7211 -0.2173 -0.4381
  582TMC3    C2 8679   2.846   1.047  15.214  0.4046 -1.2492  0.1927
  582TMC3    C3 8680   2.777   1.043  15.331 -0.2530  0.5198  0.2357
  582TMC3    C4 8681   2.708   0.857  15.141  0.0721  0.2866 -0.5757
  582TMC3    C5 8682   2.637   0.862  15.259 -0.3869  0.1030 -0.2169
  582TMC3    C6 8683   2.676   0.954  15.362  0.5186 -0.5235  0.7585
  582TMC3     C 8684   2.863   0.981  14.993 -0.7182  0.0474 -0.5749
  582TMC3     O 8685   2.874   1.097  14.959 -0.2747  0.5149 -0.2448
  582TMC3     H 8686   2.918   1.126  15.196 -0.0969 -0.2934  2.3784
  582TMC3    H1 8687   2.661   0.807  15.058  2.0150  0.5503 -1.8150
  582TMC3    H2 8688   2.602   0.963  15.441  1.9945 -1.7831  2.2843
  582TMC3    C7 8689   2.494   0.872  15.222 -1.0537 -0.5130  0.1227
  582TMC3    C8 8690   2.748   1.175  15.394 -0.6973  0.2451  0.4756
  582TMC3    O1 8691   2.445   0.779  15.163 -0.5797  0.0161 -0.0244
  582TMC3    O2 8692   2.635   1.204  15.420 -0.0049 -0.0793  0.4460
  583MPD2     C 8693   2.529   3.086  16.459  0.4584 -0.2264 -0.7167
  583MPD2    C1 8694   2.587   3.207  16.393 -0.4704 -0.2679  0.3702
  583MPD2    C2 8695   2.570   3.329  16.460  0.0119 -0.0379  0.5753
  583MPD2    C3 8696   2.513   3.331  16.583 -0.0156  0.3000 -0.3908
  583MPD2    C4 8697   2.447   3.225  16.643 -0.3371 -0.0501 -0.0792
  583MPD2    C5 8698   2.457   3.102  16.579  0.3860  0.1108  0.4848
  583MPD2     H 8699   2.628   3.416  16.433  1.1992 -1.2155 -0.6407
  583MPD2    H1 8700   2.378   3.224  16.727  0.2545 -0.7788  0.3968
  583MPD2    H2 8701   2.533   2.989  16.411  0.3507 -0.7203  0.2812
  583MPD2    H3 8702   2.407   3.017  16.623 -1.0561  1.4902  1.5261
  583MPD2     N 8703   2.535   3.453  16.649 -0.1434 -0.1598  0.7619
  583MPD2    H5 8704   2.575   3.528  16.593  3.0296 -0.8628  2.0917
  583MPD2    N1 8705   2.650   3.197  16.265 -0.1101 -0.2045 -0.0354
  583MPD2    H7 8706   2.688   3.286  16.232  0.2197 -0.5271 -0.5198
  584TMC3    C1 8707   2.521   3.609  16.837 -0.2215 -0.2909  0.1419
  584TMC3    C2 8708   2.535   3.719  16.753  0.0329 -1.0514 -0.5144
  584TMC3    C3 8709   2.545   3.838  16.815  0.8154  0.0142  0.2523
  584TMC3    C4 8710   2.512   3.627  16.970 -0.0631  0.0605  0.5137
  584TMC3    C5 8711   2.516   3.749  17.027  0.5090  0.6715 -0.6613
  584TMC3    C6 8712   2.524   3.861  16.952 -0.8260  0.2454 -0.6553
  584TMC3     C 8713   2.499   3.475  16.780  0.3212 -0.0992 -0.0285
  584TMC3     O 8714   2.440   3.396  16.860 -0.0912 -0.1939 -0.4391
  584TMC3     H 8715   2.551   3.704  16.647  0.9621 -1.0157 -0.3783
  584TMC3    H1 8716   2.522   3.544  17.040  0.3456 -0.8773 -0.6630
  584TMC3    H2 8717   2.519   3.964  16.987  1.5672 -0.5950  2.0409
  584TMC3    C7 8718   2.459   3.759  17.163  1.0073 -0.4580  1.0017
  584TMC3    C8 8719   2.600   3.949  16.747  0.0099 -0.3505  0.2495
  584TMC3    O1 8720   2.387   3.670  17.201  0.1971 -0.3247 -0.0708
  584TMC3    O2 8721   2.590   3.959  16.625  0.3110  0.4165  0.0746
  585MPD2     C 8722   1.415   2.551  17.568 -0.5211 -0.4119 -0.2337
  585MPD2    C1 8723   1.489   2.587  17.462  0.0199  0.6897 -0.0860
  585MPD2    C2 8724   1.554   2.483  17.395 -0.4161 -0.1402  0.0556
  585MPD2    C3 8725   1.533   2.350  17.426  0.0817 -0.2036  0.3173
  585MPD2    C4 8726   1.451   2.314  17.527  0.0150 -0.3106 -0.0936
  585MPD2    C5 8727   1.402   2.415  17.604 -0.0152 -0.1829 -0.2829
  585MPD2     H 8728   1.612   2.506  17.306  1.5279  0.0752  1.3960
  585MPD2    H1 8729   1.422   2.217  17.568 -1.3649 -0.5121 -1.5682
  585MPD2    H2 8730   1.370   2.624  17.633 -1.9981 -0.5697 -1.0600
  585MPD2    H3 8731   1.340   2.401  17.691  1.6849 -0.7687  0.8207
  585MPD2     N 8732   1.593   2.237  17.358 -0.2744  0.0074 -0.5324
  585MPD2    H5 8733   1.568   2.141  17.379 -0.9607  0.4374  0.5787
  585MPD2    N1 8734   1.497   2.720  17.426  0.2609 -0.4983  0.4317
  585MPD2    H7 8735   1.441   2.786  17.478  1.4049 -1.2189  2.5691
  586TMC3    C1 8736   1.748   2.113  17.246  0.2071 -0.2415  0.1266
  586TMC3    C2 8737   1.879   2.095  17.217  0.7371 -0.2319 -0.1146
  586TMC3    C3 8738   1.926   1.969  17.199 -0.1596 -0.3335  0.3528
  586TMC3    C4 8739   1.655   2.009  17.257 -0.4006  0.1267 -0.0809
  586TMC3    C5 8740   1.709   1.886  17.224  0.6415  0.0204 -0.2701
  586TMC3    C6 8741   1.844   1.859  17.205  0.0766 -0.6474  0.2607
  586TMC3     C 8742   1.706   2.245  17.285 -0.1310 -0.6135  0.4098
  586TMC3     O 8743   1.780   2.342  17.272  0.1795  0.1623  0.7042
  586TMC3     H 8744   1.941   2.181  17.239 -0.9951  0.9573  0.1427
  586TMC3    H1 8745   1.548   2.026  17.248 -0.5531 -1.4859 -1.4794
  586TMC3    H2 8746   1.891   1.762  17.194  2.0710  0.3560 -0.0725
  586TMC3    C7 8747   1.610   1.780  17.197  0.0424  0.2079 -0.6634
  586TMC3    C8 8748   2.053   1.944  17.131  0.2446 -0.5271  0.6311
  586TMC3    O1 8749   1.516   1.778  17.271  0.1459 -0.3458  0.7966
  586TMC3    O2 8750   2.114   1.841  17.155  0.0210  0.4148 -0.2387
  587TMC3    C1 8751   3.858   0.480  16.955 -0.4149  0.6949  0.1316
  587TMC3    C2 8752   3.861   0.609  17.008 -0.1039 -0.1190 -0.5508
  587TMC3    C3 8753   3.944   0.625  17.111 -0.0046 -0.0910  0.2343
  587TMC3    C4 8754   3.926   0.374  17.003 -0.1333  0.3147 -0.2107
  587TMC3    C5 8755   3.994   0.397  17.119 -0.0123  0.6474 -1.4723
  587TMC3    C6 8756   4.008   0.521  17.173 -0.9059 -0.5260  0.2014
  587TMC3     C 8757   3.791   0.470  16.826 -0.9957  0.4621  0.1055
  587TMC3     O 8758   3.811   0.363  16.763 -0.3009 -0.0307  0.1201
  587TMC3     H 8759   3.817   0.690  16.951  0.5419  1.1785  0.8120
  587TMC3    H1 8760   3.923   0.281  16.946  2.3650  0.5133 -0.6622
  587TMC3    H2 8761   4.073   0.537  17.258  1.9644 -1.1407 -1.9092
  587TMC3    C7 8762   4.107   0.304  17.149 -0.5452 -0.7194 -0.2804
  587TMC3    C8 8763   3.951   0.756  17.181 -0.0951  0.3235 -0.2383
  587TMC3    O1 8764   4.149   0.296  17.265  0.3875  0.3864 -0.0072
  587TMC3    O2 8765   4.052   0.783  17.243 -0.5258  0.1441  0.2097
  588TMC3    C1 8766   1.485   3.213   9.775  0.4664  0.2134 -0.3459
  588TMC3    C2 8767   1.500   3.078   9.755  0.5273 -0.2065  0.1246
  588TMC3    C3 8768   1.594   3.003   9.829  0.9073  0.5255 -0.2000
  588TMC3    C4 8769   1.573   3.278   9.857  0.0313 -0.1991 -0.0258
  588TMC3    C5 8770   1.670   3.200   9.929  0.1192  0.1997 -0.1930
  588TMC3    C6 8771   1.694   3.063   9.910 -0.8497 -0.1592 -0.3667
  588TMC3     C 8772   1.359   3.270   9.745  0.4825 -0.2915  0.0060
  588TMC3     O 8773   1.279   3.203   9.679 -0.1423 -0.8892 -0.2332
  588TMC3     H 8774   1.436   3.026   9.684 -0.0917 -2.0314  2.0112
  588TMC3    H1 8775   1.577   3.386   9.850 -0.5577 -0.2072 -0.4929
  588TMC3    H2 8776   1.774   3.009   9.959  0.5145  2.9610  0.7845
  588TMC3    C7 8777   1.730   3.267  10.047  0.5003  0.2121  0.3855
  588TMC3    C8 8778   1.609   2.861   9.794  0.6333  0.3097  0.1157
  588TMC3    O1 8779   1.814   3.210  10.109 -0.6773 -0.2746 -0.0784
  588TMC3    O2 8780   1.585   2.837   9.677 -0.4639  0.2013  0.5458
  589TMC3    C1 8781   1.568   0.469   1.054 -0.4323 -0.8242 -0.0082
  589TMC3    C2 8782   1.664   0.383   1.088  0.1886  0.1869 -0.1073
  589TMC3    C3 8783   1.682   0.269   1.016  0.4196  0.3759  0.2870
  589TMC3    C4 8784   1.483   0.449   0.952 -0.3773  0.4792  0.6187
  589TMC3    C5 8785   1.511   0.339   0.877 -0.0430  0.5225  0.3908
  589TMC3    C6 8786   1.611   0.247   0.908  0.0346 -0.1073  0.6479
  589TMC3     C 8787   1.575   0.592   1.137  0.1330  0.4734  0.0119
  589TMC3     O 8788   1.644   0.579   1.242  0.1851  0.4429  0.0501
  589TMC3     H 8789   1.741   0.402   1.163 -1.4868 -0.7485  1.8639
  589TMC3    H1 8790   1.393   0.509   0.946  0.7858  2.1416 -0.2102
  589TMC3    H2 8791   1.634   0.162   0.845 -1.1293  0.4434 -0.5186
  589TMC3    C7 8792   1.429   0.298   0.770 -1.0351  0.2266  0.2026
  589TMC3    C8 8793   1.801   0.195   1.049  0.1168 -0.1485 -0.2597
  589TMC3    O1 8794   1.421   0.184   0.745  0.2644  0.4059 -0.4955
  589TMC3    O2 8795   1.835   0.167   1.163 -0.6925  0.3911  0.3104
  590MPD2     C 8796   0.446   3.367  15.707  0.4115 -0.3608  0.1001
  590MPD2    C1 8797   0.471   3.490  15.763  0.1041  0.1572  0.3745
  590MPD2    C2 8798   0.568   3.567  15.700  0.5566 -0.0509  0.6528
  590MPD2    C3 8799   0.624   3.528  15.575  0.4626 -0.4205  0.3712
  590MPD2    C4 8800   0.582   3.410  15.522 -0.1348 -0.3140  0.2119
  590MPD2    C5 8801   0.504   3.323  15.594  0.4396 -0.3358 -0.3514
  590MPD2     H 8802   0.599   3.666  15.733 -0.2559  0.8812 -1.3704
  590MPD2    H1 8803   0.614   3.367  15.427 -1.2097 -1.5020  0.3820
  590MPD2    H2 8804   0.367   3.308  15.751  1.7407 -0.9046  1.7956
  590MPD2    H3 8805   0.461   3.235  15.548 -0.3734 -0.9720  1.6196
  590MPD2     N 8806   0.702   3.621  15.501  0.0438 -0.1631  0.0434
  590MPD2    H5 8807   0.758   3.690  15.550 -1.7527  1.4535 -0.1919
  590MPD2    N1 8808   0.382   3.533  15.863  0.3406  0.2581 -0.3469
  590MPD2    H7 8809   0.292   3.486  15.874  1.7369 -2.4888 -0.6990
  591TMC3    C1 8810   0.793   3.740  15.329 -0.4640  0.1198 -0.0802
  591TMC3    C2 8811   0.896   3.781  15.408  0.8914 -0.0400  0.7032
  591TMC3    C3 8812   0.933   3.915  15.403  0.5137 -0.4793 -0.2693
  591TMC3    C4 8813   0.718   3.829  15.247 -0.4332  0.3898  1.0910
  591TMC3    C5 8814   0.765   3.951  15.252 -0.0107  0.7365  0.5171
  591TMC3    C6 8815   0.866   4.007  15.330 -0.4573 -0.4481  0.5226
  591TMC3     C 8816   0.715   3.623  15.364  0.1962  0.5824  0.9968
  591TMC3     O 8817   0.644   3.575  15.275  0.1904 -0.1554 -0.7079
  591TMC3     H 8818   0.934   3.708  15.479  2.0081  1.0535  1.2403
  591TMC3    H1 8819   0.635   3.798  15.185  1.3463  0.4722 -1.3196
  591TMC3    H2 8820   0.886   4.113  15.325  1.7589 -0.8086  1.7089
  591TMC3    C7 8821   0.672   4.047  15.196  0.1745  0.2933  0.2364
  591TMC3    C8 8822   1.070   3.935  15.438 -0.6060  0.1066 -0.0192
  591TMC3    O1 8823   0.610   4.019  15.096 -0.6368  0.3052 -0.1169
  591TMC3    O2 8824   1.138   3.832  15.435  0.2642  0.8965 -0.3013
  592MPD2     C 8825   0.456   0.956  11.125  0.4606 -0.0558 -0.9263
  592MPD2    C1 8826   0.436   1.016  11.248 -0.2825  0.1678 -0.6730
  592MPD2    C2 8827   0.411   0.938  11.356 -0.2123  0.1707  0.3472
  592MPD2    C3 8828   0.393   0.799  11.343 -0.2874  0.7976  0.2588
  592MPD2    C4 8829   0.415   0.747  11.218  0.6532  0.2584 -0.1783
  592MPD2    C5 8830   0.440   0.822  11.107 -0.0231  0.1140 -0.7191
  592MPD2     H 8831   0.398   0.987  11.451  1.3407 -0.9970  1.1752
  592MPD2    H1 8832   0.405   0.640  11.206 -0.7495  0.5977 -1.9776
  592MPD2    H2 8833   0.470   1.021  11.039  0.3690 -0.5655 -1.3254
  592MPD2    H3 8834   0.452   0.775  11.010 -1.0844  1.1402 -1.3445
  592MPD2     N 8835   0.354   0.725  11.461 -0.4485  0.5743  0.1821
  592MPD2    H5 8836   0.334   0.780  11.544  0.6981  2.2218 -0.6663
  592MPD2    N1 8837   0.454   1.158  11.254  0.6241  0.6057 -0.3542
  592MPD2    H7 8838   0.445   1.211  11.168  1.4227  1.1321 -0.1039
  593TMC3    C1 8839   0.474   1.375  11.360 -0.3714 -0.7003  0.2919
  593TMC3    C2 8840   0.460   1.446  11.478 -1.0489 -0.2144 -0.2615
  593TMC3    C3 8841   0.521   1.572  11.482  0.0651  0.0358 -0.5414
  593TMC3    C4 8842   0.550   1.421  11.256 -0.4430  0.0111 -0.7743
  593TMC3    C5 8843   0.601   1.547  11.264  0.1150  0.6849 -0.4882
  593TMC3    C6 8844   0.588   1.623  11.377 -0.3144 -0.5123 -0.4350
  593TMC3     C 8845   0.462   1.230  11.373  0.4460  0.0230 -0.4208
  593TMC3     O 8846   0.477   1.197  11.489  0.3498 -0.2164 -0.0953
  593TMC3     H 8847   0.408   1.401  11.562  0.4755 -0.7431  0.4043
  593TMC3    H1 8848   0.580   1.352  11.178 -3.0015 -2.0283  0.0732
  593TMC3    H2 8849   0.632   1.722  11.382  2.3931 -1.7055 -0.7600
  593TMC3    C7 8850   0.601   1.624  11.136 -0.2995  0.1092  0.1503
  593TMC3    C8 8851   0.518   1.626  11.607  0.4764  0.1282  0.4108
  593TMC3    O1 8852   0.645   1.738  11.153 -0.0644 -0.2788 -0.3232
  593TMC3    O2 8853   0.438   1.594  11.695  0.0431  0.0826  0.1773
  594MPD2     C 8854   4.260   0.056  14.051 -0.0506  0.5814 -0.0846
  594MPD2    C1 8855   4.236   0.104  14.178  0.4252  0.4358 -0.5620
  594MPD2    C2 8856   4.312   0.216  14.223  0.2940  0.1525  0.6540
  594MPD2    C3 8857   4.405   0.279  14.141  0.3897  0.2268  0.4466
  594MPD2    C4 8858   4.401   0.251  14.010 -0.2775 -0.5900 -0.0106
  594MPD2    C5 8859   4.331   0.141  13.969  0.3559 -0.0829  0.9527
  594MPD2     H 8860   4.301   0.240  14.328 -0.1480  0.3355  0.5674
  594MPD2    H1 8861   4.450   0.314  13.936 -1.1720  1.1297  0.8592
  594MPD2    H2 8862   4.208   4.708  14.013  0.8681  0.1373 -0.3121
  594MPD2    H3 8863   4.330   0.123  13.862 -4.4774 -0.9023  1.1312
  594MPD2     N 8864   4.489   0.370  14.193  0.2452  0.4856 -0.4074
  594MPD2    H5 8865   4.474   0.384  14.292  0.4231  0.6513 -0.4035
  594MPD2    N1 8866   4.141   0.036  14.246 -0.3407  0.6055 -0.0217
  594MPD2    H7 8867   4.095   4.708  14.185  1.4553  0.5623 -1.3181
  595TMC3    C1 8868   0.111   0.650  14.293 -0.1297 -0.2630 -0.1185
  595TMC3    C2 8869   0.042   0.574  14.199  0.2898 -0.2398  0.3546
  595TMC3    C3 8870   4.652   0.537  14.225  0.0526 -0.4869 -0.9626
  595TMC3    C4 8871   0.054   0.712  14.399 -0.5776 -0.3548  0.9943
  595TMC3    C5 8872   4.660   0.684  14.415  0.5881 -0.2935 -0.3966
  595TMC3    C6 8873   4.590   0.588  14.337 -0.1898  0.7214  0.8437
  595TMC3     C 8874   0.237   0.716  14.252  0.4953 -0.2648 -0.3735
  595TMC3     O 8875   0.243   0.833  14.285  0.5726  0.6821 -0.2169
  595TMC3     H 8876   0.097   0.540  14.113 -0.0594 -1.8090  0.7585
  595TMC3    H1 8877   0.108   0.786  14.457 -1.3197  2.4954 -1.9413
  595TMC3    H2 8878   4.485   0.574  14.358 -0.5203  0.6951 -0.8329
  595TMC3    C7 8879   4.574   0.786  14.475 -0.8599 -0.2839  0.2322
  595TMC3    C8 8880   4.590   0.443  14.133  0.0858 -1.1389  0.1658
  595TMC3    O1 8881   4.453   0.768  14.487  0.2182  0.2587  0.2186
  595TMC3    O2 8882   4.639   0.439  14.018 -0.1158 -0.4692  0.0765
  596MPD2     C 8883   3.411   3.060  16.525 -0.2072  0.1490 -0.2126
  596MPD2    C1 8884   3.372   3.165  16.441  0.0932  0.1320  0.2551
  596MPD2    C2 8885   3.364   3.128  16.309  0.2246 -0.5195 -0.0146
  596MPD2    C3 8886   3.410   3.005  16.260 -0.0781 -0.0923 -0.2509
  596MPD2    C4 8887   3.459   2.906  16.344  0.5979  0.6683 -0.4198
  596MPD2    C5 8888   3.458   2.940  16.476 -0.5997  0.2355 -0.8743
  596MPD2     H 8889   3.315   3.194  16.238 -0.9937 -1.6030 -0.1831
  596MPD2    H1 8890   3.499   2.812  16.309  1.5055  0.4610  1.1777
  596MPD2    H2 8891   3.410   3.075  16.632 -0.2605  1.2565 -0.3657
  596MPD2    H3 8892   3.496   2.862  16.542 -1.4573  0.1523 -0.4739
  596MPD2     N 8893   3.403   2.966  16.124  0.1333 -0.6315  0.4596
  596MPD2    H5 8894   3.384   2.868  16.104  0.9149 -0.5262 -0.8018
  596MPD2    N1 8895   3.321   3.292  16.481 -0.4912 -0.3910 -0.3034
  596MPD2    H7 8896   3.295   3.358  16.409 -1.2404 -0.4342 -0.0762
  597TMC3    C1 8897   3.273   3.478  16.605  0.5268  0.6566  0.1884
  597TMC3    C2 8898   3.326   3.557  16.504  0.0956  0.5260 -0.3295
  597TMC3    C3 8899   3.333   3.686  16.532  0.8044 -0.0074 -0.2392
  597TMC3    C4 8900   3.233   3.528  16.720 -0.7204 -0.3080  0.0721
  597TMC3    C5 8901   3.225   3.662  16.736  0.3006  0.0805  0.2520
  597TMC3    C6 8902   3.272   3.743  16.640  0.2309  0.2762 -0.1240
  597TMC3     C 8903   3.310   3.340  16.611 -0.3359  0.4504 -0.1493
  597TMC3     O 8904   3.312   3.276  16.718  0.1097 -0.0861 -0.2724
  597TMC3     H 8905   3.376   3.516  16.417  0.6689 -0.8278  0.6318
  597TMC3    H1 8906   3.221   3.469  16.810  0.6972  0.2154  0.6130
  597TMC3    H2 8907   3.279   3.850  16.661  0.0630 -0.0184  1.4381
  597TMC3    C7 8908   3.182   3.703  16.868  0.1476 -0.6109  0.2602
  597TMC3    C8 8909   3.387   3.776  16.433 -0.4377 -1.5195 -0.3621
  597TMC3    O1 8910   3.117   3.624  16.932 -0.2206  0.3095 -0.0670
  597TMC3    O2 8911   3.323   3.883  16.435  0.0559 -0.1175 -0.2101
  598TMC3    C1 8912   1.514   4.453  15.306 -0.1292 -0.3280  0.1245
  598TMC3    C2 8913   1.470   4.322  15.309 -0.4185 -0.6091  0.6533
  598TMC3    C3 8914   1.375   4.276  15.219 -0.1869 -0.2663 -0.3389
  598TMC3    C4 8915   1.465   4.542  15.212  0.3912 -0.1445  0.5545
  598TMC3    C5 8916   1.379   4.492  15.116  0.2127 -0.1846 -0.2091
  598TMC3    C6 8917   1.328   4.365  15.122 -0.5669 -0.7232 -0.0104
  598TMC3     C 8918   1.573   4.514  15.419 -0.4934 -0.2545 -0.5571
  598TMC3     O 8919   1.571   4.637  15.417  0.0550  0.1160 -0.0648
  598TMC3     H 8920   1.515   4.250  15.377  0.6681  0.2694  0.8635
  598TMC3    H1 8921   1.515   4.638  15.201 -1.1879  0.7872  1.5153
  598TMC3    H2 8922   1.269   4.326  15.040 -0.6926 -3.0408  1.1747
  598TMC3    C7 8923   1.377   4.552  14.978  0.5875  0.2887 -0.2007
  598TMC3    C8 8924   1.352   4.134  15.208  0.0633  0.0851 -0.0773
  598TMC3    O1 8925   1.350   4.482  14.884  0.5523 -0.2480 -0.5577
  598TMC3    O2 8926   1.440   4.065  15.255  0.4222 -0.2018 -0.4173
  599MPD2     C 8927   1.441   1.915  15.419  0.3150  0.6189 -0.1332
  599MPD2    C1 8928   1.397   1.805  15.491 -0.0577  0.6474  0.1392
  599MPD2    C2 8929   1.314   1.819  15.597  0.3401 -0.4478  0.0805
  599MPD2    C3 8930   1.267   1.944  15.640 -1.0167  0.0695  0.4457
  599MPD2    C4 8931   1.309   2.057  15.567 -0.2643 -0.0438 -0.1276
  599MPD2    C5 8932   1.388   2.037  15.457  0.1118 -0.0682  0.5038
  599MPD2     H 8933   1.293   1.733  15.659 -0.2148 -0.2010  0.2337
  599MPD2    H1 8934   1.270   2.155  15.592  2.1284  1.0215 -0.6199
  599MPD2    H2 8935   1.518   1.903  15.344 -0.3643  0.7804 -0.8528
  599MPD2    H3 8936   1.425   2.124  15.405 -0.0499 -1.7087 -2.3425
  599MPD2     N 8937   1.187   1.961  15.751 -0.2571  0.1145  0.0998
  599MPD2    H5 8938   1.175   2.055  15.788 -0.1611  1.3521 -2.9901
  599MPD2    N1 8939   1.473   1.686  15.453 -0.4562  0.7269  0.1275
  599MPD2    H7 8940   1.546   1.703  15.385  0.2163  0.2907  0.7338
  600TMC3    C1 8941   1.061   1.893  15.945 -0.7345 -0.1042 -0.6900
  600TMC3    C2 8942   0.953   1.819  15.982 -0.4072 -0.5978  0.0127
  600TMC3    C3 8943   0.899   1.832  16.101  0.7136 -0.1224 -0.2255
  600TMC3    C4 8944   1.107   1.989  16.040  0.2549  0.2799 -0.1038
  600TMC3    C5 8945   1.044   2.003  16.163  0.1865  0.1319 -0.0129
  600TMC3    C6 8946   0.932   1.922  16.198 -0.0213 -0.0204 -0.4345
  600TMC3     C 8947   1.125   1.861  15.821 -0.0906  0.1676  0.4873
  600TMC3     O 8948   1.113   1.743  15.778  0.3882 -0.7213  0.0789
  600TMC3     H 8949   0.900   1.744  15.924 -3.8206  0.8751  1.2278
  600TMC3    H1 8950   1.198   2.042  16.014  1.4020 -1.6788 -0.0915
  600TMC3    H2 8951   0.870   1.947  16.283 -0.5110 -0.6107 -0.6215
  600TMC3    C7 8952   1.060   2.118  16.241  0.1012 -0.0289 -0.0915
  600TMC3    C8 8953   0.806   1.723  16.138 -0.2897 -0.1936 -0.7253
  600TMC3    O1 8954   0.976   2.143  16.331 -0.4772  0.0093  0.2338
  600TMC3    O2 8955   0.737   1.679  16.046 -0.1695 -0.1085 -0.4919
  601MPD2     C 8956   3.904   0.741   0.136  0.1722 -0.9502 -0.0412
  601MPD2    C1 8957   3.788   0.659   0.135 -0.6416 -0.2572  0.6542
  601MPD2    C2 8958   3.801   0.525   0.175  0.0673  0.7231 -0.6989
  601MPD2    C3 8959   3.922   0.474   0.219  0.4283  0.9241  0.1398
  601MPD2    C4 8960   4.036   0.558   0.214 -0.2842 -0.2237  0.0889
  601MPD2    C5 8961   4.022   0.690   0.181 -0.3453 -0.6647 -0.4581
  601MPD2     H 8962   3.714   0.461   0.172  1.8401 -1.6991 -0.6542
  601MPD2    H1 8963   4.136   0.525   0.238  0.0492  2.3151  2.1963
  601MPD2    H2 8964   3.914   0.845   0.108  0.7247 -0.6338  1.3350
  601MPD2    H3 8965   4.109   0.751   0.201 -1.1119  1.0942 -2.4532
  601MPD2     N 8966   3.944   0.343   0.266  0.1007 -0.2513 -0.3227
  601MPD2    H5 8967   4.040   0.314   0.282 -1.1351 -3.4976  1.0158
  601MPD2    N1 8968   3.657   0.700   0.096 -0.2317 -0.0706 -0.1178
  601MPD2    H7 8969   3.583   0.631   0.093 -1.8946  1.7480 -0.5775
  602TMC3    C1 8970   3.484   0.865   0.047  0.4334  0.3738  0.5129
  602TMC3    C2 8971   3.452   0.996   0.051  0.2067  0.2125 -0.4101
  602TMC3    C3 8972   3.320   1.031   0.033  0.7407 -0.5002 -0.2033
  602TMC3    C4 8973   3.391   0.767   0.035  0.3143 -0.5159  0.5319
  602TMC3    C5 8974   3.261   0.809   0.024 -0.1707 -0.1408 -0.5459
  602TMC3    C6 8975   3.219   0.943   0.025  0.4029  0.3313 -0.1484
  602TMC3     C 8976   3.624   0.828   0.062 -0.2104 -0.1284 -0.1195
  602TMC3     O 8977   3.700   0.925   0.053  0.2375 -0.0439 -0.4241
  602TMC3     H 8978   3.524   1.075   0.068  2.1334 -2.1961  2.5430
  602TMC3    H1 8979   3.416   0.662   0.026 -2.2213 -0.9906 -1.1221
  602TMC3    H2 8980   3.116   0.976   0.021 -0.2633 -1.3117  3.2428
  602TMC3    C7 8981   3.178   0.732  17.687 -0.6414 -0.1228  0.3701
  602TMC3    C8 8982   3.306   1.163  17.733  0.0825 -0.2798  0.0389
  602TMC3    O1 8983   3.218   0.622  17.655 -0.0041  0.1030  0.3432
  602TMC3    O2 8984   3.400   1.241  17.731 -0.0199 -0.4022 -0.6209
  603TMC3    C1 8985   1.047   0.471  10.785 -0.2118  0.7109 -0.7568
  603TMC3    C2 8986   1.120   0.444  10.895 -0.2261  0.0407 -1.1641
  603TMC3    C3 8987   1.156   0.557  10.970  0.1486 -0.1595  0.4524
  603TMC3    C4 8988   1.004   0.596  10.751 -0.3374 -0.4342 -0.1944
  603TMC3    C5 8989   1.041   0.699  10.840 -0.3600  0.0149  0.2701
  603TMC3    C6 8990   1.122   0.686  10.943 -0.1503 -0.7856  0.0454
  603TMC3     C 8991   1.014   0.366  10.694  0.0510  0.4751 -0.6504
  603TMC3     O 8992   1.050   0.377  10.578  0.2895 -0.1017 -0.1168
  603TMC3     H 8993   1.154   0.344  10.917 -1.0314  0.1889  0.8035
  603TMC3    H1 8994   0.941   0.613  10.665 -0.2303 -2.7222 -0.7155
  603TMC3    H2 8995   1.127   0.775  11.005  0.1880 -0.7790  0.0118
  603TMC3    C7 8996   1.020   0.839  10.800 -0.8736 -0.1843  0.2802
  603TMC3    C8 8997   1.237   0.522  11.087  0.2442  0.6361 -0.1312
  603TMC3    O1 8998   1.081   0.929  10.863  0.1540 -0.3693  0.0566
  603TMC3    O2 8999   1.255   0.405  11.113  0.2718 -0.6639 -0.2856
  604MPD2     C 9000   2.540   3.871  16.024  0.3420 -0.2901  0.0508
  604MPD2    C1 9001   2.520   4.009  16.015  1.0260 -0.5149  0.1505
  604MPD2    C2 9002   2.554   4.079  15.896 -0.1431 -0.0479 -0.0932
  604MPD2    C3 9003   2.606   4.001  15.795 -0.4215 -0.2625 -0.1535
  604MPD2    C4 9004   2.626   3.861  15.800 -0.1719 -0.0014 -0.6438
  604MPD2    C5 9005   2.585   3.801  15.917  0.1395 -0.0739 -0.7173
  604MPD2     H 9006   2.560   4.187  15.894 -2.7815  0.0668 -1.6695
  604MPD2    H1 9007   2.672   3.792  15.730  0.9462  0.2605 -0.1765
  604MPD2    H2 9008   2.524   3.817  16.116 -2.7354 -0.4404 -0.5988
  604MPD2    H3 9009   2.586   3.693  15.929 -1.6488 -0.0330 -0.1667
  604MPD2     N 9010   2.644   4.076  15.681  0.8822  0.4755  0.5010
  604MPD2    H5 9011   2.616   4.173  15.671  1.0175  0.1906 -2.6198
  604MPD2    N1 9012   2.470   4.074  16.132 -0.0984 -0.3194 -0.3051
  604MPD2    H7 9013   2.474   4.018  16.216  0.2328 -0.8387 -0.6649
  605TMC3    C1 9014   2.349   4.234  16.250 -0.2240  0.4201  0.0124
  605TMC3    C2 9015   2.445   4.254  16.344 -0.0688  0.4103  0.1843
  605TMC3    C3 9016   2.424   4.362  16.426 -0.0632 -0.0851  0.0423
  605TMC3    C4 9017   2.229   4.293  16.246  0.2153 -0.1357  0.5873
  605TMC3    C5 9018   2.209   4.390  16.336 -0.7305  0.3429  0.8552
  605TMC3    C6 9019   2.307   4.433  16.427 -0.2535 -0.2840  0.8451
  605TMC3     C 9020   2.406   4.190  16.122 -0.5895  0.1731 -0.4501
  605TMC3     O 9021   2.340   4.224  16.027 -0.0306 -0.4209  0.1738
  605TMC3     H 9022   2.541   4.204  16.346 -0.4047 -0.2600 -0.5404
  605TMC3    H1 9023   2.158   4.261  16.171  1.0190  0.2768 -0.3504
  605TMC3    H2 9024   2.296   4.538  16.454  2.4243 -0.6065  3.1463
  605TMC3    C7 9025   2.083   4.459  16.330  0.3295 -0.7122  0.3270
  605TMC3    C8 9026   2.547   4.417  16.475 -0.4235 -0.1132 -0.0306
  605TMC3    O1 9027   2.090   4.579  16.342  0.2361  0.9008 -0.3189
  605TMC3    O2 9028   2.653   4.381  16.421  0.4752  0.1037  0.3347
  606TMC3    C1 9029   3.421   3.266  17.070 -0.2053  0.7224  0.4976
  606TMC3    C2 9030   3.348   3.275  17.182 -0.5585  0.2400 -0.1769
  606TMC3    C3 9031   3.273   3.172  17.226 -0.0859 -0.6758  1.0233
  606TMC3    C4 9032   3.428   3.145  17.006 -0.2934  0.5740  0.2950
  606TMC3    C5 9033   3.348   3.037  17.053  0.0919 -1.0361 -0.3839
  606TMC3    C6 9034   3.272   3.050  17.162  0.2647 -0.0321 -0.4324
  606TMC3     C 9035   3.507   3.378  17.033  1.1904 -0.3308  0.2891
  606TMC3     O 9036   3.523   3.463  17.120 -0.1760  0.1045 -0.0873
  606TMC3     H 9037   3.350   3.360  17.249  1.3608 -0.5878  0.8097
  606TMC3    H1 9038   3.503   3.125  16.930  1.0502 -1.6937  2.1971
  606TMC3    H2 9039   3.201   2.984  17.210  0.2000 -0.3941 -1.0276
  606TMC3    C7 9040   3.329   2.930  16.957 -0.6081 -0.2780 -0.2068
  606TMC3    C8 9041   3.282   3.151  17.372  0.2043 -0.0719  0.5043
  606TMC3    O1 9042   3.362   2.943  16.844  0.2891  0.5519  0.0020
  606TMC3    O2 9043   3.378   3.206  17.419  0.2246  0.1500  0.1303
  607MPD2     C 9044   0.640   0.595  11.631 -0.0611  0.2266  1.0128
  607MPD2    C1 9045   0.647   0.704  11.711 -0.2438  0.3275  0.3348
  607MPD2    C2 9046   0.608   0.695  11.844  0.1015  0.3072  0.3027
  607MPD2    C3 9047   0.580   0.574  11.904 -0.1927 -0.3026  0.0142
  607MPD2    C4 9048   0.563   0.462  11.826  0.1687 -0.1016 -0.5169
  607MPD2    C5 9049   0.590   0.481  11.692  0.0480  0.1636 -0.1247
  607MPD2     H 9050   0.595   0.778  11.912 -0.3985  0.3506  0.1520
  607MPD2    H1 9051   0.539   0.367  11.872 -1.6281  1.1603  1.1275
  607MPD2    H2 9052   0.676   0.601  11.529 -0.1262 -0.7978  0.9309
  607MPD2    H3 9053   0.590   0.390  11.633  0.0270  1.0905 -1.5524
  607MPD2     N 9054   0.569   0.587  12.048  0.0058  0.3898 -0.4021
  607MPD2    H5 9055   0.586   0.678  12.089 -2.0000 -0.3278  2.0230
  607MPD2    N1 9056   0.683   0.830  11.672  0.3992  0.1518 -0.3368
  607MPD2    H7 9057   0.696   0.892  11.751  2.0199  0.4662 -0.8321
  608TMC3    C1 9058   0.795   0.995  11.554 -0.5755  0.7870 -0.0402
  608TMC3    C2 9059   0.885   1.011  11.658  0.3879  0.4447  0.4608
  608TMC3    C3 9060   0.955   1.122  11.666 -0.2854  0.3173  0.1094
  608TMC3    C4 9061   0.809   1.075  11.443 -0.2184 -0.4318  0.3161
  608TMC3    C5 9062   0.879   1.191  11.457 -0.1783 -0.0874 -0.5541
  608TMC3    C6 9063   0.953   1.218  11.568  0.7753  0.4230 -0.3580
  608TMC3     C 9064   0.734   0.862  11.547  0.3887 -0.0870 -0.6242
  608TMC3     O 9065   0.753   0.812  11.435  0.0996 -0.4009 -0.1416
  608TMC3     H 9066   0.905   0.928  11.724 -1.6765 -1.3383 -1.1431
  608TMC3    H1 9067   0.745   1.065  11.356  1.6200 -0.7599 -0.9836
  608TMC3    H2 9068   1.021   1.302  11.575  2.0969 -0.7938  1.0701
  608TMC3    C7 9069   0.877   1.289  11.346  0.0662 -0.1590 -0.2361
  608TMC3    C8 9070   1.006   1.155  11.796 -1.1409 -0.2740 -0.1370
  608TMC3    O1 9071   0.825   1.254  11.244 -0.1390  0.2096  0.3051
  608TMC3    O2 9072   1.087   1.243  11.806 -0.3248  0.2232  0.1587
  609TMC3    C1 9073   2.681   4.311   9.361 -0.3638 -0.2991 -0.4773
  609TMC3    C2 9074   2.625   4.275   9.246  0.6077  0.8825  0.6232
  609TMC3    C3 9075   2.687   4.177   9.168 -0.0650  0.0002 -0.5521
  609TMC3    C4 9076   2.807   4.255   9.391 -0.0546 -0.2658 -0.0652
  609TMC3    C5 9077   2.869   4.176   9.305 -0.1188 -0.4455  0.3479
  609TMC3    C6 9078   2.807   4.129   9.195  0.1206  0.0579 -0.1604
  609TMC3     C 9079   2.616   4.428   9.433 -0.0534 -0.2084  0.1487
  609TMC3     O 9080   2.494   4.433   9.427  0.2925  0.0402 -0.0374
  609TMC3     H 9081   2.530   4.320   9.223  1.0761  0.8095 -1.5291
  609TMC3    H1 9082   2.873   4.313   9.454  1.6408 -1.2708 -0.9274
  609TMC3    H2 9083   2.852   4.054   9.130 -0.6080 -0.1820 -0.3879
  609TMC3    C7 9084   3.010   4.179   9.316 -1.0218  0.3479 -0.4778
  609TMC3    C8 9085   2.606   4.106   9.067 -0.6240 -0.4182 -0.8870
  609TMC3    O1 9086   3.061   4.195   9.425 -0.0238 -0.7605 -0.8209
  609TMC3    O2 9087   2.666   4.044   8.979 -0.1082 -0.6296  0.3453
  610TMC3    C1 9088   1.199   0.976  12.529  0.3701 -0.7385 -0.0676
  610TMC3    C2 9089   1.221   0.981  12.391  0.5652 -0.5646  0.8371
  610TMC3    C3 9090   1.224   0.865  12.322  0.7542 -0.4932  0.5689
  610TMC3    C4 9091   1.215   0.867  12.601  0.4966 -0.1779  0.9060
  610TMC3    C5 9092   1.233   0.748  12.534  0.3472 -0.2559  1.1286
  610TMC3    C6 9093   1.237   0.744  12.394 -0.6111 -0.1213 -0.4715
  610TMC3     C 9094   1.149   1.101  12.596  0.0997 -0.1148  0.9458
  610TMC3     O 9095   1.065   1.083  12.682  0.0045  0.4483 -0.0599
  610TMC3     H 9096   1.203   1.066  12.327  1.2734  0.7126  2.3385
  610TMC3    H1 9097   1.200   0.880  12.707 -1.9093 -0.4762  0.6115
  610TMC3    H2 9098   1.247   0.650  12.340 -3.2297 -1.9234  2.1971
  610TMC3    C7 9099   1.265   0.631  12.606 -0.2390  0.1708 -0.3193
  610TMC3    C8 9100   1.203   0.872  12.177  0.0515 -0.4189  0.2503
  610TMC3    O1 9101   1.358   0.557  12.572  0.0323 -0.7607  0.1119
  610TMC3    O2 9102   1.222   0.982  12.128  0.5682  0.3400  0.1344
  611MPD2     C 9103   0.019   0.394  10.577 -0.5618 -0.6928 -0.9694
  611MPD2    C1 9104   4.672   0.470  10.503 -0.4448 -0.9455  0.0441
  611MPD2    C2 9105   4.722   0.588  10.441 -0.3879 -0.1847  0.1162
  611MPD2    C3 9106   0.112   0.628  10.457 -0.2337 -0.6521 -0.5678
  611MPD2    C4 9107   0.194   0.536  10.527 -0.1738 -0.2625 -0.0391
  611MPD2    C5 9108   0.153   0.424  10.586  0.4043 -0.8563 -0.2569
  611MPD2     H 9109   4.661   0.637  10.366  1.8234  0.8640 -1.0147
  611MPD2    H1 9110   0.302   0.535  10.525 -0.1971 -2.5486 -0.0744
  611MPD2    H2 9111   4.723   0.298  10.613 -1.3948 -0.3959 -0.9911
  611MPD2    H3 9112   0.231   0.357  10.619  1.2419 -0.9986 -2.5502
  611MPD2     N 9113   0.176   0.740  10.398  0.2520 -0.2271 -0.1250
  611MPD2    H5 9114   0.276   0.736  10.416  0.5023  2.6563 -1.0463
  611MPD2    N1 9115   4.542   0.416  10.484 -0.0242  0.2577 -0.0380
  611MPD2    H7 9116   4.526   0.326  10.527  0.6753 -0.4415 -1.2465
  612TMC3    C1 9117   0.230   0.911  10.235 -0.1739  0.1107 -0.0114
  612TMC3    C2 9118   0.340   0.947  10.301  0.0705  0.0457  0.3753
  612TMC3    C3 9119   0.422   1.042  10.246  0.2184 -0.2357 -1.3692
  612TMC3    C4 9120   0.184   0.974  10.120  0.0470 -0.3954  0.3819
  612TMC3    C5 9121   0.280   1.062  10.061 -0.0672 -0.5684 -0.3094
  612TMC3    C6 9122   0.397   1.099  10.123  0.2120 -0.3362 -0.1935
  612TMC3     C 9123   0.137   0.813  10.291  0.4845  0.5510 -0.1456
  612TMC3     O 9124   0.030   0.790  10.232 -0.4117  0.1127 -0.3852
  612TMC3     H 9125   0.352   0.908  10.401  1.2010 -1.1731 -0.2196
  612TMC3    H1 9126   0.105   0.934  10.059  0.4351 -2.2012  1.0812
  612TMC3    H2 9127   0.471   1.162  10.077  0.9587 -0.8638  0.2823
  612TMC3    C7 9128   0.235   1.132   9.945  0.5251 -0.0891  0.3273
  612TMC3    C8 9129   0.544   1.096  10.312  0.4270  0.9172 -0.5770
  612TMC3    O1 9130   0.125   1.098   9.900 -0.3209  0.2792 -0.8203
  612TMC3    O2 9131   0.578   1.207  10.276 -0.1744 -0.5300  0.8862
  613MPD2     C 9132   0.323   2.441  16.445  0.4383  0.7179 -0.2305
  613MPD2    C1 9133   0.251   2.554  16.431 -0.1659 -0.3894  0.1816
  613MPD2    C2 9134   0.120   2.548  16.389 -0.4062 -0.2473 -0.2395
  613MPD2    C3 9135   0.065   2.427  16.358  0.1837  0.2640 -0.3004
  613MPD2    C4 9136   0.138   2.308  16.381  0.3891  0.4456 -0.7801
  613MPD2    C5 9137   0.270   2.321  16.407  0.9265 -0.3491  0.2722
  613MPD2     H 9138   0.057   2.636  16.393 -1.7488 -1.1516 -1.1856
  613MPD2    H1 9139   0.097   2.211  16.355 -1.0780  0.8621 -0.0429
  613MPD2    H2 9140   0.426   2.444  16.480  0.1108 -1.1492  0.8612
  613MPD2    H3 9141   0.329   2.231  16.415  2.3246  0.4423 -1.1716
  613MPD2     N 9142   4.667   2.410  16.321  0.4870  0.1124  1.0249
  613MPD2    H5 9143   4.631   2.321  16.290  1.9810 -0.3213  0.5003
  613MPD2    N1 9144   0.318   2.676  16.463  0.2844 -0.1082 -0.2643
  613MPD2    H7 9145   0.407   2.669  16.511 -0.8373 -0.6666  1.7596
  614TMC3    C1 9146   0.214   2.834  16.298 -0.7153  0.5189 -0.3839
  614TMC3    C2 9147   0.226   2.746  16.196 -0.6045 -0.1517  0.0493
  614TMC3    C3 9148   0.170   2.775  16.078  0.0000  0.1092  0.9208
  614TMC3    C4 9149   0.140   2.947  16.288  0.5618 -0.0684  0.1448
  614TMC3    C5 9150   0.097   2.976  16.162 -0.0516  0.0421 -0.2814
  614TMC3    C6 9151   0.103   2.895  16.054  0.2389  0.0039  0.2509
  614TMC3     C 9152   0.277   2.805  16.428 -0.0189  0.4282 -0.3150
  614TMC3     O 9153   0.292   2.904  16.496 -0.2821  0.3804  0.6614
  614TMC3     H 9154   0.282   2.654  16.207  1.5044  1.0010 -1.1089
  614TMC3    H1 9155   0.144   3.028  16.360  0.2311  0.8465 -0.8769
  614TMC3    H2 9156   0.079   2.904  15.949 -2.1371 -2.1792  0.5945
  614TMC3    C7 9157   0.051   3.112  16.140  0.6843 -0.4454  0.0336
  614TMC3    C8 9158   0.108   2.664  16.015  0.2719 -0.0798 -0.3189
  614TMC3    O1 9159   0.097   3.200  16.214 -0.3123 -0.2326 -0.8160
  614TMC3    O2 9160   4.734   2.686  15.980 -0.0215 -0.1527 -0.4561
  615MPD2     C 9161   4.272   4.045  15.486  0.0144  0.1909  0.4747
  615MPD2    C1 9162   4.229   4.149  15.571  0.5567  0.6151 -0.0320
  615MPD2    C2 9163   4.159   4.249  15.512  0.5335 -0.0190  0.8051
  615MPD2    C3 9164   4.128   4.252  15.381  0.3927 -0.4726 -0.0343
  615MPD2    C4 9165   4.172   4.147  15.302 -0.4981  0.0817  0.8490
  615MPD2    C5 9166   4.239   4.043  15.352 -0.2737  0.0884  0.0038
  615MPD2     H 9167   4.142   4.332  15.580 -0.5042  0.1365  0.3696
  615MPD2    H1 9168   4.156   4.148  15.195  2.5676  0.0754  0.4077
  615MPD2    H2 9169   4.337   3.967  15.525 -0.3470  0.2478  1.2053
  615MPD2    H3 9170   4.287   3.971  15.287  1.4502  2.2018 -1.0387
  615MPD2     N 9171   4.059   4.358  15.314 -0.0230  0.4905 -0.5641
  615MPD2    H5 9172   4.062   4.353  15.213  1.2309 -1.7440 -0.4313
  615MPD2    N1 9173   4.274   4.172  15.705  0.2488 -0.0002 -0.4380
  615MPD2    H7 9174   4.238   4.255  15.751 -0.2535 -1.9295  2.6257
  616TMC3    C1 9175   4.425   4.172  15.887  0.8753 -0.2824 -0.1068
  616TMC3    C2 9176   4.564   4.172  15.898  0.2434  0.4224  0.6090
  616TMC3    C3 9177   4.615   4.255  15.991  0.9237 -0.0276 -0.1145
  616TMC3    C4 9178   4.345   4.260  15.951 -0.3344 -0.3080 -0.9404
  616TMC3    C5 9179   4.405   4.338  16.052 -0.4175  0.1113 -0.2820
  616TMC3    C6 9180   4.541   4.331  16.077 -0.1974 -0.0684 -0.3123
  616TMC3     C 9181   4.374   4.103  15.772  0.1860  0.5426  0.2334
  616TMC3     O 9182   4.449   4.014  15.724 -0.2749  0.0966 -0.3333
  616TMC3     H 9183   4.623   4.128  15.818 -1.2575  0.5235 -0.5416
  616TMC3    H1 9184   4.238   4.247  15.949 -0.4838  0.6722  0.5935
  616TMC3    H2 9185   4.582   4.398  16.152 -2.5012  1.5194 -0.4856
  616TMC3    C7 9186   4.323   4.399  16.160 -0.4177 -0.8200 -0.4274
  616TMC3    C8 9187   4.737   4.319  15.937  0.0992  0.4890  0.4540
  616TMC3    O1 9188   4.362   4.385  16.272  0.2612  0.0956  0.4530
  616TMC3    O2 9189   0.024   4.317  15.820 -0.1017  0.0159  0.0515
  617MPD2     C 9190   2.294   2.482  13.641 -0.5001 -0.0330  0.2870
  617MPD2    C1 9191   2.344   2.373  13.708  0.1935  0.6492 -0.6462
  617MPD2    C2 9192   2.258   2.283  13.755 -0.8218 -0.3294 -0.7273
  617MPD2    C3 9193   2.121   2.306  13.753  0.2078  0.0374  0.5281
  617MPD2    C4 9194   2.067   2.415  13.685  0.5542 -1.0544 -0.2780
  617MPD2    C5 9195   2.157   2.497  13.621 -0.4164  0.0900  0.4498
  617MPD2     H 9196   2.300   2.189  13.788  2.6968  0.8669 -1.7467
  617MPD2    H1 9197   1.962   2.440  13.683  0.9047  0.4425 -0.4157
  617MPD2    H2 9198   2.353   2.563  13.600  0.3645 -0.9690 -0.3013
  617MPD2    H3 9199   2.126   2.588  13.572 -2.0913 -0.9741 -0.4614
  617MPD2     N 9200   2.028   2.214  13.807  0.0892  0.1735 -0.0141
  617MPD2    H5 9201   1.932   2.241  13.794 -0.1395 -0.6061  0.0507
  617MPD2    N1 9202   2.485   2.356  13.714  0.1444 -0.1651 -0.0078
  617MPD2    H7 9203   2.531   2.415  13.645 -0.3013 -0.7399 -0.7958
  618TMC3    C1 9204   2.704   2.262  13.757 -0.2529 -0.0385 -0.3729
  618TMC3    C2 9205   2.769   2.142  13.751  0.6761 -0.5901  0.1549
  618TMC3    C3 9206   2.875   2.137  13.663 -0.8449  0.0765  0.3619
  618TMC3    C4 9207   2.757   2.381  13.706 -0.3101  0.4367 -0.4677
  618TMC3    C5 9208   2.865   2.366  13.625 -0.2715 -0.0156  0.6588
  618TMC3    C6 9209   2.932   2.245  13.599  0.7965  0.3383 -0.0902
  618TMC3     C 9210   2.559   2.251  13.776 -0.1346 -0.5558  0.8477
  618TMC3     O 9211   2.525   2.163  13.849  0.5762 -0.1509 -0.2396
  618TMC3     H 9212   2.734   2.061  13.813  1.1481 -0.1778  0.9682
  618TMC3    H1 9213   2.709   2.476  13.724 -2.8036 -0.9395  0.0867
  618TMC3    H2 9214   3.024   2.245  13.541 -0.6502 -0.7758 -2.3692
  618TMC3    C7 9215   2.898   2.480  13.552 -0.3452 -0.6401 -0.0873
  618TMC3    C8 9216   2.889   2.004  13.599 -0.3465 -0.8127  0.1826
  618TMC3    O1 9217   2.889   2.588  13.615  0.8948 -0.2329 -0.2788
  618TMC3    O2 9218   2.816   1.911  13.642 -0.2574  0.0269 -0.4212
  619MPD2     C 9219   3.554   3.856  13.947  0.6617  0.6302  0.0030
  619MPD2    C1 9220   3.475   3.854  13.835  0.1993 -0.3374  0.6178
  619MPD2    C2 9221   3.358   3.784  13.840  0.8288 -0.0558 -0.5172
  619MPD2    C3 9222   3.320   3.714  13.957  0.6357  0.6079  0.5364
  619MPD2    C4 9223   3.401   3.719  14.069  0.5342  0.1665 -0.8782
  619MPD2    C5 9224   3.523   3.777  14.064 -0.1972  0.6067  0.2482
  619MPD2     H 9225   3.289   3.786  13.756 -0.4773 -1.3486  0.5241
  619MPD2    H1 9226   3.370   3.667  14.159  1.1985  1.6687  0.2246
  619MPD2    H2 9227   3.654   3.897  13.936  1.7565 -2.2339 -0.5861
  619MPD2    H3 9228   3.584   3.759  14.152  1.2599  1.2904 -0.6399
  619MPD2     N 9229   3.203   3.638  13.961 -0.0821 -0.2037  0.1949
  619MPD2    H5 9230   3.156   3.637  14.051  2.7967  3.0919  1.7856
  619MPD2    N1 9231   3.507   3.923  13.714 -0.2360 -0.4037  0.5312
  619MPD2    H7 9232   3.428   3.925  13.651  1.4977 -1.0022 -1.6444
  620TMC3    C1 9233   3.620   4.040  13.554  0.4162  0.2503 -0.0599
  620TMC3    C2 9234   3.529   3.996  13.456  0.0317 -0.7699 -0.0131
  620TMC3    C3 9235   3.519   4.055  13.332  0.8427  0.3622  0.4513
  620TMC3    C4 9236   3.703   4.145  13.518  0.1907 -0.7752 -0.3125
  620TMC3    C5 9237   3.678   4.215  13.402  0.4354 -0.3453  0.3200
  620TMC3    C6 9238   3.586   4.171  13.310 -0.1850  0.5728 -0.0752
  620TMC3     C 9239   3.622   3.998  13.694  0.1666  0.0576 -0.2641
  620TMC3     O 9240   3.702   4.048  13.770  0.0887 -0.2616 -0.5719
  620TMC3     H 9241   3.485   3.898  13.466 -0.1002 -0.8245 -1.1139
  620TMC3    H1 9242   3.773   4.188  13.588  0.9335 -1.8332 -0.4131
  620TMC3    H2 9243   3.567   4.229  13.220  1.5251 -0.0234 -0.8057
  620TMC3    C7 9244   3.681   4.362  13.405 -0.2078 -0.0079  0.4006
  620TMC3    C8 9245   3.392   4.051  13.260 -1.0510  0.7614  0.2286
  620TMC3    O1 9246   3.570   4.412  13.379  0.2440  0.0792  0.3338
  620TMC3    O2 9247   3.365   4.150  13.192 -0.1158 -0.2086 -0.0386
  621MPD2     C 9248   2.770   4.117  10.260  0.3873  0.7296 -0.0676
  621MPD2    C1 9249   2.818   4.115  10.132  0.0570  0.5318  0.9371
  621MPD2    C2 9250   2.931   4.190  10.110 -0.1023  0.2360  0.3331
  621MPD2    C3 9251   2.980   4.274  10.214  0.1161 -0.0932 -0.7700
  621MPD2    C4 9252   2.917   4.276  10.340 -0.0199  0.7358  0.2793
  621MPD2    C5 9253   2.815   4.193  10.363  0.7796 -0.1168  0.3055
  621MPD2     H 9254   2.997   4.176  10.025 -0.3115  0.0129  0.2055
  621MPD2    H1 9255   2.953   4.341  10.419 -1.4914  0.1513  1.4220
  621MPD2    H2 9256   2.677   4.063  10.275  0.9494 -0.4672 -0.8944
  621MPD2    H3 9257   2.768   4.184  10.460 -0.9157 -3.2401 -0.8046
  621MPD2     N 9258   3.084   4.361  10.185  0.1321 -0.4333 -0.6488
  621MPD2    H5 9259   3.115   4.356  10.088  1.5723 -1.6080 -0.1122
  621MPD2    N1 9260   2.778   4.020  10.038  0.5063 -0.3615 -0.3667
  621MPD2    H7 9261   2.826   4.028   9.949 -0.5563 -1.4980 -1.0368
  622TMC3    C1 9262   2.663   3.846   9.925  0.9192 -0.7601  0.2126
  622TMC3    C2 9263   2.547   3.798   9.869  0.0004  0.4472 -0.0187
  622TMC3    C3 9264   2.556   3.715   9.762  0.0060  0.1633 -1.1436
  622TMC3    C4 9265   2.787   3.801   9.888  0.4630 -0.0053 -0.1521
  622TMC3    C5 9266   2.794   3.707   9.792 -0.9734 -0.3045  0.2076
  622TMC3    C6 9267   2.681   3.670   9.718 -0.4835  0.5739  0.3745
  622TMC3     C 9268   2.663   3.938  10.038  0.0746  0.1524 -0.3918
  622TMC3     O 9269   2.581   3.921  10.128  0.0790  0.2553  0.8174
  622TMC3     H 9270   2.450   3.830   9.906 -0.5094 -1.6032  0.3944
  622TMC3    H1 9271   2.875   3.837   9.940 -0.3681  1.2620  0.3983
  622TMC3    H2 9272   2.693   3.621   9.622  3.5612  2.4971 -0.1007
  622TMC3    C7 9273   2.929   3.686   9.733  0.1955 -1.0112  0.5055
  622TMC3    C8 9274   2.437   3.673   9.681  0.5493 -0.5991 -0.1957
  622TMC3    O1 9275   3.021   3.744   9.788 -0.2329 -0.1004 -0.7184
  622TMC3    O2 9276   2.455   3.582   9.604 -0.0161 -0.4711  0.1462
  623MPD2     C 9277   2.951   4.643  15.768 -0.8929  0.2458 -0.8457
  623MPD2    C1 9278   2.904   4.573  15.871 -0.1920 -0.6866  0.3349
  623MPD2    C2 9279   2.975   4.558  15.989 -0.8405 -0.3892 -0.2542
  623MPD2    C3 9280   3.085   4.638  16.007  0.5298 -0.5320  0.3208
  623MPD2    C4 9281   3.134   4.703  15.901  0.5836  0.2175 -0.6588
  623MPD2    C5 9282   3.071   4.695  15.779  0.5951 -0.1334  0.3825
  623MPD2     H 9283   2.929   4.498  16.067 -1.8167  0.1396 -0.4242
  623MPD2    H1 9284   3.230   0.014  15.903 -0.1675  1.6742 -1.4061
  623MPD2    H2 9285   2.892   4.654  15.678  0.1775 -0.1073 -1.5857
  623MPD2    H3 9286   3.111   0.012  15.695  0.1611 -0.7300 -0.2220
  623MPD2     N 9287   3.147   4.638  16.136 -0.0427 -0.1477  0.6345
  623MPD2    H5 9288   3.108   4.578  16.208  0.3906 -0.4890  0.5868
  623MPD2    N1 9289   2.771   4.531  15.862  0.7506  0.1300  0.0180
  623MPD2    H7 9290   2.721   4.565  15.780 -0.6535  1.0631  1.2574
  624TMC3    C1 9291   3.425   4.638  16.488 -0.4514 -0.5208 -0.0507
  624TMC3    C2 9292   3.320   4.641  16.581 -0.1031  0.5982  0.3574
  624TMC3    C3 9293   3.196   4.674  16.535 -0.6441  0.1645 -0.9144
  624TMC3    C4 9294   3.401   4.663  16.357  0.5718 -0.3163 -0.7986
  624TMC3    C5 9295   3.280   4.701  16.313 -0.4745  0.4776 -0.2392
  624TMC3    C6 9296   3.174   4.701  16.402 -0.2106 -0.6346 -0.6362
  624TMC3     C 9297   3.539   4.568  16.519  0.0267 -0.2656  0.7296
  624TMC3     O 9298   3.628   4.625  16.577 -0.0578  0.0570  0.8387
  624TMC3     H 9299   3.345   4.623  16.684 -0.5035  0.8892  0.5056
  624TMC3    H1 9300   3.482   4.675  16.285  1.5123  0.4068  0.3885
  624TMC3    H2 9301   3.074   4.730  16.371  0.0036  0.4334 -0.3366
  624TMC3    C7 9302   3.261   4.705  16.173  0.0829 -0.0265  0.4153
  624TMC3    C8 9303   3.094   4.691  16.637 -0.5799 -0.2009 -0.0259
  624TMC3    O1 9304   3.339   0.026  16.100  0.3528  0.0446 -0.0200
  624TMC3    O2 9305   3.122   4.713  16.757 -0.3891 -0.5747 -0.0350
  625MPD2     C 9306   3.177   1.338   0.657 -0.1907  0.3048  0.7336
  625MPD2    C1 9307   3.215   1.469   0.636  0.1068  0.3247  0.0277
  625MPD2    C2 9308   3.346   1.502   0.629 -0.1087 -0.5174  0.3572
  625MPD2    C3 9309   3.443   1.407   0.645 -0.5022 -0.4945 -0.2700
  625MPD2    C4 9310   3.406   1.275   0.666 -1.1437  0.0745 -0.9067
  625MPD2    C5 9311   3.275   1.243   0.666  0.1898  0.4641 -0.4993
  625MPD2     H 9312   3.376   1.605   0.613 -0.3338 -0.4687  0.2579
  625MPD2    H1 9313   3.476   1.192   0.673 -2.4064 -0.9784 -0.8652
  625MPD2    H2 9314   3.075   1.307   0.673  0.9141 -3.0457  1.4886
  625MPD2    H3 9315   3.240   1.140   0.665  2.2719 -0.2473  0.3910
  625MPD2     N 9316   3.575   1.453   0.616  0.7546 -0.0188  0.4891
  625MPD2    H5 9317   3.590   1.550   0.593  0.9823  0.0806  1.0347
  625MPD2    N1 9318   3.124   1.574   0.628  0.3284  0.3464 -0.4608
  625MPD2    H7 9319   3.169   1.665   0.627  2.9157 -0.9459 -1.0190
  626TMC3    C1 9320   2.914   1.675   0.602 -0.0803 -0.0132  0.3804
  626TMC3    C2 9321   2.831   1.676   0.494 -0.6883  0.1326 -0.0966
  626TMC3    C3 9322   2.761   1.788   0.463 -0.0553 -0.3483 -0.0802
  626TMC3    C4 9323   2.923   1.776   0.693 -0.1402  0.5735 -0.5866
  626TMC3    C5 9324   2.840   1.883   0.667 -0.7765 -0.1218 -0.2492
  626TMC3    C6 9325   2.753   1.888   0.562 -0.0562 -0.0421  0.2039
  626TMC3     C 9326   2.985   1.558   0.626  0.3409 -0.4865 -0.2219
  626TMC3     O 9327   2.922   1.458   0.597 -0.1690 -0.3266 -0.0732
  626TMC3     H 9328   2.849   1.596   0.424 -0.5732  0.6875 -0.7047
  626TMC3    H1 9329   2.988   1.776   0.779 -0.4339  0.9299 -0.3652
  626TMC3    H2 9330   2.713   1.986   0.542 -2.0667 -0.6889  1.0389
  626TMC3    C7 9331   2.821   1.969   0.779 -0.1130 -0.6286 -0.0473
  626TMC3    C8 9332   2.695   1.794   0.330 -0.3469 -0.2275  0.9037
  626TMC3    O1 9333   2.915   1.980   0.857  0.2483 -0.1109  0.5654
  626TMC3    O2 9334   2.740   1.723   0.238 -0.5077 -0.4067 -0.1875
  627MPD2     C 9335   2.350   0.999  13.840  0.1670  0.3544  0.0523
  627MPD2    C1 9336   2.325   1.051  13.964  0.4011 -0.5689 -0.6046
  627MPD2    C2 9337   2.202   1.036  14.026 -0.0836  0.0467 -0.2213
  627MPD2    C3 9338   2.101   0.966  13.967 -1.3152  0.4987  0.2537
  627MPD2    C4 9339   2.128   0.917  13.842 -0.2641  0.3592  0.1987
  627MPD2    C5 9340   2.248   0.931  13.777  0.3543  0.3112 -0.0103
  627MPD2     H 9341   2.187   1.080  14.124 -0.6823 -1.5971  0.4355
  627MPD2    H1 9342   2.047   0.870  13.789  0.2132  0.4261 -0.5930
  627MPD2    H2 9343   2.449   1.000  13.796  1.1711 -0.3207  2.2863
  627MPD2    H3 9344   2.264   0.877  13.685 -4.4427 -1.4249  0.1377
  627MPD2     N 9345   1.977   0.961  14.029  0.4001  0.4107 -0.5122
  627MPD2    H5 9346   1.974   1.003  14.122 -2.4964  0.3278 -0.5955
  627MPD2    N1 9347   2.412   1.130  14.038 -0.4975 -0.0195 -0.0921
  627MPD2    H7 9348   2.387   1.165  14.131  1.2282  0.4675  0.1756
  628TMC3    C1 9349   2.613   1.227  14.107  0.4530  0.1774 -0.1562
  628TMC3    C2 9350   2.714   1.164  14.170  0.6345 -0.1230 -0.0556
  628TMC3    C3 9351   2.740   1.172  14.302 -0.3602 -0.3120 -0.7236
  628TMC3    C4 9352   2.540   1.312  14.183 -0.6017 -0.1420 -0.0505
  628TMC3    C5 9353   2.565   1.316  14.317 -0.1165  0.1939 -0.4139
  628TMC3    C6 9354   2.654   1.238  14.385 -1.5268  0.6186  0.4610
  628TMC3     C 9355   2.551   1.140  14.007  0.2014  0.1213  0.1867
  628TMC3     O 9356   2.626   1.088  13.926 -0.3702 -0.6333 -0.0573
  628TMC3     H 9357   2.783   1.103  14.114  1.9457  0.5768  0.8072
  628TMC3    H1 9358   2.455   1.361  14.136 -0.9567  0.1218  0.8562
  628TMC3    H2 9359   2.674   1.254  14.491 -2.6715 -0.4700  0.8427
  628TMC3    C7 9360   2.482   1.402  14.402 -0.6341 -0.3108  0.2740
  628TMC3    C8 9361   2.831   1.067  14.359 -0.2604 -1.0041 -0.0635
  628TMC3    O1 9362   2.524   1.413  14.517 -0.2103  0.0463  0.1335
  628TMC3    O2 9363   2.889   1.003  14.275 -0.1672 -0.0265 -0.1964
  629MPD2     C 9364   0.359   4.674  16.007  0.1813  0.0514  0.6154
  629MPD2    C1 9365   0.325   4.630  16.135  0.6443  0.2426 -0.3766
  629MPD2    C2 9366   0.225   4.534  16.147  0.3211 -0.1295  0.4953
  629MPD2    C3 9367   0.167   4.477  16.026  0.9491  0.1705 -0.5933
  629MPD2    C4 9368   0.192   4.534  15.900  0.1353  0.2957 -0.1381
  629MPD2    C5 9369   0.293   4.628  15.897 -0.9090  0.5339 -0.1458
  629MPD2     H 9370   0.173   4.513  16.240 -1.4814 -1.1407 -0.7181
  629MPD2    H1 9371   0.151   4.505  15.804 -2.0793  1.3049  0.4834
  629MPD2    H2 9372   0.442   0.004  15.995 -1.0556  1.3045 -0.6681
  629MPD2    H3 9373   0.321   4.667  15.800 -0.4518  1.3430  0.3171
  629MPD2     N 9374   0.070   4.386  16.041 -0.2173  0.1160 -0.1075
  629MPD2    H5 9375   0.052   4.369  16.139 -2.2817  1.1783 -0.3108
  629MPD2    N1 9376   0.388   4.686  16.249  0.2814 -0.3275  0.4015
  629MPD2    H7 9377   0.448   0.023  16.219  1.1407 -1.6555 -1.1640
  630TMC3    C1 9378   0.472   4.733  16.470  0.0361 -0.2143  0.5726
  630TMC3    C2 9379   0.499   0.121  16.429  0.3949 -1.3337 -0.7008
  630TMC3    C3 9380   0.564   0.196  16.519 -0.5467 -0.3175 -0.1167
  630TMC3    C4 9381   0.527   4.668  16.581  0.9292 -1.1597 -1.0297
  630TMC3    C5 9382   0.579   0.015  16.679  0.1265 -0.5970 -0.5111
  630TMC3    C6 9383   0.600   0.147  16.647  0.2083  0.5557  0.0627
  630TMC3     C 9384   0.386   4.645  16.382 -0.6760  0.2160  0.6172
  630TMC3     O 9385   0.324   4.557  16.437 -0.0429 -0.2498 -0.3888
  630TMC3     H 9386   0.451   0.174  16.348  1.9718  1.4416  0.1865
  630TMC3    H1 9387   0.482   4.575  16.614 -0.5505 -0.3814 -0.8398
  630TMC3    H2 9388   0.618   0.224  16.722 -0.3086 -1.1643  1.9702
  630TMC3    C7 9389   0.557   4.719  16.817  0.5309  0.1509  0.2584
  630TMC3    C8 9390   0.571   0.339  16.493 -0.0404  0.0115  0.2450
  630TMC3    O1 9391   0.476   4.632  16.839 -0.0568  0.0206 -0.3440
  630TMC3    O2 9392   0.572   0.413  16.591 -0.2817 -0.0174 -0.0942
  631MPD2     C 9393   3.107   0.065  15.418 -0.2266 -0.3232  0.0995
  631MPD2    C1 9394   3.176   0.151  15.334  0.4627 -0.1502 -0.7125
  631MPD2    C2 9395   3.298   0.116  15.288  0.0757  0.4706  0.7798
  631MPD2    C3 9396   3.352   4.735  15.314 -0.2249  0.0872  0.2654
  631MPD2    C4 9397   3.273   4.646  15.391 -0.7467  0.6100  1.3315
  631MPD2    C5 9398   3.149   4.681  15.440  0.2369  0.2571 -0.2187
  631MPD2     H 9399   3.364   0.195  15.254  2.6896 -2.0327  0.1285
  631MPD2    H1 9400   3.302   4.544  15.413  0.8216  0.9170  0.7104
  631MPD2    H2 9401   3.018   0.097  15.470  0.2780 -1.0039  1.3691
  631MPD2    H3 9402   3.090   4.601  15.485  0.3065 -0.6788 -1.7770
  631MPD2     N 9403   3.484   4.712  15.276 -0.8012 -0.3102 -0.2856
  631MPD2    H5 9404   3.536   0.031  15.212 -0.9589  0.4145  0.2417
  631MPD2    N1 9405   3.112   0.273  15.300  0.3228 -0.4665  0.0886
  631MPD2    H7 9406   3.021   0.292  15.340  0.1544  1.2362 -1.1041
  632TMC3    C1 9407   3.103   0.497  15.239 -0.0677  0.0044 -0.0205
  632TMC3    C2 9408   3.055   0.522  15.369 -0.4306  0.6493 -0.5463
  632TMC3    C3 9409   3.071   0.652  15.406 -0.0914 -0.0336 -0.2195
  632TMC3    C4 9410   3.136   0.589  15.146 -0.5422 -0.5637 -0.3285
  632TMC3    C5 9411   3.128   0.717  15.192 -0.4937 -0.0576  0.3901
  632TMC3    C6 9412   3.099   0.755  15.318  0.1069  0.2814 -1.3231
  632TMC3     C 9413   3.176   0.374  15.230 -0.5195 -0.4808  0.1568
  632TMC3     O 9414   3.270   0.367  15.146  0.0140 -0.5652  0.2662
  632TMC3     H 9415   3.010   0.451  15.437  0.4228 -0.3310 -1.0081
  632TMC3    H1 9416   3.171   0.562  15.047  0.1958 -1.3205  0.1341
  632TMC3    H2 9417   3.112   0.856  15.355  0.8215 -0.5061  0.5811
  632TMC3    C7 9418   3.169   0.832  15.110 -0.1091 -0.2605  0.1668
  632TMC3    C8 9419   3.006   0.705  15.522 -0.1605 -0.4732 -0.1999
  632TMC3    O1 9420   3.171   0.944  15.159 -0.3588 -0.8392 -0.6070
  632TMC3    O2 9421   2.898   0.653  15.541 -0.1186  0.1604 -0.3385
  633MPD2     C 9422   2.663   2.818  16.997 -0.2865  0.3562 -0.0418
  633MPD2    C1 9423   2.689   2.762  16.872 -0.1985  0.9993 -0.0819
  633MPD2    C2 9424   2.689   2.622  16.875  0.2753  0.5393 -0.1624
  633MPD2    C3 9425   2.673   2.559  16.994  1.5189  0.2088 -0.8696
  633MPD2    C4 9426   2.642   2.613  17.111 -0.0197 -0.3291 -0.3090
  633MPD2    C5 9427   2.634   2.750  17.115  0.8795  0.2119  0.0102
  633MPD2     H 9428   2.714   2.567  16.785 -2.3416 -1.2040  0.1551
  633MPD2    H1 9429   2.624   2.555  17.201 -1.4047 -0.6842 -0.8234
  633MPD2    H2 9430   2.647   2.924  17.012  1.8510  0.7493 -0.5537
  633MPD2    H3 9431   2.612   2.799  17.209 -1.9386 -0.8103 -0.1096
  633MPD2     N 9432   2.683   2.424  17.004  0.1655  1.5101  0.4192
  633MPD2    H5 9433   2.663   2.384  17.095  1.5168 -0.6318 -0.1909
  633MPD2    N1 9434   2.733   2.833  16.750  0.2183  0.0831 -0.2926
  633MPD2    H7 9435   2.760   2.783  16.667  1.0094 -1.2858  0.7882
  634TMC3    C1 9436   2.823   3.012  16.624  0.5396 -0.5278 -0.8742
  634TMC3    C2 9437   2.874   2.923  16.533 -0.0415 -0.8134  0.5959
  634TMC3    C3 9438   2.963   2.979  16.437 -0.1905  0.8290  0.5744
  634TMC3    C4 9439   2.839   3.152  16.615 -0.2587 -0.7918 -0.2333
  634TMC3    C5 9440   2.934   3.197  16.524  0.4043  0.2458 -0.1077
  634TMC3    C6 9441   2.997   3.113  16.434 -0.2234  0.0740 -0.1795
  634TMC3     C 9442   2.743   2.966  16.736  0.0209  0.0469 -0.6430
  634TMC3     O 9443   2.705   3.051  16.811  0.0939 -0.0886 -0.7855
  634TMC3     H 9444   2.851   2.818  16.522 -2.7815 -0.1655  0.0412
  634TMC3    H1 9445   2.786   3.214  16.687  1.2548  1.5059 -1.1017
  634TMC3    H2 9446   3.061   3.161  16.361  2.6293 -1.7558  1.1156
  634TMC3    C7 9447   2.938   3.341  16.490  0.3068  0.0692 -0.3989
  634TMC3    C8 9448   3.009   2.908  16.319 -0.0597  0.8596  0.2100
  634TMC3    O1 9449   2.978   3.367  16.378 -0.2533 -0.1811  0.8124
  634TMC3    O2 9450   3.107   2.956  16.265  0.6194  0.1676 -0.0448
  635TMC3    C1 9451   3.542   4.084  17.648 -0.2211  0.2054  0.2391
  635TMC3    C2 9452   3.559   4.140  17.527  0.6799  0.0529 -1.0179
  635TMC3    C3 9453   3.498   4.077  17.420  0.3377  0.4597 -0.2574
  635TMC3    C4 9454   3.462   3.978  17.670 -0.2277  0.5187 -0.1195
  635TMC3    C5 9455   3.403   3.920  17.559  0.5383  0.5149 -0.2129
  635TMC3    C6 9456   3.419   3.966  17.429  0.0008 -0.2622 -0.2310
  635TMC3     C 9457   3.627   4.139   0.004 -0.3886 -0.3061 -0.3750
  635TMC3     O 9458   3.652   4.257  17.736 -0.1588 -0.4982 -0.2628
  635TMC3     H 9459   3.620   4.224  17.499  0.9998  1.3790  3.7691
  635TMC3    H1 9460   3.460   3.929   0.012  1.2784  0.9536  0.1233
  635TMC3    H2 9461   3.361   3.928  17.346 -0.1870 -0.1310 -0.1581
  635TMC3    C7 9462   3.319   3.800  17.579 -0.0719 -0.6001  0.3340
  635TMC3    C8 9463   3.549   4.111  17.287 -0.0257 -0.5679  0.3111
  635TMC3    O1 9464   3.281   3.783  17.695 -0.3127  0.2930  0.0145
  635TMC3    O2 9465   3.619   4.212  17.282 -0.0978 -0.4335 -0.4442
  636MPD2     C 9466   4.079   3.163  15.957  0.4979  0.3638  0.0537
  636MPD2    C1 9467   4.196   3.167  16.026  0.2489 -0.1368  0.0200
  636MPD2    C2 9468   4.257   3.046  16.045  1.0231  0.5213  0.5684
  636MPD2    C3 9469   4.206   2.926  15.999  0.2094 -0.1243 -0.5292
  636MPD2    C4 9470   4.078   2.923  15.948  0.2721 -0.1597  0.2781
  636MPD2    C5 9471   4.022   3.045  15.917  0.2749  0.3615  0.2880
  636MPD2     H 9472   4.358   3.045  16.085  1.0290 -2.5633  0.4619
  636MPD2    H1 9473   4.028   2.837  15.905 -1.7352  1.5100 -0.7647
  636MPD2    H2 9474   4.036   3.254  15.918 -0.5235 -0.8224 -1.5868
  636MPD2    H3 9475   3.924   3.061  15.872  0.5983  0.0574 -0.5125
  636MPD2     N 9476   4.279   2.807  16.019  0.3712 -0.0992  0.2475
  636MPD2    H5 9477   4.374   2.821  16.051  0.0006 -0.9631  1.7284
  636MPD2    N1 9478   4.249   3.282  16.078 -0.1310  0.1855 -0.2444
  636MPD2    H7 9479   4.338   3.272  16.125 -0.0018  2.6077  0.0204
  637TMC3    C1 9480   4.339   2.579  16.019 -0.4351  0.3547  0.0944
  637TMC3    C2 9481   4.406   2.586  16.146  0.6403 -0.4166 -0.1184
  637TMC3    C3 9482   4.482   2.478  16.187 -0.9584  0.5484  0.2306
  637TMC3    C4 9483   4.367   2.483  15.926  0.1066  1.1755  0.0615
  637TMC3    C5 9484   4.456   2.392  15.961  0.3407 -0.0298  0.0371
  637TMC3    C6 9485   4.511   2.386  16.093 -0.1117 -0.0034  0.7409
  637TMC3     C 9486   4.241   2.680  15.981  0.3579 -0.4749 -0.2930
  637TMC3     O 9487   4.151   2.648  15.902 -0.4117  0.3100 -0.4684
  637TMC3     H 9488   4.375   2.664  16.215  0.2242  0.3217 -1.1270
  637TMC3    H1 9489   4.330   2.491  15.825 -0.7676  1.5359  0.4029
  637TMC3    H2 9490   4.593   2.319  16.118 -0.7400 -0.9968  0.0944
  637TMC3    C7 9491   4.479   2.282  15.871 -0.6067 -0.2181  0.5700
  637TMC3    C8 9492   4.584   2.514  16.288 -0.4800  0.0963 -0.0624
  637TMC3    O1 9493   4.382   2.242  15.811  0.5333  0.7746 -0.8636
  637TMC3    O2 9494   4.602   2.635  16.306 -0.1431 -0.9482  0.1218
  638MPD2     C 9495   4.043   2.302  15.049 -0.2443  0.3076 -0.9067
  638MPD2    C1 9496   4.048   2.207  14.954  0.2592 -0.1216 -0.1031
  638MPD2    C2 9497   4.011   2.075  14.990  0.6361 -0.0828 -0.1343
  638MPD2    C3 9498   3.973   2.037  15.113  0.4627  0.1168 -0.3359
  638MPD2    C4 9499   3.966   2.134  15.212 -0.5028  0.7531  0.2336
  638MPD2    C5 9500   3.995   2.266  15.179 -0.3263 -0.7068 -0.3020
  638MPD2     H 9501   4.019   1.998  14.915  0.9517 -0.3313  0.1552
  638MPD2    H1 9502   3.949   2.094  15.311 -1.0548  0.1262 -0.1042
  638MPD2    H2 9503   4.066   2.406  15.027 -1.7028  0.6980 -0.6420
  638MPD2    H3 9504   4.001   2.337  15.261  0.1807  1.2760 -2.0742
  638MPD2     N 9505   3.932   1.903  15.124 -0.8623 -0.2496  0.0439
  638MPD2    H5 9506   3.934   1.844  15.041 -0.6796  0.3714 -0.3896
  638MPD2    N1 9507   4.100   2.237  14.825  0.0233  0.5998 -0.5238
  638MPD2    H7 9508   4.161   2.317  14.815  0.7364  0.0563 -0.5239
  639TMC3    C1 9509   3.877   1.697  15.220 -0.1331  0.5343 -1.3623
  639TMC3    C2 9510   3.751   1.656  15.198 -0.4139  0.1743  0.1172
  639TMC3    C3 9511   3.733   1.523  15.176  0.9800 -0.0761  0.1087
  639TMC3    C4 9512   3.979   1.616  15.228 -0.5921 -0.0223  0.3275
  639TMC3    C5 9513   3.959   1.486  15.200  0.4375 -0.4099 -0.2901
  639TMC3    C6 9514   3.833   1.432  15.184 -0.0188 -0.0652  0.2877
  639TMC3     C 9515   3.900   1.843  15.243  0.9813 -0.0928 -0.1367
  639TMC3     O 9516   3.899   1.887  15.356  0.0402  0.1464  0.2905
  639TMC3     H 9517   3.672   1.730  15.200  1.2043  1.9485 -1.9550
  639TMC3    H1 9518   4.073   1.667  15.244 -1.1616  0.2823  2.6749
  639TMC3    H2 9519   3.819   1.330  15.152  0.5731  0.2459 -0.9636
  639TMC3    C7 9520   4.070   1.393  15.178 -0.0555 -0.3725 -0.4158
  639TMC3    C8 9521   3.664   1.490  15.052 -0.5708  0.0960  0.1356
  639TMC3    O1 9522   4.055   1.283  15.222  0.0678 -0.0534 -0.4833
  639TMC3    O2 9523   3.731   1.438  14.967 -0.0651 -0.8228  0.6682
  640MPD2     C 9524   3.123   0.892  10.084  1.0101 -0.0364 -0.2926
  640MPD2    C1 9525   3.016   0.896   9.994  0.8136  0.0496 -0.1645
  640MPD2    C2 9526   2.960   1.014   9.965 -0.2309  0.0559 -0.3284
  640MPD2    C3 9527   3.008   1.135  10.016  0.0259  0.6711 -0.4051
  640MPD2    C4 9528   3.113   1.127  10.107  0.5394  0.1770 -0.0109
  640MPD2    C5 9529   3.161   1.010  10.151 -0.0508  0.0066  0.3508
  640MPD2     H 9530   2.880   1.018   9.892 -0.2506  0.6472 -0.2735
  640MPD2    H1 9531   3.162   1.211  10.155  0.1705 -0.7056  1.9113
  640MPD2    H2 9532   3.163   0.799  10.123  1.0636 -0.7175 -1.9819
  640MPD2    H3 9533   3.229   1.021  10.235  0.4611  0.4841 -0.1248
  640MPD2     N 9534   2.967   1.271   9.981  0.2718 -0.2073  0.2665
  640MPD2    H5 9535   3.015   1.348  10.025  0.9616 -0.0701 -0.7243
  640MPD2    N1 9536   2.973   0.775   9.939 -0.4114  0.0476 -0.2225
  640MPD2    H7 9537   3.001   0.695   9.994 -2.7294 -0.6050  0.0228
  641TMC3    C1 9538   2.873   0.611   9.804  0.0076  0.4752  0.1126
  641TMC3    C2 9539   2.982   0.520   9.810 -0.1616 -0.5855  0.3243
  641TMC3    C3 9540   2.986   0.406   9.725  0.7343  0.5663  0.4034
  641TMC3    C4 9541   2.776   0.590   9.703 -0.0298 -0.4330  1.0550
  641TMC3    C5 9542   2.781   0.475   9.629  0.1386  0.5693 -0.0496
  641TMC3    C6 9543   2.885   0.381   9.637  0.4801 -0.6091 -0.3622
  641TMC3     C 9544   2.884   0.751   9.841 -0.0057  0.2321  0.8711
  641TMC3     O 9545   2.812   0.837   9.789 -0.2390  0.7160  0.0184
  641TMC3     H 9546   3.068   0.547   9.872  0.0540 -1.6860  0.5056
  641TMC3    H1 9547   2.690   0.655   9.694 -0.9727 -1.6477  1.2300
  641TMC3    H2 9548   2.888   0.280   9.597 -0.8682 -0.6513 -0.3504
  641TMC3    C7 9549   2.673   0.453   9.532 -0.3818  0.2344 -0.0336
  641TMC3    C8 9550   3.097   0.306   9.735  0.2391 -0.7558 -0.3400
  641TMC3    O1 9551   2.576   0.528   9.548 -0.2517 -0.4755 -0.1247
  641TMC3    O2 9552   3.096   0.212   9.654 -0.2268 -0.2821  0.2101
  642TMC3    C1 9553   0.790   1.480  12.107  0.5041  0.4030 -0.8047
  642TMC3    C2 9554   0.857   1.543  12.007 -0.1512  0.1406 -0.2236
  642TMC3    C3 9555   0.835   1.496  11.880 -0.3418  0.9948 -0.0652
  642TMC3    C4 9556   0.691   1.390  12.085  0.0608 -0.2808  0.3484
  642TMC3    C5 9557   0.671   1.344  11.952  0.2855  0.3064  0.0755
  642TMC3    C6 9558   0.749   1.394  11.848 -0.6133  0.0221 -0.5114
  642TMC3     C 9559   0.806   1.537  12.236  0.7954 -0.1656  0.0568
  642TMC3     O 9560   0.912   1.580  12.264 -0.0671 -0.1161 -0.1601
  642TMC3     H 9561   0.937   1.613  12.028  1.2045 -1.4111 -0.2017
  642TMC3    H1 9562   0.651   1.339  12.171 -1.4704 -1.5424 -1.1073
  642TMC3    H2 9563   0.738   1.360  11.746 -3.5465 -0.2344 -0.1182
  642TMC3    C7 9564   0.587   1.220  11.931 -0.0333  0.4033 -0.3195
  642TMC3    C8 9565   0.931   1.538  11.772 -0.7338  0.2697 -0.1917
  642TMC3    O1 9566   0.590   1.164  11.824  0.0632 -0.3357 -0.2197
  642TMC3    O2 9567   0.883   1.550  11.659 -0.2872 -0.3131  0.5953
  643TMC3    C1 9568   4.727   0.946   0.250  0.2623 -1.1185  0.7726
  643TMC3    C2 9569   4.595   0.947   0.218  0.0898  0.4301  0.4875
  643TMC3    C3 9570   4.543   0.872   0.115 -0.5200 -0.2224  0.7098
  643TMC3    C4 9571   0.078   0.873   0.179  0.0088  0.9722 -0.2109
  643TMC3    C5 9572   0.031   0.798   0.072  0.6811 -0.2469  0.5967
  643TMC3    C6 9573   4.632   0.796   0.040 -0.0740 -0.0325  0.2240
  643TMC3     C 9574   0.030   1.068   0.321 -0.0138 -0.1284  0.1940
  643TMC3     O 9575   4.706   1.162   0.277 -0.0600  0.3080  0.4578
  643TMC3     H 9576   4.534   0.994   0.294  0.4869  1.4841  0.1487
  643TMC3    H1 9577   0.184   0.893   0.185  0.4955 -1.4747 -0.7733
  643TMC3    H2 9578   4.587   0.756  17.705  1.6829 -0.2729 -0.5428
  643TMC3    C7 9579   0.106   0.824  17.707 -0.1615  0.2133  1.0276
  643TMC3    C8 9580   4.451   0.959   0.033 -0.2655  0.2385  0.2427
  643TMC3    O1 9581   0.170   0.928  17.707 -0.6050  0.1413  0.5392
  643TMC3    O2 9582   4.393   0.911  17.692  0.0565  0.0250 -0.3454
  644MPD2     C 9583   3.489   1.062   9.929 -0.6226  0.0697  0.1053
  644MPD2    C1 9584   3.423   1.010   9.821 -0.0637 -0.1024  0.2548
  644MPD2    C2 9585   3.339   1.090   9.751 -0.6668  0.1842  0.4382
  644MPD2    C3 9586   3.301   1.213   9.793  0.0577  0.1959  0.1332
  644MPD2    C4 9587   3.367   1.268   9.901  0.6623 -0.5200 -0.9335
  644MPD2    C5 9588   3.464   1.194   9.966  0.3901 -0.0483 -0.2624
  644MPD2     H 9589   3.291   1.051   9.663  0.1078 -0.0470  0.1173
  644MPD2    H1 9590   3.349   1.366   9.944 -1.0836 -0.9030 -0.8020
  644MPD2    H2 9591   3.558   1.006   9.991 -1.2288 -3.3996 -2.3889
  644MPD2    H3 9592   3.523   1.236  10.046  1.5160  0.2491 -1.2567
  644MPD2     N 9593   3.201   1.283   9.725  0.4890 -0.0391  0.0682
  644MPD2    H5 9594   3.159   1.239   9.643  1.4459 -2.3515  0.8163
  644MPD2    N1 9595   3.466   0.883   9.776  0.1488  0.0740 -0.1257
  644MPD2    H7 9596   3.533   0.841   9.840 -3.1227 -2.3787  1.6884
  645TMC3    C1 9597   3.099   1.474   9.633  0.0680 -0.3796  1.1517
  645TMC3    C2 9598   2.987   1.406   9.596 -0.0885 -0.3687  0.0135
  645TMC3    C3 9599   2.922   1.470   9.497 -0.1189  0.0436  0.0175
  645TMC3    C4 9600   3.135   1.602   9.603  0.2975  0.4263 -0.2929
  645TMC3    C5 9601   3.058   1.664   9.513  0.0598  0.2283 -0.5646
  645TMC3    C6 9602   2.953   1.596   9.450  0.0915  0.0558  0.0269
  645TMC3     C 9603   3.175   1.414   9.739  0.5597 -0.1913  0.3308
  645TMC3     O 9604   3.218   1.495   9.818 -0.2974 -0.6114  0.0378
  645TMC3     H 9605   2.963   1.314   9.647 -0.2271 -0.2947  0.0811
  645TMC3    H1 9606   3.221   1.651   9.648 -0.1903  1.0438 -0.0341
  645TMC3    H2 9607   2.901   1.644   9.369  1.0502  2.1756  0.6495
  645TMC3    C7 9608   3.099   1.788   9.451 -0.8279  0.5680  0.4225
  645TMC3    C8 9609   2.789   1.418   9.463  0.5848 -0.3147 -0.3584
  645TMC3    O1 9610   3.000   1.852   9.414  0.0363 -0.5853 -0.2026
  645TMC3    O2 9611   2.707   1.495   9.404 -0.0276  0.2159  0.5375
  646MPD2     C 9612   4.131   0.941  14.461  0.6617  0.2548  0.5893
  646MPD2    C1 9613   4.023   0.911  14.529  0.4460 -0.2016 -1.1313
  646MPD2    C2 9614   3.902   0.965  14.497  0.0482 -0.3469  0.0650
  646MPD2    C3 9615   3.895   1.067  14.396 -0.3307 -0.4494 -0.9723
  646MPD2    C4 9616   4.006   1.094  14.323  0.1070  0.3057 -0.4994
  646MPD2    C5 9617   4.126   1.041  14.367 -0.1316  0.5228  0.3889
  646MPD2     H 9618   3.815   0.939  14.556 -1.6457  0.7071 -1.9581
  646MPD2    H1 9619   4.009   1.164  14.240 -1.0149  2.1915  1.0419
  646MPD2    H2 9620   4.225   0.888  14.471 -0.9302 -2.6905  0.0439
  646MPD2    H3 9621   4.216   1.066  14.311 -0.6109 -1.1472 -1.1242
  646MPD2     N 9622   3.766   1.128  14.370 -0.1028 -0.2414  0.3990
  646MPD2    H5 9623   3.686   1.089  14.419  0.8946 -2.0216  0.6175
  646MPD2    N1 9624   4.038   0.815  14.632 -0.3741 -0.5600 -0.5342
  646MPD2    H7 9625   4.130   0.775  14.649 -0.3141 -0.7142 -1.2371
  647TMC3    C1 9626   4.000   0.710  14.842 -0.1989 -0.2113 -0.2086
  647TMC3    C2 9627   3.934   0.610  14.901  0.1141  0.1695 -0.3241
  647TMC3    C3 9628   3.978   0.577  15.027 -0.3095  0.1633  0.0933
  647TMC3    C4 9629   4.109   0.775  14.892  0.1518  0.1658 -0.6275
  647TMC3    C5 9630   4.152   0.733  15.018  0.1563  0.0786  0.4513
  647TMC3    C6 9631   4.083   0.639  15.087  0.1209 -0.5125  0.3161
  647TMC3     C 9632   3.944   0.772  14.725 -0.1903 -0.2283  1.1062
  647TMC3     O 9633   3.824   0.796  14.723 -0.4393 -0.1442  0.6496
  647TMC3     H 9634   3.854   0.559  14.848  1.0491 -0.8420 -0.7633
  647TMC3    H1 9635   4.151   0.857  14.835  1.1221  1.3175  1.7691
  647TMC3    H2 9636   4.127   0.594  15.176 -0.5722 -1.8678 -0.0304
  647TMC3    C7 9637   4.298   0.717  15.034 -0.2140  0.1642  0.4215
  647TMC3    C8 9638   4.005   0.439  15.050 -0.1076  0.8160  0.3469
  647TMC3    O1 9639   4.340   0.626  15.112 -0.4419  0.2911  0.4490
  647TMC3    O2 9640   4.020   0.394  15.163 -0.2385 -0.0600 -0.3034
  648TMC3    C1 9641   3.378   3.004  15.885 -0.3544  0.1846  0.0934
  648TMC3    C2 9642   3.355   2.871  15.865 -1.0446 -0.1441  0.0001
  648TMC3    C3 9643   3.312   2.820  15.743  0.9963  0.7505  0.0859
  648TMC3    C4 9644   3.362   3.088  15.783 -0.0064  0.1994  0.0954
  648TMC3    C5 9645   3.310   3.038  15.663 -0.3208  0.7065 -0.1009
  648TMC3    C6 9646   3.292   2.904  15.636 -0.3702 -0.3075  0.1126
  648TMC3     C 9647   3.405   3.054  16.020 -0.3991 -0.1018 -0.5224
  648TMC3     O 9648   3.434   3.174  16.024 -0.1976  0.0747  0.2004
  648TMC3     H 9649   3.368   2.802  15.947 -0.2175 -0.1188 -0.1187
  648TMC3    H1 9650   3.395   3.191  15.791  1.7275 -0.2836 -0.7093
  648TMC3    H2 9651   3.256   2.873  15.539 -0.4593 -0.1697  0.1021
  648TMC3    C7 9652   3.269   3.147  15.573  0.4541  0.4636  0.0828
  648TMC3    C8 9653   3.302   2.675  15.717  0.1017  0.1265  0.6975
  648TMC3    O1 9654   3.249   3.123  15.456  0.1671  0.1224  0.2189
  648TMC3    O2 9655   3.210   2.638  15.649  0.0607 -0.2705  0.2677
  649TMC3    C1 9656   2.464   4.204  12.780  0.5758  0.2889 -0.2912
  649TMC3    C2 9657   2.493   4.325  12.832  0.0832  0.3784  0.6273
  649TMC3    C3 9658   2.508   4.334  12.965 -0.6117 -0.1734 -0.4938
  649TMC3    C4 9659   2.408   4.104  12.864  0.6320  0.0114 -0.1287
  649TMC3    C5 9660   2.435   4.117  12.995  0.5774 -0.0202 -0.7781
  649TMC3    C6 9661   2.475   4.230  13.052  0.5567  0.3370 -0.2430
  649TMC3     C 9662   2.366   4.217  12.681  1.0115 -0.5241 -0.1860
  649TMC3     O 9663   2.250   4.221  12.717  0.3534  0.0622  0.1609
  649TMC3     H 9664   2.512   4.406  12.763 -1.1879  1.6346  1.7563
  649TMC3    H1 9665   2.366   4.018  12.814  1.2395 -1.1446  1.3624
  649TMC3    H2 9666   2.491   4.243  13.159 -0.7555  0.8612 -0.1186
  649TMC3    C7 9667   2.392   4.008  13.075 -0.2707 -0.9042  0.5483
  649TMC3    C8 9668   2.548   4.456  13.033  0.0346  0.4446  0.2162
  649TMC3    O1 9669   2.270   3.983  13.075  0.1661 -0.4090  0.1294
  649TMC3    O2 9670   2.540   4.470  13.157 -0.3687 -0.0210  0.7933
  650TMC3    C1 9671   4.604   0.589  12.705  0.2520  0.4819  0.4724
  650TMC3    C2 9672   4.550   0.693  12.780  0.2298 -0.7850  0.1521
  650TMC3    C3 9673   4.472   0.780  12.703 -0.2371  0.0224 -0.1820
  650TMC3    C4 9674   4.581   0.558  12.578  0.6918  0.6515  0.4314
  650TMC3    C5 9675   4.514   0.648  12.508 -0.2760 -0.0908  0.3989
  650TMC3    C6 9676   4.461   0.765  12.567 -1.0771 -0.4700  0.5699
  650TMC3     C 9677   4.680   0.484  12.774 -0.2676  0.5144 -1.1812
  650TMC3     O 9678   4.704   0.383  12.707  0.6819  0.7161  0.1239
  650TMC3     H 9679   4.551   0.705  12.887  1.6982  0.2748  0.0196
  650TMC3    H1 9680   4.632   0.484  12.517 -0.8191  1.5031 -1.8817
  650TMC3    H2 9681   4.402   0.836  12.511  0.4191  0.8262  0.6474
  650TMC3    C7 9682   4.571   0.674  12.376 -0.2509 -0.6705  0.1203
  650TMC3    C8 9683   4.467   0.916  12.750 -0.8168  0.3726 -0.6028
  650TMC3    O1 9684   4.558   0.597  12.281 -0.7946  0.2148 -0.1095
  650TMC3    O2 9685   4.560   0.943  12.826  0.3633  0.1877  0.3797
  651MPD2     C 9686   3.264   2.191  10.590 -0.3841  0.2224 -0.5134
  651MPD2    C1 9687   3.232   2.327  10.582 -0.1256  0.9600  0.4354
  651MPD2    C2 9688   3.333   2.415  10.568 -0.4675  0.0639 -0.4026
  651MPD2    C3 9689   3.459   2.373  10.558  0.3598  0.8185 -0.9855
  651MPD2    C4 9690   3.492   2.238  10.572  0.3143  0.4020 -0.2424
  651MPD2    C5 9691   3.392   2.143  10.589 -0.2354  0.4209  0.7590
  651MPD2     H 9692   3.308   2.518  10.546 -1.6564  0.1746  1.3886
  651MPD2    H1 9693   3.593   2.206  10.548 -0.2855 -0.3931 -1.7006
  651MPD2    H2 9694   3.184   2.117  10.588 -1.5729  1.5381 -1.9078
  651MPD2    H3 9695   3.404   2.035  10.589  0.6149  0.5197  3.3865
  651MPD2     N 9696   3.561   2.472  10.542  0.2180  0.2839 -0.0923
  651MPD2    H5 9697   3.529   2.568  10.534  2.3401  1.2116  2.4278
  651MPD2    N1 9698   3.103   2.378  10.582  0.0711 -0.3454  0.3398
  651MPD2    H7 9699   3.093   2.478  10.563  1.3241 -0.2289  0.2925
  652TMC3    C1 9700   3.945   2.685  10.412  0.1111 -0.0669  0.5342
  652TMC3    C2 9701   3.883   2.582  10.473  0.1661  0.3603 -0.4583
  652TMC3    C3 9702   3.749   2.585  10.491 -0.0841  0.7575  0.1210
  652TMC3    C4 9703   3.878   2.802  10.372 -0.8973 -0.2948  0.2841
  652TMC3    C5 9704   3.740   2.808  10.387  0.2949 -0.6579 -0.2781
  652TMC3    C6 9705   3.677   2.692  10.439  0.0484 -0.2698  0.5765
  652TMC3     C 9706   4.079   2.704  10.465  0.0511 -0.4608 -0.1376
  652TMC3     O 9707   4.096   2.646  10.575 -0.1051  0.1747  0.6856
  652TMC3     H 9708   3.939   2.497  10.511  2.0080  1.6860 -0.1862
  652TMC3    H1 9709   3.932   2.873  10.310 -0.2452 -0.1488  1.0058
  652TMC3    H2 9710   3.569   2.697  10.437  0.1072  0.8243  0.3701
  652TMC3    C7 9711   3.661   2.904  10.310  0.4768 -0.1042  0.9924
  652TMC3    C8 9712   3.700   2.455  10.525  0.6700 -0.0158  0.1566
  652TMC3    O1 9713   3.564   2.854  10.261 -0.2260 -0.3413 -0.3618
  652TMC3    O2 9714   3.770   2.354  10.532  0.1947 -0.0931  0.5288
  653MPD2     C 9715   2.698   3.138  17.592 -0.0442  1.4543 -0.6394
  653MPD2    C1 9716   2.653   3.243  17.506 -0.5026 -0.5418 -0.4954
  653MPD2    C2 9717   2.565   3.207  17.403 -0.3726 -0.5345 -0.4624
  653MPD2    C3 9718   2.517   3.079  17.391  0.4093 -0.1945  0.7144
  653MPD2    C4 9719   2.566   2.985  17.478 -0.0624 -0.4749  0.1576
  653MPD2    C5 9720   2.655   3.012  17.572  0.0161 -0.2226  0.1181
  653MPD2     H 9721   2.539   3.285  17.333 -3.6219 -1.9569 -0.8727
  653MPD2    H1 9722   2.531   2.882  17.478 -1.1387 -0.1071  1.4760
  653MPD2    H2 9723   2.768   3.169  17.668 -1.3273  3.6270 -0.3274
  653MPD2    H3 9724   2.696   2.937  17.638 -1.2786  1.2588  2.5977
  653MPD2     N 9725   2.435   3.054  17.284 -0.4710 -0.0710  0.1580
  653MPD2    H5 9726   2.416   3.131  17.220  1.9402  1.5117  1.3683
  653MPD2    N1 9727   2.679   3.380  17.531 -0.1949 -0.0518  0.4420
  653MPD2    H7 9728   2.730   3.399  17.617  2.0109  0.7095 -1.0205
  654TMC3    C1 9729   2.290   2.945  17.135  0.6975 -0.0885 -0.4356
  654TMC3    C2 9730   2.233   3.061  17.090  0.2534 -0.0464 -0.7040
  654TMC3    C3 9731   2.193   3.060  16.960  0.1012  0.1634  0.3111
  654TMC3    C4 9732   2.291   2.830  17.063 -0.0132  1.1367 -0.0248
  654TMC3    C5 9733   2.244   2.831  16.932 -0.6034 -0.0820 -0.3957
  654TMC3    C6 9734   2.198   2.950  16.881  0.1673  0.0139  0.1950
  654TMC3     C 9735   2.374   2.940  17.255  0.6513 -0.4203 -0.4175
  654TMC3     O 9736   2.395   2.834  17.309  0.2236  0.5507 -0.5093
  654TMC3     H 9737   2.241   3.157  17.141  0.3786 -0.6599  0.4254
  654TMC3    H1 9738   2.341   2.749  17.115  1.4063  2.7242  1.0714
  654TMC3    H2 9739   2.140   2.948  16.789  0.3507 -2.4115  0.1222
  654TMC3    C7 9740   2.258   2.717  16.848  0.1640  0.2817  0.0227
  654TMC3    C8 9741   2.095   3.152  16.896 -0.2934 -0.0481  0.3305
  654TMC3    O1 9742   2.250   2.733  16.729  0.0047  0.6609  0.0151
  654TMC3    O2 9743   1.989   3.100  16.857 -0.0816 -0.9201  0.3438
  655MPD2     C 9744   3.965   3.146  15.569  0.8043 -0.1661  0.5523
  655MPD2    C1 9745   3.951   3.239  15.472 -0.2190 -0.3779  0.5933
  655MPD2    C2 9746   3.917   3.202  15.341 -0.2419  0.6254  0.7392
  655MPD2    C3 9747   3.907   3.063  15.318 -0.4044  0.6940 -0.3384
  655MPD2    C4 9748   3.926   2.965  15.415 -0.6985 -0.0306 -0.6044
  655MPD2    C5 9749   3.954   3.011  15.540 -0.1633 -0.5664 -0.5829
  655MPD2     H 9750   3.900   3.275  15.263 -0.5429 -0.4254 -0.1663
  655MPD2    H1 9751   3.921   2.859  15.393  0.6251  0.3535 -2.7488
  655MPD2    H2 9752   4.005   3.167  15.668 -1.1186  1.0106  1.0694
  655MPD2    H3 9753   4.006   2.941  15.604 -2.4734 -2.0559 -0.3193
  655MPD2     N 9754   3.872   3.014  15.189 -0.7554  0.2075  0.8378
  655MPD2    H5 9755   3.849   2.916  15.176  1.8484 -0.1955 -0.9120
  655MPD2    N1 9756   3.937   3.379  15.499 -0.2661 -0.3939  0.4065
  655MPD2    H7 9757   3.901   3.435  15.423 -0.9856 -0.1165  0.9473
  656TMC3    C1 9758   3.827   3.533  15.633  0.8531  0.6704  0.3993
  656TMC3    C2 9759   3.738   3.518  15.737 -0.2652  0.4300 -0.2571
  656TMC3    C3 9760   3.619   3.584  15.736 -0.5843  0.2380 -0.0845
  656TMC3    C4 9761   3.798   3.623  15.532  0.4737 -0.5822 -0.8621
  656TMC3    C5 9762   3.679   3.696  15.537  0.4002  0.4974 -0.9144
  656TMC3    C6 9763   3.587   3.664  15.631 -0.8673  0.5106 -0.1949
  656TMC3     C 9764   3.935   3.433  15.625  0.2546  0.8461  0.2748
  656TMC3     O 9765   3.971   3.383  15.732  0.5756 -0.0581  0.1230
  656TMC3     H 9766   3.764   3.448  15.816 -0.5438 -0.9738 -1.4129
  656TMC3    H1 9767   3.874   3.640  15.456  1.4861  0.7253  0.4481
  656TMC3    H2 9768   3.482   3.679  15.611 -0.5828  1.6123 -0.9121
  656TMC3    C7 9769   3.629   3.770  15.421 -0.3047 -0.6378 -0.0050
  656TMC3    C8 9770   3.517   3.534  15.821  0.3667 -0.5205  0.6520
  656TMC3    O1 9771   3.692   3.759  15.314  0.4157  1.2837 -0.0053
  656TMC3    O2 9772   3.515   3.413  15.848  0.2617 -0.4234 -0.2775
  657TMC3    C1 9773   2.761   2.564  14.900 -0.1693 -1.0414 -0.2128
  657TMC3    C2 9774   2.727   2.516  15.021  0.5595  0.6445 -0.3851
  657TMC3    C3 9775   2.618   2.574  15.079  0.3069  0.2107  0.1669
  657TMC3    C4 9776   2.692   2.658  14.828  0.6746  0.1897  0.5273
  657TMC3    C5 9777   2.596   2.716  14.894 -0.2395 -0.2944 -1.2690
  657TMC3    C6 9778   2.552   2.676  15.016  0.0500  0.2429  0.1984
  657TMC3     C 9779   2.868   2.505  14.822 -0.7346 -0.3522 -0.6886
  657TMC3     O 9780   2.855   2.518  14.702 -0.2459 -0.6487  0.4163
  657TMC3     H 9781   2.783   2.433  15.064 -1.8204 -0.6859  0.1087
  657TMC3    H1 9782   2.723   2.692  14.731  0.9027 -0.7523  0.2656
  657TMC3    H2 9783   2.467   2.717  15.069  0.4894 -1.3092  2.1076
  657TMC3    C7 9784   2.522   2.815  14.814  0.2025  0.2355 -0.6412
  657TMC3    C8 9785   2.563   2.512  15.202 -0.8156  0.7013 -0.2748
  657TMC3    O1 9786   2.532   2.808  14.689  0.0948  0.0965 -0.3384
  657TMC3    O2 9787   2.651   2.457  15.275 -0.2569  0.4915 -0.2309
  658MPD2     C 9788   4.226   3.143  14.475 -0.3091 -0.0115  0.4707
  658MPD2    C1 9789   4.108   3.081  14.465  0.9676  0.0446 -0.2477
  658MPD2    C2 9790   4.049   3.070  14.341  0.4579 -0.0191  0.0056
  658MPD2    C3 9791   4.105   3.124  14.224 -0.1077  0.1892 -0.4928
  658MPD2    C4 9792   4.235   3.177  14.236  1.2288 -0.0419  0.2778
  658MPD2    C5 9793   4.294   3.176  14.362 -0.2738 -0.5473  0.8504
  658MPD2     H 9794   3.955   3.018  14.335  0.9139 -0.9327  0.8555
  658MPD2    H1 9795   4.296   3.191  14.147  2.1551 -0.3828  0.8598
  658MPD2    H2 9796   4.271   3.153  14.573  0.6194  1.1893 -0.0892
  658MPD2    H3 9797   4.394   3.214  14.384  1.1187 -2.6630 -1.8613
  658MPD2     N 9798   4.040   3.107  14.104 -0.2126  0.0502 -0.2270
  658MPD2    H5 9799   3.948   3.064  14.097  0.1010 -0.2923 -2.0870
  658MPD2    N1 9800   4.038   3.041  14.588 -0.3770 -0.3167  1.0925
  658MPD2    H7 9801   4.092   3.059  14.672 -0.1416  1.4310  0.5568
  659TMC3    C1 9802   3.857   2.965  14.726  0.5273  1.1346  0.1488
  659TMC3    C2 9803   3.917   3.024  14.835 -0.2416 -0.2510  0.0371
  659TMC3    C3 9804   3.842   3.017  14.949  0.2680  0.5606 -0.1598
  659TMC3    C4 9805   3.720   2.935  14.716 -0.1275 -0.5138  0.0082
  659TMC3    C5 9806   3.652   2.936  14.835 -0.1069  0.2201  1.1328
  659TMC3    C6 9807   3.711   2.978  14.955  0.1953 -0.2889  0.4978
  659TMC3     C 9808   3.921   2.975  14.593 -0.7888 -0.7534  0.1649
  659TMC3     O 9809   3.866   2.904  14.511  0.5859  0.1647  0.1652
  659TMC3     H 9810   4.019   3.061  14.837 -1.1594  2.2617  0.6640
  659TMC3    H1 9811   3.675   2.914  14.620  1.5614 -1.7959 -0.5027
  659TMC3    H2 9812   3.659   2.961  15.049  0.8514  1.8100  1.2196
  659TMC3    C7 9813   3.503   2.932  14.827  0.5750  0.1425 -0.5759
  659TMC3    C8 9814   3.900   3.082  15.074  0.1617  0.3371 -0.2382
  659TMC3    O1 9815   3.435   3.008  14.893 -0.1060  0.6400  0.3905
  659TMC3    O2 9816   3.978   3.175  15.056 -0.1984 -0.6465 -0.1197
  660MPD2     C 9817   1.752   1.882  12.366  0.2126  0.2671 -0.1116
  660MPD2    C1 9818   1.638   1.807  12.343  1.5325 -0.2848  0.0373
  660MPD2    C2 9819   1.609   1.708  12.431 -0.2210 -0.8564 -0.5495
  660MPD2    C3 9820   1.679   1.691  12.548 -0.1104 -0.1737 -0.5763
  660MPD2    C4 9821   1.790   1.765  12.565  0.1732  0.0542  0.0172
  660MPD2    C5 9822   1.831   1.852  12.473  0.0710  1.0627  0.4957
  660MPD2     H 9823   1.518   1.650  12.426  1.0416 -2.6899 -2.3602
  660MPD2    H1 9824   1.846   1.743  12.656 -0.7947 -0.7113  0.4265
  660MPD2    H2 9825   1.778   1.956  12.291  1.1359  0.4231  0.3617
  660MPD2    H3 9826   1.925   1.907  12.476  1.5336 -1.4740  1.2893
  660MPD2     N 9827   1.651   1.591  12.650 -0.0698  0.0499  0.1609
  660MPD2    H5 9828   1.685   1.604  12.745  1.1789 -0.0883 -0.2627
  660MPD2    N1 9829   1.565   1.820  12.223  0.1644 -0.0602  0.3681
  660MPD2    H7 9830   1.598   1.886  12.153 -0.9685  0.3896  0.2528
  661TMC3    C1 9831   1.387   1.812  12.072  0.2264 -0.2464 -0.2772
  661TMC3    C2 9832   1.455   1.893  11.983  0.0897 -0.2706 -0.3741
  661TMC3    C3 9833   1.381   1.975  11.891  0.1836 -0.0864  0.7885
  661TMC3    C4 9834   1.255   1.835  12.089 -0.2943 -0.4798  0.1646
  661TMC3    C5 9835   1.181   1.902  11.997  0.2215 -0.2426  0.4050
  661TMC3    C6 9836   1.243   1.968  11.891 -0.4111  0.2835  0.0895
  661TMC3     C 9837   1.454   1.750  12.188 -0.1053 -0.6904  0.2135
  661TMC3     O 9838   1.383   1.677  12.257 -0.1567  0.9537 -0.2834
  661TMC3     H 9839   1.562   1.888  11.963 -0.5145 -0.4002 -3.5123
  661TMC3    H1 9840   1.203   1.791  12.174 -2.4532  0.8170 -0.4778
  661TMC3    H2 9841   1.181   2.040  11.839 -0.4510 -0.9742 -1.6108
  661TMC3    C7 9842   1.037   1.904  12.013  0.1760  0.3215 -0.1775
  661TMC3    C8 9843   1.444   2.027  11.773  0.4951 -0.2157  0.2750
  661TMC3    O1 9844   0.993   1.883  12.126 -0.4999  0.7672 -0.2285
  661TMC3    O2 9845   1.565   2.016  11.769  0.3768  0.0760 -0.1129
  662MPD2     C 9846   2.157   1.853  16.634  0.3335 -0.2325  0.1831
  662MPD2    C1 9847   2.181   1.778  16.746  0.5493  0.0309 -0.5219
  662MPD2    C2 9848   2.157   1.835  16.873 -0.6635  0.4975 -0.6286
  662MPD2    C3 9849   2.111   1.966  16.892  0.2535 -0.1884 -0.5015
  662MPD2    C4 9850   2.097   2.038  16.781 -0.1356 -0.0377 -0.0088
  662MPD2    C5 9851   2.121   1.983  16.658  0.8341 -0.2765  0.0230
  662MPD2     H 9852   2.177   1.770  16.958  1.5238  0.6376 -1.0202
  662MPD2    H1 9853   2.077   2.145  16.788  1.1469  0.2467 -0.8224
  662MPD2    H2 9854   2.146   1.816  16.532  0.1409 -0.0815  0.1486
  662MPD2    H3 9855   2.090   2.048  16.577 -2.7925 -2.0165  0.0053
  662MPD2     N 9856   2.062   2.019  17.016  0.0565 -0.0651  0.4772
  662MPD2    H5 9857   2.012   2.106  17.029 -0.2555  0.0175 -1.2736
  662MPD2    N1 9858   2.216   1.643  16.754 -0.0407 -0.4240  0.7431
  662MPD2    H7 9859   2.237   1.601  16.844 -0.2290 -0.2783  0.8534
  663TMC3    C1 9860   2.219   1.428  16.689  0.2175  0.9514  0.0730
  663TMC3    C2 9861   2.262   1.394  16.814 -0.1337  0.5789  0.7413
  663TMC3    C3 9862   2.202   1.292  16.883 -0.0654 -0.9966 -0.6659
  663TMC3    C4 9863   2.150   1.335  16.613  0.7799 -0.5123  0.3269
  663TMC3    C5 9864   2.111   1.218  16.672  0.1756  0.5282  0.2515
  663TMC3    C6 9865   2.136   1.198  16.808 -0.4495 -0.3890 -0.1251
  663TMC3     C 9866   2.223   1.562  16.643 -0.1580  0.2481  0.6235
  663TMC3     O 9867   2.200   1.597  16.526 -0.6386  0.3664 -0.5147
  663TMC3     H 9868   2.323   1.465  16.867  0.7228  0.0970  0.3996
  663TMC3    H1 9869   2.118   1.361  16.512  1.3371 -0.0919  0.2536
  663TMC3    H2 9870   2.059   1.141  16.858  1.7082 -2.0070  1.3339
  663TMC3    C7 9871   2.021   1.133  16.602 -0.6784 -0.3062 -0.1125
  663TMC3    C8 9872   2.119   1.354  16.975  0.1244  0.0062 -0.1571
  663TMC3    O1 9873   1.968   1.166  16.497  0.3701 -0.7082 -0.3359
  663TMC3    O2 9874   2.113   1.478  16.979  0.5756 -0.5492 -0.2614
  664MPD2     C 9875   4.482   4.442  17.680  1.0528 -0.2109  0.3142
  664MPD2    C1 9876   4.616   4.461  17.654 -0.7547  0.0483 -0.2576
  664MPD2    C2 9877   4.699   4.427  17.753 -0.4029 -0.2220 -0.8041
  664MPD2    C3 9878   4.653   4.394   0.127  0.3375 -0.1613 -0.8203
  664MPD2    C4 9879   4.521   4.389   0.154  0.6341  0.1009  0.1217
  664MPD2    C5 9880   4.438   4.406   0.048 -0.9472 -0.5011  0.0870
  664MPD2     H 9881   0.064   4.448  17.734 -1.0037  3.9221  0.3955
  664MPD2    H1 9882   4.481   4.356   0.249 -0.2393  0.8041  0.0039
  664MPD2    H2 9883   4.409   4.470  17.604 -0.6618 -2.8716  1.0152
  664MPD2    H3 9884   4.331   4.390   0.051 -0.9567  0.1828  2.6710
  664MPD2     N 9885   0.009   4.383   0.229 -0.4707  0.2679  0.6450
  664MPD2    H5 9886   0.107   4.402   0.214 -0.3628 -0.3680  0.5657
  664MPD2    N1 9887   4.675   4.511  17.538 -0.6703 -0.0599 -0.0076
  664MPD2    H7 9888   0.037   4.515  17.534 -0.8107  0.8548 -2.7537
  665TMC3    C1 9889   0.103   4.393   0.440 -0.2293 -0.1168  0.0537
  665TMC3    C2 9890   0.144   4.321   0.542  0.8198  0.3075  0.0626
  665TMC3    C3 9891   0.223   4.387   0.634 -0.4481 -0.5099  0.7493
  665TMC3    C4 9892   0.126   4.532   0.440 -0.4806 -0.6073  0.1941
  665TMC3    C5 9893   0.208   4.590   0.530  0.5277 -0.5998  0.0654
  665TMC3    C6 9894   0.262   4.516   0.628  0.1235 -0.0147 -0.5176
  665TMC3     C 9895   4.729   4.346   0.362 -0.3562  0.1368  0.5637
  665TMC3     O 9896   4.639   4.272   0.409 -0.0820 -0.0814  0.1056
  665TMC3     H 9897   0.133   4.213   0.536  2.3030  0.1516  0.2825
  665TMC3    H1 9898   0.088   4.588   0.355  0.1704 -2.1093 -1.0758
  665TMC3    H2 9899   0.329   4.560   0.701  0.4893 -2.4002  0.6192
  665TMC3    C7 9900   0.238   4.729   0.500 -0.0374  0.3422 -0.3390
  665TMC3    C8 9901   0.257   4.313   0.756 -0.1329  0.5176 -0.6844
  665TMC3    O1 9902   0.162   0.045   0.421 -0.0369  0.3024  0.5792
  665TMC3    O2 9903   0.348   4.359   0.826 -0.0632 -0.1055  0.4775
  666TMC3    C1 9904   3.251   4.536  10.207  0.5605  0.6340  0.2460
  666TMC3    C2 9905   3.319   4.472  10.106  0.0660  0.1326  0.7641
  666TMC3    C3 9906   3.441   4.532  10.072  0.1509 -0.3784  0.0957
  666TMC3    C4 9907   3.310   4.636  10.291  0.3799  0.2078  0.1665
  666TMC3    C5 9908   3.428   4.688  10.246 -0.5212 -0.8467  0.6141
  666TMC3    C6 9909   3.491   4.647  10.135  0.1201  0.1773  0.4030
  666TMC3     C 9910   3.156   4.452  10.269  0.1685 -0.3082 -0.3323
  666TMC3     O 9911   3.127   4.478  10.388 -0.0078  0.1259 -0.3652
  666TMC3     H 9912   3.288   4.384  10.050  1.2125 -0.6489  1.3643
  666TMC3    H1 9913   3.268   4.676  10.382  1.4083  0.4044  0.5480
  666TMC3    H2 9914   3.585   4.690  10.104 -0.8651  0.8656 -1.6767
  666TMC3    C7 9915   3.485   0.060  10.320 -0.6202  0.0204  0.1584
  666TMC3    C8 9916   3.537   4.449  10.005  0.3512  0.5503 -0.1401
  666TMC3    O1 9917   3.427   0.090  10.423 -0.5261 -0.3228  0.1031
  666TMC3    O2 9918   3.646   4.425  10.058 -0.2145  0.1094 -0.3225
  667MPD2     C 9919   0.910   0.063  14.183  0.2903  0.1338  0.6379
  667MPD2    C1 9920   0.966   4.720  14.278 -0.4846 -0.2087 -0.2113
  667MPD2    C2 9921   0.930   4.589  14.282 -0.6961 -0.3883 -0.0150
  667MPD2    C3 9922   0.836   4.535  14.191  0.4577  0.1254  0.0376
  667MPD2    C4 9923   0.775   4.617  14.096 -0.4612  0.5595  0.1980
  667MPD2    C5 9924   0.814   0.013  14.099  0.0207 -0.1535 -0.3733
  667MPD2     H 9925   0.981   4.528  14.356 -0.4736  3.4324  3.0095
  667MPD2    H1 9926   0.706   4.585  14.020 -2.3322  2.3152  1.1615
  667MPD2    H2 9927   0.917   0.172  14.178  1.7317 -0.1073 -2.5854
  667MPD2    H3 9928   0.774   0.069  14.015 -0.6613 -0.8311 -0.5012
  667MPD2     N 9929   0.804   4.391  14.185 -0.3798  0.1439  0.4655
  667MPD2    H5 9930   0.743   4.355  14.112  0.7886  1.1515 -0.9943
  667MPD2    N1 9931   1.057   0.033  14.376  0.4307 -0.1699 -0.2336
  667MPD2    H7 9932   1.088   4.713  14.452 -0.9888 -0.7850 -0.1480
  668TMC3    C1 9933   1.183   0.194  14.498  0.0158 -0.3847 -0.2131
  668TMC3    C2 9934   1.248   0.316  14.497  0.5889  0.7240  0.7609
  668TMC3    C3 9935   1.265   0.382  14.619  0.6716  0.5645 -0.1784
  668TMC3    C4 9936   1.145   0.135  14.612  0.0577 -0.3285  0.1809
  668TMC3    C5 9937   1.185   0.191  14.732  0.0064 -0.0914 -0.8336
  668TMC3    C6 9938   1.235   0.317  14.743 -0.2435 -0.0898  0.0284
  668TMC3     C 9939   1.115   0.159  14.379 -0.9532 -0.4022 -0.7654
  668TMC3     O 9940   1.104   0.251  14.307  0.4229 -0.2299 -0.5383
  668TMC3     H 9941   1.271   0.371  14.406 -0.7625 -1.1838 -0.7451
  668TMC3    H1 9942   1.087   0.044  14.612 -2.3275  1.2054 -0.5473
  668TMC3    H2 9943   1.260   0.364  14.838  0.9009 -0.1597 -0.2381
  668TMC3    C7 9944   1.127   0.143  14.855  0.0507  0.5876 -0.5253
  668TMC3    C8 9945   1.355   0.494  14.637 -0.3090 -0.2691  0.8488
  668TMC3    O1 9946   1.100   0.230  14.938 -0.2351  0.4457 -0.3465
  668TMC3    O2 9947   1.348   0.569  14.735 -0.0156 -0.2642 -0.1023
  669TMC3    C1 9948   3.918   4.508  14.545 -0.1832 -0.3120  0.2079
  669TMC3    C2 9949   3.806   4.499  14.464  0.1285  0.0429  0.4813
  669TMC3    C3 9950   3.804   4.589  14.360  0.2012  0.2372  0.2207
  669TMC3    C4 9951   4.028   4.578  14.504 -0.5693 -0.0956  0.4899
  669TMC3    C5 9952   4.011   4.670  14.412 -0.2942  0.4258 -0.3812
  669TMC3    C6 9953   3.906   4.678  14.328 -0.1459  0.5691 -0.2613
  669TMC3     C 9954   3.962   4.391  14.625 -0.5323 -0.3964 -0.1318
  669TMC3     O 9955   4.076   4.362  14.602 -0.2398 -0.2080 -0.7376
  669TMC3     H 9956   3.725   4.433  14.490 -0.3489  1.2237  2.0189
  669TMC3    H1 9957   4.124   4.577  14.554 -0.0701 -1.0636 -0.4929
  669TMC3    H2 9958   3.894   0.009  14.246 -0.8772 -0.1109 -0.7360
  669TMC3    C7 9959   4.120   0.022  14.381 -0.0540 -0.5671 -0.4547
  669TMC3    C8 9960   3.683   4.603  14.286  0.6786  0.0129  0.0390
  669TMC3    O1 9961   4.168   0.081  14.477 -0.2115 -0.0205 -0.1134
  669TMC3    O2 9962   3.615   4.500  14.285 -0.3955 -0.8926  0.1304
  670MPD2     C 9963   2.251   2.059  12.642  0.1232  0.3295  0.0006
  670MPD2    C1 9964   2.300   2.120  12.755  0.4810  0.4369 -0.0203
  670MPD2    C2 9965   2.275   2.071  12.882  0.5403  0.1819 -0.2557
  670MPD2    C3 9966   2.191   1.960  12.901  0.4900 -0.5324 -0.3286
  670MPD2    C4 9967   2.146   1.903  12.791  0.2364 -0.5053  0.3234
  670MPD2    C5 9968   2.172   1.950  12.664 -0.2168  0.4026 -0.5284
  670MPD2     H 9969   2.312   2.127  12.967 -2.0822  2.4734 -0.6391
  670MPD2    H1 9970   2.076   1.821  12.785  0.4878 -0.7266  0.3852
  670MPD2    H2 9971   2.275   2.092  12.542  0.2801  0.2812  0.0226
  670MPD2    H3 9972   2.130   1.896  12.580 -2.2610  0.0512  0.7267
  670MPD2     N 9973   2.174   1.914  13.038 -0.0322  0.3732 -0.4208
  670MPD2    H5 9974   2.231   1.955  13.111 -1.4245  3.0820 -0.8659
  670MPD2    N1 9975   2.379   2.234  12.750 -0.1918 -0.0257  0.3395
  670MPD2    H7 9976   2.413   2.270  12.838  1.6690 -1.3493  0.1620
  671TMC3    C1 9977   2.078   1.806  13.222 -0.5376 -0.1583  0.0072
  671TMC3    C2 9978   2.105   1.924  13.293  0.1436 -0.2130  0.5934
  671TMC3    C3 9979   2.078   1.909  13.427 -0.2476 -0.5353 -0.3003
  671TMC3    C4 9980   2.041   1.692  13.278  0.2340  0.1275 -0.4735
  671TMC3    C5 9981   2.025   1.678  13.413 -0.1719 -0.1018 -0.4709
  671TMC3    C6 9982   2.042   1.792  13.488 -0.8357 -0.5766 -0.3821
  671TMC3     C 9983   2.091   1.812  13.079 -0.1675 -0.5699 -0.5053
  671TMC3     O 9984   2.021   1.734  13.017 -0.3546  0.5062  0.0346
  671TMC3     H 9985   2.113   2.022  13.248 -0.0545 -1.1210 -1.4208
  671TMC3    H1 9986   2.014   1.603  13.222  1.2518  0.8464 -2.1248
  671TMC3    H2 9987   2.025   1.794  13.595 -1.2424 -3.0155 -0.4029
  671TMC3    C7 9988   1.981   1.550  13.466 -0.3950  0.5438 -0.7370
  671TMC3    C8 9989   2.052   2.032  13.504 -0.0425  0.2396 -1.2358
  671TMC3    O1 9990   1.962   1.458  13.386 -0.2133 -0.4356  0.8573
  671TMC3    O2 9991   1.933   2.056  13.525 -0.4520 -0.0107 -0.3951
  672MPD2     C 9992   2.783   3.073   0.549  0.0591  0.3837 -0.1251
  672MPD2    C1 9993   2.838   2.954   0.582 -0.0874 -0.2689 -0.5864
  672MPD2    C2 9994   2.973   2.951   0.616 -0.1167 -0.1534 -0.0845
  672MPD2    C3 9995   3.053   3.064   0.619 -0.0303  0.5354  0.0627
  672MPD2    C4 9996   2.995   3.181   0.595 -0.5327  0.7669 -0.5494
  672MPD2    C5 9997   2.863   3.181   0.557  0.8654 -0.9514 -0.5033
  672MPD2     H 9998   3.021   2.860   0.652  0.8036 -0.4927 -2.1512
  672MPD2    H1 9999   3.051   3.274   0.593 -0.2364  0.6376  1.2448
  672MPD2    H210000   2.676   3.074   0.528 -0.3889 -2.1344  2.0882
  672MPD2    H310001   2.824   3.279   0.536  2.2958 -0.3519 -0.3870
  672MPD2     N10002   3.185   3.069   0.656  0.0311  0.0799 -0.8040
  672MPD2    H510003   3.224   3.162   0.645 -1.2572  0.8123  0.6367
  672MPD2    N110004   2.768   2.825   0.583 -0.2272 -0.0009 -0.3805
  672MPD2    H710005   2.822   2.740   0.596  0.8491  0.6043 -0.8614
  673TMC3    C110006   2.583   2.680   0.550 -0.0510 -0.0153 -0.0585
  673TMC3    C210007   2.662   2.575   0.514 -0.5290 -0.0755 -0.0304
  673TMC3    C310008   2.591   2.473   0.453 -0.4504 -0.0435 -0.7874
  673TMC3    C410009   2.445   2.680   0.552 -0.1932 -0.0342  0.2235
  673TMC3    C510010   2.382   2.569   0.492 -0.2760  0.2918 -0.4568
  673TMC3    C610011   2.459   2.469   0.436 -0.5239 -0.1268 -0.0894
  673TMC3     C10012   2.632   2.816   0.558 -0.6417 -0.5856 -0.0755
  673TMC3     O10013   2.547   2.904   0.572  0.0557 -0.1586  0.0777
  673TMC3     H10014   2.770   2.585   0.514 -0.5477  0.1653  0.9257
  673TMC3    H110015   2.386   2.763   0.588 -1.6885 -0.9640 -0.1281
  673TMC3    H210016   2.411   2.385   0.387 -2.6569  0.3888  1.1253
  673TMC3    C710017   2.260   2.601   0.418  0.2098 -0.0571  0.0663
  673TMC3    C810018   2.661   2.355   0.410 -0.0210 -0.0349  0.2347
  673TMC3    O110019   2.196   2.508   0.379 -0.5828 -0.8628 -0.1495
  673TMC3    O210020   2.608   2.273   0.343  0.3021 -0.0719  0.1695
  674MPD2     C10021   2.209   3.074  17.523  0.2959  0.4600  0.7113
  674MPD2    C110022   2.143   2.960  17.494  0.2797 -0.1485 -0.3599
  674MPD2    C210023   2.035   2.958  17.403 -0.5352 -0.2563 -0.7831
  674MPD2    C310024   1.991   3.074  17.345 -0.5024 -0.2092  0.6958
  674MPD2    C410025   2.058   3.188  17.372 -0.3119  0.6320  0.2739
  674MPD2    C510026   2.172   3.186  17.448  0.6479  0.1194 -0.4874
  674MPD2     H10027   1.974   2.870  17.387  2.3672 -2.5458  0.8287
  674MPD2    H110028   2.040   3.283  17.323  1.9819  0.0349 -1.7141
  674MPD2    H210029   2.301   3.058  17.577  0.1243  1.0052  1.1563
  674MPD2    H310030   2.237   3.273  17.447  1.1222 -0.2272 -0.0858
  674MPD2     N10031   1.875   3.063  17.269  0.4938 -0.2149 -0.4686
  674MPD2    H510032   1.834   2.971  17.259  0.1962  0.1355 -2.5530
  674MPD2    N110033   2.184   2.841  17.565  1.0734 -0.2411 -0.3198
  674MPD2    H710034   2.243   2.867  17.643  1.2415  1.1557 -0.8927
  675TMC3    C110035   2.182   2.624  17.655 -0.0972  0.2446 -0.8981
  675TMC3    C210036   2.098   2.526  17.693  0.4860 -1.3178  0.9782
  675TMC3    C310037   2.147   2.444   0.043 -0.9803  0.5957 -0.2354
  675TMC3    C410038   2.307   2.649  17.708 -0.1443 -0.3578 -0.6174
  675TMC3    C510039   2.339   2.573   0.060 -0.7109  0.5726  0.0482
  675TMC3    C610040   2.273   2.467   0.100 -0.2883  0.0620 -0.2008
  675TMC3     C10041   2.132   2.715  17.547 -0.0797 -0.4265  0.3171
  675TMC3     O10042   2.042   2.671  17.479  0.8366 -0.0412 -0.6948
  675TMC3     H10043   1.994   2.528  17.665  0.9364  1.7869 -0.4231
  675TMC3    H110044   2.381   2.714  17.663  0.8250  0.1535  1.6911
  675TMC3    H210045   2.306   2.402   0.181  0.1119 -0.1326 -0.5198
  675TMC3    C710046   2.475   2.578   0.092 -0.0984  0.8659  0.2200
  675TMC3    C810047   2.059   2.329   0.093  0.2830 -0.1484  0.1061
  675TMC3    O110048   2.521   2.484   0.149  0.1968  0.2656 -0.1710
  675TMC3    O210049   1.977   2.280   0.014 -0.3258 -0.3455 -0.2999
  676MPD2     C10050   0.403   0.463  10.836 -0.4870 -0.4187 -0.3170
  676MPD2    C110051   0.294   0.465  10.926 -0.8243  0.6771 -0.2254
  676MPD2    C210052   0.282   0.358  11.011 -0.2774  0.0731  0.0406
  676MPD2    C310053   0.357   0.245  10.993  0.1617 -0.6450  0.8983
  676MPD2    C410054   0.464   0.251  10.903 -0.0567  0.1449  0.0943
  676MPD2    C510055   0.490   0.362  10.832 -0.1020 -0.3656 -0.6006
  676MPD2     H10056   0.198   0.354  11.079 -1.0871 -2.9639 -1.1028
  676MPD2    H110057   0.525   0.163  10.890 -1.9980 -1.4886  1.9850
  676MPD2    H210058   0.428   0.542  10.767  0.2540 -0.5260 -0.1626
  676MPD2    H310059   0.565   0.357  10.753 -1.0731  0.2679 -1.5728
  676MPD2     N10060   0.327   0.114  11.040  0.5722  0.6168  0.4282
  676MPD2    H510061   0.402   0.046  11.042 -0.3641 -0.4079  0.2325
  676MPD2    N110062   0.193   0.563  10.943 -0.0184 -0.4115 -0.2168
  676MPD2    H710063   0.108   0.542  10.994 -0.2828 -1.9230 -1.2741
  677TMC3    C110064   0.067   0.736  10.873  0.1786  0.3065  0.6377
  677TMC3    C210065   4.700   0.650  10.864  0.6183  1.1137 -0.3891
  677TMC3    C310066   4.588   0.673  10.945  0.2810  0.2789 -0.0377
  677TMC3    C410067   0.053   0.852  10.944  0.3237 -1.4598  0.2735
  677TMC3    C510068   4.674   0.880  11.006 -0.2877  0.7973  0.3724
  677TMC3    C610069   4.573   0.790  11.020  0.3996  0.3944 -0.5525
  677TMC3     C10070   0.199   0.679  10.874 -0.0861  0.1100  1.1447
  677TMC3     O10071   0.292   0.729  10.810 -0.6707 -0.4088  0.0237
  677TMC3     H10072   4.706   0.561  10.802  2.0383  2.6586 -2.4457
  677TMC3    H110073   0.149   0.904  10.946 -1.1502  1.2709  0.2782
  677TMC3    H210074   4.496   0.808  11.094 -0.7168 -0.3947 -1.5330
  677TMC3    C710075   4.703   0.942  11.131  0.3603 -0.0996  0.1127
  677TMC3    C810076   4.560   0.554  11.025 -0.2567 -0.1006  0.2166
  677TMC3    O110077   4.659   0.894  11.235  0.5985  0.2199 -0.0861
  677TMC3    O210078   4.648   0.469  11.037  0.0184 -0.1453  0.5921
  678MPD2     C10079   2.281   0.043   0.906  0.3975  0.3465  0.0772
  678MPD2    C110080   2.201   0.074   0.791 -0.8863 -0.5066 -0.2089
  678MPD2    C210081   2.071   0.104   0.807 -0.0220 -0.0887 -0.7303
  678MPD2    C310082   2.011   0.122   0.933 -0.0492 -1.2106  0.4037
  678MPD2    C410083   2.093   0.102   1.044 -0.0938 -1.0061 -0.3913
  678MPD2    C510084   2.224   0.055   1.028  0.0730 -0.0312  0.2605
  678MPD2     H10085   2.011   0.123   0.719 -2.2229  0.6557  0.9237
  678MPD2    H110086   2.063   0.126   1.146 -0.8992  2.9052 -1.5440
  678MPD2    H210087   2.388   0.030   0.897  0.4150  1.4270 -1.2904
  678MPD2    H310088   2.291   0.049   1.114  0.1034 -3.2278  0.0268
  678MPD2     N10089   1.877   0.168   0.934 -0.5113 -0.4633 -0.8981
  678MPD2    H510090   1.838   0.192   0.844 -1.2874  0.2803 -0.3580
  678MPD2    N110091   2.265   0.082   0.662 -0.1303  0.4069  0.2755
  678MPD2    H710092   2.208   0.122   0.588  1.1213 -0.4842 -1.1694
  679TMC3    C110093   2.628   0.114   0.374  0.0042 -0.3227  0.5577
  679TMC3    C210094   2.578   0.054   0.487  0.1239  0.4535  0.2850
  679TMC3    C310095   2.440   0.065   0.498  0.5744  0.4179 -0.1665
  679TMC3    C410096   2.557   0.168   0.270  0.1757  0.8603  0.1117
  679TMC3    C510097   2.418   0.171   0.286  0.0966 -0.0937  0.3256
  679TMC3    C610098   2.360   0.120   0.395 -0.7515 -0.2355 -0.2969
  679TMC3     C10099   2.770   0.118   0.350 -0.1506  0.4548 -0.2818
  679TMC3     O10100   2.802   0.115   0.229  0.5529 -0.2697  0.1422
  679TMC3     H10101   2.636   0.004   0.564 -0.0553  0.0388  0.1507
  679TMC3    H110102   2.607   0.218   0.188 -0.3380  0.9610 -0.1384
  679TMC3    H210103   2.252   0.125   0.407 -0.7400 -1.6482  0.3785
  679TMC3    C710104   2.343   0.259   0.196  0.1624  0.1225  0.0765
  679TMC3    C810105   2.388   0.034   0.627 -0.4866  0.1632 -1.0936
  679TMC3    O110106   2.235   0.297   0.244  0.1153 -0.0095  0.1939
  679TMC3    O210107   2.463   4.707   0.700 -0.1413  0.5405 -0.3110
  680MPD2     C10108   1.628   3.765  13.351  0.1215  0.1580  0.3326
  680MPD2    C110109   1.725   3.747  13.438  0.0659  0.6527 -0.1106
  680MPD2    C210110   1.746   3.831  13.548  0.6098  0.1196 -1.5569
  680MPD2    C310111   1.676   3.951  13.560  0.7084  0.2358  0.1290
  680MPD2    C410112   1.570   3.963  13.471 -0.3712  0.7655 -0.2123
  680MPD2    C510113   1.541   3.867  13.376  0.0903 -0.1997  0.0723
  680MPD2     H10114   1.827   3.808  13.616 -0.8283 -1.1490 -0.2711
  680MPD2    H110115   1.507   4.050  13.478 -0.3777  0.7189  0.3001
  680MPD2    H210116   1.618   3.708  13.259 -0.2136 -1.3104  1.2769
  680MPD2    H310117   1.453   3.877  13.315 -0.1123  0.2079  0.4276
  680MPD2     N10118   1.704   4.065  13.644  0.6459  0.1904 -0.0945
  680MPD2    H510119   1.636   4.141  13.652  1.2377  0.5663  1.3455
  680MPD2    N110120   1.819   3.641  13.422  0.0427 -0.6827  0.7344
  680MPD2    H710121   1.896   3.646  13.489 -0.2041 -1.4627  1.0700
  681TMC3    C110122   1.893   3.430  13.393  0.4424 -0.2680 -0.3465
  681TMC3    C210123   1.837   3.375  13.498 -0.2459  0.4911 -0.5526
  681TMC3    C310124   1.895   3.395  13.622 -0.6816 -0.0001 -0.6990
  681TMC3    C410125   2.010   3.483  13.398  0.0248  0.8458  1.1557
  681TMC3    C510126   2.085   3.478  13.511 -0.4257  0.6703  0.1082
  681TMC3    C610127   2.027   3.436  13.623 -0.1377  1.2082  0.4904
  681TMC3     C10128   1.794   3.524  13.349  0.1458  0.0808 -0.1143
  681TMC3     O10129   1.692   3.474  13.295  0.1892  0.1457 -0.2453
  681TMC3     H10130   1.735   3.338  13.487 -0.0576 -0.3592  0.5356
  681TMC3    H110131   2.049   3.513  13.301 -0.7732  0.0759  0.5911
  681TMC3    H210132   2.077   3.433  13.719  1.5175 -2.9222 -0.5089
  681TMC3    C710133   2.219   3.533  13.512 -0.2437 -0.6549 -0.3236
  681TMC3    C810134   1.816   3.449  13.726 -0.4258  0.4770 -0.0029
  681TMC3    O110135   2.290   3.494  13.604 -0.3451 -0.5396  0.0771
  681TMC3    O210136   1.861   3.475  13.831 -0.4916  0.4872  0.2032
  682MPD2     C10137   3.787   1.076  11.256  0.4534 -0.1468 -0.5033
  682MPD2    C110138   3.692   0.983  11.271  0.4986  0.8169 -0.8064
  682MPD2    C210139   3.618   0.983  11.390  1.2057  0.0840  0.4273
  682MPD2    C310140   3.642   1.079  11.492 -0.3837  0.0635  0.0648
  682MPD2    C410141   3.733   1.176  11.464 -0.1237 -0.6330 -1.0470
  682MPD2    C510142   3.797   1.183  11.346  0.2789 -0.6243 -0.5724
  682MPD2     H10143   3.544   0.908  11.415  1.4959  0.2407  1.7535
  682MPD2    H110144   3.758   1.255  11.535 -0.6490  0.1938 -1.7841
  682MPD2    H210145   3.864   1.074  11.179  0.0096  4.1693 -1.0850
  682MPD2    H310146   3.886   1.244  11.344  0.1692 -0.4129  0.8611
  682MPD2     N10147   3.576   1.077  11.615 -0.1336  0.0525  0.0773
  682MPD2    H510148   3.603   1.147  11.683 -0.5517  0.1138  0.1823
  682MPD2    N110149   3.668   0.881  11.180 -0.5435 -0.2677  0.1495
  682MPD2    H710150   3.623   0.804  11.229  0.8413 -0.0710  1.7503
  683TMC3    C110151   3.505   0.928  11.981  0.2751  0.2362 -0.1255
  683TMC3    C210152   3.380   0.872  12.005  0.2358 -0.2229 -0.4512
  683TMC3    C310153   3.284   0.888  11.915 -0.0623  0.0597 -0.6586
  683TMC3    C410154   3.531   1.004  11.872  0.3389 -1.1244 -0.0204
  683TMC3    C510155   3.422   1.014  11.780 -0.7510  0.3648  0.1034
  683TMC3    C610156   3.305   0.957  11.807  0.1230  0.3904 -0.7769
  683TMC3     C10157   3.600   0.933  12.089  0.2452  0.1589  0.1186
  683TMC3     O10158   3.692   1.008  12.090 -0.3814  0.0412 -0.4755
  683TMC3     H10159   3.360   0.816  12.096  2.4260  0.1013  0.2271
  683TMC3    H110160   3.630   1.039  11.847  0.4687 -2.7472 -1.8596
  683TMC3    H210161   3.229   0.963  11.729 -2.3077 -0.0332  1.5866
  683TMC3    C710162   3.454   1.025  11.645  0.7532  0.0367  0.2593
  683TMC3    C810163   3.184   0.786  11.893 -0.1725 -0.6815 -0.2632
  683TMC3    O110164   3.388   0.958  11.567  0.4230 -0.0231 -0.3148
  683TMC3    O210165   3.076   0.816  11.850  0.1431  0.9527  0.7423
  684MPD2     C10166   2.418   0.114  16.478 -0.2139  0.3383 -0.3331
  684MPD2    C110167   2.342   0.129  16.363 -0.4051  0.2278 -0.0981
  684MPD2    C210168   2.264   0.238  16.355 -0.1642  0.2130  0.2214
  684MPD2    C310169   2.254   0.327  16.461 -0.1113  0.2465  0.9159
  684MPD2    C410170   2.325   0.315  16.574 -0.1532  0.1568  0.2745
  684MPD2    C510171   2.408   0.206  16.579  0.1809 -0.3576 -0.0504
  684MPD2     H10172   2.213   0.246  16.260 -0.5854 -5.3491 -0.0703
  684MPD2    H110173   2.334   0.382  16.659 -0.0491 -0.4699  0.7555
  684MPD2    H210174   2.482   0.029  16.502  0.0106  0.2037 -1.4046
  684MPD2    H310175   2.469   0.199  16.669 -1.8938 -1.0077  1.3018
  684MPD2     N10176   2.179   0.447  16.446  0.4445  0.0608  0.7916
  684MPD2    H510177   2.170   0.520  16.516 -2.3679  0.7917 -0.3148
  684MPD2    N110178   2.361   0.049  16.252  0.2042 -0.5277 -0.4574
  684MPD2    H710179   2.283   0.051  16.187 -0.9348 -0.1456  0.9218
  685TMC3    C110180   2.458   4.648  16.090  0.0359 -0.3127 -0.0432
  685TMC3    C210181   2.410   4.716  15.979  0.4384 -0.2677 -0.3813
  685TMC3    C310182   2.437   4.660  15.857 -0.1654 -0.1465 -0.1394
  685TMC3    C410183   2.521   4.532  16.072 -0.1644  0.2059  0.1193
  685TMC3    C510184   2.562   4.487  15.949 -0.6829  0.1519 -0.0858
  685TMC3    C610185   2.511   4.545  15.841  0.3986 -0.0644 -0.9365
  685TMC3     C10186   2.468   4.712  16.221  0.4581 -0.3084  0.0750
  685TMC3     O10187   2.551   4.672  16.303 -0.4135  1.0566  0.0228
  685TMC3     H10188   2.378   0.080  15.993 -0.1134 -0.3207 -1.2635
  685TMC3    H110189   2.563   4.484  16.159  0.7262  0.0832 -0.3787
  685TMC3    H210190   2.529   4.513  15.739  0.9286  0.3270 -0.9650
  685TMC3    C710191   2.701   4.447  15.949 -0.3038 -0.4378 -1.0378
  685TMC3    C810192   2.355   4.706  15.746 -0.8204  0.4091 -0.9714
  685TMC3    O110193   2.742   4.366  16.028 -0.4457  0.1154  0.4203
  685TMC3    O210194   2.375   4.658  15.637  0.1391  0.6784  0.1901
  686MPD2     C10195   3.625   0.359  15.079 -0.3887  0.8319  0.3301
  686MPD2    C110196   3.686   0.268  15.168  0.7823  0.7426 -0.3783
  686MPD2    C210197   3.761   0.164  15.114  0.2127 -0.5317 -0.0351
  686MPD2    C310198   3.769   0.148  14.978 -0.1716  0.5466 -0.3537
  686MPD2    C410199   3.725   0.248  14.896 -0.4660  0.6316 -0.4481
  686MPD2    C510200   3.661   0.354  14.946 -0.5734  0.5371  0.4555
  686MPD2     H10201   3.825   0.106  15.179  0.9162  0.5715  0.2375
  686MPD2    H110202   3.747   0.248  14.790  2.8432  0.7537  0.2457
  686MPD2    H210203   3.564   0.441  15.115  1.6944  1.7805  1.6558
  686MPD2    H310204   3.640   0.437  14.879 -0.5152  0.5144  0.4090
  686MPD2     N10205   3.832   0.036  14.915 -0.1103 -0.0260 -0.5363
  686MPD2    H510206   3.838   0.050  14.814 -0.4139  1.5039 -0.3446
  686MPD2    N110207   3.645   0.287  15.302  0.4065 -0.1863 -0.1048
  686MPD2    H710208   3.568   0.351  15.317 -0.2381 -0.9120 -0.2764
  687TMC3    C110209   3.840   4.604  15.096  0.9216  0.0711  0.0094
  687TMC3    C210210   3.707   4.620  15.134  0.1987 -0.5213 -0.1967
  687TMC3    C310211   3.683   4.594  15.264  0.4474  0.0166  0.2575
  687TMC3    C410212   3.947   4.569  15.175 -0.6897 -0.0087 -0.4623
  687TMC3    C510213   3.914   4.544  15.309  0.3679  0.1127 -1.0199
  687TMC3    C610214   3.780   4.552  15.354  0.0443 -0.6081 -1.0232
  687TMC3     C10215   3.887   4.653  14.961  0.2463  0.2990  0.5697
  687TMC3     O10216   3.962   4.579  14.898 -0.5755  0.4091 -0.2307
  687TMC3     H10217   3.627   4.648  15.065 -1.2406 -1.9980  0.8684
  687TMC3    H110218   4.051   4.575  15.144 -0.4932 -2.6992 -0.3198
  687TMC3    H210219   3.750   4.533  15.456  0.4498  1.8518 -0.4475
  687TMC3    C710220   3.996   4.459  15.387  0.3040  0.1194 -0.0362
  687TMC3    C810221   3.556   4.603  15.325 -0.6810 -0.0262  0.1641
  687TMC3    O110222   3.956   4.453  15.502  0.0582 -0.3731 -0.3051
  687TMC3    O210223   3.530   4.524  15.415 -0.5560 -0.6871  0.2630
  688MPD2     C10224   3.084   4.056  17.230 -0.7613 -0.0569 -0.4038
  688MPD2    C110225   3.027   3.929  17.204 -0.1311 -0.4024  0.4374
  688MPD2    C210226   3.065   3.853  17.098 -0.1407  0.2922  0.2716
  688MPD2    C310227   3.152   3.907  17.004 -0.0581 -0.8212  0.0043
  688MPD2    C410228   3.205   4.030  17.040 -0.1063  0.2917  0.7358
  688MPD2    C510229   3.180   4.102  17.149 -0.7418 -0.8056 -0.4062
  688MPD2     H10230   3.016   3.759  17.076  1.0197 -0.3169  0.2948
  688MPD2    H110231   3.287   4.075  16.985  0.4111 -0.2458  1.0709
  688MPD2    H210232   3.063   4.119  17.316  0.3478  1.4264 -1.2201
  688MPD2    H310233   3.234   4.195  17.161 -1.1472 -0.6387  0.1370
  688MPD2     N10234   3.207   3.835  16.892 -0.2456 -0.0210  0.5054
  688MPD2    H510235   3.263   3.888  16.825  1.0554  1.8656  3.1073
  688MPD2    N110236   2.925   3.870  17.292 -0.5627  0.6158  0.2574
  688MPD2    H710237   2.898   3.774  17.275 -3.6618  1.9400 -2.5010
  689TMC3    C110238   2.803   3.825  17.481  0.2176 -0.3560  0.1538
  689TMC3    C210239   2.789   3.847  17.617 -0.7261  0.6420 -0.1986
  689TMC3    C310240   2.732   3.750  17.693  0.1492  0.0737  0.2006
  689TMC3    C410241   2.763   3.705  17.417 -0.1592  0.2812 -0.0577
  689TMC3    C510242   2.721   3.609  17.506  0.1375  0.2530 -0.2812
  689TMC3    C610243   2.697   3.629  17.639  0.4622 -0.9506 -0.1435
  689TMC3     C10244   2.875   3.925  17.405 -0.0665  0.1851 -0.3585
  689TMC3     O10245   2.877   4.045  17.441 -0.2649  0.4260 -0.1615
  689TMC3     H10246   2.828   3.937  17.664  0.6757  1.0285 -2.0584
  689TMC3    H110247   2.765   3.686  17.311  3.0053  1.6343 -0.2293
  689TMC3    H210248   2.641   3.561  17.701 -0.3960  1.1552  1.3735
  689TMC3    C710249   2.672   3.485  17.444  0.3301 -0.0047  0.1148
  689TMC3    C810250   2.715   3.774   0.080 -0.3127  0.3115  0.7859
  689TMC3    O110251   2.691   3.474  17.324  0.4596  0.1863  0.3650
  689TMC3    O210252   2.797   3.844   0.138 -0.1513 -0.1588  0.3189
  690MPD2     C10253   0.805   0.593  15.745  0.5343  0.4186 -0.4040
  690MPD2    C110254   0.707   0.640  15.667  0.4654  0.3463  0.9449
  690MPD2    C210255   0.741   0.720  15.554  0.4954  0.5671  0.1017
  690MPD2    C310256   0.873   0.747  15.524  0.4899 -0.3811 -0.2209
  690MPD2    C410257   0.968   0.703  15.616 -0.5368 -0.0027  0.1161
  690MPD2    C510258   0.938   0.619  15.724  0.7983 -0.5409 -0.2161
  690MPD2     H10259   0.667   0.771  15.493 -0.0773  0.6439  0.8575
  690MPD2    H110260   1.072   0.733  15.610 -1.0790  1.9840  0.7219
  690MPD2    H210261   0.779   0.532  15.831  0.6122  1.3114  0.2605
  690MPD2    H310262   1.009   0.600  15.804 -1.0221 -0.8968  1.2911
  690MPD2     N10263   0.897   0.827  15.420 -0.2493  0.5341 -0.1550
  690MPD2    H510264   0.813   0.860  15.375 -1.8396 -0.7680  1.8273
  690MPD2    N110265   0.564   0.622  15.692 -0.1395 -0.4692 -0.1434
  690MPD2    H710266   0.505   0.683  15.636 -0.8534  0.1630  1.2935
  691TMC3    C110267   0.362   0.563  15.775 -0.0819 -0.0198  0.6879
  691TMC3    C210268   0.310   0.621  15.662 -0.2286  0.8999  0.6192
  691TMC3    C310269   0.172   0.610  15.637  0.3787  0.4176  0.0446
  691TMC3    C410270   0.288   0.475  15.844 -0.2486  0.4860 -0.2960
  691TMC3    C510271   0.160   0.453  15.808 -0.1256  0.3680  0.2341
  691TMC3    C610272   0.096   0.524  15.706  0.0079  0.4767 -1.5871
  691TMC3     C10273   0.507   0.539  15.779 -0.5851  0.3479 -0.0987
  691TMC3     O10274   0.543   0.444  15.850  0.2187 -0.3810  0.6316
  691TMC3     H10275   0.361   0.695  15.601  0.8641  1.7319  2.5364
  691TMC3    H110276   0.321   0.424  15.934  1.7347  2.7379  0.2640
  691TMC3    H210277   4.727   0.520  15.702  0.0602 -0.9854 -1.5294
  691TMC3    C710278   0.087   0.339  15.872  0.4118  0.2937  0.0191
  691TMC3    C810279   0.108   0.710  15.555 -0.7872 -0.2252 -0.5386
  691TMC3    O110280   0.121   0.306  15.982 -0.1788 -0.7545 -0.1177
  691TMC3    O210281   0.178   0.788  15.491  0.4538  0.6442  0.0422
  692TMC3    C110282   1.572   1.469  15.489  0.5991 -0.1545  0.0285
  692TMC3    C210283   1.700   1.519  15.463  0.2873 -0.2380 -0.3805
  692TMC3    C310284   1.808   1.427  15.479  0.0992  0.2852 -0.9187
  692TMC3    C410285   1.550   1.344  15.537  1.2599  0.4749  0.3955
  692TMC3    C510286   1.657   1.263  15.550  0.5627  0.0923 -0.2300
  692TMC3    C610287   1.785   1.306  15.533 -0.8497 -0.2047  0.7509
  692TMC3     C10288   1.464   1.561  15.511  0.9364  0.3504  0.3202
  692TMC3     O10289   1.372   1.525  15.581  0.1886  0.4163  0.0300
  692TMC3     H10290   1.700   1.596  15.387  2.3621 -1.1032 -1.2817
  692TMC3    H110291   1.463   1.305  15.586 -0.4004  2.5620 -0.8813
  692TMC3    H210292   1.863   1.232  15.519 -0.9148 -0.2584  0.6716
  692TMC3    C710293   1.633   1.135  15.606  0.7186 -0.1553 -0.9261
  692TMC3    C810294   1.942   1.494  15.507  0.0201  0.1904  0.0370
  692TMC3    O110295   1.532   1.079  15.567 -0.7243 -0.4080 -0.4044
  692TMC3    O210296   2.041   1.423  15.542 -0.4722 -0.0444 -0.8355
  693MPD2     C10297   0.643   4.097  11.282 -0.0803  0.5600  0.3474
  693MPD2    C110298   0.568   4.098  11.169  0.4502  0.6730  0.9017
  693MPD2    C210299   0.611   4.164  11.052 -0.5238  0.2850  0.3171
  693MPD2    C310300   0.722   4.246  11.057 -0.0016  0.1781  0.8242
  693MPD2    C410301   0.788   4.254  11.177 -0.3708  0.1738 -0.5076
  693MPD2    C510302   0.752   4.184  11.288  0.4753 -0.4975  0.0188
  693MPD2     H10303   0.558   4.160  10.957 -2.2673  0.0016  1.2959
  693MPD2    H110304   0.879   4.312  11.179 -0.0104 -0.5407  2.3429
  693MPD2    H210305   0.602   4.052  11.372 -0.1648 -2.3706 -1.1713
  693MPD2    H310306   0.809   4.190  11.380 -0.0167  0.2621  0.2684
  693MPD2     N10307   0.771   4.338  10.947 -0.0051 -1.2162  0.2489
  693MPD2    H510308   0.851   4.393  10.976 -1.6407  0.6727  1.2040
  693MPD2    N110309   0.459   4.008  11.165  0.2025  1.0009 -0.1504
  693MPD2    H710310   0.427   3.961  11.249  0.1335  0.4873 -0.4641
  694TMC3    C110311   0.298   3.871  11.070  0.1249 -0.8032  0.1003
  694TMC3    C210312   0.220   3.838  10.966  0.3403  0.6181 -0.2600
  694TMC3    C310313   0.136   3.729  10.977  0.6602  0.7162  0.1996
  694TMC3    C410314   0.297   3.803  11.192  0.1553  0.6659 -0.8046
  694TMC3    C510315   0.206   3.701  11.202 -0.0503  0.0603  0.3818
  694TMC3    C610316   0.128   3.664  11.094 -0.0450 -0.1588  0.2954
  694TMC3     C10317   0.376   3.986  11.055  0.0035 -0.2882 -0.2462
  694TMC3     O10318   0.352   4.065  10.966 -0.1290  0.0725  0.3509
  694TMC3     H10319   0.239   3.878  10.868 -1.7810 -0.3395 -1.0638
  694TMC3    H110320   0.360   3.825  11.278 -0.9193  1.3752 -0.2090
  694TMC3    H210321   0.056   3.583  11.099 -0.6435  0.3830  0.5164
  694TMC3    C710322   0.170   3.662  11.332  0.0469  0.0131  0.1642
  694TMC3    C810323   0.051   3.694  10.870 -0.0502 -0.2820 -0.6708
  694TMC3    O110324   0.251   3.692  11.418  0.0528  0.2543  0.2391
  694TMC3    O210325   0.016   3.579  10.854  0.0056 -0.1695 -0.6688
  695MPD2     C10326   2.355   1.040  13.476  0.7677 -0.1636  0.7183
  695MPD2    C110327   2.292   1.154  13.521 -0.0079 -0.3556  0.1596
  695MPD2    C210328   2.163   1.188  13.481  0.6786  0.5374 -0.0249
  695MPD2    C310329   2.086   1.100  13.409 -0.8217 -0.5065  0.7764
  695MPD2    C410330   2.147   0.980  13.369 -0.9470 -0.2547 -0.7176
  695MPD2    C510331   2.277   0.955  13.396  0.1016  0.5455  0.5450
  695MPD2     H10332   2.142   1.287  13.519  0.8593  1.2551 -1.7916
  695MPD2    H110333   2.098   0.915  13.298 -1.4717 -1.2511  0.5439
  695MPD2    H210334   2.456   1.008  13.497  0.1623 -1.5652  1.4576
  695MPD2    H310335   2.319   0.874  13.338 -0.8081  1.2416 -1.0704
  695MPD2     N10336   1.962   1.137  13.360  0.6226  0.4347 -0.1548
  695MPD2    H510337   1.930   1.223  13.404 -1.5552  1.0808 -3.0161
  695MPD2    N110338   2.358   1.259  13.587  0.1121  0.2351  0.0097
  695MPD2    H710339   2.305   1.337  13.624  1.1151 -0.9636  3.8961
  696TMC3    C110340   1.752   1.121  13.259  0.8248 -0.4045 -0.3660
  696TMC3    C210341   1.666   1.091  13.358  0.1433 -0.2921  0.2574
  696TMC3    C310342   1.566   1.177  13.380  0.0547 -0.5703  0.1468
  696TMC3    C410343   1.751   1.228  13.182 -0.0778 -0.2312  0.0403
  696TMC3    C510344   1.646   1.308  13.202 -0.0807 -0.4414 -0.1946
  696TMC3    C610345   1.549   1.280  13.295  0.4514  0.5838  0.3011
  696TMC3     C10346   1.886   1.069  13.267 -0.9764  0.3533  0.8129
  696TMC3     O10347   1.910   0.968  13.205 -0.7808 -0.2420 -0.1361
  696TMC3     H10348   1.671   1.001  13.418 -0.0241 -0.8071 -0.5088
  696TMC3    H110349   1.822   1.239  13.101  1.6623 -1.9941  1.3408
  696TMC3    H210350   1.466   1.348  13.313  1.6995  1.3309  3.0499
  696TMC3    C710351   1.666   1.448  13.188  0.0302 -0.7950  0.3154
  696TMC3    C810352   1.579   1.241  13.512  0.9316 -0.0682  0.3936
  696TMC3    O110353   1.739   1.480  13.094  0.6371 -0.4665  0.9435
  696TMC3    O210354   1.546   1.359  13.511 -0.3229  0.0555 -0.3554
  697MPD2     C10355   1.633   3.196  15.728  0.0054  0.0936 -0.5114
  697MPD2    C110356   1.593   3.187  15.597 -0.3032 -0.0071  0.3245
  697MPD2    C210357   1.607   3.300  15.508 -0.4108  0.0357  0.7332
  697MPD2    C310358   1.669   3.415  15.547 -0.3086  0.2323  0.1118
  697MPD2    C410359   1.715   3.420  15.674  0.2224 -0.8177  0.9632
  697MPD2    C510360   1.705   3.313  15.763 -0.1072 -0.3831  0.0684
  697MPD2     H10361   1.581   3.296  15.403 -1.3705 -1.9307  1.0374
  697MPD2    H110362   1.758   3.510  15.716 -0.2886 -0.5395  0.8814
  697MPD2    H210363   1.624   3.126  15.810  0.3737 -0.2128 -0.7359
  697MPD2    H310364   1.734   3.329  15.867 -1.5759 -1.1900  0.5997
  697MPD2     N10365   1.676   3.532  15.463 -0.3830 -0.2795  0.2739
  697MPD2    H510366   1.649   3.516  15.366  0.4590  2.5544 -0.4363
  697MPD2    N110367   1.537   3.067  15.538  0.6125  0.5453 -0.4125
  697MPD2    H710368   1.509   3.071  15.441 -1.1644 -0.1763  0.0642
  698TMC3    C110369   1.702   3.760  15.400  0.4772 -0.7307 -0.1136
  698TMC3    C210370   1.724   3.894  15.432 -1.0768 -0.2283 -0.1071
  698TMC3    C310371   1.746   3.986  15.334 -1.1331 -0.2420  0.6143
  698TMC3    C410372   1.694   3.719  15.265  0.2307  0.0053  0.4943
  698TMC3    C510373   1.710   3.814  15.171  0.6325  0.4557 -0.1895
  698TMC3    C610374   1.730   3.947  15.204  0.3179  0.3080  0.3279
  698TMC3     C10375   1.702   3.665  15.502 -0.0478  0.5292  0.6359
  698TMC3     O10376   1.729   3.710  15.610 -0.1637 -0.5714 -0.1368
  698TMC3     H10377   1.741   3.926  15.535  0.6024  3.2073 -1.4330
  698TMC3    H110378   1.682   3.617  15.229  1.6500  0.1655 -0.4429
  698TMC3    H210379   1.736   4.016  15.120  0.1443  1.2668  1.1111
  698TMC3    C710380   1.695   3.772  15.032 -0.0839  0.3633 -0.0434
  698TMC3    C810381   1.816   4.115  15.377 -0.4108 -0.0792  0.3384
  698TMC3    O110382   1.608   3.686  15.010 -0.1709 -0.1126 -0.0599
  698TMC3    O210383   1.798   4.145  15.494  0.1657  1.0558  0.1359
  699TMC3    C110384   1.508   1.429  12.745  0.4200  0.2343  1.1650
  699TMC3    C210385   1.476   1.298  12.746 -0.2936  0.8764  1.0535
  699TMC3    C310386   1.410   1.249  12.853  0.5111 -0.1096  0.0953
  699TMC3    C410387   1.459   1.519  12.836  0.2565  0.1952  0.6206
  699TMC3    C510388   1.376   1.466  12.929  0.1955  0.1233  0.1830
  699TMC3    C610389   1.355   1.335  12.947  0.4280 -0.3853 -0.4029
  699TMC3     C10390   1.573   1.481  12.627  0.2208 -0.3992 -0.4875
  699TMC3     O10391   1.550   1.424  12.522 -0.0851  0.0580 -0.2591
  699TMC3     H10392   1.518   1.236  12.667 -0.2530  0.9457  1.0208
  699TMC3    H110393   1.497   1.619  12.847 -2.3133  1.2280  0.0190
  699TMC3    H210394   1.282   1.293  13.015  1.5668  1.1160  1.7749
  699TMC3    C710395   1.294   1.551  13.015 -0.1033 -0.3334 -0.1632
  699TMC3    C810396   1.456   1.126  12.915  0.2318 -0.2363  0.3038
  699TMC3    O110397   1.252   1.500  13.118  0.5676  0.6929  0.0800
  699TMC3    O210398   1.441   1.150  13.035  0.3237  0.2746  0.3575
  700TMC3    C110399   0.697   3.874  17.115  0.0797 -0.5683  0.4641
  700TMC3    C210400   0.744   3.744  17.119 -0.0607  0.2483  0.0269
  700TMC3    C310401   0.855   3.708  17.194 -0.3356  0.0985 -0.1888
  700TMC3    C410402   0.759   3.972  17.186  0.0384  1.1688 -0.7380
  700TMC3    C510403   0.862   3.933  17.269  0.2548 -0.6104 -0.2887
  700TMC3    C610404   0.920   3.812  17.256  0.2177 -0.2312  0.8509
  700TMC3     C10405   0.616   3.918  17.001 -1.2904 -0.5006 -0.4304
  700TMC3     O10406   0.542   3.834  16.953 -0.1229  0.1097  0.0701
  700TMC3     H10407   0.694   3.662  17.068 -1.8251  1.1847  0.2287
  700TMC3    H110408   0.728   4.075  17.183  0.0020  1.1862  0.1245
  700TMC3    H210409   1.018   3.795  17.298  0.4314  1.2109  0.9563
  700TMC3    C710410   0.921   4.020  17.370  0.2654  0.2703 -0.0218
  700TMC3    C810411   0.938   3.617  17.124 -0.5526  0.1407 -0.0026
  700TMC3    O110412   1.002   3.964  17.441 -0.4167 -0.0000  0.0824
  700TMC3    O210413   1.047   3.657  17.083  0.0761  0.8485 -0.0535
  701TMC3    C110414   0.936   2.929  15.553  0.8847  0.5142 -0.2741
  701TMC3    C210415   0.975   2.901  15.426 -0.9275 -0.3072 -0.4025
  701TMC3    C310416   1.072   2.982  15.371  1.1853  0.0051  0.0237
  701TMC3    C410417   1.002   3.014  15.634  0.2113 -0.2998 -0.0596
  701TMC3    C510418   1.119   3.075  15.576  0.8133 -0.7427  0.2665
  701TMC3    C610419   1.153   3.062  15.446 -0.3259 -0.5166 -0.7404
  701TMC3     C10420   0.824   2.845  15.603 -0.5183  0.3188 -0.1067
  701TMC3     O10421   0.806   2.733  15.565 -0.1023 -0.4473 -0.5208
  701TMC3     H10422   0.923   2.821  15.374  0.9950 -1.5936 -0.3507
  701TMC3    H110423   0.967   3.034  15.735 -1.0821 -1.2254 -0.3295
  701TMC3    H210424   1.238   3.124  15.421 -1.0900  0.9833  0.4246
  701TMC3    C710425   1.202   3.163  15.662  0.5154  0.2492 -0.5467
  701TMC3    C810426   1.096   2.976  15.229 -0.5093  0.2935  0.0104
  701TMC3    O110427   1.275   3.240  15.605  0.1953 -0.5470  0.6251
  701TMC3    O210428   1.203   3.019  15.190  0.0929 -0.0759  0.2700
  702MPD2     C10429   0.112   4.541  10.506 -0.5396  0.4831 -0.1865
  702MPD2    C110430   0.015   4.576  10.597  0.4690 -0.6129 -0.4736
  702MPD2    C210431   4.634   4.625  10.551  0.7734  0.6014  0.4642
  702MPD2    C310432   4.622   4.665  10.420  0.0814 -0.8084 -0.0427
  702MPD2    C410433   4.719   4.647  10.331  0.1221  0.3767 -0.0257
  702MPD2    C510434   0.093   4.588  10.376  0.0373  0.4154  0.3794
  702MPD2     H10435   4.560   4.647  10.627  0.7272 -1.4056  1.0161
  702MPD2    H110436   4.712   4.679  10.228  0.4367 -0.8565 -0.4394
  702MPD2    H210437   0.210   4.506  10.536  0.0274  0.0196 -2.5684
  702MPD2    H310438   0.176   4.571  10.309 -1.6361  2.0347 -2.0822
  702MPD2     N10439   4.501   4.730  10.378 -0.8478  0.3746  0.2058
  702MPD2    H510440   4.498   0.043  10.291  1.6083  1.6438  0.9015
  702MPD2    N110441   0.024   4.541  10.737  0.0119 -0.0056 -0.3421
  702MPD2    H710442   4.680   4.546  10.794  0.0151  0.7912 -0.4174
  703TMC3    C110443   4.309   0.129  10.413 -0.3033  0.1862  0.8806
  703TMC3    C210444   4.194   0.146  10.486  0.0149 -0.5657 -0.7386
  703TMC3    C310445   4.157   0.275  10.521 -0.7545 -0.0295 -0.7333
  703TMC3    C410446   4.389   0.239  10.377  0.4038  0.7041 -0.2297
  703TMC3    C510447   4.329   0.363  10.391 -0.1121  0.3566 -0.9157
  703TMC3    C610448   4.214   0.386  10.468  0.0761 -0.0850  0.2263
  703TMC3     C10449   4.381   0.005  10.450  0.1758  0.2683  0.6950
  703TMC3     O10450   4.341   4.681  10.547  0.5840  0.6492  0.5051
  703TMC3     H10451   4.133   0.062  10.518 -0.2171  0.2447  0.9312
  703TMC3    H110452   4.480   0.236  10.319  0.0947  1.6916 -0.7659
  703TMC3    H210453   4.185   0.489  10.486 -2.4957 -0.3533 -2.3636
  703TMC3    C710454   4.438   0.463  10.404  0.2228 -0.4406  0.2496
  703TMC3    C810455   4.079   0.291  10.642  0.0745  0.1122 -0.2941
  703TMC3    O110456   4.426   0.579  10.369 -0.1465 -0.2146 -0.5230
  703TMC3    O210457   4.097   0.399  10.700  0.4838  0.1405  0.8384
  704TMC3    C110458   2.487   3.721  12.068  0.3029  0.3260  0.4537
  704TMC3    C210459   2.582   3.728  11.976 -0.7430  0.2185  0.1001
  704TMC3    C310460   2.709   3.694  12.017 -0.2649 -0.6821  0.5156
  704TMC3    C410461   2.504   3.697  12.203  0.6340  0.0283 -0.9715
  704TMC3    C510462   2.634   3.676  12.240  0.4230 -0.1107  0.6490
  704TMC3    C610463   2.739   3.669  12.149 -0.2659  0.6470  1.0529
  704TMC3     C10464   2.346   3.728  12.032 -0.1403 -0.1527  0.6188
  704TMC3     O10465   2.265   3.706  12.117  0.5888 -0.3169  1.0269
  704TMC3     H10466   2.565   3.767  11.876  2.0837 -0.1999 -0.5402
  704TMC3    H110467   2.421   3.678  12.270  0.9169 -1.1949 -0.9852
  704TMC3    H210468   2.844   3.657  12.173 -0.5316 -1.4622  1.1066
  704TMC3    C710469   2.633   3.585  12.350 -0.8393 -0.5086  0.6873
  704TMC3    C810470   2.805   3.655  11.913 -0.1366 -0.5801 -0.1396
  704TMC3    O110471   2.546   3.595  12.437  0.0278 -0.0168 -0.0295
  704TMC3    O210472   2.759   3.676  11.801 -0.5525 -0.5782 -0.1666
  705MPD2     C10473   1.966   1.357  16.105  0.0703 -0.2527 -0.4910
  705MPD2    C110474   1.978   1.490  16.090  0.1071 -0.7140 -0.2012
  705MPD2    C210475   1.888   1.577  16.148 -0.5354  0.1721  0.3502
  705MPD2    C310476   1.766   1.531  16.194 -0.4877 -0.0627 -0.2683
  705MPD2    C410477   1.753   1.393  16.220  0.1724 -0.0000 -0.1302
  705MPD2    C510478   1.859   1.316  16.178  0.3610 -0.4999  0.0478
  705MPD2     H10479   1.915   1.682  16.141  0.6139 -0.1878 -0.6425
  705MPD2    H110480   1.664   1.345  16.258  0.4206  0.2117  0.7105
  705MPD2    H210481   2.032   1.287  16.056 -0.4682  0.1279 -1.7785
  705MPD2    H310482   1.835   1.210  16.172  1.0571 -0.6315 -0.3764
  705MPD2     N10483   1.655   1.614  16.221  0.7007  0.6024  0.2479
  705MPD2    H510484   1.570   1.574  16.259  1.1714 -1.2924 -0.7307
  705MPD2    N110485   2.085   1.553  16.034 -0.1399 -0.7165  0.1200
  705MPD2    H710486   2.096   1.653  16.050  0.5196 -0.6634 -0.7286
  706TMC3    C110487   2.536   1.603  15.981  0.1840 -0.0289 -0.2037
  706TMC3    C210488   2.525   1.726  16.035  0.3718 -1.2238  0.3317
  706TMC3    C310489   2.409   1.790  16.017 -0.1678  0.3445 -0.6123
  706TMC3    C410490   2.432   1.527  15.940 -0.3936 -0.4143  0.0942
  706TMC3    C510491   2.304   1.584  15.950  0.1164 -0.6824 -0.7915
  706TMC3    C610492   2.298   1.717  15.986 -0.4362 -0.2888 -0.1368
  706TMC3     C10493   2.666   1.544  15.952 -0.9524  0.5940  0.0669
  706TMC3     O10494   2.758   1.557  16.031  0.8223  0.0472 -0.0987
  706TMC3     H10495   2.619   1.773  16.063  0.2282  1.0035 -2.9655
  706TMC3    H110496   2.457   1.423  15.920  1.4843 -0.0971  0.8388
  706TMC3    H210497   2.201   1.759  15.961 -1.0039 -1.6724 -0.2730
  706TMC3    C710498   2.197   1.488  15.984 -0.3090  0.7421 -0.1110
  706TMC3    C810499   2.379   1.935  16.038 -0.0128  0.1718 -0.8065
  706TMC3    O110500   2.231   1.373  15.994  0.4886 -0.1341  0.2272
  706TMC3    O210501   2.265   1.973  16.017  0.3827 -0.3373 -0.1460
  707TMC3    C110502   4.138   0.214   1.220  0.8286 -0.5862 -0.0806
  707TMC3    C210503   4.160   0.197   1.355 -0.7549  0.7914 -0.4528
  707TMC3    C310504   4.179   0.070   1.403 -0.5462  0.6287  0.1190
  707TMC3    C410505   4.122   0.103   1.136  0.6511 -0.3747 -0.4659
  707TMC3    C510506   4.128   4.717   1.198 -0.4666 -0.0589 -0.0174
  707TMC3    C610507   4.164   4.695   1.331  0.2098 -0.1351  0.2122
  707TMC3     C10508   4.177   0.343   1.155 -0.1651  0.3673 -0.3401
  707TMC3     O10509   4.250   0.426   1.210 -0.0562  0.5270  0.0624
  707TMC3     H10510   4.190   0.281   1.418  0.2994  1.3484 -1.7053
  707TMC3    H110511   4.127   0.115   1.029 -1.9407 -0.9436 -0.6614
  707TMC3    H210512   4.177   4.595   1.369  0.1002 -0.8225 -1.5515
  707TMC3    C710513   4.075   4.607   1.115 -0.4312  0.2795 -0.2243
  707TMC3    C810514   4.219   0.059   1.539 -0.3003  0.6410 -0.1947
  707TMC3    O110515   4.085   4.493   1.161 -0.6681  0.1152  0.5961
  707TMC3    O210516   4.200   0.155   1.614 -0.1566  0.5163 -0.3606
  708MPD2     C10517   0.566   4.377  14.498 -0.0417 -0.0858  0.6467
  708MPD2    C110518   0.551   4.473  14.399 -0.2979 -0.3512 -0.0464
  708MPD2    C210519   0.610   4.596  14.415  0.2875  0.5253 -0.1080
  708MPD2    C310520   0.685   4.623  14.525 -0.0915  0.4215  0.8526
  708MPD2    C410521   0.710   4.523  14.618  0.0105 -0.5946 -0.2621
  708MPD2    C510522   0.654   4.398  14.600 -0.3329 -0.0742 -0.0755
  708MPD2     H10523   0.591   4.669  14.337  0.0921 -0.5197 -1.0398
  708MPD2    H110524   0.769   4.552  14.705 -0.1401 -0.8835 -0.0631
  708MPD2    H210525   0.542   4.272  14.486  3.4955 -0.8887  0.3805
  708MPD2    H310526   0.656   4.322  14.677 -1.5254 -0.6853 -0.6511
  708MPD2     N10527   0.719   0.018  14.546 -0.4385  0.4967 -0.0581
  708MPD2    H510528   0.689   0.080  14.471 -2.3395 -0.5305 -0.1432
  708MPD2    N110529   0.464   4.453  14.286 -0.5913  0.7807  0.1358
  708MPD2    H710530   0.451   4.531  14.222  0.3146  0.8253  0.0151
  709TMC3    C110531   0.297   4.378  14.151  0.1194 -0.0750  0.1059
  709TMC3    C210532   0.359   4.346  14.039  0.3119  0.0603 -0.0584
  709TMC3    C310533   0.394   4.437  13.946  0.3359  0.3622  0.4284
  709TMC3    C410534   0.253   4.509  14.166  0.3173 -0.7819  0.4062
  709TMC3    C510535   0.280   4.600  14.066 -0.3301  0.4343 -0.9542
  709TMC3    C610536   0.373   4.568  13.970 -1.4107 -0.2715 -0.5989
  709TMC3     C10537   0.388   4.339  14.261 -0.4970 -0.3639 -0.9583
  709TMC3     O10538   0.401   4.225  14.305 -0.0707  0.4910  0.3248
  709TMC3     H10539   0.408   4.251  14.027  0.2546  0.2723 -1.9994
  709TMC3    H110540   0.212   4.534  14.263 -1.7106 -0.3930 -0.5652
  709TMC3    H210541   0.396   4.644  13.896  3.1105 -0.7258  0.3256
  709TMC3    C710542   0.305   4.730  14.122  0.8458 -0.4807  0.3457
  709TMC3    C810543   0.507   4.401  13.862 -0.4502 -0.0557  0.4066
  709TMC3    O110544   0.426   0.005  14.128  0.4507 -0.2146 -0.5701
  709TMC3    O210545   0.607   4.350  13.911  0.3444  0.0515 -0.3854
  710TMC3    C110546   1.764   0.866   0.042 -0.1361  0.4915 -0.7239
  710TMC3    C210547   1.805   0.965  17.707 -0.1821  0.0370  0.1874
  710TMC3    C310548   1.914   0.930  17.624  0.0786 -0.6435 -0.3922
  710TMC3    C410549   1.829   0.751   0.057 -0.6371  0.0905 -0.7873
  710TMC3    C510550   1.936   0.718  17.732  0.6026 -0.4562 -0.2065
  710TMC3    C610551   1.979   0.806  17.640  0.7487  0.3642 -0.8161
  710TMC3     C10552   1.633   0.871   0.103 -0.0943  0.3815  0.9724
  710TMC3     O10553   1.579   0.765   0.114 -0.4542  0.1480 -0.0210
  710TMC3     H10554   1.743   1.053  17.699  0.5931  0.7789  2.3804
  710TMC3    H110555   1.794   0.682   0.134 -0.8468 -0.4166 -1.3333
  710TMC3    H210556   2.077   0.793  17.594 -0.4341 -0.4595 -3.0738
  710TMC3    C710557   2.009   0.597   0.000 -0.9439  0.1939 -0.6118
  710TMC3    C810558   1.965   1.021  17.517 -0.0649 -0.2013  0.0100
  710TMC3    O110559   1.997   0.536   0.104 -0.0611  0.1060 -0.2756
  710TMC3    O210560   2.063   0.984  17.453  0.6530 -0.5255 -0.0331
  711TMC3    C110561   1.561   2.258  14.782 -0.2820  0.0890  0.0482
  711TMC3    C210562   1.509   2.296  14.901 -0.2465  0.1374 -0.4144
  711TMC3    C310563   1.590   2.372  14.979  0.2892 -0.1091  0.1540
  711TMC3    C410564   1.690   2.280  14.744 -0.2805  0.1806  0.3786
  711TMC3    C510565   1.766   2.366  14.817 -0.2094 -0.9986 -0.7619
  711TMC3    C610566   1.715   2.411  14.940  0.2214 -0.1077 -0.6921
  711TMC3     C10567   1.469   2.200  14.688  0.1567 -0.0954  0.8495
  711TMC3     O10568   1.365   2.151  14.722  0.2480  0.1366 -0.3817
  711TMC3     H10569   1.404   2.277  14.921 -0.1429  0.1187  0.1029
  711TMC3    H110570   1.719   2.224  14.655 -1.6451 -1.1196  0.7513
  711TMC3    H210571   1.765   2.480  15.007 -0.6605 -0.0853 -0.0622
  711TMC3    C710572   1.908   2.347  14.821 -0.3962  0.3212 -0.0975
  711TMC3    C810573   1.560   2.385  15.118  0.8634 -0.1691  0.1948
  711TMC3    O110574   1.970   2.369  14.923  0.0621  0.0125 -0.4077
  711TMC3    O210575   1.447   2.348  15.149 -0.5222 -0.1570 -0.8584
  712MPD2     C10576   2.687   2.836  13.609  0.2145  0.3747 -0.1585
  712MPD2    C110577   2.655   2.949  13.540  0.4605  0.7875  0.1449
  712MPD2    C210578   2.707   3.068  13.574 -0.2239  0.2398  0.2232
  712MPD2    C310579   2.799   3.084  13.680  0.1891 -0.1096 -0.8320
  712MPD2    C410580   2.829   2.973  13.757  0.3312 -0.1573 -0.3370
  712MPD2    C510581   2.775   2.845  13.720 -0.6968  0.3941 -0.4884
  712MPD2     H10582   2.676   3.152  13.514 -1.5994 -0.0155  0.5799
  712MPD2    H110583   2.889   2.978  13.847 -0.1008  0.3500 -0.0808
  712MPD2    H210584   2.645   2.740  13.583 -0.8258  1.4099 -2.2822
  712MPD2    H310585   2.796   2.757  13.780  2.2913  1.2844 -0.2071
  712MPD2     N10586   2.844   3.211  13.721  0.1356  0.3970 -0.1988
  712MPD2    H510587   2.921   3.215  13.787  1.4090  2.5331 -1.8169
  712MPD2    N110588   2.556   2.927  13.441 -0.4276 -0.4132 -0.6916
  712MPD2    H710589   2.506   2.840  13.453 -0.4619 -0.2706  0.2033
  713TMC3    C110590   2.849   3.444  13.723 -0.0177  0.7939 -0.8152
  713TMC3    C210591   2.980   3.437  13.769 -0.0726  0.3179 -0.5016
  713TMC3    C310592   3.018   3.523  13.870  0.5478  0.7059  0.2438
  713TMC3    C410593   2.771   3.554  13.749 -0.1356 -0.1910  0.5037
  713TMC3    C510594   2.811   3.645  13.843 -0.8118 -0.0234 -0.3415
  713TMC3    C610595   2.932   3.624  13.910  0.2148  0.4395  0.1245
  713TMC3     C10596   2.782   3.325  13.681  0.0114  0.0991 -0.3492
  713TMC3     O10597   2.677   3.340  13.625  0.5054  0.0863 -0.2980
  713TMC3     H10598   3.051   3.357  13.745  0.1646  0.3223  0.1772
  713TMC3    H110599   2.691   3.570  13.678 -0.0823 -0.5108  0.3706
  713TMC3    H210600   2.962   3.704  13.977 -0.2749 -0.3725  1.3055
  713TMC3    C710601   2.743   3.770  13.845  0.5595 -0.8439  0.3262
  713TMC3    C810602   3.150   3.578  13.849 -0.1555 -0.1920 -0.6738
  713TMC3    O110603   2.804   3.864  13.898 -0.2810 -0.0278  0.1235
  713TMC3    O210604   3.207   3.551  13.747  0.5952 -0.1768  0.1136
  714MPD2     C10605   0.225   2.303   1.305 -0.3265 -0.5496 -0.3924
  714MPD2    C110606   0.231   2.262   1.173 -0.2648  0.4534  0.5275
  714MPD2    C210607   0.117   2.278   1.095 -0.0173  0.6371 -0.1106
  714MPD2    C310608   0.003   2.337   1.142  0.2537 -0.0847 -0.0482
  714MPD2    C410609   0.005   2.380   1.275  0.8333 -0.2460  0.2048
  714MPD2    C510610   0.119   2.365   1.354  0.1804 -0.2747 -0.0781
  714MPD2     H10611   0.110   2.234   0.997  2.4558 -0.5071  0.2251
  714MPD2    H110612   4.655   2.410   1.329  1.3568 -0.1367  1.0078
  714MPD2    H210613   0.314   2.297   1.366 -0.5093  0.7864  0.0069
  714MPD2    H310614   0.108   2.399   1.456  0.5177  1.5405 -0.6434
  714MPD2     N10615   4.636   2.341   1.050 -0.1736 -0.1890  0.1291
  714MPD2    H510616   4.662   2.316   0.954  1.9278  1.3528  0.2912
  714MPD2    N110617   0.347   2.200   1.136 -0.1882  0.6548  0.1977
  714MPD2    H710618   0.417   2.195   1.210  0.6412  1.7947 -0.5140
  715TMC3    C110619   0.501   2.108   0.998  0.3229 -1.0581  0.9092
  715TMC3    C210620   0.522   2.029   0.892  0.2854 -0.2421  0.1679
  715TMC3    C310621   0.648   2.021   0.834 -0.4517 -0.4850  0.5542
  715TMC3    C410622   0.602   2.193   1.046 -0.4409 -0.3619  0.4601
  715TMC3    C510623   0.728   2.178   0.990  0.8011 -0.1306  0.6127
  715TMC3    C610624   0.748   2.090   0.886  0.0466  0.0244  0.0284
  715TMC3     C10625   0.373   2.155   1.015  0.2145  0.2380 -0.2761
  715TMC3     O10626   0.298   2.161   0.912  0.3364  0.0225 -0.4626
  715TMC3     H10627   0.441   1.975   0.845  1.2083 -0.9647 -0.6233
  715TMC3    H110628   0.582   2.273   1.117  1.4443 -1.0568  1.7734
  715TMC3    H210629   0.851   2.076   0.855 -0.1854  1.2105 -1.3121
  715TMC3    C710630   0.842   2.216   1.077  0.0928  0.6138 -0.2239
  715TMC3    C810631   0.670   1.913   0.747  0.2467  0.6785 -0.4353
  715TMC3    O110632   0.949   2.211   1.018  0.3775  0.2653 -0.3383
  715TMC3    O210633   0.603   1.811   0.769  0.0284  0.6568 -0.1288
  716MPD2     C10634   3.372   0.331   9.983  1.2793  0.5808 -0.9363
  716MPD2    C110635   3.300   0.277   9.875  0.1245 -0.3050  0.1087
  716MPD2    C210636   3.364   0.174   9.798  0.7344 -1.1762 -0.7541
  716MPD2    C310637   3.488   0.130   9.823  0.3222  0.0488  0.3755
  716MPD2    C410638   3.560   0.189   9.929 -0.4915  0.3467 -0.3041
  716MPD2    C510639   3.501   0.284  10.006  0.6195 -0.7818  0.2538
  716MPD2     H10640   3.313   0.140   9.709 -2.4322  0.6540  0.3540
  716MPD2    H110641   3.663   0.168   9.956 -0.9749  0.1222  1.3786
  716MPD2    H210642   3.329   0.404  10.051  0.8193 -0.6606  0.0946
  716MPD2    H310643   3.558   0.324  10.089 -2.0699  0.7913  1.3202
  716MPD2     N10644   3.533   0.024   9.737 -0.0059  0.1196  0.0964
  716MPD2    H510645   3.466   4.723   9.672 -2.3629  0.1927  2.4747
  716MPD2    N110646   3.172   0.329   9.842 -0.7104  0.2251 -1.0552
  716MPD2    H710647   3.137   0.408   9.894  2.3933 -0.8948  2.8491
  717TMC3    C110648   3.695   4.616   9.632  0.1583 -0.3915  0.1615
  717TMC3    C210649   3.595   4.583   9.545 -0.0935  0.4913  0.0053
  717TMC3    C310650   3.615   4.471   9.465 -0.2186 -0.2164  0.3376
  717TMC3    C410651   3.799   4.533   9.657 -0.6976  0.0350  0.1988
  717TMC3    C510652   3.811   4.427   9.572 -0.2423 -0.1564  0.2315
  717TMC3    C610653   3.728   4.398   9.466 -0.1126 -0.1616 -0.6917
  717TMC3     C10654   3.666   4.716   9.732 -0.9872 -0.5025  0.1505
  717TMC3     O10655   3.762   0.006   9.808 -0.2311 -0.0558  0.7920
  717TMC3     H10656   3.505   4.643   9.537  0.5172  1.6438  1.6739
  717TMC3    H110657   3.864   4.553   9.741  0.6832  0.5175 -0.9880
  717TMC3    H210658   3.725   4.300   9.420 -2.8908 -0.2813 -0.2515
  717TMC3    C710659   3.936   4.354   9.562 -1.0041 -0.5848 -0.1665
  717TMC3    C810660   3.498   4.433   9.385 -0.1827 -0.6480 -0.1542
  717TMC3    O110661   3.969   4.311   9.452  0.4038 -0.2523 -0.2642
  717TMC3    O210662   3.387   4.464   9.422 -0.0845  0.2957 -0.4047
  718MPD2     C10663   4.406   3.224  13.076 -1.6799 -0.3041 -0.4263
  718MPD2    C110664   4.384   3.358  13.043  0.1967  0.1471  0.3507
  718MPD2    C210665   4.278   3.393  12.965  0.5855  0.7337  0.9659
  718MPD2    C310666   4.209   3.290  12.896 -0.2649 -0.3772  0.4585
  718MPD2    C410667   4.251   3.157  12.915  0.5783 -0.4709  0.0103
  718MPD2    C510668   4.352   3.122  12.999 -1.0962  0.2708 -0.2194
  718MPD2     H10669   4.260   3.494  12.929 -1.9316  0.6197  1.9273
  718MPD2    H110670   4.211   3.071  12.863 -1.0837 -1.5082  3.0165
  718MPD2    H210671   4.486   3.205  13.147 -2.2334 -0.6350  0.1095
  718MPD2    H310672   4.392   3.022  13.014  0.9084  0.9967 -0.7274
  718MPD2     N10673   4.103   3.332  12.815  0.0225  0.7950  0.0138
  718MPD2    H510674   4.081   3.431  12.815  0.9067  0.9943  0.4755
  718MPD2    N110675   4.449   3.451  13.124  0.2117  0.5160 -0.1082
  718MPD2    H710676   4.495   3.421  13.210  0.2634  3.3762  0.8594
  719TMC3    C110677   4.504   3.671  13.177 -0.3526  0.5344 -0.3621
  719TMC3    C210678   4.383   3.741  13.189 -0.0859 -0.1909  0.1997
  719TMC3    C310679   4.384   3.874  13.144  0.4237 -0.2800  0.1383
  719TMC3    C410680   4.620   3.734  13.148  0.6173 -0.0288  0.1496
  719TMC3    C510681   4.626   3.873  13.122  0.3241 -0.0376  0.1949
  719TMC3    C610682   4.504   3.938  13.115  0.0393  0.4279 -0.3705
  719TMC3     C10683   4.470   3.576  13.076 -0.2673 -0.5537 -0.0169
  719TMC3     O10684   4.451   3.609  12.959 -0.0918 -0.2359  0.4650
  719TMC3     H10685   4.291   3.686  13.203  0.9671 -1.3573  2.6288
  719TMC3    H110686   4.710   3.674  13.150 -0.9282 -2.2890  1.1210
  719TMC3    H210687   4.499   4.040  13.079  0.0126  0.6561  0.2710
  719TMC3    C710688   4.713   3.923  13.019 -0.2024 -0.2189 -0.2056
  719TMC3    C810689   4.271   3.896  13.059  0.0868 -0.1665  0.4888
  719TMC3    O110690   4.671   3.954  12.908  0.0847  0.6915 -0.0419
  719TMC3    O210691   4.166   3.841  13.083 -0.4932  0.0898 -0.6596
  720MPD2     C10692   2.821   0.406  13.887  0.0106 -0.2307  0.0285
  720MPD2    C110693   2.889   0.481  13.799 -1.0309  0.8328  0.2438
  720MPD2    C210694   3.004   0.547  13.835 -0.2568 -0.4298 -0.1773
  720MPD2    C310695   3.046   0.543  13.972 -0.0448  0.0032 -0.0473
  720MPD2    C410696   2.968   0.466  14.065  0.5341 -0.2618  0.6095
  720MPD2    C510697   2.857   0.400  14.023 -0.0383 -0.3865 -0.4508
  720MPD2     H10698   3.066   0.594  13.760  1.9064  0.2495  2.0609
  720MPD2    H110699   2.986   0.460  14.172  0.7741  0.6057  0.6170
  720MPD2    H210700   2.722   0.368  13.868  0.0595 -1.2579  1.7919
  720MPD2    H310701   2.793   0.349  14.094 -0.5449  1.7994  0.6487
  720MPD2     N10702   3.166   0.608  14.009 -0.0584  0.3269  0.3950
  720MPD2    H510703   3.220   0.660  13.941 -1.1531  2.2555  1.0265
  720MPD2    N110704   2.852   0.498  13.666 -0.5846 -0.7810 -0.4790
  720MPD2    H710705   2.900   0.571  13.615 -2.1208  1.2524  1.0056
  721TMC3    C110706   3.327   0.705  14.162 -0.6738 -0.0148  0.1798
  721TMC3    C210707   3.350   0.743  14.290 -0.2068  0.2759 -0.5481
  721TMC3    C310708   3.463   0.811  14.332 -0.3092 -0.8176  0.2898
  721TMC3    C410709   3.426   0.715  14.073  0.6664  0.6868 -0.2534
  721TMC3    C510710   3.540   0.786  14.109 -0.0401 -0.2759 -0.8171
  721TMC3    C610711   3.556   0.848  14.235  0.9327  0.1240  0.5202
  721TMC3     C10712   3.193   0.647  14.138 -0.0321  0.3291 -0.1707
  721TMC3     O10713   3.119   0.641  14.238  0.1324 -0.1310  0.3270
  721TMC3     H10714   3.277   0.727  14.369 -0.5284  1.3183 -0.6332
  721TMC3    H110715   3.417   0.696  13.966 -1.1532  1.1381 -0.1816
  721TMC3    H210716   3.658   0.876  14.257  1.3322 -0.4850 -0.5197
  721TMC3    C710717   3.662   0.758  14.050  0.4582  0.0791  0.1560
  721TMC3    C810718   3.474   0.880  14.451  0.7524  0.1259 -0.8248
  721TMC3    O110719   3.749   0.845  14.045  0.5001  0.2749  0.1651
  721TMC3    O210720   3.551   0.977  14.458 -0.0385  0.0436  0.1824
  722MPD2     C10721   1.872   3.588  13.054  0.2604 -0.3645  0.1071
  722MPD2    C110722   1.814   3.720  13.043 -0.2908  0.0802  0.6359
  722MPD2    C210723   1.709   3.744  12.959 -0.3446  0.3486 -0.0986
  722MPD2    C310724   1.650   3.635  12.886 -0.7186  0.2298 -0.6359
  722MPD2    C410725   1.713   3.509  12.892 -0.1057  0.0752 -0.3277
  722MPD2    C510726   1.822   3.492  12.974 -0.1170 -0.2985 -0.3051
  722MPD2     H10727   1.667   3.844  12.958 -0.7903  0.1550 -0.4520
  722MPD2    H110728   1.678   3.420  12.842 -0.3453  0.0718 -0.1505
  722MPD2    H210729   1.956   3.565  13.119 -0.2933 -0.8268  0.6610
  722MPD2    H310730   1.877   3.399  12.965 -0.6103 -0.5559 -0.6786
  722MPD2     N10731   1.535   3.657  12.808 -0.3983  0.1377  0.1926
  722MPD2    H510732   1.496   3.750  12.817 -1.5571 -0.2911 -0.4062
  722MPD2    N110733   1.868   3.835  13.113 -0.1434  0.5303  0.8145
  722MPD2    H710734   1.822   3.925  13.099 -0.0992  0.0380 -2.3593
  723TMC3    C110735   1.343   3.645  12.684  0.2033 -0.6584 -0.5244
  723TMC3    C210736   1.236   3.584  12.727  0.7626  0.4845  0.0505
  723TMC3    C310737   1.121   3.663  12.739  0.3271 -0.2988 -0.0885
  723TMC3    C410738   1.352   3.780  12.651  0.0998  0.0074 -0.5404
  723TMC3    C510739   1.237   3.851  12.673  0.2662  0.1924  0.3007
  723TMC3    C610740   1.118   3.794  12.708 -0.8324 -0.2826 -0.5682
  723TMC3     C10741   1.462   3.575  12.722  0.1033 -0.2322 -0.2493
  723TMC3     O10742   1.469   3.454  12.700  0.2514  0.7009 -0.3393
  723TMC3     H10743   1.249   3.489  12.777  1.4054  1.3950  1.5944
  723TMC3    H110744   1.435   3.827  12.601  2.0536  0.1245  2.8024
  723TMC3    H210745   1.031   3.859  12.703  1.5342  2.8559 -0.7201
  723TMC3    C710746   1.248   4.000  12.668  0.6329  0.0315 -0.2594
  723TMC3    C810747   1.000   3.606  12.798 -0.0162 -0.1978 -0.3136
  723TMC3    O110748   1.347   4.039  12.605 -0.0118 -0.0042  0.4537
  723TMC3    O210749   0.895   3.668  12.786 -0.5087 -0.2338 -0.2334
  724TMC3    C110750   1.267   1.602  10.381  0.0250  0.5052  0.6473
  724TMC3    C210751   1.204   1.596  10.254  0.1896 -0.0134  0.0394
  724TMC3    C310752   1.222   1.707  10.172  0.2535  0.4750 -0.2474
  724TMC3    C410753   1.379   1.681  10.404  0.5658 -0.5211  0.5342
  724TMC3    C510754   1.405   1.772  10.309 -0.3694 -0.1227 -0.5981
  724TMC3    C610755   1.320   1.799  10.204  0.0082  0.4357 -0.0775
  724TMC3     C10756   1.232   1.515  10.491  0.5428 -0.2308 -0.5727
  724TMC3     O10757   1.156   1.427  10.466  0.5526  0.4390 -0.1483
  724TMC3     H10758   1.115   1.536  10.243  1.0746 -1.0862 -1.2204
  724TMC3    H110759   1.451   1.667  10.484  0.5592  0.3157  0.6780
  724TMC3    H210760   1.352   1.875  10.133  1.3668  0.7080  0.8281
  724TMC3    C710761   1.534   1.834  10.312 -0.8114  0.0681 -0.1376
  724TMC3    C810762   1.124   1.729  10.073 -0.6197 -0.2925  0.1133
  724TMC3    O110763   1.572   1.891  10.212  0.5226 -0.5999  0.2108
  724TMC3    O210764   1.056   1.637  10.045  0.1580 -0.3656 -0.1572
  725TMC3    C110765   3.768   0.880  13.204 -0.0360 -0.2047 -0.3165
  725TMC3    C210766   3.671   0.882  13.100 -0.0602 -0.3022 -0.1278
  725TMC3    C310767   3.618   0.763  13.062  0.2497 -0.1831 -0.0599
  725TMC3    C410768   3.811   0.764  13.259 -0.7587 -0.3736  0.0292
  725TMC3    C510769   3.759   0.651  13.211 -0.1557 -0.5064 -0.0423
  725TMC3    C610770   3.668   0.642  13.105  0.4695 -0.2535  0.3098
  725TMC3     C10771   3.828   1.005  13.236 -0.2562  0.0864  0.0977
  725TMC3     O10772   3.803   1.102  13.162 -0.1292  0.4881 -0.4454
  725TMC3     H10773   3.637   0.976  13.060  2.7965  1.4332  1.5465
  725TMC3    H110774   3.902   0.757  13.317  0.1352  3.9202 -0.9015
  725TMC3    H210775   3.623   0.553  13.062 -1.0026  1.8513 -2.5080
  725TMC3    C710776   3.822   0.526  13.251  0.7350 -0.8268 -0.3562
  725TMC3    C810777   3.526   0.748  12.945 -0.5665  0.1917  0.5259
  725TMC3    O110778   3.864   0.517  13.367 -0.5814  0.0718 -0.3998
  725TMC3    O210779   3.439   0.664  12.958 -0.2638  0.0991  0.1954
  726MPD2     C10780   0.765   2.428   9.808  0.2606 -0.1396  0.2522
  726MPD2    C110781   0.691   2.541   9.835  0.4846  0.4047 -0.8588
  726MPD2    C210782   0.581   2.530   9.923 -0.4089 -0.0201 -0.3230
  726MPD2    C310783   0.547   2.413   9.991  0.0501  0.4140 -0.6576
  726MPD2    C410784   0.637   2.305   9.967 -1.2801 -0.2878  0.4409
  726MPD2    C510785   0.742   2.308   9.877 -0.5618  0.2357 -0.2778
  726MPD2     H10786   0.523   2.617   9.951  1.3958  1.9590 -2.7489
  726MPD2    H110787   0.622   2.211  10.020 -0.4371  0.0917  1.3490
  726MPD2    H210788   0.841   2.424   9.730  1.5289  1.0010  1.4420
  726MPD2    H310789   0.789   2.216   9.843 -1.4166 -0.3574  0.1456
  726MPD2     N10790   0.432   2.398  10.075  0.3821 -0.1898 -0.0288
  726MPD2    H510791   0.431   2.311  10.128 -0.1826 -0.9836 -1.3598
  726MPD2    N110792   0.723   2.675   9.794 -1.1850 -0.1001 -0.7592
  726MPD2    H710793   0.666   2.747   9.836 -0.2249  0.7959 -1.0047
  727TMC3    C110794   0.820   2.864   9.707 -0.3484  0.0436 -0.3136
  727TMC3    C210795   0.809   2.928   9.831  0.5195 -0.5049  0.1674
  727TMC3    C310796   0.840   3.053   9.837 -0.6723  0.2005 -0.5357
  727TMC3    C410797   0.864   2.935   9.596  1.2978  0.2595 -0.0445
  727TMC3    C510798   0.904   3.058   9.619 -0.2309 -0.0689  0.2185
  727TMC3    C610799   0.892   3.124   9.734 -0.1511 -0.3062  0.6384
  727TMC3     C10800   0.821   2.722   9.705  0.8188  0.9344 -0.0842
  727TMC3     O10801   0.904   2.660   9.637 -0.2261  0.4691  0.4359
  727TMC3     H10802   0.775   2.883   9.924  1.0833  1.1573  1.1636
  727TMC3    H110803   0.896   2.874   9.513 -0.8721 -0.5017 -0.3237
  727TMC3    H210804   0.921   3.227   9.749  0.9210 -0.3745 -1.0450
  727TMC3    C710805   0.888   3.137   9.498 -0.1389 -0.3446  0.2250
  727TMC3    C810806   0.902   3.077   9.957 -0.1570 -0.3694 -0.3767
  727TMC3    O110807   0.902   3.259   9.512 -0.5730 -0.0275 -0.3167
  727TMC3    O210808   0.962   2.988  10.013 -0.2152 -0.1339  0.1265
  728TMC3    C110809   1.026   0.985  15.296  0.5451 -0.5974  1.2956
  728TMC3    C210810   1.141   1.058  15.284  0.3320  0.0786 -1.2101
  728TMC3    C310811   1.137   1.191  15.246 -0.0264  0.5265  0.1082
  728TMC3    C410812   0.905   1.044  15.270 -0.2320 -0.1599  0.5303
  728TMC3    C510813   0.908   1.163  15.210  0.5374 -0.0376  0.0172
  728TMC3    C610814   1.024   1.245  15.202  0.4959 -0.0267 -0.5445
  728TMC3     C10815   1.023   0.853  15.364 -0.4194 -0.1238 -0.1520
  728TMC3     O10816   1.127   0.788  15.385 -0.4038 -0.3450  0.4054
  728TMC3     H10817   1.232   1.002  15.304 -1.1382 -1.5958  0.8295
  728TMC3    H110818   0.810   0.992  15.272 -1.3413  1.8602  0.2182
  728TMC3    H210819   1.013   1.349  15.171 -3.0741 -0.6789 -1.4601
  728TMC3    C710820   0.787   1.207  15.131  0.1738 -0.1814 -0.0521
  728TMC3    C810821   1.259   1.268  15.248  0.0170  0.2684 -0.3789
  728TMC3    O110822   0.683   1.153  15.166 -0.0313 -0.2150  0.6463
  728TMC3    O210823   1.360   1.207  15.276 -0.3257  0.1572 -0.7544
  729MPD2     C10824   3.074   2.037  16.257 -0.2078  0.1519  0.6264
  729MPD2    C110825   3.167   2.084  16.343  0.1683 -0.5366 -0.9931
  729MPD2    C210826   3.146   2.060  16.475  0.5785  0.1807 -0.3303
  729MPD2    C310827   3.029   2.006  16.525  0.2157  0.3649 -0.1071
  729MPD2    C410828   2.940   1.958  16.433  0.3266 -0.2649  0.7656
  729MPD2    C510829   2.966   1.972  16.306 -0.2867 -0.2249  0.6239
  729MPD2     H10830   3.223   2.084  16.548 -0.0456  1.8023 -0.2208
  729MPD2    H110831   2.851   1.905  16.467  0.2796 -1.8589 -1.8472
  729MPD2    H210832   3.076   2.056  16.150 -3.8440  1.5902  0.8064
  729MPD2    H310833   2.889   1.938  16.237 -0.0248 -0.1279  0.2864
  729MPD2     N10834   3.001   1.999  16.662 -0.5076 -0.1300  0.7999
  729MPD2    H510835   3.066   2.065  16.704 -0.9385  0.4734  0.5157
  729MPD2    N110836   3.280   2.144  16.278  0.5208 -0.1622 -0.3232
  729MPD2    H710837   3.268   2.165  16.180  0.4022 -0.8145 -0.4493
  730TMC3    C110838   2.872   2.032  16.857 -0.0983 -0.2256  0.3060
  730TMC3    C210839   2.983   2.043  16.923 -0.4168  0.3393 -0.3891
  730TMC3    C310840   2.995   2.156  17.001 -0.2452 -0.5485 -0.3924
  730TMC3    C410841   2.758   2.110  16.867 -0.6736  0.7121 -0.0006
  730TMC3    C510842   2.766   2.213  16.960  0.7338 -0.0960  0.3863
  730TMC3    C610843   2.884   2.238  17.018  0.2510  0.2155  1.0501
  730TMC3     C10844   2.882   1.962  16.727  0.1883 -0.1480  0.6703
  730TMC3     O10845   2.782   1.911  16.682 -0.5483 -0.4246  0.6214
  730TMC3     H10846   3.061   1.968  16.914 -1.0223 -0.3850  0.3576
  730TMC3    H110847   2.675   2.097  16.799 -0.5836  0.2355 -0.0253
  730TMC3    H210848   2.899   2.329  17.074 -0.9636  0.6606  0.6495
  730TMC3    C710849   2.722   2.338  16.901 -0.2075 -0.2498  0.0769
  730TMC3    C810850   3.125   2.217  16.976  0.5669  0.6562  0.3988
  730TMC3    O110851   2.741   2.359  16.781 -0.3716 -0.0590 -0.1557
  730TMC3    O210852   3.198   2.151  16.903  0.1674  0.0004  0.2240
  731MPD2     C10853   2.755   4.730  12.364  0.0700  0.0705 -0.3733
  731MPD2    C110854   2.896   4.734  12.369 -0.2878 -0.3182  0.6142
  731MPD2    C210855   2.968   4.648  12.445  0.1467 -0.4241 -0.5917
  731MPD2    C310856   2.901   4.559  12.532  0.1041  0.1657 -0.5008
  731MPD2    C410857   2.761   4.546  12.519 -0.0919  0.0486  0.4957
  731MPD2    C510858   2.691   4.631  12.439  0.2842 -0.5694  0.8909
  731MPD2     H10859   3.076   4.658  12.449  0.0837 -0.1655  0.5322
  731MPD2    H110860   2.695   4.481  12.574  1.4389 -1.4212  0.6095
  731MPD2    H210861   2.705   0.062  12.300  1.2473  1.7252  0.5702
  731MPD2    H310862   2.583   4.633  12.440  0.3515  1.9018  2.6631
  731MPD2     N10863   2.985   4.478  12.615 -0.0599 -0.8217 -0.2798
  731MPD2    H510864   3.085   4.492  12.607 -0.5043  2.9842  0.8212
  731MPD2    N110865   2.954   0.107  12.310 -0.8477  0.1481 -0.5405
  731MPD2    H710866   2.885   0.171  12.272 -0.6291  0.9248  0.3619
  732TMC3    C110867   3.108   0.285  12.265 -0.0412  0.1889  0.2695
  732TMC3    C210868   3.005   0.373  12.243  0.3172  0.1389 -0.3567
  732TMC3    C310869   3.034   0.497  12.201 -0.3778  0.0323  0.3595
  732TMC3    C410870   3.232   0.323  12.242 -0.4223 -0.2941 -0.6466
  732TMC3    C510871   3.259   0.458  12.232  0.8624 -0.0011  0.2308
  732TMC3    C610872   3.160   0.547  12.206 -0.1539  0.1899  0.2847
  732TMC3     C10873   3.086   0.141  12.301  0.3369 -0.1195 -0.9659
  732TMC3     O10874   3.187   0.078  12.330 -0.8175  0.1773  0.3614
  732TMC3     H10875   2.900   0.351  12.259 -0.2174  0.7574 -2.9063
  732TMC3    H110876   3.313   0.251  12.245 -0.4229 -0.3057 -0.8971
  732TMC3    H210877   3.193   0.641  12.163  0.4476 -0.6274 -1.0519
  732TMC3    C710878   3.392   0.509  12.208 -0.9936 -0.2528  0.1276
  732TMC3    C810879   2.943   0.580  12.121 -0.8412 -0.1767 -0.3733
  732TMC3    O110880   3.408   0.603  12.134 -0.1268 -0.5689  0.4103
  732TMC3    O210881   2.973   0.696  12.097  0.6733  0.5336  0.4332
  733TMC3    C110882   3.775   3.400  12.500  0.1434  0.1378 -0.0996
  733TMC3    C210883   3.848   3.306  12.563 -0.6529 -0.4018 -0.1531
  733TMC3    C310884   3.963   3.347  12.627 -0.0293  0.3866  0.3474
  733TMC3    C410885   3.817   3.534  12.489 -0.0573 -0.0935 -0.1279
  733TMC3    C510886   3.947   3.564  12.529 -0.8312  0.7617  0.1796
  733TMC3    C610887   4.020   3.468  12.600  0.1164  0.1471 -0.0813
  733TMC3     C10888   3.637   3.376  12.464  0.2771  0.2291 -0.2041
  733TMC3     O10889   3.566   3.470  12.427 -0.1404 -0.2716 -0.2811
  733TMC3     H10890   3.814   3.205  12.581  1.3802 -0.6781  2.1456
  733TMC3    H110891   3.764   3.604  12.425 -0.6978  0.2248  0.7509
  733TMC3    H210892   4.119   3.492  12.638 -0.2530  1.2752  0.1808
  733TMC3    C710893   3.995   3.702  12.516  0.4181  0.1118 -0.3469
  733TMC3    C810894   4.029   3.253  12.725  0.2700  0.6956 -0.5999
  733TMC3    O110895   4.003   3.753  12.404  0.4144 -0.7887 -0.1416
  733TMC3    O210896   4.039   3.135  12.694  0.5622  0.3203  0.3792
  734MPD2     C10897   0.918   1.139  12.303  0.7503  0.7284  0.5701
  734MPD2    C110898   0.845   1.039  12.245 -0.1719  0.3570  0.6129
  734MPD2    C210899   0.844   1.038  12.105  0.2672  0.6514 -0.1898
  734MPD2    C310900   0.923   1.122  12.032  0.4273  0.7128 -0.5398
  734MPD2    C410901   0.996   1.220  12.097  0.9387  0.2549 -0.5413
  734MPD2    C510902   0.986   1.233  12.232  0.0522 -0.3140  0.1003
  734MPD2     H10903   0.765   0.984  12.053  0.9025 -0.0789 -0.3910
  734MPD2    H110904   1.070   1.285  12.052  1.4032 -0.9127 -1.4602
  734MPD2    H210905   0.926   1.140  12.411  0.0917  0.5481  0.6229
  734MPD2    H310906   1.045   1.304  12.289 -1.5364  3.0545 -2.4425
  734MPD2     N10907   0.925   1.103  11.894  0.2722  0.2685  0.3126
  734MPD2    H510908   0.850   1.052  11.850 -0.3865  2.0634 -0.6675
  734MPD2    N110909   0.783   0.938  12.322  0.6034  0.3456 -0.5691
  734MPD2    H710910   0.795   0.945  12.422 -0.1280  0.9022 -0.5248
  735TMC3    C110911   0.685   0.716  12.354 -0.1901  0.2029  0.1195
  735TMC3    C210912   0.582   0.654  12.290  0.4286  0.1561  0.4979
  735TMC3    C310913   0.599   0.518  12.262  0.2442  0.2578  0.1830
  735TMC3    C410914   0.789   0.652  12.408  0.0290 -0.5061  0.4966
  735TMC3    C510915   0.791   0.515  12.394  0.0626 -0.4439  0.0999
  735TMC3    C610916   0.701   0.449  12.318 -0.7606  0.4147 -1.1737
  735TMC3     C10917   0.713   0.833  12.266 -0.1830 -1.0332  0.3740
  735TMC3     O10918   0.664   0.827  12.156 -0.2151 -0.0269  0.9068
  735TMC3     H10919   0.491   0.702  12.257  0.7083  0.5912  0.3527
  735TMC3    H110920   0.875   0.705  12.446 -0.1169  1.0808 -1.3622
  735TMC3    H210921   0.694   0.341  12.323 -1.0148  0.3594 -2.7429
  735TMC3    C710922   0.924   0.468  12.362  0.4374 -0.1952 -0.3700
  735TMC3    C810923   0.566   0.475  12.132  0.3499  0.0434 -0.1795
  735TMC3    O110924   0.996   0.535  12.291  0.0242  0.0882  0.0878
  735TMC3    O210925   0.573   0.356  12.104  0.3375  0.3877  0.2322
  736MPD2     C10926   1.039   0.126  12.420 -1.0012 -0.5168 -0.1874
  736MPD2    C110927   1.034   0.246  12.352 -0.2675 -0.4100 -0.1319
  736MPD2    C210928   1.115   0.261  12.236 -0.3185  0.2401  0.7291
  736MPD2    C310929   1.223   0.176  12.217  0.4468 -0.1334 -0.6304
  736MPD2    C410930   1.242   0.075  12.309 -0.0992  0.1893  0.5152
  736MPD2    C510931   1.150   0.048  12.402  0.0006  0.2727  0.2265
  736MPD2     H10932   1.091   0.346  12.172  2.0745 -0.0098 -0.5128
  736MPD2    H110933   1.320   0.001  12.299  3.0202  3.5220  0.6337
  736MPD2    H210934   0.973   0.112  12.506 -0.7426 -2.0152 -0.2315
  736MPD2    H310935   1.146   4.697  12.463  1.9256 -0.7416 -1.1744
  736MPD2     N10936   1.308   0.174  12.108 -0.2763  0.1980  0.4327
  736MPD2    H510937   1.393   0.121  12.119  0.7465  1.6513 -0.4266
  736MPD2    N110938   0.927   0.334  12.393  0.1515 -0.2169 -0.3521
  736MPD2    H710939   0.875   0.297  12.472 -0.4390 -2.2049 -1.6649
  737TMC3    C110940   1.378   0.198  11.883 -0.3352 -0.1771  0.7076
  737TMC3    C210941   1.370   0.273  11.770  0.2924  0.6581  0.3400
  737TMC3    C310942   1.431   0.224  11.660  0.2183  1.0027 -0.9935
  737TMC3    C410943   1.453   0.088  11.896  0.1300 -0.1538 -0.0959
  737TMC3    C510944   1.528   0.050  11.783 -0.3417 -0.5903  0.5400
  737TMC3    C610945   1.519   0.118  11.662  0.3719  0.0669 -0.1025
  737TMC3     C10946   1.287   0.238  11.986 -0.4817 -0.0812 -0.3719
  737TMC3     O10947   1.203   0.324  11.961 -0.4432  0.0940  0.5629
  737TMC3     H10948   1.304   0.359  11.765  0.8351  0.9359 -2.3869
  737TMC3    H110949   1.458   0.028  11.986 -2.1193  0.9468  0.7487
  737TMC3    H210950   1.584   0.102  11.577  1.4436 -2.5123  1.2285
  737TMC3    C710951   1.654   4.727  11.813  0.2312  0.2224  0.1467
  737TMC3    C810952   1.432   0.306  11.540 -0.2504  0.0365 -0.2526
  737TMC3    O110953   1.653   4.663  11.917 -0.0481  0.1007  0.2926
  737TMC3    O210954   1.426   0.253  11.432 -0.8601 -0.7736  0.2969
  738MPD2     C10955   1.957   4.371  15.396  0.1571 -0.1025 -0.3554
  738MPD2    C110956   1.967   4.287  15.288 -0.2008  0.8053 -0.1963
  738MPD2    C210957   2.055   4.316  15.189  0.4061 -0.2163 -0.4909
  738MPD2    C310958   2.130   4.430  15.185  0.4153  0.3393  0.0439
  738MPD2    C410959   2.126   4.511  15.290  0.1087  0.1624 -0.0019
  738MPD2    C510960   2.050   4.474  15.394 -0.2380  0.8918 -0.2571
  738MPD2     H10961   2.055   4.245  15.108  2.5454  0.9547 -1.5089
  738MPD2    H110962   2.191   4.598  15.280 -0.9482  0.5400 -3.5627
  738MPD2    H210963   1.905   4.352  15.489 -1.9658 -1.3907 -1.8074
  738MPD2    H310964   2.064   4.536  15.481  0.3438 -0.6489  0.7543
  738MPD2     N10965   2.217   4.451  15.075 -0.5879 -0.2684 -0.4608
  738MPD2    H510966   2.280   4.530  15.086 -2.4678  1.4913 -2.2777
  738MPD2    N110967   1.881   4.172  15.273 -0.0320  0.3542  0.3825
  738MPD2    H710968   1.890   4.118  15.188  1.5009 -1.6785  1.8666
  739TMC3    C110969   2.299   4.438  14.854 -0.2045  0.0499 -0.5190
  739TMC3    C210970   2.265   4.450  14.720  0.0906  0.2017 -0.0007
  739TMC3    C310971   2.363   4.443  14.622  0.6927  0.3174 -0.0275
  739TMC3    C410972   2.431   4.444  14.891  0.1415  0.0135 -0.3698
  739TMC3    C510973   2.524   4.451  14.786  0.2532 -0.1000  0.2875
  739TMC3    C610974   2.498   4.440  14.653  0.4765  0.0372  0.2402
  739TMC3     C10975   2.191   4.403  14.943  0.5135 -0.9953 -0.8059
  739TMC3     O10976   2.085   4.369  14.898  0.2777 -0.4682  0.5526
  739TMC3     H10977   2.158   4.445  14.700 -0.1766 -0.6652  1.5871
  739TMC3    H110978   2.465   4.430  14.993 -1.5171 -1.9829 -0.0823
  739TMC3    H210979   2.574   4.448  14.577 -0.3028  0.8687 -0.4562
  739TMC3    C710980   2.663   4.446  14.822  0.0540 -0.1003  0.2443
  739TMC3    C810981   2.318   4.403  14.493 -0.0466  0.0229 -0.5284
  739TMC3    O110982   2.694   4.395  14.929 -0.6841  0.0396 -0.2177
  739TMC3    O210983   2.195   4.414  14.472 -0.1211 -0.1850  0.1670
  740TMC3    C110984   2.504   0.844  14.329  0.2445 -0.1274  0.1572
  740TMC3    C210985   2.543   0.759  14.430 -0.0116  0.9647 -0.9241
  740TMC3    C310986   2.606   0.646  14.390  0.1911  0.0268 -0.6506
  740TMC3    C410987   2.524   0.833  14.193  0.0921  0.7228  0.7322
  740TMC3    C510988   2.580   0.716  14.161 -1.0090  0.5122 -0.3506
  740TMC3    C610989   2.625   0.623  14.257  0.5824 -0.0045  0.0173
  740TMC3     C10990   2.416   0.951  14.376 -0.4676 -0.2205 -0.1072
  740TMC3     O10991   2.406   1.047  14.300  0.0839  0.2315 -0.1131
  740TMC3     H10992   2.536   0.790  14.534 -1.0406  2.0655 -1.3208
  740TMC3    H110993   2.484   0.905  14.122 -0.3711 -2.4679 -2.2187
  740TMC3    H210994   2.673   0.531  14.225  1.1540 -0.1781  1.3696
  740TMC3    C710995   2.528   0.665  14.038 -0.1516 -0.3313  0.1581
  740TMC3    C810996   2.679   0.567  14.484  0.4230  0.0640 -0.0576
  740TMC3    O110997   2.456   0.565  14.052  0.2421  0.3855 -0.0166
  740TMC3    O210998   2.783   0.521  14.436  0.1652  0.3830 -0.3463
  741TMC3    C110999   2.282   0.001  14.316 -0.3174 -0.0507 -0.1144
  741TMC3    C211000   2.152   0.010  14.272 -0.6670 -0.1452  0.4356
  741TMC3    C311001   2.058   0.062  14.355  0.2903  0.1633  0.7467
  741TMC3    C411002   2.324   0.055  14.436 -0.6776 -0.7712  0.8054
  741TMC3    C511003   2.223   0.104  14.511  0.4975  0.0476  0.2470
  741TMC3    C611004   2.087   0.104  14.478  0.8191  0.1850  0.3757
  741TMC3     C11005   2.384   4.679  14.233  0.2482  0.2925 -1.0419
  741TMC3     O11006   2.496   4.665  14.285 -0.2640 -0.3523  0.1523
  741TMC3     H11007   2.119   4.702  14.180 -1.7404  0.5178  0.4734
  741TMC3    H111008   2.426   0.084  14.460 -1.1791 -0.1428  2.1759
  741TMC3    H211009   2.009   0.129  14.549  0.8549  1.5464 -0.0637
  741TMC3    C711010   2.257   0.112  14.652  0.3155 -0.6153  0.6899
  741TMC3    C811011   1.922   0.028  14.328 -0.4845 -0.4590 -0.0815
  741TMC3    O111012   2.161   0.149  14.723 -0.4484  0.0606  0.2030
  741TMC3    O211013   1.870   0.055  14.220  0.3243 -0.1583 -0.4036
  742TMC3    C111014   2.168   3.655  15.297 -0.2610 -0.1310  0.2313
  742TMC3    C211015   2.075   3.617  15.201 -0.3373  0.1471  0.1868
  742TMC3    C311016   2.117   3.569  15.076 -0.2787  0.4174 -1.2580
  742TMC3    C411017   2.303   3.644  15.270  0.5463  0.6987 -0.6109
  742TMC3    C511018   2.342   3.586  15.154 -0.9465  0.5515 -0.5845
  742TMC3    C611019   2.255   3.556  15.059 -0.1567  0.3740  0.5405
  742TMC3     C11020   2.125   3.766  15.377 -0.0138 -0.1834 -0.4542
  742TMC3     O11021   2.044   3.844  15.334  0.2867  0.3425 -0.5472
  742TMC3     H11022   1.976   3.644  15.236  0.7186  3.3467  0.6589
  742TMC3    H111023   2.365   3.699  15.339  0.9854 -0.8221  0.2213
  742TMC3    H211024   2.288   3.515  14.964  0.7618 -0.8528  1.3829
  742TMC3    C711025   2.480   3.560  15.123  0.6026  0.1673 -0.8007
  742TMC3    C811026   2.030   3.572  14.956  0.2311 -0.0891 -0.2777
  742TMC3    O111027   2.494   3.468  15.047 -0.6203 -0.5965 -0.6039
  742TMC3    O211028   1.909   3.558  14.971  0.2357  0.3823 -0.3234
  743MPD2     C11029   0.508   0.033   1.918  0.0954 -0.6804 -0.8061
  743MPD2    C111030   0.507   4.728   1.781 -0.3403 -1.2640 -0.0320
  743MPD2    C211031   0.570   0.056   1.687  0.3313 -0.3385  0.2029
  743MPD2    C311032   0.623   0.185   1.715  0.1924  0.1729 -0.1640
  743MPD2    C411033   0.616   0.238   1.843 -0.6803  0.0374  0.2860
  743MPD2    C511034   0.559   0.162   1.948  0.1224 -0.3410  0.0317
  743MPD2     H11035   0.555   0.031   1.583  0.1132 -1.6190  0.5460
  743MPD2    H111036   0.645   0.339   1.871 -0.2970 -0.2119  0.7903
  743MPD2    H211037   0.461   4.712   1.996  0.9678  2.5395  2.2378
  743MPD2    H311038   0.564   0.197   2.051  1.6273  1.3896 -0.6207
  743MPD2     N11039   0.684   0.254   1.604  0.3899 -0.2601 -0.6519
  743MPD2    H511040   0.676   0.220   1.509 -1.3461  0.3452 -0.7353
  743MPD2    N111041   0.439   4.603   1.752 -0.4190 -0.1914 -0.3468
  743MPD2    H711042   0.386   4.562   1.828 -2.2197  0.9441 -1.0089
  744TMC3    C111043   0.356   4.438   1.597 -0.5940  0.6342  0.0332
  744TMC3    C211044   0.233   4.445   1.647 -0.7984  0.5773  1.3056
  744TMC3    C311045   0.136   4.346   1.615  0.3673 -0.1799  0.6436
  744TMC3    C411046   0.383   4.359   1.487 -0.7145  0.2135  0.0293
  744TMC3    C511047   0.290   4.268   1.449 -0.3612  0.0372 -0.5333
  744TMC3    C611048   0.168   4.258   1.510 -0.0171  0.2624  0.3216
  744TMC3     C11049   0.462   4.529   1.640 -0.2293  0.4942 -0.1544
  744TMC3     O11050   0.563   4.530   1.568 -0.3175  0.5163  0.2365
  744TMC3     H11051   0.204   4.528   1.711  1.3704  3.2630 -1.1851
  744TMC3    H111052   0.483   4.356   1.446 -1.0579 -0.2232 -0.7862
  744TMC3    H211053   0.084   4.196   1.484  0.0016 -0.1947  1.3492
  744TMC3    C711054   0.291   4.245   1.303 -0.1821  0.1153 -0.8665
  744TMC3    C811055   4.739   4.397   1.613 -0.2378 -0.4334  0.3230
  744TMC3    O111056   0.367   4.313   1.237  0.2156 -0.0048 -0.2295
  744TMC3    O211057   4.675   4.387   1.507 -0.1479 -0.1790 -0.5138
  745TMC3    C111058   2.383   3.021  13.306 -0.4129  0.0143 -0.1772
  745TMC3    C211059   2.289   3.002  13.408  0.3325 -0.3220 -0.2598
  745TMC3    C311060   2.165   3.065  13.405  0.8226 -0.4073  0.2783
  745TMC3    C411061   2.353   3.120  13.220  0.1904  0.1687 -0.3060
  745TMC3    C511062   2.232   3.186  13.223  0.2841 -0.3464 -0.1292
  745TMC3    C611063   2.126   3.154  13.308 -0.4818 -0.1112  0.1769
  745TMC3     C11064   2.522   3.024  13.354  0.5195 -0.4264  0.1267
  745TMC3     O11065   2.600   3.113  13.314 -0.1201 -0.0465 -0.1031
  745TMC3     H11066   2.303   2.925  13.484 -0.7966 -0.4458 -0.1771
  745TMC3    H111067   2.441   3.154  13.166 -0.7079  0.5414 -1.5301
  745TMC3    H211068   2.030   3.203  13.305  1.0350  2.8699  0.8023
  745TMC3    C711069   2.205   3.297  13.132  0.5917  0.1566  0.0539
  745TMC3    C811070   2.105   3.094  13.531  0.0821 -0.6790 -0.0854
  745TMC3    O111071   2.094   3.353  13.138 -0.6750  0.8542 -0.7726
  745TMC3    O211072   1.985   3.097  13.528  0.6823 -0.7536 -0.5024
  746TMC3    C111073   0.190   4.674  11.116 -0.8543 -0.2903 -0.2965
  746TMC3    C211074   0.227   4.595  11.007  0.5163  0.5074 -0.2922
  746TMC3    C311075   0.131   4.521  10.952  0.5375 -0.7612 -0.6564
  746TMC3    C411076   0.069   4.650  11.184 -0.3897  0.3947 -0.0080
  746TMC3    C511077   4.718   4.564  11.129  1.2646  0.3594  0.3995
  746TMC3    C611078   0.007   4.498  11.011  0.4395 -0.3008 -0.2902
  746TMC3     C11079   0.206   0.079  11.099  0.3489  0.2039 -0.2107
  746TMC3     O11080   0.101   0.143  11.103  0.3105 -0.2081 -0.5589
  746TMC3     H11081   0.308   4.631  10.945  0.3157  2.0603  0.3569
  746TMC3    H111082   0.044   4.698  11.278  1.5664  0.9881  0.2024
  746TMC3    H211083   4.666   4.444  10.963 -0.3254 -1.5493  2.4321
  746TMC3    C711084   4.580   4.580  11.154  0.3555 -0.0779  0.0334
  746TMC3    C811085   0.147   4.517  10.804  0.0572  0.2356 -0.5328
  746TMC3    O111086   4.506   4.489  11.172 -0.4315 -0.1790 -0.2484
  746TMC3    O211087   0.261   4.512  10.761  0.0232 -0.2677  0.0012
  747TMC3    C111088   2.243   0.401  11.297  0.3092 -0.5084  0.2591
  747TMC3    C211089   2.250   0.291  11.371 -0.2243  0.4127  0.5163
  747TMC3    C311090   2.334   0.291  11.480  0.0440  0.1521 -0.3309
  747TMC3    C411091   2.315   0.514  11.335  0.6226 -0.5380  0.2887
  747TMC3    C511092   2.409   0.509  11.438 -0.1581  0.6316  0.0831
  747TMC3    C611093   2.414   0.398  11.515  0.1537 -0.3861 -0.6742
  747TMC3     C11094   2.168   0.414  11.172 -0.7492 -0.0665  0.1224
  747TMC3     O11095   2.138   0.528  11.139 -0.4383  0.2077  0.2188
  747TMC3     H11096   2.194   0.202  11.347  0.2664 -0.0171  0.9739
  747TMC3    H111097   2.316   0.603  11.273  1.3392 -0.2243  0.7461
  747TMC3    H211098   2.484   0.391  11.598  0.7198  1.0247 -1.0295
  747TMC3    C711099   2.495   0.619  11.453  0.3327  0.9272 -0.1036
  747TMC3    C811100   2.303   0.196  11.585  0.1249 -0.1185  0.0892
  747TMC3    O111101   2.435   0.723  11.466  0.1885  0.5640 -0.0757
  747TMC3    O211102   2.391   0.153  11.658 -0.4153 -1.0520  0.5791
  748MPD2     C11103   4.460   0.697   1.324  0.4574  0.5742  0.3743
  748MPD2    C111104   4.414   0.750   1.213 -0.1609 -0.3491 -0.1996
  748MPD2    C211105   4.501   0.819   1.132  0.9990  0.6107  0.0263
  748MPD2    C311106   4.627   0.849   1.180 -0.2684  0.3069  0.3456
  748MPD2    C411107   4.672   0.794   1.303  0.5772  0.3338 -0.3184
  748MPD2    C511108   4.588   0.707   1.368 -0.3737 -0.7686  0.4904
  748MPD2     H11109   4.466   0.848   1.034 -1.8097  0.9465  1.1508
  748MPD2    H111110   0.024   0.814   1.357 -0.2686 -2.5027  2.1837
  748MPD2    H211111   4.386   0.641   1.380 -0.2607 -0.8405 -1.9902
  748MPD2    H311112   4.619   0.650   1.455  2.2874 -0.1251 -0.0423
  748MPD2     N11113   4.694   0.957   1.117 -0.3139  0.3280 -0.8037
  748MPD2    H511114   4.651   0.999   1.035  0.5356  3.8278  0.5549
  748MPD2    N111115   4.282   0.739   1.191 -0.6586 -0.0411 -0.0140
  748MPD2    H711116   4.240   0.666   1.249 -1.4504 -0.4486 -1.1228
  749TMC3    C111117   0.148   1.070   1.037 -0.2819 -0.1218 -0.5065
  749TMC3    C211118   0.283   1.069   1.036 -0.4672 -0.6589 -0.6483
  749TMC3    C311119   0.347   1.185   0.994  0.6116 -0.3427  0.1334
  749TMC3    C411120   0.080   1.188   1.008 -0.5498 -0.5044  0.4809
  749TMC3    C511121   0.147   1.302   0.958  0.3249  0.2209  0.5998
  749TMC3    C611122   0.287   1.300   0.960 -0.4800  0.4322 -0.2912
  749TMC3     C11123   0.090   0.977   1.129  0.0749  0.7009 -0.2343
  749TMC3     O11124   0.162   0.919   1.202  0.3466  0.6484 -0.3732
  749TMC3     H11125   0.334   0.978   1.063  0.6143 -0.0267 -0.5322
  749TMC3    H111126   4.712   1.180   1.020 -0.5399  1.0839  1.5344
  749TMC3    H211127   0.340   1.380   0.911  0.5222  0.7323  1.2744
  749TMC3    C711128   0.086   1.385   0.854  0.9932 -0.5583 -0.1111
  749TMC3    C811129   0.487   1.203   1.027  0.0653 -0.2113 -0.3312
  749TMC3    O111130   0.124   1.502   0.839 -1.0298 -0.7105 -0.0590
  749TMC3    O211131   0.533   1.318   1.035 -0.0279 -0.0293  0.2511
  750MPD2     C11132   4.728   2.191  11.192  0.3545 -0.3421  0.5073
  750MPD2    C111133   4.693   2.157  11.321 -0.3434  0.1415  0.3385
  750MPD2    C211134   4.648   2.025  11.342  0.2681  0.2744  1.0492
  750MPD2    C311135   4.655   1.929  11.238  0.1021  0.6717 -0.5576
  750MPD2    C411136   4.686   1.969  11.113 -0.5597 -0.9347 -0.1112
  750MPD2    C511137   4.733   2.097  11.093 -0.1795  0.2796  0.1765
  750MPD2     H11138   4.625   1.988  11.442  0.2581 -2.1477  0.1623
  750MPD2    H111139   4.694   1.908  11.024  1.4337 -2.6609  1.2587
  750MPD2    H211140   0.030   2.287  11.163 -0.7907 -0.0780 -0.2552
  750MPD2    H311141   0.027   2.114  10.991  1.4477  0.8379  0.8007
  750MPD2     N11142   4.618   1.797  11.252 -0.0297  0.8014 -0.6710
  750MPD2    H511143   4.588   1.749  11.167  0.2755  2.3331 -1.6547
  750MPD2    N111144   4.713   2.249  11.424 -0.5705 -0.2121 -0.1887
  750MPD2    H711145   0.010   2.337  11.392 -2.5079  0.9943  0.8976
  751TMC3    C111146   4.555   1.593  11.346 -0.4159  0.9871 -0.5202
  751TMC3    C211147   4.492   1.531  11.449  0.3534 -0.1056  0.4035
  751TMC3    C311148   4.426   1.418  11.423 -0.9721 -0.5100 -0.1452
  751TMC3    C411149   4.556   1.545  11.214 -0.2098 -0.2296  0.0429
  751TMC3    C511150   4.488   1.428  11.196  0.4306 -0.1801  0.8549
  751TMC3    C611151   4.418   1.358  11.293 -0.7187  0.5029 -0.1316
  751TMC3     C11152   4.598   1.725  11.370  0.1011  0.1114  0.0603
  751TMC3     O11153   4.635   1.763  11.480 -0.1919 -0.6899 -0.2560
  751TMC3     H11154   4.489   1.567  11.551 -1.6349 -2.0206  1.0084
  751TMC3    H111155   4.636   1.568  11.146 -2.2047  2.4690 -1.3633
  751TMC3    H211156   4.358   1.270  11.275  0.6502 -0.9289  2.3068
  751TMC3    C711157   4.467   1.389  11.052 -0.7557 -0.8754  0.2026
  751TMC3    C811158   4.333   1.366  11.524  0.8934 -0.1880  0.2962
  751TMC3    O111159   4.553   1.423  10.967  0.1528  0.0387  0.2319
  751TMC3    O211160   4.312   1.430  11.626  0.7112  0.4637  0.3086
  752TMC3    C111161   3.619   2.581  17.198 -0.1789  0.6858 -0.6981
  752TMC3    C211162   3.627   2.443  17.205  0.3542  0.4403 -0.2703
  752TMC3    C311163   3.526   2.378  17.265  0.1679  0.4982  0.4688
  752TMC3    C411164   3.519   2.655  17.259 -0.1693 -0.0024 -0.8690
  752TMC3    C511165   3.418   2.590  17.320 -0.2287  0.1545 -0.0310
  752TMC3    C611166   3.427   2.452  17.331 -0.7047  1.0791  0.3453
  752TMC3     C11167   3.681   2.647  17.085 -0.4268  0.0227  0.4076
  752TMC3     O11168   3.698   2.768  17.095  0.2064  0.0354  0.0063
  752TMC3     H11169   3.690   2.389  17.136 -0.7547 -2.6887  1.1378
  752TMC3    H111170   3.515   2.762  17.244  2.1153  0.5298  2.1302
  752TMC3    H211171   3.346   2.395  17.375  0.3607  1.4320  2.7736
  752TMC3    C711172   3.298   2.664  17.356 -0.1785 -0.8352 -0.3497
  752TMC3    C811173   3.529   2.232  17.299 -0.1105  0.1432 -0.0633
  752TMC3    O111174   3.285   2.769  17.294 -0.2847  0.5684  0.3513
  752TMC3    O211175   3.576   2.151  17.222  0.2268  0.2413  0.0088
  753TMC3    C111176   1.389   2.669  13.684 -0.3527  0.5114 -0.1720
  753TMC3    C211177   1.411   2.736  13.803  1.2036 -0.2922  0.3868
  753TMC3    C311178   1.416   2.660  13.917 -0.3732 -0.6763  0.7638
  753TMC3    C411179   1.380   2.530  13.685 -0.7783 -0.7245 -0.5725
  753TMC3    C511180   1.411   2.455  13.796  0.5277  0.4340  0.2833
  753TMC3    C611181   1.420   2.524  13.911 -0.0848  0.1141 -0.9686
  753TMC3     C11182   1.354   2.743  13.567 -0.5876 -0.1574  0.0896
  753TMC3     O11183   1.399   2.687  13.465  0.2358 -0.3009  0.9760
  753TMC3     H11184   1.439   2.840  13.802 -0.2831  0.1140  1.7576
  753TMC3    H111185   1.372   2.483  13.588 -1.4557 -1.6873 -0.0562
  753TMC3    H211186   1.427   2.479  14.010 -3.0960 -0.4697 -1.0084
  753TMC3    C711187   1.437   2.310  13.798  0.2369 -0.2196 -0.6681
  753TMC3    C811188   1.442   2.713  14.055  0.4589  0.2024 -0.1009
  753TMC3    O111189   1.506   2.280  13.893  0.1262 -0.3862 -0.1692
  753TMC3    O211190   1.503   2.638  14.135  0.5612  0.0301  0.8641
  754MPD2     C11191   0.299   1.908  13.138 -0.0996  0.3554  0.1584
  754MPD2    C111192   0.270   1.776  13.104  0.0574 -0.1311  0.1938
  754MPD2    C211193   0.134   1.735  13.121  0.5174  0.2164 -0.5475
  754MPD2    C311194   0.040   1.824  13.165  0.5663  0.8371 -0.7500
  754MPD2    C411195   0.072   1.957  13.193 -0.3214 -0.5052 -0.4074
  754MPD2    C511196   0.206   1.994  13.193 -0.4345 -0.0040 -0.7697
  754MPD2     H11197   0.099   1.639  13.084  0.0442  0.4244 -0.6448
  754MPD2    H111198   0.006   2.037  13.225  2.5003  2.3457 -1.6976
  754MPD2    H211199   0.402   1.944  13.136 -0.9048  2.7513  2.8041
  754MPD2    H311200   0.237   2.097  13.206 -0.3374 -0.1163 -0.1042
  754MPD2     N11201   4.640   1.789  13.177 -0.0756 -0.1879 -0.6523
  754MPD2    H511202   4.571   1.860  13.202  0.8755  0.7317 -0.6533
  754MPD2    N111203   0.373   1.696  13.050  0.0161 -0.5071  0.0845
  754MPD2    H711204   0.465   1.733  13.030 -0.7679  2.1313  1.3126
  755MPD2     C11205   3.903   2.166  13.063  0.6787  0.4268  0.3499
  755MPD2    C111206   3.871   2.054  12.994  0.4521 -0.2553 -0.4757
  755MPD2    C211207   3.977   1.969  12.965 -0.2954 -0.6311 -0.3674
  755MPD2    C311208   4.103   2.000  13.010 -0.7465 -0.5454  0.2966
  755MPD2    C411209   4.127   2.114  13.080  0.0955  0.0449  0.8694
  755MPD2    C511210   4.031   2.203  13.096 -0.5434  0.0939 -0.6692
  755MPD2     H11211   3.967   1.883  12.900 -2.3806 -0.2668 -0.5049
  755MPD2    H111212   4.225   2.149  13.110  1.4383 -1.2540 -1.9396
  755MPD2    H211213   3.834   2.229  13.119  0.2397  1.8207 -1.7395
  755MPD2    H311214   4.057   2.295  13.148  0.8333 -0.0769 -1.0598
  755MPD2     N11215   4.205   1.904  12.998 -0.0455 -0.1251 -0.7901
  755MPD2    H511216   4.290   1.927  13.049 -0.1275  0.0924 -0.7515
  755MPD2    N111217   3.739   2.016  12.967 -0.0074 -0.2590 -0.0352
  755MPD2    H711218   3.666   2.081  12.993  1.7319  2.5292 -2.0958
  756MPD2     C11219   3.636   2.400   9.671  0.4187  0.4065  0.4681
  756MPD2    C111220   3.595   2.335   9.785 -0.1116 -0.0106 -0.2774
  756MPD2    C211221   3.462   2.320   9.799 -1.0556 -0.2667 -0.1247
  756MPD2    C311222   3.369   2.364   9.708 -0.9205 -0.2859 -0.1953
  756MPD2    C411223   3.417   2.431   9.600  0.5546  0.8777 -0.0733
  756MPD2    C511224   3.548   2.455   9.583  0.8912 -0.2099  0.4070
  756MPD2     H11225   3.424   2.276   9.890 -2.1301  1.1852  0.1342
  756MPD2    H111226   3.355   2.455   9.514  1.6949 -1.6826 -1.5763
  756MPD2    H211227   3.739   2.409   9.638 -0.7425 -3.0346 -4.1855
  756MPD2    H311228   3.592   2.509   9.500 -2.0671  2.6532  0.7100
  756MPD2     N11229   3.233   2.337   9.732 -0.8902 -0.0634 -0.3346
  756MPD2    H511230   3.211   2.281   9.814  0.2689  1.1224  0.8029
  756MPD2    N111231   3.678   2.297   9.893  0.3181 -0.5611 -0.0931
  756MPD2    H711232   3.632   2.252   9.971 -1.8527  1.0844 -0.4348
  757MPD2     C11233   2.787   1.693  10.290 -0.1399 -1.0056 -0.1856
  757MPD2    C111234   2.671   1.732  10.227  0.0236  0.5066 -0.6415
  757MPD2    C211235   2.677   1.837  10.138  0.3888 -0.4186  0.6138
  757MPD2    C311236   2.799   1.889  10.101 -0.1567  0.7124  0.0618
  757MPD2    C411237   2.915   1.854  10.167 -0.1770  0.7442 -0.0770
  757MPD2    C511238   2.905   1.754  10.258  0.2425  0.9871 -0.1135
  757MPD2     H11239   2.587   1.884  10.098 -0.2561 -0.1147  2.4174
  757MPD2    H111240   3.013   1.900  10.161  0.0959  0.0994 -0.4658
  757MPD2    H211241   2.773   1.616  10.366  0.4254 -0.8200  0.1007
  757MPD2    H311242   2.993   1.716  10.308 -0.4507 -0.5544 -0.0604
  757MPD2     N11243   2.802   1.978   9.988 -0.0517  0.4219  0.1412
  757MPD2    H511244   2.719   1.986   9.930 -0.1982  0.3248  0.3374
  757MPD2    N111245   2.553   1.655  10.263 -0.3948 -0.5687 -0.0712
  757MPD2    H711246   2.578   1.587  10.334  2.5173  0.7283  0.1786
  758MPD2     C11247   4.447   1.775  15.745 -0.3974  0.0647  0.0221
  758MPD2    C111248   4.419   1.656  15.814  0.5079 -0.1497 -0.0669
  758MPD2    C211249   4.361   1.667  15.944  0.6506  0.4678 -0.3520
  758MPD2    C311250   4.335   1.789  15.993 -0.7854  0.1943  0.2907
  758MPD2    C411251   4.360   1.904  15.918 -0.1001 -0.0557 -0.3000
  758MPD2    C511252   4.417   1.896  15.798  0.6108 -0.3010 -0.2164
  758MPD2     H11253   4.361   1.581  16.011 -0.6540  1.7059  1.2342
  758MPD2    H111254   4.347   2.001  15.964 -2.6037 -0.9020  0.7280
  758MPD2    H211255   4.499   1.776  15.650  1.7533 -0.7533  1.1842
  758MPD2    H311256   4.435   1.986  15.742 -2.4230 -0.9977 -2.2844
  758MPD2     N11257   4.299   1.803  16.128 -0.1740  0.0884  0.0020
  758MPD2    H511258   4.301   1.899  16.163  0.9433 -0.0275  0.2357
  758MPD2    N111259   4.459   1.532  15.757  0.5546  0.1467 -0.3439
  758MPD2    H711260   4.520   1.539  15.676  1.7168  1.0619  0.6128
  759MPD2     C11261   1.607   4.677   9.346 -0.1075  0.2955  0.9506
  759MPD2    C111262   1.714   4.612   9.401  0.2037  0.5181  0.1872
  759MPD2    C211263   1.824   4.682   9.446  0.3549 -0.5543  0.5499
  759MPD2    C311264   1.824   0.080   9.426 -0.1202 -0.7677  0.1981
  759MPD2    C411265   1.714   0.149   9.373 -0.1696 -0.1114  0.1330
  759MPD2    C511266   1.600   0.074   9.328  0.7725 -0.4268  0.1205
  759MPD2     H11267   1.905   4.626   9.493  0.1244  0.6891  2.4236
  759MPD2    H111268   1.709   0.256   9.355 -1.5818 -0.3270 -0.7450
  759MPD2    H211269   1.515   4.627   9.317  1.4005 -0.5470 -2.4444
  759MPD2    H311270   1.513   0.108   9.271  0.0764 -2.3181  0.0442
  759MPD2     N11271   1.938   0.155   9.470 -0.4200 -0.5436  0.3627
  759MPD2    H511272   2.013   0.097   9.507  1.2926 -0.5087 -3.1147
  759MPD2    N111273   1.723   4.473   9.434  0.0995  0.2494 -0.1754
  759MPD2    H711274   1.806   4.442   9.483  1.2725 -0.2485 -2.5083
  760MPD2     C11275   2.999   1.937  12.070  0.6387  0.4081  0.6071
  760MPD2    C111276   3.127   1.938  12.032  1.0206 -0.2178 -0.3213
  760MPD2    C211277   3.197   1.825  12.058 -0.6302 -0.2299 -0.6539
  760MPD2    C311278   3.140   1.708  12.093  0.1629 -0.2357  0.3090
  760MPD2    C411279   3.009   1.708  12.118 -0.8812 -0.4773 -0.1454
  760MPD2    C511280   2.936   1.826  12.112 -0.0156  0.1934  0.1455
  760MPD2     H11281   3.304   1.825  12.040 -0.7482  0.8771 -1.4064
  760MPD2    H111282   2.959   1.621  12.161 -1.1888  0.5937  1.6854
  760MPD2    H211283   2.941   2.027  12.090  1.4256  1.0903 -0.1854
  760MPD2    H311284   2.839   1.820  12.159 -1.1641 -1.9049 -2.4541
  760MPD2     N11285   3.220   1.591  12.121  0.2899  0.8047  0.0669
  760MPD2    H511286   3.162   1.512  12.148 -0.6181  0.8026 -1.9345
  760MPD2    N111287   3.203   2.056  11.992  0.5358 -0.2461  0.4926
  760MPD2    H711288   3.302   2.039  11.975  0.4052 -2.6319  2.1464
  761MPD2     C11289   3.981   1.044  11.676  0.2663  0.1335 -0.0951
  761MPD2    C111290   4.040   0.993  11.570  0.2012 -0.4418  0.0948
  761MPD2    C211291   4.142   1.053  11.508 -0.7569  0.3633  0.3352
  761MPD2    C311292   4.194   1.168  11.564 -0.1890  0.2728  0.3646
  761MPD2    C411293   4.137   1.218  11.684  0.3934  1.1927 -0.1778
  761MPD2    C511294   4.020   1.161  11.727 -0.2021 -0.4115  0.1520
  761MPD2     H11295   4.198   1.012  11.425 -0.6550 -0.6310  0.8872
  761MPD2    H111296   4.182   1.298  11.742 -1.1023  1.5040  0.5400
  761MPD2    H211297   3.890   0.999  11.715 -0.4501  1.9420  0.3361
  761MPD2    H311298   3.973   1.200  11.816 -0.9446 -0.6936 -0.1193
  761MPD2     N11299   4.296   1.234  11.498 -0.2439 -0.0338  0.8594
  761MPD2    H511300   4.340   1.187  11.419  0.5004  1.6425  0.2592
  761MPD2    N111301   3.972   0.878  11.520 -0.0020 -0.3070  0.3345
  761MPD2    H711302   3.896   0.848  11.581  1.1037 -1.1594  1.3138
  762MPD2     C11303   3.752   0.136  11.014  0.1514  0.2053  0.5244
  762MPD2    C111304   3.834   0.242  11.006 -0.7439 -0.7522 -0.0617
  762MPD2    C211305   3.921   0.255  10.904  0.2777  0.1404 -0.3552
  762MPD2    C311306   3.908   0.179  10.791 -0.0097 -0.0341  0.0809
  762MPD2    C411307   3.821   0.070  10.797  0.3470  0.2030 -0.4298
  762MPD2    C511308   3.745   0.053  10.913 -0.3142  0.6967 -0.2443
  762MPD2     H11309   3.996   0.333  10.903  1.5183 -0.9934  2.1432
  762MPD2    H111310   3.807   0.005  10.712 -0.9779 -1.0963  0.7768
  762MPD2    H211311   3.687   0.127  11.100  0.3355  1.5764  0.7980
  762MPD2    H311312   3.676   4.710  10.902  1.3407 -0.5854 -1.0089
  762MPD2     N11313   3.983   0.193  10.665  0.5249  0.8142 -0.1824
  762MPD2    H511314   3.959   0.120  10.600 -1.6500  0.0010  1.5309
  762MPD2    N111315   3.826   0.328  11.111  0.5252  0.2530  0.4003
  762MPD2    H711316   3.766   0.307  11.191  1.4789  0.4867  1.1814
  763MPD2     C11317   1.654   1.468  15.858 -0.0518  0.4756  0.1041
  763MPD2    C111318   1.530   1.517  15.892 -0.4853  0.0306 -0.1803
  763MPD2    C211319   1.512   1.654  15.894 -0.4781 -0.7502  0.2936
  763MPD2    C311320   1.621   1.737  15.863  0.2443  0.3376 -1.2388
  763MPD2    C411321   1.745   1.685  15.853 -0.8149 -0.6274  0.1473
  763MPD2    C511322   1.756   1.551  15.840 -0.1221 -0.0744  0.1055
  763MPD2     H11323   1.416   1.702  15.902 -0.6836 -0.8406 -1.6526
  763MPD2    H111324   1.836   1.743  15.846 -1.3594  0.2385  0.2180
  763MPD2    H211325   1.675   1.362  15.853  2.6762  1.0288 -0.4605
  763MPD2    H311326   1.857   1.513  15.827 -0.8656 -2.9145  2.5222
  763MPD2     N11327   1.615   1.874  15.855  0.2014 -0.2165  0.8474
  763MPD2    H511328   1.699   1.916  15.817 -0.6330 -1.8881 -2.9056
  763MPD2    N111329   1.420   1.428  15.905  0.0731 -0.1293 -0.1994
  763MPD2    H711330   1.334   1.479  15.918  0.1390 -0.0795  0.0339
  764MPD2     C11331   4.259   3.447  17.476 -0.2965 -0.2787 -0.2306
  764MPD2    C111332   4.195   3.333  17.426  0.2906 -0.4169 -0.6389
  764MPD2    C211333   4.119   3.261  17.518 -0.0380 -0.3856  0.7118
  764MPD2    C311334   4.126   3.282  17.654 -0.1287  0.2520 -0.5450
  764MPD2    C411335   4.210   3.377  17.705  0.3980  0.2053  0.3042
  764MPD2    C511336   4.276   3.460  17.614  0.1224  0.0433 -0.5734
  764MPD2     H11337   4.048   3.181  17.496  0.8106 -0.9538  0.0067
  764MPD2    H111338   4.245   3.388   0.052  0.9354 -0.2292  0.1674
  764MPD2    H211339   4.314   3.507  17.405  0.9813 -1.8241 -0.5533
  764MPD2    H311340   4.353   3.525  17.654 -3.2652  3.3917  0.5362
  764MPD2     N11341   4.039   3.202  17.732  0.0584 -0.4893  0.0446
  764MPD2    H511342   3.991   3.130  17.679 -0.8172  0.8496 -0.9699
  764MPD2    N111343   4.204   3.302  17.292 -0.2967  0.2822  0.3689
  764MPD2    H711344   4.245   3.373  17.232  1.9265  0.4676  2.1070
  765MPD2     C11345   4.453   0.984  15.388 -0.0519  0.2203 -0.0658
  765MPD2    C111346   4.414   0.928  15.509 -0.5746 -0.1425  0.0143
  765MPD2    C211347   4.499   0.839  15.573 -0.4957  0.9780 -0.1430
  765MPD2    C311348   4.624   0.809  15.513 -0.0259  0.2167  0.1804
  765MPD2    C411349   4.652   0.857  15.382  0.6770  0.3195 -0.8920
  765MPD2    C511350   4.569   0.944  15.319 -0.0228 -0.6653 -0.7024
  765MPD2     H11351   4.479   0.809  15.675 -0.9376 -0.3650 -0.6321
  765MPD2    H111352   0.010   0.844  15.337  0.9484 -1.2711  0.1406
  765MPD2    H211353   4.391   1.053  15.333  0.3352  1.0923  0.6034
  765MPD2    H311354   4.600   1.001  15.231  1.7598  0.2090  0.4947
  765MPD2     N11355   4.712   0.718  15.570 -0.1457  0.5035 -0.3104
  765MPD2    H511356   4.667   0.670  15.648  0.2181  0.7988  0.0809
  765MPD2    N111357   4.295   0.975  15.568 -0.5876  0.2267 -0.2556
  765MPD2    H711358   4.245   1.050  15.521 -1.0509 -0.5153 -0.9571
  766MPD2     C11359   3.512   1.153  15.379 -0.6248 -0.4697  0.0233
  766MPD2    C111360   3.639   1.102  15.377  0.5933 -0.1780 -0.1941
  766MPD2    C211361   3.699   1.084  15.254 -0.1493  0.1190  0.7244
  766MPD2    C311362   3.641   1.127  15.138  0.4609  1.0057 -0.2175
  766MPD2    C411363   3.514   1.179  15.143  0.4867  0.0066  0.0666
  766MPD2    C511364   3.456   1.202  15.262  0.1081  0.4593 -0.3195
  766MPD2     H11365   3.803   1.054  15.262 -0.0692 -0.6781 -3.6453
  766MPD2    H111366   3.463   1.212  15.054  0.8034  3.6696  1.2610
  766MPD2    H211367   3.459   1.178  15.471  0.8067 -0.6283  0.8893
  766MPD2    H311368   3.362   1.255  15.270 -0.7255 -1.0469 -0.2239
  766MPD2     N11369   3.713   1.129  15.010 -0.2180  0.4341  1.1911
  766MPD2    H511370   3.670   1.186  14.939  0.2579 -0.2001  0.3984
  766MPD2    N111371   3.696   1.060  15.500  0.7514  0.2879  0.3552
  766MPD2    H711372   3.656   1.095  15.586 -0.4409  1.1829 -0.5635
  767MPD2     C11373   3.313   1.526  14.980 -0.2734 -0.1976  0.1677
  767MPD2    C111374   3.444   1.510  14.945  0.1555  0.0912 -0.4528
  767MPD2    C211375   3.476   1.460  14.818 -0.1350 -0.0859 -0.9051
  767MPD2    C311376   3.376   1.423  14.731  0.6686 -0.2213 -0.3925
  767MPD2    C411377   3.241   1.452  14.764 -0.2559 -0.3481 -0.1918
  767MPD2    C511378   3.211   1.500  14.890  0.5558  0.8924 -0.3188
  767MPD2     H11379   3.578   1.448  14.786  0.2180  0.4291  0.0469
  767MPD2    H111380   3.163   1.415  14.699 -0.3446 -2.1565  0.9481
  767MPD2    H211381   3.293   1.569  15.078  1.4032 -0.4752  0.6363
  767MPD2    H311382   3.109   1.516  14.920  0.0974  1.6086 -2.2857
  767MPD2     N11383   3.413   1.367  14.604  0.4535 -0.4788  0.1728
  767MPD2    H511384   3.513   1.360  14.584  0.5264  0.2666  0.2749
  767MPD2    N111385   3.541   1.544  15.036 -0.2654  0.2747 -0.7682
  767MPD2    H711386   3.503   1.597  15.114 -0.4161  1.8356 -1.9026
  768MPD2     C11387   3.859   4.111  11.176  0.1236  0.5136  0.4243
  768MPD2    C111388   3.901   4.181  11.286 -0.5152  0.0064  0.0278
  768MPD2    C211389   4.008   4.131  11.364  0.0515 -1.1753  0.7093
  768MPD2    C311390   4.057   4.005  11.342 -0.2009 -0.3620  0.6337
  768MPD2    C411391   4.016   3.938  11.232  0.2886  0.1577  0.4470
  768MPD2    C511392   3.910   3.987  11.162  0.4504  0.2367 -0.0444
  768MPD2     H11393   4.036   4.187  11.452  1.3615  0.3776 -0.7048
  768MPD2    H111394   4.060   3.843  11.203 -1.1728  0.2236 -1.9432
  768MPD2    H211395   3.788   4.148  11.103 -1.7811 -1.8450  1.0770
  768MPD2    H311396   3.873   3.933  11.075  0.7531 -1.2726  0.7695
  768MPD2     N11397   4.165   3.955  11.422 -0.0424  0.1158 -0.2037
  768MPD2    H511398   4.211   3.872  11.387  1.1960  0.7315 -0.0379
  768MPD2    N111399   3.854   4.312  11.317 -0.5624  0.0464 -0.0636
  768MPD2    H711400   3.896   4.360  11.396  0.5759  2.6414 -2.2518
  769MPD2     C11401   0.895   2.836  14.757 -0.3908 -0.2183 -0.3230
  769MPD2    C111402   0.809   2.808  14.858 -0.1792  0.0472  0.0244
  769MPD2    C211403   0.843   2.837  14.993 -0.1288 -0.2764 -0.4613
  769MPD2    C311404   0.967   2.892  15.026 -0.1305  0.0302  0.2735
  769MPD2    C411405   1.046   2.936  14.917  1.0566  0.1259 -0.1365
  769MPD2    C511406   1.010   2.906  14.783 -0.2405  0.1687 -0.4014
  769MPD2     H11407   0.767   2.824  15.069 -0.4746 -1.3190 -0.9968
  769MPD2    H111408   1.140   2.986  14.936  1.6740 -2.3849  3.3084
  769MPD2    H211409   0.873   2.810  14.654  1.5312  2.2853 -1.3525
  769MPD2    H311410   1.076   2.930  14.701  0.0748  0.8174  0.0385
  769MPD2     N11411   0.992   2.918  15.164 -0.3627  0.7536 -0.5812
  769MPD2    H511412   0.915   2.884  15.220  0.9389  0.5266  1.0664
  769MPD2    N111413   0.685   2.745  14.817 -0.6330 -0.3426  0.5959
  769MPD2    H711414   0.662   2.734  14.718  0.8578 -2.1243  0.4230
  770MPD2     C11415   4.677   2.120  15.048 -0.1566 -0.5842  0.5497
  770MPD2    C111416   0.033   2.100  14.955 -0.4097  0.0849 -0.0911
  770MPD2    C211417   0.104   2.211  14.903  0.0224 -0.8954 -0.1494
  770MPD2    C311418   0.072   2.339  14.946  0.0665  0.0316  0.0890
  770MPD2    C411419   4.714   2.369  15.040  0.1301 -0.0344  0.3363
  770MPD2    C511420   4.647   2.254  15.090 -0.1166  0.1944  0.9113
  770MPD2     H11421   0.177   2.201  14.824 -1.4870  2.4742 -2.0055
  770MPD2    H111422   4.688   2.469  15.074  1.0933 -0.3010  1.8115
  770MPD2    H211423   4.621   2.037  15.089 -1.3272 -1.6907 -3.2508
  770MPD2    H311424   4.585   2.260  15.178 -1.8905 -0.5597 -0.2873
  770MPD2     N11425   0.148   2.451  14.902 -0.4191 -0.5967 -0.3590
  770MPD2    H511426   0.221   2.430  14.835  1.8745 -2.8389  2.8622
  770MPD2    N111427   0.068   1.976  14.902  0.6241  0.5205 -0.1444
  770MPD2    H711428   0.155   1.973  14.848  0.6374  1.7750 -0.1915
  771MPD2     C11429   1.400   0.069  13.678  0.7070  0.3133  0.0681
  771MPD2    C111430   1.325   0.151  13.600 -0.3198 -0.0273 -0.2623
  771MPD2    C211431   1.220   0.102  13.523  0.2621 -0.9956 -0.0160
  771MPD2    C311432   1.179   4.708  13.548  0.4572 -0.2024  0.1786
  771MPD2    C411433   1.267   4.628  13.624  0.0541 -0.5289 -0.6567
  771MPD2    C511434   1.377   4.670  13.689 -0.1693 -0.2009 -0.2183
  771MPD2     H11435   1.166   0.171  13.460  0.1771 -0.2439  0.8760
  771MPD2    H111436   1.227   4.527  13.626  1.6263 -1.1329  0.3939
  771MPD2    H211437   1.485   0.118  13.723  0.6815  0.3680  0.0572
  771MPD2    H311438   1.435   4.609  13.757  1.0166 -0.5172 -1.5040
  771MPD2     N11439   1.061   4.669  13.486  0.4844  0.1322 -0.7589
  771MPD2    H511440   1.006   4.739  13.437  1.2835  0.7906 -0.7089
  771MPD2    N111441   1.359   0.284  13.588 -0.1237  0.4131  0.0143
  771MPD2    H711442   1.315   0.331  13.509  0.6910  0.8248 -0.1864
  772MPD2     C11443   1.456   1.037  13.874  0.5816 -0.4188 -0.1123
  772MPD2    C111444   1.386   0.930  13.840  0.5225  0.4344 -0.0632
  772MPD2    C211445   1.252   0.915  13.870 -0.2322  0.1159 -0.3986
  772MPD2    C311446   1.197   1.009  13.964 -0.6876  0.0544  0.2738
  772MPD2    C411447   1.273   1.119  14.001 -0.0500 -0.4203  0.6666
  772MPD2    C511448   1.404   1.140  13.957 -0.4416  0.2830 -0.3546
  772MPD2     H11449   1.192   0.831  13.836  0.8845 -0.8580  0.0262
  772MPD2    H111450   1.235   1.199  14.063 -2.7970  1.1617 -3.1156
  772MPD2    H211451   1.558   1.052  13.840  0.4710  0.5485 -0.0069
  772MPD2    H311452   1.472   1.217  13.989 -1.5951  1.9646 -1.9217
  772MPD2     N11453   1.060   0.992  14.000  0.1212 -0.0378  0.3504
  772MPD2    H511454   1.012   0.919  13.949  0.5741  1.1691 -1.7771
  772MPD2    N111455   1.433   0.825  13.763 -0.1024  0.5763  0.3675
  772MPD2    H711456   1.371   0.745  13.754 -0.5577  1.1589 -1.5136
  773MPD2     C11457   0.383   1.703   0.354 -0.2200  0.0511 -0.6175
  773MPD2    C111458   0.340   1.618   0.253  0.9731  0.6048 -0.2274
  773MPD2    C211459   0.390   1.490   0.232 -0.0307 -0.3792 -0.4598
  773MPD2    C311460   0.485   1.451   0.319  0.3652  0.5427  0.1459
  773MPD2    C411461   0.530   1.530   0.421  0.3707  0.7200  0.0063
  773MPD2    C511462   0.482   1.656   0.441 -0.0661  0.5165 -0.0873
  773MPD2     H11463   0.370   1.430   0.144 -0.1870 -2.4579  0.9835
  773MPD2    H111464   0.607   1.493   0.488 -1.0299  1.5665  2.0466
  773MPD2    H211465   0.342   1.802   0.370  2.3749  0.2959  4.7327
  773MPD2    H311466   0.506   1.715   0.529  0.2505 -2.2066  1.6666
  773MPD2     N11467   0.548   1.324   0.292  0.1900  0.2286  0.6042
  773MPD2    H511468   0.502   1.260   0.228 -0.6396  0.6655  0.7651
  773MPD2    N111469   0.232   1.664   0.170 -0.6739 -0.7085 -0.2983
  773MPD2    H711470   0.203   1.593   0.104  2.6389 -1.5986 -0.7861
  774MPD2     C11471   4.306   0.981  13.254 -0.5907  0.5179 -0.1632
  774MPD2    C111472   4.389   1.001  13.362 -0.4715  0.4837  0.0305
  774MPD2    C211473   4.506   1.067  13.340  0.6566  0.4480  0.8591
  774MPD2    C311474   4.543   1.116  13.215  0.1003 -0.4190  0.0212
  774MPD2    C411475   4.459   1.087  13.108 -0.6423  0.0380 -0.3015
  774MPD2    C511476   4.338   1.025  13.132 -0.6529  0.5047 -0.1114
  774MPD2     H11477   4.580   1.076  13.419 -0.7633  0.8791  2.1187
  774MPD2    H111478   4.473   1.131  13.010 -0.5360 -0.4687 -0.5115
  774MPD2    H211479   4.211   0.930  13.258 -0.6787  0.8538  2.0703
  774MPD2    H311480   4.269   1.021  13.048 -1.3467 -0.3200  0.5042
  774MPD2     N11481   4.659   1.198  13.216 -0.5954  0.1828  0.4780
  774MPD2    H511482   4.686   1.221  13.311 -1.0400 -1.5619  1.0201
  774MPD2    N111483   4.344   0.958  13.485 -0.2575 -1.0601 -0.2607
  774MPD2    H711484   4.273   0.886  13.490  2.6651 -4.0930 -2.7197
  775MPD2     C11485   0.932   2.148  15.524 -0.3485  0.0629  0.3029
  775MPD2    C111486   0.961   2.235  15.629  1.1501 -0.6006  0.6906
  775MPD2    C211487   1.044   2.344  15.600  0.5365 -0.3729 -0.6136
  775MPD2    C311488   1.101   2.363  15.473 -0.2909 -0.1633 -0.0630
  775MPD2    C411489   1.076   2.266  15.370 -0.3278  0.4423 -0.2416
  775MPD2    C511490   0.982   2.171  15.398  0.5251  0.3700 -0.4325
  775MPD2     H11491   1.068   2.410  15.682  1.5501  0.0166 -1.2290
  775MPD2    H111492   1.120   2.276  15.271  0.2706 -0.8048 -0.0967
  775MPD2    H211493   0.859   2.068  15.531 -0.0970 -0.0097  2.0656
  775MPD2    H311494   0.960   2.096  15.323 -0.4148 -1.5812  1.7763
  775MPD2     N11495   1.180   2.471  15.445  0.1438  0.1112 -0.1689
  775MPD2    H511496   1.196   2.498  15.349 -1.6290 -0.9318 -0.7506
  775MPD2    N111497   0.882   2.219  15.746  0.9139  0.3707  0.0743
  775MPD2    H711498   0.816   2.141  15.744 -0.0923  1.1706  1.3646
  776MPD2     C11499   4.523   2.885  11.422 -0.1301  0.7954 -0.0606
  776MPD2    C111500   4.638   2.867  11.499 -0.0210 -0.2870 -0.0772
  776MPD2    C211501   4.729   2.970  11.512  0.1822 -0.3663 -0.5609
  776MPD2    C311502   4.706   3.086  11.440 -0.8599  0.3830 -0.0320
  776MPD2    C411503   4.603   3.100  11.351  0.1103 -0.3963 -0.3349
  776MPD2    C511504   4.509   3.001  11.349 -0.5431 -0.3149  0.5532
  776MPD2     H11505   0.085   2.953  11.561 -0.2119  1.9898  1.0068
  776MPD2    H111506   4.593   3.194  11.299 -0.1523  0.4315  1.2022
  776MPD2    H211507   4.459   2.799  11.405 -0.1534  0.8952 -0.4909
  776MPD2    H311508   4.416   3.015  11.295 -0.1769  0.8387  0.2182
  776MPD2     N11509   0.058   3.195  11.446 -0.3424 -0.4571 -0.5891
  776MPD2    H511510   0.040   3.262  11.372  0.5925 -0.0328 -0.4346
  776MPD2    N111511   4.662   2.735  11.555 -1.1537  0.3552  0.1016
  776MPD2    H711512   4.587   2.668  11.543  0.2963 -1.3235  0.5026
  777MPD2     C11513   0.551   0.390   0.415  0.0830  0.7158 -0.2528
  777MPD2    C111514   0.610   0.308   0.509  0.0314 -0.0945 -0.4012
  777MPD2    C211515   0.547   0.186   0.549  0.3654 -0.1561 -0.0342
  777MPD2    C311516   0.425   0.150   0.496  0.6021 -0.0520 -0.1732
  777MPD2    C411517   0.370   0.235   0.404 -0.5260  0.2735 -0.2849
  777MPD2    C511518   0.433   0.348   0.359  0.7037 -0.3648 -0.7568
  777MPD2     H11519   0.595   0.125   0.625  1.0951 -0.1686 -0.4998
  777MPD2    H111520   0.278   0.222   0.349 -0.9493  0.7546  0.3050
  777MPD2    H211521   0.595   0.480   0.373  0.3654  0.5213 -0.3807
  777MPD2    H311522   0.382   0.417   0.293 -0.1986  0.1471  0.4697
  777MPD2     N11523   0.361   0.030   0.544 -0.1472 -0.4586 -0.1675
  777MPD2    H511524   0.408   4.711   0.612 -0.3116  0.1212  0.4473
  777MPD2    N111525   0.735   0.358   0.563 -0.2852  0.0492  0.5659
  777MPD2    H711526   0.769   0.449   0.534  1.4100 -0.6982  0.2193
  778MPD2     C11527   1.565   0.706  14.587 -0.4575 -0.6923 -0.8731
  778MPD2    C111528   1.546   0.596  14.508 -0.1813 -0.3837  0.1994
  778MPD2    C211529   1.631   0.571  14.405  0.5497  0.2629  0.2969
  778MPD2    C311530   1.731   0.662  14.375 -0.2847  0.6727  0.4029
  778MPD2    C411531   1.738   0.781  14.443 -0.1974  0.2809  0.6205
  778MPD2    C511532   1.650   0.805  14.545 -0.2150 -0.0390  0.4812
  778MPD2     H11533   1.631   0.479  14.348 -1.4656 -0.1448  0.9465
  778MPD2    H111534   1.831   0.837  14.440  0.3357 -0.6239  0.1173
  778MPD2    H211535   1.494   0.731  14.666 -1.6279 -2.5877 -1.3445
  778MPD2    H311536   1.655   0.887  14.616 -1.4602  0.2944  0.1876
  778MPD2     N11537   1.827   0.624  14.277  0.0516 -0.8233  0.3228
  778MPD2    H511538   1.816   0.533  14.234 -0.1213 -0.4801 -0.3558
  778MPD2    N111539   1.448   0.500  14.529  1.1174 -0.6757 -0.2207
  778MPD2    H711540   1.445   0.421  14.466  0.7235 -1.5260  0.8676
  779MPD2     C11541   0.984   3.935  13.950 -0.6828  0.2981  0.7373
  779MPD2    C111542   1.075   3.977  14.047 -0.2279  0.3650 -0.7585
  779MPD2    C211543   1.098   4.111  14.075  0.0441  0.2874 -0.0182
  779MPD2    C311544   1.049   4.211  13.992 -0.2739 -0.7130 -0.2065
  779MPD2    C411545   0.960   4.166  13.890 -0.1513 -0.2518  0.3047
  779MPD2    C511546   0.924   4.031  13.877 -0.0011  0.1148 -0.0273
  779MPD2     H11547   1.172   4.125  14.153  1.3454 -1.6937 -0.9086
  779MPD2    H111548   0.918   4.228  13.811  1.0347 -0.7838 -0.7351
  779MPD2    H211549   0.946   3.833  13.950  0.0407  0.0355 -0.6496
  779MPD2    H311550   0.844   4.006  13.808  1.4149 -1.8176 -0.9473
  779MPD2     N11551   1.093   4.340  14.016  0.0868  0.1778 -0.0719
  779MPD2    H511552   1.123   4.364  14.110  0.5115  1.0921 -0.4413
  779MPD2    N111553   1.145   3.879  14.127  0.2031  0.0211 -0.0779
  779MPD2    H711554   1.207   3.916  14.198  0.1646  0.8396 -0.4663
  780MPD2     C11555   0.128   3.952   0.294  0.3091  0.2190  0.0488
  780MPD2    C111556   0.223   3.924   0.386 -0.1603  0.2956  0.0265
  780MPD2    C211557   0.352   3.968   0.380  0.5006 -0.1115  0.1804
  780MPD2    C311558   0.387   4.055   0.276  0.6362  0.0475 -0.4214
  780MPD2    C411559   0.290   4.101   0.193 -0.2396  0.2151  1.1840
  780MPD2    C511560   0.164   4.049   0.205  0.3837  0.3749  0.1030
  780MPD2     H11561   0.430   3.936   0.449  0.4154 -0.3061  0.1866
  780MPD2    H111562   0.308   4.159   0.103 -0.8785 -0.3299  0.7122
  780MPD2    H211563   0.026   3.915   0.296  0.0720  0.8427 -0.5648
  780MPD2    H311564   0.086   4.089   0.142  0.4095  0.8569  0.3830
  780MPD2     N11565   0.520   4.094   0.271 -0.0266  0.2547  0.5281
  780MPD2    H511566   0.586   4.056   0.339 -2.4755 -0.8019  2.3446
  780MPD2    N111567   0.171   3.847   0.497 -0.8073 -0.2152 -0.2181
  780MPD2    H711568   0.081   3.802   0.481 -0.5806 -0.7985  0.1730
  781MPD2     C11569   2.101   1.378  11.905 -0.5072  0.5125 -0.1137
  781MPD2    C111570   2.202   1.343  11.982 -0.6046  0.8895  0.3487
  781MPD2    C211571   2.329   1.368  11.942  0.2303 -0.0646  0.2842
  781MPD2    C311572   2.350   1.442  11.824 -0.1184  0.4144  0.8869
  781MPD2    C411573   2.249   1.496  11.757 -0.0382  0.4733 -0.2540
  781MPD2    C511574   2.121   1.460  11.796  0.2516  0.2751  0.3753
  781MPD2     H11575   2.407   1.333  12.008 -0.1953 -0.0641  0.7832
  781MPD2    H111576   2.271   1.552  11.667  1.4534  0.2922 -0.0065
  781MPD2    H211577   2.000   1.344  11.924  0.0420 -0.8145  0.4637
  781MPD2    H311578   2.037   1.500  11.740  0.1547  1.1787  1.1516
  781MPD2     N11579   2.474   1.451  11.765 -0.2101  0.3140 -0.6693
  781MPD2    H511580   2.471   1.496  11.674  2.7809 -3.0616 -2.4469
  781MPD2    N111581   2.185   1.275  12.102 -0.2905 -0.4253  0.4780
  781MPD2    H711582   2.271   1.274  12.156  0.8419 -2.0182 -1.3762
  782MPD2     C11583   4.271   1.961  10.078 -0.1077 -0.1637 -0.4016
  782MPD2    C111584   4.379   1.901  10.144 -0.1946  0.2742  0.6504
  782MPD2    C211585   4.477   1.986  10.194 -0.1209 -0.8917  0.7196
  782MPD2    C311586   4.477   2.124  10.166 -0.6834  0.2084  0.0053
  782MPD2    C411587   4.361   2.174  10.113  0.4844  0.2157  0.0435
  782MPD2    C511588   4.262   2.092  10.071 -0.0399 -0.1100  0.4227
  782MPD2     H11589   4.568   1.957  10.246 -0.4236 -0.0541  1.7210
  782MPD2    H111590   4.354   2.278  10.082 -1.2153 -1.0403 -3.8270
  782MPD2    H211591   4.188   1.904  10.039 -0.0311  0.0247 -0.8350
  782MPD2    H311592   4.173   2.132  10.025  1.7445  2.0945 -1.0924
  782MPD2     N11593   4.589   2.205  10.210  0.9733 -0.1193 -0.0519
  782MPD2    H511594   4.660   2.157  10.264  2.2662  0.6050 -1.0867
  782MPD2    N111595   4.386   1.758  10.175 -0.0583 -0.6553 -0.7274
  782MPD2    H711596   4.304   1.704  10.147 -0.3230  0.4621 -2.1113
  783MPD2     C11597   4.172   1.227  10.906 -0.1248 -0.9931 -0.2977
  783MPD2    C111598   4.287   1.311  10.912 -0.6608 -0.1013  0.6651
  783MPD2    C211599   4.335   1.355  10.792  0.3867  0.8258 -0.2365
  783MPD2    C311600   4.259   1.336  10.678 -0.6828  0.0440  0.3072
  783MPD2    C411601   4.139   1.269  10.675 -0.1505 -0.2199  0.1911
  783MPD2    C511602   4.103   1.215  10.791 -0.2357 -0.0390  0.2849
  783MPD2     H11603   4.419   1.423  10.790  0.1119  1.2041  0.7666
  783MPD2    H111604   4.084   1.238  10.586  0.8789  0.5411 -0.7129
  783MPD2    H211605   4.138   1.175  10.995 -0.4006 -0.1412  0.0974
  783MPD2    H311606   4.003   1.174  10.792 -1.1603  2.2048 -0.7274
  783MPD2     N11607   4.320   1.378  10.562  0.1798 -0.2544 -0.1961
  783MPD2    H511608   4.412   1.421  10.566 -0.7956  1.6662  1.0985
  783MPD2    N111609   4.349   1.324  11.036 -0.1268  0.4707 -0.3853
  783MPD2    H711610   4.308   1.283  11.119 -0.5134 -0.2039 -0.9121
  784MPD2     C11611   3.057   2.015   0.445  0.4244 -0.5862  0.1046
  784MPD2    C111612   3.061   2.098   0.557  0.0803 -0.3772  0.4584
  784MPD2    C211613   2.969   2.202   0.569 -0.0425 -0.7506  0.1613
  784MPD2    C311614   2.866   2.220   0.476 -0.7389  0.4637  0.0082
  784MPD2    C411615   2.858   2.125   0.374 -0.0889  0.5953  0.4236
  784MPD2    C511616   2.951   2.028   0.359  0.2495  0.6657 -0.4142
  784MPD2     H11617   2.983   2.266   0.656 -0.2069 -0.3195 -0.1280
  784MPD2    H111618   2.777   2.135   0.302  0.7528  0.5004 -0.5366
  784MPD2    H211619   3.122   1.929   0.446 -0.6727 -1.4092  1.9196
  784MPD2    H311620   2.946   1.971   0.267  0.0677 -0.5024  0.3277
  784MPD2     N11621   2.776   2.337   0.484  0.1399  0.3915  0.4855
  784MPD2    H511622   2.803   2.406   0.554 -3.0694 -0.4850  2.6101
  784MPD2    N111623   3.159   2.067   0.658 -0.4413 -0.1574  0.0618
  784MPD2    H711624   3.176   2.143   0.723  0.5492 -0.0048 -0.3708
  785MPD2     C11625   2.799   4.349   9.845 -0.1207  0.3462 -0.7245
  785MPD2    C111626   2.728   4.409   9.948 -0.5911  0.5116  0.2000
  785MPD2    C211627   2.605   4.363   9.975  0.4308  0.7765 -0.4030
  785MPD2    C311628   2.544   4.265   9.911  0.0359 -0.0475  0.6238
  785MPD2    C411629   2.610   4.205   9.806  0.6004 -0.0674  0.0792
  785MPD2    C511630   2.734   4.249   9.773 -0.0880 -0.0969 -0.2033
  785MPD2     H11631   2.552   4.407  10.059 -0.1229 -1.5452  0.4852
  785MPD2    H111632   2.560   4.129   9.747 -2.5822  1.4718  0.7941
  785MPD2    H211633   2.904   4.373   9.836  0.3696 -2.0822 -1.4067
  785MPD2    H311634   2.780   4.202   9.687 -1.0865 -0.6344 -0.4314
  785MPD2     N11635   2.416   4.224   9.961 -0.5775  1.1364  0.0676
  785MPD2    H511636   2.391   4.277  10.044 -0.4316 -2.4879  2.4504
  785MPD2    N111637   2.773   4.513  10.033  0.3835 -0.0228  0.4335
  785MPD2    H711638   2.711   4.544  10.107 -0.1037  0.2808 -0.1025
  786MPD2     C11639   2.013   3.534  14.442  0.6017 -0.1879  0.2086
  786MPD2    C111640   1.927   3.479  14.540  0.1150  0.8608  0.1955
  786MPD2    C211641   1.954   3.506  14.673 -0.2004 -0.0028 -0.1405
  786MPD2    C311642   2.064   3.590  14.711 -0.4485 -0.2174 -0.1699
  786MPD2    C411643   2.139   3.654  14.618  0.8201  0.0237 -0.0499
  786MPD2    C511644   2.118   3.621  14.490 -0.3088  0.6988  0.3488
  786MPD2     H11645   1.887   3.463  14.747 -0.4343 -0.4118 -0.5863
  786MPD2    H111646   2.220   3.721  14.643  0.4717 -0.2186  1.7242
  786MPD2    H211647   2.013   3.498  14.340  1.1869  1.9283 -0.5305
  786MPD2    H311648   2.183   3.662  14.414 -3.1169  1.2271 -1.7820
  786MPD2     N11649   2.101   3.611  14.847  0.4586  0.2372 -0.8772
  786MPD2    H511650   2.190   3.658  14.863  0.3294 -0.1202  0.9367
  786MPD2    N111651   1.831   3.380  14.508  0.5009  0.1662  0.1866
  786MPD2    H711652   1.784   3.337  14.588  0.4123  0.3468  0.2329
  787MPD2     C11653   1.885   2.909  14.851  0.7448 -0.7508  0.4001
  787MPD2    C111654   1.896   2.853  14.723 -0.2410 -0.2979  0.2509
  787MPD2    C211655   1.989   2.749  14.691  0.9826  0.2870  0.1320
  787MPD2    C311656   2.073   2.708  14.791  0.1750 -0.5734 -0.1260
  787MPD2    C411657   2.063   2.769  14.913 -0.5593  0.3097 -0.0462
  787MPD2    C511658   1.972   2.862  14.942  0.4114  0.3015 -0.0416
  787MPD2     H11659   2.000   2.704  14.593  1.1582 -1.6505  1.0409
  787MPD2    H111660   2.143   2.744  14.981 -1.1349  2.9842  1.6160
  787MPD2    H211661   1.810   2.984  14.871 -1.3979 -2.1763 -2.2152
  787MPD2    H311662   1.966   2.907  15.040  2.4389  1.1990 -0.3408
  787MPD2     N11663   2.166   2.610  14.763 -0.2933  0.4676  0.1003
  787MPD2    H511664   2.167   2.583  14.665  1.8627 -2.5776  0.9840
  787MPD2    N111665   1.817   2.917  14.623 -0.5427 -0.3027  0.0097
  787MPD2    H711666   1.757   2.995  14.647 -0.0250 -0.0622  0.5330
  788MPD2     C11667   3.939   1.997   0.764  0.0323 -0.9123  0.0760
  788MPD2    C111668   3.899   1.977   0.642  0.2836 -0.6635  0.9482
  788MPD2    C211669   3.860   2.078   0.556  0.4786  0.4667  0.0595
  788MPD2    C311670   3.879   2.211   0.602 -0.0997 -0.3614 -0.2427
  788MPD2    C411671   3.928   2.228   0.727 -0.4779 -0.1901  0.0517
  788MPD2    C511672   3.960   2.122   0.810  0.5562  0.3111 -0.2357
  788MPD2     H11673   3.822   2.056   0.457  0.6340  0.1776  0.0648
  788MPD2    H111674   3.927   2.329   0.767 -2.2678 -0.3128  0.3176
  788MPD2    H211675   3.953   1.914   0.831 -0.4828  0.9113  2.4399
  788MPD2    H311676   3.991   2.146   0.912  1.6950 -1.0948 -0.2402
  788MPD2     N11677   3.836   2.315   0.521  0.5254  0.1891  0.1891
  788MPD2    H511678   3.784   2.294   0.436  0.6898  0.0879  0.1135
  788MPD2    N111679   3.893   1.844   0.607  0.7059  0.1588 -0.3123
  788MPD2    H711680   3.878   1.787   0.690 -0.7499  1.8774  0.6068
  789MPD2     C11681   3.894   1.026  17.289  0.6233  0.1081  0.1826
  789MPD2    C111682   3.819   0.965  17.192  0.4334 -0.6614  0.3377
  789MPD2    C211683   3.730   1.043  17.121  0.0500 -0.3248 -0.2043
  789MPD2    C311684   3.722   1.177  17.131  0.3619  0.1273 -0.1561
  789MPD2    C411685   3.804   1.238  17.221  0.0664  0.0972  0.5770
  789MPD2    C511686   3.883   1.164  17.304  0.7312  0.1356 -0.3178
  789MPD2     H11687   3.651   1.001  17.059 -1.2212  1.0815  0.4423
  789MPD2    H111688   3.809   1.346  17.224  0.3268  0.0833  0.6227
  789MPD2    H211689   3.958   0.973  17.359 -0.7824  1.1952  2.2596
  789MPD2    H311690   3.947   1.216  17.375 -1.2663  2.4360 -0.2083
  789MPD2     N11691   3.641   1.263  17.055  0.1343 -0.2437  0.8580
  789MPD2    H511692   3.649   1.362  17.076  2.3947  0.2951 -2.4522
  789MPD2    N111693   3.834   0.829  17.158 -0.2806 -0.5117  0.3321
  789MPD2    H711694   3.771   0.792  17.087 -0.3349 -0.8082  0.5330
  790MPD2     C11695   0.572   3.074  13.183  0.0246 -0.2723  0.9908
  790MPD2    C111696   0.632   2.964  13.231 -0.4519  0.0438  0.5132
  790MPD2    C211697   0.563   2.846  13.244 -0.1056 -0.8358 -0.5108
  790MPD2    C311698   0.434   2.839  13.200 -0.1419  0.5383 -0.5140
  790MPD2    C411699   0.379   2.949  13.141 -0.0848  0.1889  0.2568
  790MPD2    C511700   0.448   3.066  13.131 -0.3673 -0.3977  0.2864
  790MPD2     H11701   0.601   2.765  13.306 -1.6359  0.4460  2.1301
  790MPD2    H111702   0.274   2.953  13.113 -0.3859 -0.4331  1.2981
  790MPD2    H211703   0.624   3.169  13.181 -0.8096  0.1991  1.5032
  790MPD2    H311704   0.402   3.158  13.098 -0.0389 -0.0599  0.7594
  790MPD2     N11705   0.358   2.722  13.236  0.2633  0.0760 -0.1335
  790MPD2    H511706   0.409   2.637  13.261 -0.2004 -0.3685 -0.6952
  790MPD2    N111707   0.757   2.986  13.295  0.0583 -0.1949  0.4781
  790MPD2    H711708   0.790   3.082  13.299 -0.5719 -0.0424  1.9104
  791MPD2     C11709   4.381   2.720  13.024 -0.1863  0.6472 -0.2517
  791MPD2    C111710   4.420   2.593  13.004 -0.0567 -1.0105 -0.9544
  791MPD2    C211711   4.331   2.498  12.948  0.1756  0.9437  0.1737
  791MPD2    C311712   4.200   2.541  12.901  0.3224 -0.3509 -0.4961
  791MPD2    C411713   4.168   2.679  12.922 -0.3977 -0.1329 -1.1713
  791MPD2    C511714   4.257   2.765  12.987 -0.8907 -0.3427  0.0226
  791MPD2     H11715   4.358   2.394  12.937  0.1590  0.8191  1.3820
  791MPD2    H111716   4.078   2.723  12.878 -0.9607  0.0613  0.1834
  791MPD2    H211717   4.456   2.789  13.061 -2.2065  1.1995  2.8116
  791MPD2    H311718   4.237   2.871  12.998 -0.2533 -0.1058 -1.1346
  791MPD2     N11719   4.109   2.444  12.837  0.0546  0.1979 -0.2169
  791MPD2    H511720   4.152   2.357  12.808  1.4395 -0.0356  2.5618
  791MPD2    N111721   4.555   2.560  13.042  0.2518  0.6160 -0.8203
  791MPD2    H711722   4.599   2.640  13.086  0.2684 -0.3646  0.9340
  792MPD2     C11723   4.083   2.637  11.129  0.0747 -0.1171 -0.5457
  792MPD2    C111724   4.206   2.562  11.128  0.0687 -0.6142 -0.4362
  792MPD2    C211725   4.205   2.428  11.142  0.1431  0.3063  0.4388
  792MPD2    C311726   4.083   2.362  11.140  0.2003 -0.1003  0.1153
  792MPD2    C411727   3.966   2.434  11.142  0.5116  0.8973  0.1576
  792MPD2    C511728   3.963   2.567  11.148  0.8222  0.7064  1.7136
  792MPD2     H11729   4.295   2.369  11.152  0.2799  0.4787  0.2017
  792MPD2    H111730   3.876   2.375  11.150 -0.5944  2.7114  0.9989
  792MPD2    H211731   4.080   2.745  11.140  0.3513 -0.1946  0.3098
  792MPD2    H311732   3.871   2.621  11.163  1.7402  2.2685  1.7210
  792MPD2     N11733   4.076   2.218  11.134  0.1749  0.0971  0.3484
  792MPD2    H511734   3.980   2.183  11.128 -0.4758  1.2760  3.8910
  792MPD2    N111735   4.325   2.642  11.109 -0.8718  0.4209 -0.6004
  792MPD2    H711736   4.311   2.737  11.077  1.4463  0.1211 -2.4786
  793MPD2     C11737   3.691   1.869  10.507  0.1256  0.4261  0.1474
  793MPD2    C111738   3.789   1.958  10.523  0.2104  0.3874  0.1381
  793MPD2    C211739   3.875   1.944  10.629 -0.7083  0.2451 -0.1697
  793MPD2    C311740   3.840   1.862  10.737  0.3116  0.1032  0.3401
  793MPD2    C411741   3.724   1.790  10.728  0.3397 -0.3600  0.0394
  793MPD2    C511742   3.659   1.783  10.608 -0.0563 -0.3656  0.6917
  793MPD2     H11743   3.967   1.998  10.645  0.3595 -1.5812 -0.1296
  793MPD2    H111744   3.686   1.721  10.802  2.2430 -0.5101  0.8704
  793MPD2    H211745   3.624   1.879  10.422  0.3411  1.2570  0.0758
  793MPD2    H311746   3.570   1.722  10.596  0.3274 -0.7323 -0.3348
  793MPD2     N11747   3.924   1.871  10.851  0.6528  0.1013  0.7262
  793MPD2    H511748   3.994   1.945  10.854  0.9461 -0.1748  0.7558
  793MPD2    N111749   3.839   2.050  10.426 -1.3155 -0.9880  0.6143
  793MPD2    H711750   3.935   2.082  10.440 -1.1641 -0.4664 -1.6213
  794MPD2     C11751   0.083   2.279  17.352 -0.4420  0.2254 -0.5747
  794MPD2    C111752   0.026   2.162  17.325 -0.3200  0.4123  0.6325
  794MPD2    C211753   4.722   2.134  17.197 -0.0184 -0.3298 -0.3585
  794MPD2    C311754   4.736   2.230  17.098  0.5286  0.4671 -0.6541
  794MPD2    C411755   0.056   2.349  17.131  0.3054  0.4660  0.7842
  794MPD2    C511756   0.100   2.373  17.256  0.3208  0.8050 -0.5056
  794MPD2     H11757   4.682   2.034  17.181 -0.5039 -0.0082 -1.1795
  794MPD2    H111758   0.075   2.426  17.057  3.0682 -1.1352 -0.1743
  794MPD2    H211759   0.110   2.297  17.455 -1.6937  1.4949 -0.4691
  794MPD2    H311760   0.159   2.458  17.287  0.2238 -0.0925  2.1846
  794MPD2     N11761   4.687   2.216  16.967 -0.3281  0.7245  0.3023
  794MPD2    H511762   4.692   2.299  16.909 -0.7415  0.5362 -0.0026
  794MPD2    N111763   0.008   2.063  17.426 -0.6763  0.0734 -0.2722
  794MPD2    H711764   4.704   1.979  17.388  0.0727  0.1504 -1.2994
  795MPD2     C11765   2.399   4.135  13.690 -0.3290 -0.2351  0.1434
  795MPD2    C111766   2.352   4.008  13.648 -0.0316 -0.0072  1.0249
  795MPD2    C211767   2.412   3.891  13.688  0.1374 -0.2949 -0.0070
  795MPD2    C311768   2.532   3.894  13.763 -0.2762  0.4614 -0.3972
  795MPD2    C411769   2.583   4.018  13.795 -0.1409  0.6634  0.2057
  795MPD2    C511770   2.518   4.135  13.754  0.7506 -0.1363 -0.2992
  795MPD2     H11771   2.362   3.797  13.665 -0.0321  0.1381 -1.4244
  795MPD2    H111772   2.671   4.027  13.858 -2.2615  1.2097  3.0896
  795MPD2    H211773   2.366   4.231  13.654 -0.9211  0.4869  2.6173
  795MPD2    H311774   2.554   4.233  13.783 -0.9395 -0.2738  2.2872
  795MPD2     N11775   2.608   3.775  13.799  0.2019  0.2691 -0.3528
  795MPD2    H511776   2.563   3.685  13.783 -1.2063  1.0342 -0.6822
  795MPD2    N111777   2.232   3.994  13.578 -0.3892  0.6722 -0.2095
  795MPD2    H711778   2.201   3.901  13.551  0.7438 -0.0697  1.0591
  796MPD2     C11779   1.759   0.744  15.905  0.4693  0.1141 -0.0064
  796MPD2    C111780   1.848   0.847  15.934 -0.8688  0.3312 -0.0973
  796MPD2    C211781   1.846   0.965  15.867 -0.0674 -0.3495 -0.2367
  796MPD2    C311782   1.752   0.977  15.765  0.0042  0.4531  0.3997
  796MPD2    C411783   1.675   0.869  15.729  0.1624  0.3156 -0.2156
  796MPD2    C511784   1.681   0.753  15.800 -0.1936  0.5476 -0.2645
  796MPD2     H11785   1.910   1.047  15.897 -0.4661 -0.7522  1.6701
  796MPD2    H111786   1.606   0.881  15.646  1.8253  2.7036 -1.2294
  796MPD2    H211787   1.754   0.651  15.961 -1.3309 -0.4135 -1.0248
  796MPD2    H311788   1.623   0.668  15.767 -1.1029  1.0517  0.0343
  796MPD2     N11789   1.728   1.105  15.701  0.5654  0.2045  0.0429
  796MPD2    H511790   1.796   1.180  15.712  0.4276  0.5617 -1.5964
  796MPD2    N111791   1.924   0.822  16.046 -0.7083 -0.0789 -0.9084
  796MPD2    H711792   1.929   0.724  16.071  0.6096  0.4363  0.8160
  797MPD2     C11793   2.980   0.624  17.488 -0.4008 -0.1603  0.6207
  797MPD2    C111794   2.976   0.743  17.543  0.1682 -0.0583 -0.0985
  797MPD2    C211795   2.875   0.832  17.499 -0.2630  0.3978  0.9627
  797MPD2    C311796   2.778   0.801  17.407  0.3824  0.3615 -0.5314
  797MPD2    C411797   2.785   0.675  17.358  0.8588 -0.0583  0.3100
  797MPD2    C511798   2.874   0.585  17.404  0.4822  0.1371  0.4824
  797MPD2     H11799   2.869   0.926  17.552  1.3093  0.4054  1.1260
  797MPD2    H111800   2.712   0.660  17.279  0.2138 -0.7266  1.0293
  797MPD2    H211801   3.052   0.547  17.513 -0.7986 -0.7929 -0.1574
  797MPD2    H311802   2.876   0.490  17.352  1.8503  2.1610 -3.1880
  797MPD2     N11803   2.688   0.903  17.367  0.4419 -0.2078 -0.2507
  797MPD2    H511804   2.699   0.987  17.423  0.9979  0.0621 -0.7660
  797MPD2    N111805   3.063   0.794  17.635  0.1503  0.2891 -0.1528
  797MPD2    H711806   3.040   0.882  17.681  2.8772  0.5139  0.7747
  798MPD2     C11807   3.039   1.512  17.457  1.1364  0.6128 -0.2913
  798MPD2    C111808   2.978   1.397  17.463 -0.4103  0.0858 -0.2638
  798MPD2    C211809   3.022   1.294  17.543 -0.3871  0.2141  0.1884
  798MPD2    C311810   3.135   1.302  17.616  0.2120  0.1569 -0.2548
  798MPD2    C411811   3.207   1.421  17.608 -0.3385 -0.6221 -0.1318
  798MPD2    C511812   3.155   1.522  17.530  0.4501 -0.2433 -0.3043
  798MPD2     H11813   2.965   1.202  17.540 -1.3451  0.7947  0.5728
  798MPD2    H111814   3.302   1.439  17.657 -0.0194  1.7029 -1.5957
  798MPD2    H211815   3.013   1.590  17.387 -3.0419  0.6309  1.3353
  798MPD2    H311816   3.208   1.616  17.521 -1.8155  1.2914  2.3346
  798MPD2     N11817   3.183   1.182  17.676  0.1085 -0.2473  0.4111
  798MPD2    H511818   3.106   1.116  17.685  1.2004 -1.4967  0.5292
  798MPD2    N111819   2.853   1.380  17.401 -0.5173  0.2885  0.6677
  798MPD2    H711820   2.828   1.460  17.343  0.8007 -0.3365 -0.7703
  799MPD2     C11821   2.289   1.602  14.529 -0.0107  0.4486 -0.2254
  799MPD2    C111822   2.289   1.568  14.393 -0.4460 -0.3109 -0.0450
  799MPD2    C211823   2.203   1.627  14.306 -0.0863  0.5648  0.4519
  799MPD2    C311824   2.103   1.712  14.346  0.9561 -0.0047 -0.5350
  799MPD2    C411825   2.099   1.745  14.483 -0.0954 -0.2176  0.2751
  799MPD2    C511826   2.189   1.682  14.575 -0.2380  0.0540  0.2148
  799MPD2     H11827   2.218   1.609  14.200 -0.7057 -0.2401  0.5002
  799MPD2    H111828   2.026   1.815  14.521 -1.0344 -1.5730  0.9819
  799MPD2    H211829   2.362   1.565  14.599 -0.5548 -1.2204 -0.5269
  799MPD2    H311830   2.189   1.712  14.679  0.3556  0.4105  0.1120
  799MPD2     N11831   2.021   1.778  14.251  0.1980  0.1214 -0.2883
  799MPD2    H511832   1.982   1.870  14.269 -0.9424 -0.2759 -0.7300
  799MPD2    N111833   2.380   1.475  14.340 -0.8489 -0.7215  0.4629
  799MPD2    H711834   2.366   1.464  14.240 -1.2095  0.8492  0.3403
  800MPD2     C11835   2.119   3.223  14.026 -0.3135  0.1433 -0.1524
  800MPD2    C111836   2.252   3.229  13.979  0.3913 -0.1077 -0.7183
  800MPD2    C211837   2.277   3.186  13.852 -0.5523 -0.1303  0.5573
  800MPD2    C311838   2.170   3.141  13.763 -0.4057  0.1536  0.5571
  800MPD2    C411839   2.038   3.140  13.811 -0.5984 -0.2765  0.3261
  800MPD2    C511840   2.018   3.187  13.936 -0.4400  0.0658  0.4918
  800MPD2     H11841   2.377   3.185  13.810 -0.0806  1.2910  1.6794
  800MPD2    H111842   1.950   3.111  13.754  1.5116 -1.5602 -2.2688
  800MPD2    H211843   2.089   3.265  14.121 -1.9381  1.9815 -1.4731
  800MPD2    H311844   1.914   3.210  13.956  0.0007  1.2830  1.3512
  800MPD2     N11845   2.198   3.114  13.631 -0.0572 -0.0145  0.9636
  800MPD2    H511846   2.296   3.113  13.604  0.1404  1.2445  1.6521
  800MPD2    N111847   2.359   3.274  14.059 -0.4009  0.3640  0.0849
  800MPD2    H711848   2.339   3.315  14.150  1.0407 -0.2691  0.6907
  801MPD2     C11849   2.425   3.847  14.472 -0.1665  0.4851 -0.7086
  801MPD2    C111850   2.379   3.816  14.352  0.0967  0.5690  0.1525
  801MPD2    C211851   2.268   3.882  14.301  0.5859  0.3330  0.2276
  801MPD2    C311852   2.189   3.971  14.373  0.1957  0.6626  0.3218
  801MPD2    C411853   2.231   3.994  14.500  0.3088  1.5032 -0.3124
  801MPD2    C511854   2.348   3.938  14.548  0.4508 -0.2572 -0.7051
  801MPD2     H11855   2.229   3.849  14.205 -1.6374 -0.0157  1.2328
  801MPD2    H111856   2.170   4.059  14.562 -1.8817 -0.5612 -0.2831
  801MPD2    H211857   2.510   3.806  14.525 -0.0430  1.0472 -0.4727
  801MPD2    H311858   2.382   3.962  14.648  1.5188  0.4418 -1.2480
  801MPD2     N11859   2.069   4.032  14.329  0.2676 -0.6235  0.6305
  801MPD2    H511860   2.027   4.094  14.397 -0.4757  2.3025 -2.4925
  801MPD2    N111861   2.446   3.722  14.264  0.0300  0.3859 -0.2575
  801MPD2    H711862   2.400   3.716  14.173  0.9802  0.6496 -0.7497
  802MPD2     C11863   2.229   4.563   0.184  0.0393  0.4482 -0.5621
  802MPD2    C111864   2.102   4.565   0.144  0.4282 -0.0303  0.6398
  802MPD2    C211865   2.070   4.503   0.019 -0.1273  0.7640  0.2616
  802MPD2    C311866   2.169   4.431  17.704 -0.1281 -0.3258  0.1502
  802MPD2    C411867   2.301   4.444  17.734 -0.0629 -0.8304 -0.4339
  802MPD2    C511868   2.333   4.509   0.102 -0.0703  0.4083  0.2910
  802MPD2     H11869   1.965   4.509  17.748 -0.0105 -0.5753 -0.5326
  802MPD2    H111870   2.378   4.392  17.678  1.4390 -0.5677  1.3816
  802MPD2    H211871   2.250   4.611   0.279 -0.2092 -2.2455  0.8285
  802MPD2    H311872   2.438   4.507   0.128  0.6536 -0.1770 -2.6007
  802MPD2     N11873   2.131   4.363  17.592 -0.1918 -0.0549 -0.0518
  802MPD2    H511874   2.033   4.351  17.570  0.1939 -3.4814  0.1132
  802MPD2    N111875   2.002   4.630   0.220 -0.3795 -0.2597 -0.4944
  802MPD2    H711876   1.912   4.637   0.174 -0.5868 -0.8578 -0.1794
  803MPD2     C11877   2.853   2.743  11.371 -0.1909 -0.4508  0.3108
  803MPD2    C111878   2.860   2.856  11.448 -0.2816  0.5548  0.0295
  803MPD2    C211879   2.859   2.849  11.583 -0.1088  0.4282 -0.5143
  803MPD2    C311880   2.864   2.723  11.644  0.2694 -0.0001 -0.3038
  803MPD2    C411881   2.855   2.605  11.564  0.0665  0.1024 -0.2556
  803MPD2    C511882   2.839   2.620  11.433  0.3240  0.6508 -0.0119
  803MPD2     H11883   2.867   2.938  11.645 -1.6999  1.7576 -2.2136
  803MPD2    H111884   2.867   2.508  11.611  1.2858  0.4786  0.1932
  803MPD2    H211885   2.854   2.742  11.262  0.8979 -1.6100  0.3219
  803MPD2    H311886   2.839   2.535  11.366 -0.6080 -2.0218  3.3841
  803MPD2     N11887   2.870   2.707  11.790  0.1020 -0.3169 -0.1724
  803MPD2    H511888   2.876   2.610  11.820 -0.2571 -0.3296 -0.1419
  803MPD2    N111889   2.865   2.978  11.386  0.1138 -0.1709  0.2925
  803MPD2    H711890   2.880   3.051  11.455  1.7484  0.0271 -0.2919
  804MPD2     C11891   2.787   4.153  16.636  0.5630 -0.4628  1.2995
  804MPD2    C111892   2.778   4.121  16.775 -0.5962 -0.4435 -0.4623
  804MPD2    C211893   2.862   4.180  16.868 -0.0296  0.2837  0.0693
  804MPD2    C311894   2.954   4.277  16.825  0.3226  0.3085 -0.4765
  804MPD2    C411895   2.973   4.298  16.686 -0.0057  0.3724 -0.5795
  804MPD2    C511896   2.887   4.239  16.595  0.4896  0.1707 -0.1188
  804MPD2     H11897   2.864   4.157  16.974  2.9871 -1.5755 -0.3811
  804MPD2    H111898   3.041   4.372  16.646  0.3082  1.1813  1.4540
  804MPD2    H211899   2.725   4.115  16.556  0.0827 -0.1300  1.5114
  804MPD2    H311900   2.883   4.267  16.491  0.7662 -1.6544 -0.6258
  804MPD2     N11901   3.030   4.344  16.922  0.2374 -0.9788 -0.0154
  804MPD2    H511902   2.992   4.331  17.015  0.5345 -1.9243 -0.0223
  804MPD2    N111903   2.677   4.032  16.828  0.4199  0.0242  0.1932
  804MPD2    H711904   2.682   4.011  16.928 -0.2645  0.9480  0.4217
  805MPD2     C11905   1.557   2.400  15.415  0.8034  0.0656 -0.9175
  805MPD2    C111906   1.659   2.448  15.348 -0.1440  0.4340 -0.0584
  805MPD2    C211907   1.769   2.506  15.414  0.2982 -0.3047 -0.1879
  805MPD2    C311908   1.771   2.521  15.553 -0.0164  0.1605  0.2137
  805MPD2    C411909   1.657   2.474  15.615  0.6337 -0.5434  0.0093
  805MPD2    C511910   1.546   2.416  15.549 -0.9865 -0.3059  0.0747
  805MPD2     H11911   1.858   2.537  15.361  1.6270 -0.7148  1.8061
  805MPD2    H111912   1.655   2.476  15.724 -1.7415 -0.7601 -0.0227
  805MPD2    H211913   1.475   2.343  15.373  0.9879  0.0338 -1.2268
  805MPD2    H311914   1.466   2.376  15.610 -1.2110  2.0844  1.3826
  805MPD2     N11915   1.882   2.572  15.613  0.5416 -0.0274  0.4191
  805MPD2    H511916   1.950   2.617  15.552  0.8052  2.1300  2.3128
  805MPD2    N111917   1.655   2.447  15.204  0.2642  0.1239 -0.8903
  805MPD2    H711918   1.727   2.497  15.154 -0.8710  0.8265 -1.8184
  806MPD2     C11919   1.837   2.058   0.444 -0.3569  0.4231 -0.2259
  806MPD2    C111920   1.889   2.174   0.504 -0.4029 -1.0462 -0.1396
  806MPD2    C211921   1.965   2.259   0.429 -1.2138  0.1090 -0.3379
  806MPD2    C311922   1.991   2.225   0.299  0.5987  0.6434  0.3273
  806MPD2    C411923   1.930   2.117   0.239 -0.2087 -0.4115  0.3835
  806MPD2    C511924   1.843   2.037   0.313  0.7518 -0.0105  0.5082
  806MPD2     H11925   2.021   2.342   0.472 -3.3132  1.1031  0.4446
  806MPD2    H111926   1.943   2.085   0.136  3.5966 -2.5813  1.5148
  806MPD2    H211927   1.775   2.000   0.512 -1.4125  2.3572  0.4415
  806MPD2    H311928   1.777   1.964   0.269  0.7935  1.3143 -1.7731
  806MPD2     N11929   2.070   2.315   0.227  0.5642  0.0529 -0.1693
  806MPD2    H511930   2.114   2.393   0.275  1.2389  0.5794 -1.6257
  806MPD2    N111931   1.887   2.180   0.646  0.0734 -0.4624  0.0336
  806MPD2    H711932   1.849   2.097   0.691 -0.9704  1.0324  1.8901
  807MPD2     C11933   1.540   2.094   1.336 -0.0293  0.2079  0.6474
  807MPD2    C111934   1.654   2.019   1.323  0.3429 -0.6399  0.3091
  807MPD2    C211935   1.671   1.904   1.399 -1.0134 -0.0155 -0.1928
  807MPD2    C311936   1.566   1.860   1.477  0.4696  0.2942  0.4668
  807MPD2    C411937   1.447   1.925   1.471  0.1791 -0.2820 -0.2228
  807MPD2    C511938   1.437   2.048   1.412 -0.1552  0.0775 -0.3748
  807MPD2     H11939   1.769   1.858   1.400 -0.7309  0.5849 -0.2086
  807MPD2    H111940   1.360   1.882   1.520  1.5079 -0.5724  1.8558
  807MPD2    H211941   1.521   2.195   1.299  2.0409  0.1497 -0.5940
  807MPD2    H311942   1.347   2.108   1.425  0.4184  0.5124  1.6955
  807MPD2     N11943   1.576   1.757   1.576  0.0366  0.4649 -0.1156
  807MPD2    H511944   1.490   1.727   1.620  0.3149 -1.0490 -0.6301
  807MPD2    N111945   1.755   2.050   1.236 -0.1030  0.5555  0.1979
  807MPD2    H711946   1.839   1.994   1.246  1.1050  2.3380  0.0334
  808MPD2     C11947   1.656   2.546   9.262 -0.1428 -0.5936  0.0347
  808MPD2    C111948   1.619   2.649   9.348 -0.6052  0.1194  0.7106
  808MPD2    C211949   1.653   2.777   9.310  0.5359  0.3114  0.3399
  808MPD2    C311950   1.709   2.801   9.186  0.1535 -0.0995  0.2489
  808MPD2    C411951   1.736   2.699   9.101  0.3284 -0.3069  0.0090
  808MPD2    C511952   1.714   2.571   9.145 -0.3732 -0.1230 -0.1315
  808MPD2     H11953   1.641   2.861   9.378  1.9286  1.8834 -1.3444
  808MPD2    H111954   1.792   2.712   9.010  0.2400  1.2099  0.1715
  808MPD2    H211955   1.640   2.444   9.295  0.3957 -0.6097  0.2464
  808MPD2    H311956   1.733   2.483   9.085 -0.5884  0.7058 -1.4267
  808MPD2     N11957   1.745   2.930   9.143  0.4845 -0.2887 -0.1834
  808MPD2    H511958   1.814   2.945   9.069 -0.8822 -0.0857 -1.4079
  808MPD2    N111959   1.544   2.637   9.466 -0.3737  0.6994  0.3498
  808MPD2    H711960   1.544   2.719   9.525 -0.9144  0.3535  0.8325
  809MPD2     C11961   2.441   3.026   8.778 -0.2262 -0.3835 -0.0007
  809MPD2    C111962   2.477   3.104   8.885  0.2099 -0.2383 -0.5293
  809MPD2    C211963   2.374   3.146   8.967 -0.5397  0.4227 -0.4651
  809MPD2    C311964   2.244   3.112   8.936 -0.0072  0.5739  0.0609
  809MPD2    C411965   2.216   3.043   8.821 -0.3040  0.2104  0.0777
  809MPD2    C511966   2.313   2.990   8.743 -0.2480 -0.5745  0.0123
  809MPD2     H11967   2.396   3.192   9.062  3.5720 -0.1596 -1.1485
  809MPD2    H111968   2.117   3.005   8.800 -0.5577  0.6635  0.4512
  809MPD2    H211969   2.514   2.995   8.703 -0.4245  1.5347 -0.9698
  809MPD2    H311970   2.292   2.927   8.657 -0.3695  0.5388 -0.7616
  809MPD2     N11971   2.129   3.148   9.012  0.0476 -0.0893 -0.0961
  809MPD2    H511972   2.040   3.116   8.974  0.0539 -0.4255  0.1771
  809MPD2    N111973   2.610   3.145   8.910 -0.1485 -0.8688  0.0537
  809MPD2    H711974   2.622   3.203   8.993  0.3973  2.5567 -2.4528
  810MPD2     C11975   1.381   2.412  10.931  0.0698  0.5455  0.1986
  810MPD2    C111976   1.484   2.440  10.845 -0.1476 -0.1287 -0.1109
  810MPD2    C211977   1.485   2.565  10.785  0.1366  0.2669  0.4601
  810MPD2    C311978   1.392   2.669  10.817  0.8197 -0.2207 -0.3970
  810MPD2    C411979   1.295   2.630  10.907  0.3038 -0.6772  0.0158
  810MPD2    C511980   1.283   2.501  10.959  0.5033 -0.1004 -0.4409
  810MPD2     H11981   1.564   2.583  10.714 -0.5625  2.2008  0.1781
  810MPD2    H111982   1.219   2.705  10.924  0.3461 -0.3767 -1.0690
  810MPD2    H211983   1.361   2.313  10.971 -1.4017  1.1426  0.9463
  810MPD2    H311984   1.204   2.468  11.025  1.6736 -0.9251  0.5627
  810MPD2     N11985   1.391   2.800  10.759 -0.3353  0.2798 -0.4215
  810MPD2    H511986   1.311   2.858  10.783 -0.1699 -0.1226  1.1335
  810MPD2    N111987   1.556   2.329  10.799 -0.6603 -0.8142  0.0320
  810MPD2    H711988   1.517   2.237  10.816  0.4128 -0.7797  2.7173
  811MPD2     C11989   1.672   2.375   9.886  0.6189  0.0214 -0.4141
  811MPD2    C111990   1.675   2.437  10.004 -0.7265 -0.1979  0.2003
  811MPD2    C211991   1.684   2.573  10.012  0.0125 -0.3452  0.2825
  811MPD2    C311992   1.677   2.644   9.893  0.3092  0.0707  0.0539
  811MPD2    C411993   1.681   2.576   9.774  0.6803 -0.7106 -0.1277
  811MPD2    C511994   1.688   2.443   9.772 -0.4104 -0.1807  0.6438
  811MPD2     H11995   1.684   2.625  10.107 -3.6961  1.1700 -0.5471
  811MPD2    H111996   1.686   2.616   9.673  2.1290 -0.5353  0.0099
  811MPD2    H211997   1.658   2.267   9.886 -3.2465  0.5135 -0.3666
  811MPD2    H311998   1.689   2.391   9.677  0.0159 -0.4023  0.7707
  811MPD2     N11999   1.659   2.786   9.896 -0.4107 -0.0719 -0.3297
  811MPD2    H512000   1.668   2.823   9.991  1.4894 -1.4126  0.0040
  811MPD2    N112001   1.676   2.357  10.119  0.2125 -0.3474 -0.9515
  811MPD2    H712002   1.643   2.261  10.114  1.3952 -0.7692 -0.7120
  812MPD2     C12003   0.521   2.338  12.133  0.7653 -0.2975  1.1960
  812MPD2    C112004   0.539   2.448  12.206  0.1569  0.1301  0.1546
  812MPD2    C212005   0.670   2.480  12.259  0.1034  0.4895 -0.3428
  812MPD2    C312006   0.778   2.395  12.230 -1.1246  0.2430 -0.5478
  812MPD2    C412007   0.752   2.294  12.135 -0.1208 -0.1740  0.3361
  812MPD2    C512008   0.627   2.270  12.091  0.5275 -0.2700  0.2291
  812MPD2     H12009   0.702   2.566  12.317 -0.1607  0.9016 -0.8099
  812MPD2    H112010   0.829   2.227  12.099 -0.8285 -1.0509  0.4410
  812MPD2    H212011   0.423   2.319  12.091  1.2476  1.1248 -0.5736
  812MPD2    H312012   0.612   2.183  12.029 -1.1781  0.9423 -1.0707
  812MPD2     N12013   0.909   2.419  12.291 -0.3098  0.0004 -0.2988
  812MPD2    H512014   0.908   2.480  12.372  0.0553 -2.1785  1.3447
  812MPD2    N112015   0.427   2.521  12.233  0.2521  0.2807  0.0901
  812MPD2    H712016   0.342   2.481  12.194  1.0402 -0.5194 -0.8251
  813MPD2     C12017   4.550   4.273  12.983 -0.0204 -0.2801 -0.2970
  813MPD2    C112018   4.667   4.281  13.046  0.2738  0.7444  0.3856
  813MPD2    C212019   4.661   4.258  13.186 -0.1845  0.0228 -0.2270
  813MPD2    C312020   4.542   4.237  13.257  0.0458 -0.7473 -0.0184
  813MPD2    C412021   4.426   4.253  13.193 -0.4436 -0.0594  0.1780
  813MPD2    C512022   4.432   4.270  13.058 -0.3761 -0.2622 -0.1941
  813MPD2     H12023   0.017   4.256  13.237  0.0041  1.1652 -0.5384
  813MPD2    H112024   4.330   4.242  13.243 -0.3634 -2.1836 -0.1396
  813MPD2    H212025   4.532   4.278  12.876 -2.3066  0.3024  0.1068
  813MPD2    H312026   4.339   4.273  13.003 -0.1876 -1.5891 -0.5675
  813MPD2     N12027   4.558   4.222  13.395 -0.7766  0.2311 -0.3095
  813MPD2    H512028   4.651   4.202  13.430 -0.6616  0.9197 -0.2223
  813MPD2    N112029   0.041   4.314  12.966 -0.3855  0.5353  0.2159
  813MPD2    H712030   0.018   4.334  12.869 -0.7061 -3.1817 -0.4852
  814MPD2     C12031   0.272   0.866  12.158 -0.1959  0.0318 -0.2320
  814MPD2    C112032   0.317   0.877  12.027 -0.7215 -0.5442  0.2815
  814MPD2    C212033   0.390   0.984  11.978 -0.0144  0.3716  0.2075
  814MPD2    C312034   0.430   1.077  12.066  0.1858 -0.0297  0.1953
  814MPD2    C412035   0.386   1.074  12.193  0.1846 -0.2913  0.8564
  814MPD2    C512036   0.307   0.971  12.241 -0.1271 -0.0992  0.4537
  814MPD2     H12037   0.426   0.988  11.876  3.8779  0.9396  1.6047
  814MPD2    H112038   0.410   1.154  12.262  1.4327 -0.1296  0.2286
  814MPD2    H212039   0.215   0.778  12.184  1.0876 -0.5027  0.8054
  814MPD2    H312040   0.272   0.978  12.343 -1.2417 -3.7915  0.3300
  814MPD2     N12041   0.512   1.193  12.037  0.2372  0.2600 -0.3097
  814MPD2    H512042   0.519   1.264  12.109 -2.8574 -0.2779  0.5601
  814MPD2    N112043   0.289   0.776  11.931 -0.5867  0.1053  0.6170
  814MPD2    H712044   0.297   0.814  11.837 -1.8566  1.5878  1.1046
  815MPD2     C12045   0.965   4.201  11.797  0.2487 -1.0995  0.3355
  815MPD2    C112046   0.876   4.094  11.797 -0.5594 -0.0476 -0.6274
  815MPD2    C212047   0.771   4.090  11.883  0.2326 -0.1433  0.4528
  815MPD2    C312048   0.756   4.184  11.978 -0.0511 -0.2856  0.1132
  815MPD2    C412049   0.837   4.296  11.976  1.1553 -0.0403  0.5545
  815MPD2    C512050   0.951   4.293  11.898 -0.9106 -0.3395  0.5350
  815MPD2     H12051   0.707   4.003  11.887  1.0135 -0.8126 -1.7089
  815MPD2    H112052   0.824   4.381  12.041 -0.1740 -0.0768  0.3526
  815MPD2    H212053   1.044   4.207  11.723  1.9574  2.3659  2.4555
  815MPD2    H312054   1.018   4.377  11.902 -1.5220  0.2228 -1.0293
  815MPD2     N12055   0.651   4.169  12.069  0.6392  0.3249  0.2975
  815MPD2    H512056   0.578   4.104  12.042 -0.1912  0.9297  1.1029
  815MPD2    N112057   0.904   3.991  11.703 -0.0585  0.4566  0.0667
  815MPD2    H712058   0.969   4.017  11.629 -0.0277 -1.0887 -0.4525
  816MPD2     C12059   0.923   3.260  17.044 -0.2492  0.3362 -0.5043
  816MPD2    C112060   0.957   3.393  17.029 -0.6859 -0.1313  0.0569
  816MPD2    C212061   1.041   3.426  16.921  0.1663 -0.3261  0.2822
  816MPD2    C312062   1.108   3.331  16.844 -0.7107  0.1512 -0.0557
  816MPD2    C412063   1.080   3.196  16.869 -0.0854  0.0392 -0.5078
  816MPD2    C512064   0.977   3.167  16.955  0.3193  0.7727  0.5666
  816MPD2     H12065   1.062   3.529  16.894 -2.1849  0.2592  0.6672
  816MPD2    H112066   1.139   3.121  16.817  1.1899  0.1770  0.7136
  816MPD2    H212067   0.851   3.222  17.117 -1.7905 -1.1895 -2.8225
  816MPD2    H312068   0.963   3.062  16.978 -1.8493  0.7198 -0.9946
  816MPD2     N12069   1.207   3.371  16.755 -0.1728 -0.4378 -0.0146
  816MPD2    H512070   1.215   3.470  16.735 -3.0955 -0.4768 -1.3671
  816MPD2    N112071   0.886   3.494  17.105  0.3303  0.8176  0.3037
  816MPD2    H712072   0.803   3.463  17.154 -0.4616  0.9480 -0.9397
  817MPD2     C12073   4.134   0.230   9.983 -0.3971  0.5670 -0.3270
  817MPD2    C112074   4.091   0.172   9.864 -0.4527  0.4471  0.1363
  817MPD2    C212075   3.995   0.240   9.790  0.2097 -0.0511  0.3383
  817MPD2    C312076   3.924   0.345   9.850 -0.2803  0.4089  0.5855
  817MPD2    C412077   3.966   0.400   9.975  0.1558 -0.4912 -0.3370
  817MPD2    C512078   4.074   0.346  10.036  0.4379 -0.2585  0.3920
  817MPD2     H12079   3.965   0.193   9.697 -0.7248 -0.9122  1.0782
  817MPD2    H112080   3.910   0.479  10.025  0.9827  0.5957 -1.1092
  817MPD2    H212081   4.209   0.173  10.037 -0.4782 -0.6282 -1.4582
  817MPD2    H312082   4.120   0.389  10.124 -1.2957  0.8733  0.7523
  817MPD2     N12083   3.804   0.401   9.788 -0.2747 -0.8761  0.5589
  817MPD2    H512084   3.778   0.372   9.694  1.5699 -0.6859 -0.0242
  817MPD2    N112085   4.152   0.052   9.807  0.6287 -0.2551 -0.1272
  817MPD2    H712086   4.132   0.042   9.708 -1.5652 -0.3810  0.3365
  818MPD2     C12087   3.824   0.439  10.407 -0.0338  0.3496 -0.6229
  818MPD2    C112088   3.718   0.399  10.479 -0.4951 -0.0421 -0.5228
  818MPD2    C212089   3.633   0.298  10.434  0.4224  0.0528  0.0216
  818MPD2    C312090   3.667   0.230  10.317  0.2576 -0.7319 -0.5217
  818MPD2    C412091   3.789   0.263  10.256 -0.6296 -0.3520  0.0608
  818MPD2    C512092   3.868   0.366  10.305  0.1723 -0.1309 -0.2008
  818MPD2     H12093   3.547   0.266  10.493  1.5937  0.8894  2.2106
  818MPD2    H112094   3.825   0.215  10.166  3.3745 -2.4688  2.8194
  818MPD2    H212095   3.879   0.528  10.434 -0.7977  1.2018 -1.8763
  818MPD2    H312096   3.962   0.390  10.255 -0.6767 -0.1139 -1.8038
  818MPD2     N12097   3.589   0.122  10.256 -0.2815  0.2518  0.4754
  818MPD2    H512098   3.632   0.082  10.173  1.2501  2.7786  0.0477
  818MPD2    N112099   3.683   0.465  10.607 -0.4101 -0.1681 -0.1855
  818MPD2    H712100   3.605   0.418  10.651 -0.9388 -0.0805 -1.0258
  819MPD2     C12101   2.454   2.086  15.640 -0.0174 -0.5013 -0.5710
  819MPD2    C112102   2.491   1.966  15.576 -0.0857 -0.1053 -1.2045
  819MPD2    C212103   2.598   1.889  15.614  0.3238  0.1874  0.1260
  819MPD2    C312104   2.665   1.934  15.722 -0.6176  0.0580 -0.0103
  819MPD2    C412105   2.628   2.055  15.789  0.8042 -0.7595  0.2597
  819MPD2    C512106   2.527   2.134  15.746  0.1069 -0.3727 -0.6808
  819MPD2     H12107   2.629   1.801  15.560  2.3555  0.2778  1.1683
  819MPD2    H112108   2.687   2.099  15.869 -0.7366 -0.9568  1.5027
  819MPD2    H212109   2.372   2.141  15.595  0.6872  0.2217 -0.9685
  819MPD2    H312110   2.512   2.232  15.789  1.5389 -0.4464  0.0075
  819MPD2     N12111   2.775   1.855  15.766  0.2072  0.3076  0.6804
  819MPD2    H512112   2.816   1.794  15.696  2.3088  0.3459  1.8695
  819MPD2    N112113   2.409   1.928  15.465 -0.7400  0.3275  0.3834
  819MPD2    H712114   2.337   1.995  15.440 -1.8161 -1.0034 -0.0468
  820MPD2     C12115   2.122   2.219  14.552  0.4721  0.3813 -0.3850
  820MPD2    C112116   2.075   2.231  14.676 -0.3146 -0.5192  0.0246
  820MPD2    C212117   2.138   2.163  14.781 -0.3599 -0.1401 -0.2336
  820MPD2    C312118   2.234   2.070  14.752 -0.0618  0.7632 -0.1378
  820MPD2    C412119   2.289   2.055  14.621  0.5736  0.2755 -0.0148
  820MPD2    C512120   2.234   2.134  14.520 -0.6243 -0.3656 -0.5122
  820MPD2     H12121   2.097   2.173  14.882 -2.3110  0.7699 -1.1097
  820MPD2    H112122   2.357   1.975  14.598  0.0572  0.2360 -1.3703
  820MPD2    H212123   2.074   2.251  14.460 -0.7487  0.2199  0.2054
  820MPD2    H312124   2.275   2.129  14.420 -0.6549  4.1872 -0.7823
  820MPD2     N12125   2.288   1.984  14.854 -0.6000  0.4512  0.2472
  820MPD2    H512126   2.347   1.906  14.827 -2.0084  0.2068 -2.1072
  820MPD2    N112127   1.965   2.309  14.703 -0.4858  0.0767  0.9378
  820MPD2    H712128   1.909   2.337  14.623 -0.3518  2.0996  1.5627
  821MPD2     C12129   2.223   3.543  12.958  0.0878  1.5269  0.1549
  821MPD2    C112130   2.334   3.454  12.980  0.1017 -0.0640 -0.4155
  821MPD2    C212131   2.460   3.485  12.928  0.6190 -0.7184 -0.4476
  821MPD2    C312132   2.475   3.598  12.848 -1.2090  0.3894 -0.7435
  821MPD2    C412133   2.361   3.678  12.819 -0.4876 -0.5770  0.2393
  821MPD2    C512134   2.242   3.650  12.884  0.1630 -0.6123 -0.2541
  821MPD2     H12135   2.541   3.416  12.944  1.1167  0.1998  0.9526
  821MPD2    H112136   2.361   3.759  12.748 -2.5995 -0.4087  0.4225
  821MPD2    H212137   2.123   3.541  12.999 -0.2477  2.2130 -0.6313
  821MPD2    H312138   2.154   3.712  12.875 -0.1383 -0.9716  0.2385
  821MPD2     N12139   2.598   3.638  12.786 -0.1015  0.0142  0.3191
  821MPD2    H512140   2.596   3.720  12.726 -1.7474  0.3175  0.7604
  821MPD2    N112141   2.323   3.340  13.066 -0.1151  0.2643  0.8236
  821MPD2    H712142   2.411   3.298  13.095  0.1743 -0.7501 -1.4894
  822MPD2     C12143   3.226   3.425  15.469 -0.6734 -0.5958  0.3419
  822MPD2    C112144   3.186   3.381  15.595 -0.2969 -0.6560 -0.3086
  822MPD2    C212145   3.119   3.467  15.678 -0.1977 -0.2065 -0.6467
  822MPD2    C312146   3.109   3.603  15.647  0.5643  0.5386 -0.1829
  822MPD2    C412147   3.157   3.650  15.518  0.3484  0.3910 -0.1247
  822MPD2    C512148   3.203   3.558  15.435  0.1033  0.1298 -0.2736
  822MPD2     H12149   3.090   3.426  15.774 -0.4834 -0.6718 -0.9286
  822MPD2    H112150   3.157   3.751  15.482 -1.9752  0.2680 -0.4105
  822MPD2    H212151   3.283   3.359  15.404  0.5577 -0.1426  0.9672
  822MPD2    H312152   3.233   3.586  15.335 -1.0564  0.2288 -0.5947
  822MPD2     N12153   3.044   3.691  15.733  0.5014 -0.3766 -0.2411
  822MPD2    H512154   3.021   3.649  15.822  1.1845  0.0904  0.1551
  822MPD2    N112155   3.216   3.253  15.645  0.2256  0.2294 -0.0778
  822MPD2    H712156   3.205   3.253  15.746 -1.1027 -1.0776 -0.2075
  823MPD2     C12157   2.915   3.845  16.547 -0.1052  0.2950  0.8288
  823MPD2    C112158   2.902   3.767  16.432 -0.0835 -0.0534  0.3748
  823MPD2    C212159   2.891   3.629  16.446  0.2516  0.2748  0.7196
  823MPD2    C312160   2.891   3.569  16.570 -0.4330  0.4931 -0.4288
  823MPD2    C412161   2.883   3.647  16.682 -0.6818 -0.1944 -0.4553
  823MPD2    C512162   2.915   3.782  16.672 -0.2517 -0.4316 -0.3417
  823MPD2     H12163   2.890   3.576  16.351 -0.0442 -0.4090  1.1060
  823MPD2    H112164   2.868   3.606  16.781  1.3328 -2.1253 -0.9312
  823MPD2    H212165   2.928   3.952  16.538  0.1629 -0.0613 -2.9575
  823MPD2    H312166   2.932   3.840  16.762 -1.4173 -0.8630  0.1412
  823MPD2     N12167   2.895   3.425  16.587 -0.3906 -0.2024 -0.6238
  823MPD2    H512168   2.873   3.381  16.676  1.3506  0.9408  0.3736
  823MPD2    N112169   2.911   3.825  16.298  0.1023 -0.4687  0.5899
  823MPD2    H712170   2.961   3.912  16.288  1.5384 -1.5017 -1.3187
  824MPD2     C12171   3.365   2.393  15.702  0.6581  0.6515  0.5062
  824MPD2    C112172   3.453   2.489  15.747 -0.0278 -0.1307 -0.7127
  824MPD2    C212173   3.588   2.456  15.758 -0.5088  0.4384 -0.0858
  824MPD2    C312174   3.633   2.327  15.739  0.2633 -0.2860 -0.6601
  824MPD2    C412175   3.535   2.229  15.711  0.5159  0.4897  0.6974
  824MPD2    C512176   3.408   2.264  15.691  0.1172  0.4462  0.0078
  824MPD2     H12177   3.658   2.536  15.782 -0.6338  0.9292 -1.3943
  824MPD2    H112178   3.560   2.126  15.689  1.2663  0.6739  0.6959
  824MPD2    H212179   3.265   2.432  15.684 -0.6031 -2.5342  0.7336
  824MPD2    H312180   3.332   2.189  15.676  1.9270 -1.4739  0.4167
  824MPD2     N12181   3.771   2.308  15.741 -0.4605  0.0924 -0.2648
  824MPD2    H512182   3.825   2.391  15.720  0.6824 -0.1956  1.5287
  824MPD2    N112183   3.420   2.621  15.760  0.1825 -0.5755  0.4083
  824MPD2    H712184   3.493   2.673  15.807 -0.0591  0.3519 -0.2481
  825MPD2     C12185   4.370   2.476  15.204  0.7911 -0.1033  0.4613
  825MPD2    C112186   4.297   2.513  15.311 -0.0190 -0.0787  0.2092
  825MPD2    C212187   4.280   2.645  15.343 -0.7391  1.1509 -0.0745
  825MPD2    C312188   4.339   2.738  15.263 -0.9583 -0.2641  0.4143
  825MPD2    C412189   4.416   2.699  15.157 -0.2083 -0.5844  0.2760
  825MPD2    C512190   4.432   2.570  15.124 -0.0797  0.3948  0.1891
  825MPD2     H12191   4.234   2.681  15.435  0.7749 -0.9414  1.5062
  825MPD2    H112192   4.461   2.778  15.097  1.1055 -1.8552 -0.4072
  825MPD2    H212193   4.370   2.370  15.181 -1.7006 -0.6318  2.8951
  825MPD2    H312194   4.481   2.537  15.033  1.2843  1.7082  0.4419
  825MPD2     N12195   4.317   2.880  15.274 -0.3301 -1.0342  0.5434
  825MPD2    H512196   4.347   2.944  15.202  0.1856  0.6899  2.2953
  825MPD2    N112197   4.250   2.407  15.387 -0.0767  0.0998  0.1121
  825MPD2    H712198   4.291   2.315  15.374 -0.0873  0.0618  0.3529
  826MPD2     C12199   3.781   1.860  13.318 -0.2083  0.4316  0.4004
  826MPD2    C112200   3.814   1.988  13.339 -0.0187 -0.2400  1.0640
  826MPD2    C212201   3.705   2.070  13.342 -0.0555  0.9027 -0.0942
  826MPD2    C312202   3.580   2.037  13.292 -0.5971  0.9967  0.6310
  826MPD2    C412203   3.552   1.906  13.266 -0.0810  0.0618  0.5733
  826MPD2    C512204   3.651   1.814  13.290 -0.0301 -0.2068  0.3434
  826MPD2     H12205   3.730   2.170  13.374  0.9378  0.5576  0.2070
  826MPD2    H112206   3.452   1.865  13.264 -0.0796  0.1341 -1.0804
  826MPD2    H212207   3.845   1.773  13.330  1.5795  1.7542  0.4693
  826MPD2    H312208   3.625   1.710  13.284 -1.6098  0.2283 -0.2758
  826MPD2     N12209   3.467   2.126  13.302  0.5674  0.0486  0.0936
  826MPD2    H512210   3.370   2.105  13.283  0.5534  1.5152 -1.4704
  826MPD2    N112211   3.943   2.015  13.375  0.2218  0.1055 -0.2055
  826MPD2    H712212   4.016   1.947  13.352  1.5923  1.3051  0.6207
  827MPD2     C12213   4.206   3.589   9.925  0.0036  0.2871 -0.5528
  827MPD2    C112214   4.149   3.474   9.984 -0.2354  1.1041  0.2448
  827MPD2    C212215   4.030   3.424   9.924 -0.7940  0.6256  0.5281
  827MPD2    C312216   3.971   3.481   9.817 -0.7052 -0.0614 -0.3512
  827MPD2    C412217   4.028   3.597   9.768  0.6349  0.1155  0.0534
  827MPD2    C512218   4.144   3.642   9.816  0.1836  1.4424 -0.0226
  827MPD2     H12219   3.968   3.350   9.975  0.9863 -1.3517 -0.1487
  827MPD2    H112220   3.991   3.644   9.677  1.1158 -1.8489 -1.1425
  827MPD2    H212221   4.300   3.641   9.942 -1.1410  1.5307  1.9128
  827MPD2    H312222   4.182   3.735   9.776  1.7473 -0.5374 -3.1425
  827MPD2     N12223   3.855   3.416   9.770 -0.1980 -0.1950  0.5004
  827MPD2    H512224   3.821   3.330   9.812  0.6967 -0.2630  1.0876
  827MPD2    N112225   4.212   3.416  10.101  0.1472 -0.0273  0.5829
  827MPD2    H712226   4.297   3.456  10.139 -0.0050 -0.0435  0.9387
  828MPD2     C12227   2.836   4.058  12.152  0.2353  0.3632  0.5035
  828MPD2    C112228   2.762   4.045  12.034 -0.3426 -0.3995  0.1489
  828MPD2    C212229   2.831   4.028  11.913  0.1394 -0.7943 -0.2580
  828MPD2    C312230   2.968   4.000  11.914 -0.8486 -0.4578  0.1926
  828MPD2    C412231   3.043   4.009  12.030  0.1948 -1.1646  0.2094
  828MPD2    C512232   2.976   4.041  12.144  0.9049  0.3022 -0.3835
  828MPD2     H12233   2.777   4.006  11.822 -2.7075  3.5843  0.3417
  828MPD2    H112234   3.151   4.000  12.026  0.4770  1.5384  1.5980
  828MPD2    H212235   2.789   4.081  12.247 -2.1201 -1.0654 -0.3059
  828MPD2    H312236   3.024   4.028  12.240 -0.3471 -3.0899 -0.2097
  828MPD2     N12237   3.038   3.954  11.799 -0.5704  0.3560  0.3324
  828MPD2    H512238   3.133   3.927  11.822 -0.5620 -0.4140 -0.5889
  828MPD2    N112239   2.621   4.052  12.027  0.0094 -0.7237 -0.5399
  828MPD2    H712240   2.576   4.056  11.936  0.2276 -1.0721 -0.6627
  829MPD2     C12241   2.128   4.440  11.401 -0.1039 -0.1329  0.3124
  829MPD2    C112242   2.060   4.336  11.445 -0.0766 -0.4569  0.1521
  829MPD2    C212243   2.096   4.280  11.568  0.4342 -0.2029  0.7445
  829MPD2    C312244   2.198   4.333  11.655 -0.3015 -0.5769 -0.1979
  829MPD2    C412245   2.284   4.415  11.594 -0.4056  0.4720 -0.0112
  829MPD2    C512246   2.243   4.474  11.477  0.2916 -0.6856 -0.0021
  829MPD2     H12247   2.035   4.203  11.613  2.1057 -1.5808  0.6398
  829MPD2    H112248   2.373   4.451  11.644  0.8804 -0.9090 -1.3030
  829MPD2    H212249   2.117   4.494  11.307  0.8774 -2.0323 -0.8724
  829MPD2    H312250   2.313   4.534  11.421  0.5423 -1.5119 -0.5703
  829MPD2     N12251   2.229   4.281  11.780  0.0670  0.3255 -0.1816
  829MPD2    H512252   2.315   4.311  11.826  1.2389 -3.0438 -0.1674
  829MPD2    N112253   1.964   4.278  11.356  0.5664 -0.0887  0.2723
  829MPD2    H712254   1.941   4.327  11.271 -1.0599  0.9146  1.2958
  830MPD2     C12255   3.586   1.615  15.749 -0.2096 -0.8220 -0.0339
  830MPD2    C112256   3.480   1.688  15.710 -0.3931  0.1680 -0.6902
  830MPD2    C212257   3.491   1.788  15.614 -0.4533 -0.5555  0.2896
  830MPD2    C312258   3.613   1.810  15.551  0.1376 -0.0532 -0.3033
  830MPD2    C412259   3.727   1.735  15.585  0.2954 -0.4415 -0.2267
  830MPD2    C512260   3.708   1.641  15.686  0.2622 -0.0391  0.6928
  830MPD2     H12261   3.404   1.843  15.579 -0.2427 -1.4919 -1.7269
  830MPD2    H112262   3.824   1.746  15.538  1.2453  0.0972  1.8442
  830MPD2    H212263   3.576   1.536  15.822 -1.4602 -0.4168  0.2345
  830MPD2    H312264   3.793   1.582  15.718  0.6573  0.0077 -0.2759
  830MPD2     N12265   3.634   1.906  15.446 -0.3980  0.4353  0.5757
  830MPD2    H512266   3.724   1.907  15.398 -1.0216  1.2599 -0.5870
  830MPD2    N112267   3.365   1.660  15.779 -0.4922  0.0163  0.3667
  830MPD2    H712268   3.375   1.607  15.865 -0.7661 -1.6283 -0.6139
  831MPD2     C12269   3.281   3.719  16.023  0.0412  0.4561 -0.1136
  831MPD2    C112270   3.331   3.605  15.956  0.3360  0.3575  0.2684
  831MPD2    C212271   3.280   3.482  15.989 -1.0542 -0.1028 -0.4357
  831MPD2    C312272   3.175   3.473  16.079  0.1753  0.0612  0.3328
  831MPD2    C412273   3.137   3.579  16.159  0.7222 -1.4220  0.5399
  831MPD2    C512274   3.196   3.701  16.132  0.3128  0.1204  0.0396
  831MPD2     H12275   3.313   3.390  15.941  1.0353 -0.0024  0.7975
  831MPD2    H112276   3.061   3.574  16.236  2.0392 -0.9007  1.8764
  831MPD2    H212277   3.318   3.819  16.002 -0.0551  0.8264  1.4668
  831MPD2    H312278   3.178   3.780  16.204  2.8318  0.5711  0.1941
  831MPD2     N12279   3.092   3.362  16.099  1.0505  0.3301 -0.2568
  831MPD2    H512280   3.022   3.360  16.172 -1.3435  0.2305 -2.5198
  831MPD2    N112281   3.435   3.631  15.864  0.2714 -0.3806 -0.3720
  831MPD2    H712282   3.460   3.727  15.841 -2.6785  0.5761  0.3262
  832MPD2     C12283   1.688   4.519  16.997  0.1886 -0.3238 -0.1209
  832MPD2    C112284   1.669   4.630  16.919 -1.0318 -0.5104  0.4211
  832MPD2    C212285   1.545   4.652  16.856  0.0444 -0.2025 -0.6357
  832MPD2    C312286   1.450   4.552  16.862 -0.4080  0.1893  0.1723
  832MPD2    C412287   1.481   4.435  16.926 -0.3657 -0.0438 -0.1736
  832MPD2    C512288   1.595   4.412  16.997  0.1089  0.1767  0.8947
  832MPD2     H12289   1.517   0.011  16.820  0.4031  0.0461 -0.2273
  832MPD2    H112290   1.405   4.359  16.929 -0.1132 -0.4240 -3.2300
  832MPD2    H212291   1.775   4.505  17.060 -0.2766  2.5831  1.1827
  832MPD2    H312292   1.611   4.326  17.062  1.1813 -0.1952  0.1385
  832MPD2     N12293   1.325   4.563  16.803 -0.0163  0.5433 -0.3023
  832MPD2    H512294   1.267   4.480  16.801 -0.4024  0.7937  1.0554
  832MPD2    N112295   1.772   4.732  16.919  0.0678  0.4491 -0.0462
  832MPD2    H712296   1.842   4.727  16.992  0.3142 -1.2369 -0.4087
  833MPD2     C12297   3.268   1.129  13.027 -0.1482 -0.0410  0.6384
  833MPD2    C112298   3.309   1.205  12.926  0.3097 -0.0373 -0.1264
  833MPD2    C212299   3.433   1.258  12.915  0.2496 -0.2917  0.1383
  833MPD2    C312300   3.524   1.234  13.014 -0.4105  1.0275 -0.5355
  833MPD2    C412301   3.488   1.155  13.125  0.6279  0.0419 -0.7319
  833MPD2    C512302   3.359   1.109  13.132 -0.2691 -0.5520  0.5144
  833MPD2     H12303   3.459   1.305  12.821 -2.9040 -1.0883 -1.1366
  833MPD2    H112304   3.558   1.126  13.202  0.2302  0.2765 -0.2803
  833MPD2    H212305   3.171   1.082  13.022 -0.3833  0.5267 -0.1053
  833MPD2    H312306   3.336   1.063  13.228  0.7252  0.0525  1.0361
  833MPD2     N12307   3.653   1.283  13.010  0.8482 -0.7422  0.3877
  833MPD2    H512308   3.725   1.242  13.069  2.0484  1.3782  0.4024
  833MPD2    N112309   3.205   1.241  12.829  0.0799 -0.0544  0.1585
  833MPD2    H712310   3.110   1.220  12.856 -0.8499  0.8191 -2.4080
  834MPD2     C12311   3.618   0.717  12.389 -0.2924  0.0953  0.3493
  834MPD2    C112312   3.646   0.827  12.316 -0.3909 -0.1366 -0.2981
  834MPD2    C212313   3.712   0.933  12.374  0.4877  0.1500  0.0203
  834MPD2    C312314   3.764   0.922  12.504 -0.0102  0.5166 -0.8839
  834MPD2    C412315   3.734   0.807  12.579  0.2538 -0.0718  0.5370
  834MPD2    C512316   3.660   0.710  12.518  0.6499  0.2852 -1.0094
  834MPD2     H12317   3.730   1.022  12.314 -1.0608  0.7003  0.3869
  834MPD2    H112318   3.757   0.797  12.684  1.0296  2.3993  0.6179
  834MPD2    H212319   3.552   0.634  12.371 -0.1504  0.3420 -1.3061
  834MPD2    H312320   3.640   0.621  12.577 -1.6238  1.7137  0.3612
  834MPD2     N12321   3.820   1.038  12.561  0.3897 -0.5141  0.6033
  834MPD2    H512322   3.843   1.109  12.493  1.9644 -2.6207 -1.0829
  834MPD2    N112323   3.580   0.833  12.186  0.4620 -0.3203  0.6281
  834MPD2    H712324   3.528   0.751  12.157 -0.7298  1.0200 -1.0035
  835MPD2     C12325   3.596   3.301  10.841 -0.2382  0.0668 -0.5447
  835MPD2    C112326   3.531   3.426  10.848 -0.1790  0.2213  0.3484
  835MPD2    C212327   3.555   3.499  10.961 -0.0299 -0.1482  0.1487
  835MPD2    C312328   3.653   3.470  11.053  0.8042 -0.3128  0.0237
  835MPD2    C412329   3.733   3.368  11.030  0.2965  0.2060 -0.3621
  835MPD2    C512330   3.701   3.284  10.927 -0.2696  0.3929 -0.3622
  835MPD2     H12331   3.505   3.595  10.961  0.1847 -0.0397 -0.6632
  835MPD2    H112332   3.812   3.339  11.098 -1.6066 -0.6804  1.4541
  835MPD2    H212333   3.565   3.225  10.771  2.1816 -0.2291 -1.3121
  835MPD2    H312334   3.759   3.193  10.912  1.9934  1.5364  1.4154
  835MPD2     N12335   3.685   3.557  11.158 -0.2394 -0.4350  0.1347
  835MPD2    H512336   3.763   3.522  11.211 -0.0041 -1.2961 -0.7701
  835MPD2    N112337   3.436   3.468  10.754 -0.0159  0.2574 -0.3954
  835MPD2    H712338   3.381   3.550  10.777  0.7161  0.4774  0.5642
  836MPD2     C12339   3.245   4.135  11.351 -0.2967 -1.6020 -0.5618
  836MPD2    C112340   3.338   4.136  11.451  0.1431 -0.4965  0.1923
  836MPD2    C212341   3.296   4.178  11.576  0.4848  0.9107 -0.0413
  836MPD2    C312342   3.165   4.226  11.592 -0.7260 -0.2440 -0.4628
  836MPD2    C412343   3.078   4.231  11.488 -0.2435 -0.5466  0.3396
  836MPD2    C512344   3.117   4.192  11.367 -0.2110 -0.4973  0.1612
  836MPD2     H12345   3.364   4.180  11.660 -0.5131 -0.9069  0.8069
  836MPD2    H112346   2.974   4.260  11.500  0.1030  1.5151 -1.6354
  836MPD2    H212347   3.265   4.089  11.255  2.9396 -1.8993  0.2589
  836MPD2    H312348   3.057   4.188  11.277  0.0989  1.5234 -0.1432
  836MPD2     N12349   3.116   4.279  11.716  0.6101  0.6603  0.6143
  836MPD2    H512350   3.028   4.329  11.712 -0.0239 -0.2627  2.7435
  836MPD2    N112351   3.465   4.100  11.412 -0.0877  0.2889  0.9322
  836MPD2    H712352   3.479   4.082  11.313 -2.2743  0.2403  0.6383
  837MPD2     C12353   1.775   3.483  10.262  0.2216 -0.3570 -0.9058
  837MPD2    C112354   1.660   3.459  10.184  0.0905 -0.4320 -0.0647
  837MPD2    C212355   1.562   3.560  10.191  0.9763  0.4240 -0.1278
  837MPD2    C312356   1.581   3.678  10.260 -0.2695  0.4489  0.3360
  837MPD2    C412357   1.706   3.703  10.320  0.1881 -0.0237  0.0765
  837MPD2    C512358   1.796   3.603  10.324  0.6444 -0.7327  0.0486
  837MPD2     H12359   1.472   3.551  10.131 -0.1322  0.9962  1.4562
  837MPD2    H112360   1.727   3.789  10.382 -2.0798  0.5305  0.0742
  837MPD2    H212361   1.857   3.412  10.265  1.3039  0.8285 -2.2013
  837MPD2    H312362   1.884   3.616  10.386 -0.5199  1.1184  1.3087
  837MPD2     N12363   1.474   3.768  10.261  0.2652  0.7017 -0.6970
  837MPD2    H512364   1.387   3.718  10.244 -1.3299  3.7422 -1.5708
  837MPD2    N112365   1.640   3.358  10.095  0.0565 -0.2954 -0.2153
  837MPD2    H712366   1.550   3.357  10.048  1.4294 -0.3607 -2.8037
  838MPD2     C12367   0.240   2.038  11.751 -0.5091 -0.3285 -0.4570
  838MPD2    C112368   0.177   1.932  11.682  0.2156 -0.0619 -0.5144
  838MPD2    C212369   0.103   1.843  11.759 -0.6982  0.2695  0.4096
  838MPD2    C312370   0.104   1.844  11.899 -1.0196  0.8692 -0.1229
  838MPD2    C412371   0.177   1.937  11.963  0.2294  0.0655  0.0804
  838MPD2    C512372   0.240   2.036  11.889 -0.4525 -0.1109  0.3557
  838MPD2     H12373   0.051   1.763  11.708  1.3509 -1.2853  0.7617
  838MPD2    H112374   0.183   1.941  12.071  2.9993 -1.5739 -0.0306
  838MPD2    H212375   0.302   2.112  11.703  1.3183 -1.3991  0.2409
  838MPD2    H312376   0.298   2.109  11.945  0.3271 -0.3289 -0.1686
  838MPD2     N12377   0.021   1.762  11.980 -0.3782 -0.8771  0.2405
  838MPD2    H512378   0.028   1.770  12.081 -1.3819 -1.2061  0.3347
  838MPD2    N112379   0.169   1.909  11.546  0.1756 -0.2008 -0.2263
  838MPD2    H712380   0.113   1.827  11.523 -0.3422  0.0559  0.1048
  839MPD2     C12381   0.067   1.095  11.355 -0.3317 -0.4946  0.4019
  839MPD2    C112382   0.059   1.143  11.231 -0.1176  0.0350  0.1935
  839MPD2    C212383   0.092   1.273  11.214  0.6985 -0.0529 -0.1677
  839MPD2    C312384   0.119   1.361  11.324  0.0070  0.1966  0.1499
  839MPD2    C412385   0.124   1.307  11.450  0.1093  0.1939 -0.5148
  839MPD2    C512386   0.094   1.174  11.466 -0.3570 -0.0747 -0.0430
  839MPD2     H12387   0.095   1.314  11.114 -1.9544 -1.5595 -0.8588
  839MPD2    H112388   0.159   1.365  11.535 -0.8017  2.4800 -1.6996
  839MPD2    H212389   0.067   0.987  11.371 -1.0391 -0.4007  1.0717
  839MPD2    H312390   0.112   1.133  11.564 -3.6091 -0.1619  0.5236
  839MPD2     N12391   0.159   1.495  11.310 -0.4026  0.7201 -0.3049
  839MPD2    H512392   0.194   1.536  11.396  0.9597  2.2754 -1.5987
  839MPD2    N112393   0.026   1.060  11.125  0.2308  0.8350 -0.0394
  839MPD2    H712394   0.030   1.089  11.027 -1.2607 -2.6116 -1.1104
  840MPD2     C12395   4.496   3.799  10.451  0.0947  0.2176 -0.3070
  840MPD2    C112396   4.521   3.683  10.518  0.2193 -0.8079 -0.4423
  840MPD2    C212397   4.599   3.679  10.631  0.5932 -0.0960  0.8101
  840MPD2    C312398   4.665   3.796  10.674 -0.2899  0.3834 -0.9410
  840MPD2    C412399   4.638   3.913  10.607 -0.5921 -0.4137 -0.1250
  840MPD2    C512400   4.554   3.916  10.495  0.0693  0.7308 -0.2693
  840MPD2     H12401   4.628   3.584  10.674 -0.5362 -2.4451 -3.7046
  840MPD2    H112402   4.683   4.006  10.639  0.6328 -0.9134 -0.3957
  840MPD2    H212403   4.428   3.804  10.367  2.6151  0.2457 -2.3244
  840MPD2    H312404   4.536   4.009  10.444 -0.4044  2.4693  3.0972
  840MPD2     N12405   0.021   3.799  10.783  0.4064 -0.7208 -0.6549
  840MPD2    H512406   0.069   3.887  10.797  1.1197 -1.2560  0.2896
  840MPD2    N112407   4.435   3.573  10.472 -0.6514  0.7042 -0.1303
  840MPD2    H712408   4.376   3.581  10.390  1.0140  0.9669 -1.2999
  841MPD2     C12409   0.101   3.974  13.789 -0.5597  0.1734 -0.4212
  841MPD2    C112410   0.084   3.905  13.909  0.1185  0.1120 -0.3047
  841MPD2    C212411   0.197   3.913  13.992 -0.1050  0.0349 -0.6321
  841MPD2    C312412   0.313   3.977  13.951  0.2840  0.2406 -0.5843
  841MPD2    C412413   0.313   4.046  13.833  0.5678  0.0403  0.3528
  841MPD2    C512414   0.203   4.053  13.756 -0.1125 -0.1650 -0.0532
  841MPD2     H12415   0.200   3.858  14.086  0.0197  0.9040 -0.1317
  841MPD2    H112416   0.398   4.107  13.806  1.5972 -1.3598  0.3999
  841MPD2    H212417   0.017   3.979  13.722  0.1577  0.7266 -1.2802
  841MPD2    H312418   0.206   4.110  13.664  0.5666  2.4186  1.5714
  841MPD2     N12419   0.417   3.978  14.048 -0.0538 -0.6025  0.2488
  841MPD2    H512420   0.397   3.938  14.139  1.4184  1.1227  1.3216
  841MPD2    N112421   4.700   3.833  13.947 -0.5494 -0.3703  0.3252
  841MPD2    H712422   4.701   3.781  14.034  2.3956  0.7902  1.0231
  842MPD2     C12423   0.734   0.128  17.101  0.1673 -0.0853 -0.8134
  842MPD2    C112424   0.640   0.054  17.039  0.1942  0.0809  0.3246
  842MPD2    C212425   0.533   4.732  17.114 -0.3834  0.0272 -0.6025
  842MPD2    C312426   0.517   0.038  17.247 -0.6458 -0.2915 -0.1483
  842MPD2    C412427   0.618   0.108  17.310 -0.2661 -0.2842 -1.2399
  842MPD2    C512428   0.729   0.139  17.236 -0.0381  0.0791  0.2586
  842MPD2     H12429   0.450   4.685  17.062 -0.8043  0.5551 -0.4036
  842MPD2    H112430   0.615   0.127  17.417  1.0525  1.0576 -1.4341
  842MPD2    H212431   0.813   0.171  17.041  0.6988  1.1568  0.7867
  842MPD2    H312432   0.816   0.186  17.279 -0.5351  0.5672  0.7364
  842MPD2     N12433   0.398   0.021  17.324 -0.4407  0.1146  0.4099
  842MPD2    H512434   0.404   0.076  17.410  0.1294 -2.6684  2.1494
  842MPD2    N112435   0.646   0.046  16.895 -0.6159  0.2008 -0.0360
  842MPD2    H712436   0.716   0.101  16.845  0.4530  0.6377  1.9306
  843MPD2     C12437   2.357   1.388  17.700  0.4051 -0.2507  0.3910
  843MPD2    C112438   2.463   1.298  17.697  0.2792  0.0295 -0.6890
  843MPD2    C212439   2.593   1.353  17.694 -0.2349 -0.5888 -0.0317
  843MPD2    C312440   2.620   1.488  17.686 -0.3654 -0.4892  0.2473
  843MPD2    C412441   2.513   1.570  17.654 -0.7293  0.1464 -0.0633
  843MPD2    C512442   2.382   1.520  17.662  0.0965 -0.0477  0.3931
  843MPD2     H12443   2.678   1.286  17.705  1.0325  0.7583 -1.6147
  843MPD2    H112444   2.529   1.677  17.644 -1.0194  0.1575 -0.3981
  843MPD2    H212445   2.256   1.349  17.705  1.2066 -2.8072 -3.3531
  843MPD2    H312446   2.303   1.591  17.639  0.4803  0.7155  1.4391
  843MPD2     N12447   2.751   1.532  17.697  0.4626 -0.6615  0.0479
  843MPD2    H512448   2.816   1.466  17.737  0.0876  0.6923  2.9162
  843MPD2    N112449   2.436   1.164  17.727  0.0195  0.3791 -0.0472
  843MPD2    H712450   2.340   1.141  17.748  0.1209 -1.1093 -1.2484
  844MPD2     C12451   0.879   4.154  16.363 -0.2436  1.2866 -0.4406
  844MPD2    C112452   0.905   4.237  16.263  0.7764 -0.0528 -0.0357
  844MPD2    C212453   1.017   4.312  16.267 -0.5377  0.0903 -0.6235
  844MPD2    C312454   1.105   4.308  16.376  0.4025 -0.5778 -0.2404
  844MPD2    C412455   1.066   4.234  16.484 -0.0259 -0.1845  0.6794
  844MPD2    C512456   0.961   4.150  16.472  0.1283 -0.6102 -0.4172
  844MPD2     H12457   1.042   4.369  16.178 -2.3952  0.4852 -0.8948
  844MPD2    H112458   1.121   4.239  16.577  0.9937  3.2876 -0.1301
  844MPD2    H212459   0.790   4.093  16.367 -0.3467  1.4817  0.3517
  844MPD2    H312460   0.932   4.092  16.559 -0.9158  0.7501  0.1500
  844MPD2     N12461   1.232   4.376  16.368 -0.7803 -0.0257 -0.2891
  844MPD2    H512462   1.256   4.431  16.286  1.8223  0.8327  1.0623
  844MPD2    N112463   0.839   4.215  16.139 -1.0292  0.4897 -0.8192
  844MPD2    H712464   0.861   4.276  16.061 -0.0434  0.7676 -0.3095
  845MPD2     C12465   1.449   0.556  16.618 -0.0649 -0.1502 -0.0007
  845MPD2    C112466   1.471   0.467  16.721  1.1651  0.6638 -0.5557
  845MPD2    C212467   1.474   0.331  16.695 -0.2584 -0.4309 -0.6084
  845MPD2    C312468   1.469   0.291  16.561 -0.3044  0.5553  0.0568
  845MPD2    C412469   1.454   0.380  16.457  0.4324 -0.1356 -0.5654
  845MPD2    C512470   1.434   0.515  16.489  0.2658 -0.0003  0.2455
  845MPD2     H12471   1.507   0.257  16.767  1.3094  0.5439 -0.3400
  845MPD2    H112472   1.466   0.350  16.354  0.3873 -0.5590 -0.4459
  845MPD2    H212473   1.430   0.661  16.637  1.9705  0.1865  0.1724
  845MPD2    H312474   1.427   0.578  16.401 -1.4897 -0.4629  0.0335
  845MPD2     N12475   1.492   0.156  16.534 -0.0735 -0.4776  0.1559
  845MPD2    H512476   1.519   0.096  16.612 -1.6176 -0.8781  0.3820
  845MPD2    N112477   1.489   0.525  16.845  0.2066  0.1882 -0.2668
  845MPD2    H712478   1.474   0.625  16.843  1.4711  0.4676  4.6692
  846MPD2     C12479   2.467   0.698  13.530 -0.1164  0.4229  0.2677
  846MPD2    C112480   2.585   0.766  13.560 -0.0078  0.0523  0.0939
  846MPD2    C212481   2.622   0.783  13.696 -0.1263  0.3163 -0.2779
  846MPD2    C312482   2.542   0.724  13.791  0.4006 -0.3181  0.5996
  846MPD2    C412483   2.431   0.648  13.752  0.1903 -0.2092  0.1259
  846MPD2    C512484   2.398   0.638  13.622  0.5103  0.3719 -0.6191
  846MPD2     H12485   2.712   0.830  13.732 -0.4905  2.0542 -1.6522
  846MPD2    H112486   2.366   0.593  13.820 -0.3797  1.2053  0.7149
  846MPD2    H212487   2.428   0.686  13.430 -2.4571  0.9269  1.1052
  846MPD2    H312488   2.305   0.584  13.608  1.1907 -1.0672  0.4684
  846MPD2     N12489   2.578   0.737  13.930 -0.5403  0.3516  0.3388
  846MPD2    H512490   2.654   0.801  13.949 -1.3490  2.0394 -2.1825
  846MPD2    N112491   2.654   0.831  13.461  0.1209 -0.1545 -0.1727
  846MPD2    H712492   2.727   0.893  13.495  0.8334 -0.7209 -0.6428
  847MPD2     C12493   2.862   2.082  14.053  0.5986  0.6417  0.1025
  847MPD2    C112494   2.994   2.120  14.058  0.3746  0.0251  0.3000
  847MPD2    C212495   3.085   2.027  14.118 -0.2240  0.5689  0.2946
  847MPD2    C312496   3.040   1.915  14.184  0.3000  0.9221  0.6460
  847MPD2    C412497   2.908   1.872  14.166 -0.6021 -0.1305  0.3854
  847MPD2    C512498   2.821   1.968  14.112  0.2976  0.2013  0.6443
  847MPD2     H12499   3.186   2.066  14.127  1.3539 -2.8996 -2.6034
  847MPD2    H112500   2.861   1.787  14.214  0.2302 -1.0340 -0.3833
  847MPD2    H212501   2.790   2.145  14.002  0.0166  1.5828  2.0687
  847MPD2    H312502   2.716   1.943  14.103 -0.0567  1.6704  0.7374
  847MPD2     N12503   3.133   1.846  14.266  0.1494 -0.1997 -0.6057
  847MPD2    H512504   3.226   1.888  14.269 -0.4898  1.4366 -3.6142
  847MPD2    N112505   3.049   2.247  14.016  0.2984  0.3411 -0.4066
  847MPD2    H712506   3.151   2.251  14.013  0.4979 -1.0571  3.9479
  848MPD2     C12507   0.947   0.304  16.217  0.7936  0.8077 -0.4317
  848MPD2    C112508   0.992   0.315  16.347  0.1723  0.2197  0.7389
  848MPD2    C212509   1.020   0.442  16.399 -0.2465  0.3267  0.2444
  848MPD2    C312510   1.022   0.556  16.321 -0.4337 -0.3693  0.0977
  848MPD2    C412511   0.988   0.539  16.185 -0.5487  0.2157  0.1361
  848MPD2    C512512   0.936   0.418  16.144 -0.2568  0.1545  0.2439
  848MPD2     H12513   1.055   0.449  16.501  0.2552  1.2976  0.0074
  848MPD2    H112514   0.998   0.617  16.109 -0.0461 -0.2128 -0.2359
  848MPD2    H212515   0.913   0.212  16.171  2.0163  0.3846 -0.4924
  848MPD2    H312516   0.897   0.408  16.043  1.7913 -0.4798 -0.4827
  848MPD2     N12517   1.047   0.687  16.363  0.2311  0.2427  0.2480
  848MPD2    H512518   1.021   0.761  16.298 -0.4742  0.1065  0.3810
  848MPD2    N112519   1.005   0.198  16.425 -0.2745 -0.3636  0.3294
  848MPD2    H712520   1.056   0.205  16.512  0.4181  0.6697 -0.1623
  849MPD2     C12521   0.103   0.195  14.334  0.1846  0.2478 -0.4512
  849MPD2    C112522   0.219   0.137  14.283 -0.0138 -0.1483  0.5740
  849MPD2    C212523   0.344   0.188  14.322  0.2559  0.2228 -0.5243
  849MPD2    C312524   0.354   0.308  14.388  0.6504  0.0848 -0.2745
  849MPD2    C412525   0.240   0.366  14.423 -0.1609 -0.0521  0.2717
  849MPD2    C512526   0.119   0.313  14.395  0.0250 -0.9748  0.0618
  849MPD2     H12527   0.427   0.120  14.304  0.2013  0.5091 -1.8266
  849MPD2    H112528   0.240   0.450  14.491  2.4183  0.3793 -0.2759
  849MPD2    H212529   4.739   0.167  14.317  0.6365 -1.9024  0.3289
  849MPD2    H312530   0.028   0.363  14.425  1.8795  1.1310  2.1843
  849MPD2     N12531   0.472   0.356  14.442  0.5950  0.2324  0.2906
  849MPD2    H512532   0.467   0.438  14.502  2.1438 -0.4388  1.3424
  849MPD2    N112533   0.206   0.028  14.206  0.5542 -0.1510  0.8324
  849MPD2    H712534   0.113   4.737  14.179  1.2268 -0.4002 -1.1850
  850MPD2     C12535   3.093   2.714  14.627 -0.8271  0.2451  0.7116
  850MPD2    C112536   3.102   2.823  14.711  0.0928  0.1210  0.5268
  850MPD2    C212537   3.228   2.866  14.747  0.1278 -0.3314 -0.4437
  850MPD2    C312538   3.339   2.800  14.696  0.6232  0.3261 -0.0912
  850MPD2    C412539   3.324   2.690  14.619  0.1239 -0.2353  0.1783
  850MPD2    C512540   3.201   2.645  14.588  0.1398  0.1306 -0.1206
  850MPD2     H12541   3.240   2.953  14.810 -0.2534 -1.7346  1.5772
  850MPD2    H112542   3.404   2.633  14.573  0.1171 -0.2949  0.2423
  850MPD2    H212543   2.994   2.678  14.598  0.4778 -1.0160 -2.1909
  850MPD2    H312544   3.174   2.551  14.543 -1.0930  0.2681  0.2981
  850MPD2     N12545   3.474   2.837  14.737  0.5171  0.0143 -0.1287
  850MPD2    H512546   3.540   2.766  14.706  0.3065  0.3492 -1.3412
  850MPD2    N112547   2.980   2.885  14.745 -0.5671 -0.1733 -0.1849
  850MPD2    H712548   2.899   2.852  14.693 -1.9046  1.4094  0.8871
  851MPD2     C12549   3.559   2.914  15.429  0.1416 -0.0268  0.4052
  851MPD2    C112550   3.484   2.859  15.335 -0.3562  0.8526  0.2739
  851MPD2    C212551   3.504   2.732  15.304 -0.0694  0.4465 -0.4729
  851MPD2    C312552   3.585   2.652  15.383  0.2175 -0.0642 -0.3347
  851MPD2    C412553   3.659   2.708  15.488  0.2044 -0.4282  0.0906
  851MPD2    C512554   3.639   2.838  15.513 -0.3583  0.2558  0.1395
  851MPD2     H12555   3.448   2.687  15.224 -0.6427 -1.0968  0.8032
  851MPD2    H112556   3.714   2.651  15.563  1.2385 -0.7485 -0.9125
  851MPD2    H212557   3.553   3.016  15.464 -0.5532  0.1353 -0.1892
  851MPD2    H312558   3.673   2.881  15.606  0.3834  0.7306 -0.3480
  851MPD2     N12559   3.591   2.517  15.340 -0.0049  0.4713  0.0617
  851MPD2    H512560   3.528   2.492  15.265  0.1256 -1.7651  0.6956
  851MPD2    N112561   3.388   2.940  15.263  0.0884 -0.6198 -0.0063
  851MPD2    H712562   3.377   3.034  15.300  1.6181 -1.1771  1.8463
  852MPD2     C12563   1.728   4.494   9.805 -0.7145  1.0917 -0.1835
  852MPD2    C112564   1.834   4.529   9.883 -0.8157 -0.0393  0.1431
  852MPD2    C212565   1.857   4.663   9.897 -0.3234  0.2098 -0.2173
  852MPD2    C312566   1.786   0.024   9.831 -0.4809  0.5213  0.1884
  852MPD2    C412567   1.662   4.725   9.764  0.4137 -0.1598  0.1901
  852MPD2    C512568   1.636   4.591   9.756 -0.0953  0.0872  0.8100
  852MPD2     H12569   1.942   4.696   9.955 -1.2162  1.1179  0.5726
  852MPD2    H112570   1.594   0.057   9.719  1.3018  0.4453 -0.1955
  852MPD2    H212571   1.714   4.391   9.775 -2.2097  0.8180  1.4303
  852MPD2    H312572   1.552   4.555   9.698  1.1819  0.2355 -1.1337
  852MPD2     N12573   1.824   0.158   9.852  0.3119 -0.5976  0.1114
  852MPD2    H512574   1.905   0.164   9.914 -0.4234  0.4537  0.9862
  852MPD2    N112575   1.919   4.438   9.956  0.3467  0.1068  0.2502
  852MPD2    H712576   1.998   4.480  10.003 -0.8390  0.0722  2.2745
  853MPD2     C12577   0.057   4.635  12.555  0.6493 -0.6887 -0.1135
  853MPD2    C112578   4.666   4.681  12.552  0.1824 -0.1260  0.7064
  853MPD2    C212579   4.586   4.648  12.442 -0.2180 -0.5528 -0.0099
  853MPD2    C312580   4.639   4.585  12.333 -0.3572 -0.0750 -0.5560
  853MPD2    C412581   0.032   4.545  12.334  0.1544  0.0602  0.6409
  853MPD2    C512582   0.106   4.576  12.448 -0.0348  0.4804  0.0151
  853MPD2     H12583   4.480   4.671  12.448  0.0521  0.4814  0.9236
  853MPD2    H112584   0.087   4.497  12.254  3.0637  1.7714  1.6312
  853MPD2    H212585   0.126   4.650  12.637  1.5076 -1.5421 -0.6899
  853MPD2    H312586   0.210   4.546  12.444  0.0284  0.8330 -1.1571
  853MPD2     N12587   4.575   4.532  12.223  0.1234 -0.6587 -0.0361
  853MPD2    H512588   4.631   4.470  12.165  0.9940  0.1387 -0.0338
  853MPD2    N112589   4.623   0.016  12.662  0.5285  0.2945  0.6217
  853MPD2    H712590   4.694   0.012  12.735 -0.8623  0.4334  1.9665
  854MPD2     C12591   1.125   0.573  12.944  0.1688 -0.0752 -0.8792
  854MPD2    C112592   1.217   0.559  12.843  0.0175  0.6152  0.0262
  854MPD2    C212593   1.336   0.483  12.862  0.5663 -0.2499  0.9872
  854MPD2    C312594   1.363   0.416  12.974  0.0518  0.1022 -0.3262
  854MPD2    C412595   1.281   0.439  13.081  0.6437  0.2917 -0.4730
  854MPD2    C512596   1.169   0.525  13.067 -0.3090  0.1358 -0.9924
  854MPD2     H12597   1.406   0.476  12.780 -0.2621  0.6160  0.2060
  854MPD2    H112598   1.308   0.395  13.177 -1.2490  2.5357  1.0895
  854MPD2    H212599   1.039   0.638  12.932  2.3586  2.9179 -0.4552
  854MPD2    H312600   1.100   0.531  13.150  0.8055 -2.0450  0.1137
  854MPD2     N12601   1.475   0.335  12.996  0.0918  0.2526 -0.1204
  854MPD2    H512602   1.488   0.300  13.090  1.6252  0.2914 -0.3106
  854MPD2    N112603   1.191   0.627  12.723  1.0931 -0.0070 -0.1707
  854MPD2    H712604   1.114   0.693  12.720  2.1376  1.2132 -0.0305
  855MPD2     C12605   1.779   0.189  13.775 -0.3548  0.0476  0.0866
  855MPD2    C112606   1.786   0.077  13.693 -0.3226  0.5303  0.0849
  855MPD2    C212607   1.794   0.096  13.557  0.6111 -0.4284 -0.4384
  855MPD2    C312608   1.791   0.222  13.501 -0.2202 -0.9605 -0.2181
  855MPD2    C412609   1.777   0.331  13.591  0.0017 -0.2450 -0.1884
  855MPD2    C512610   1.769   0.319  13.724  0.5863  0.4247 -0.0875
  855MPD2     H12611   1.795   0.006  13.497  0.2697 -1.4044  1.0156
  855MPD2    H112612   1.777   0.428  13.542 -0.3501  0.4302  1.1493
  855MPD2    H212613   1.784   0.169  13.881  0.1211  2.0259  0.4357
  855MPD2    H312614   1.751   0.404  13.789 -2.1825 -0.3821  0.2404
  855MPD2     N12615   1.793   0.241  13.359 -0.1214  0.1694 -0.0312
  855MPD2    H512616   1.767   0.336  13.332 -1.6947 -0.7048 -1.5780
  855MPD2    N112617   1.783   4.691  13.753 -0.1612  0.5174  0.2347
  855MPD2    H712618   1.787   4.689  13.854  2.5174 -1.3961  0.0843
  856MPD2     C12619   4.351   0.809  14.162  0.0432  0.8862  0.6978
  856MPD2    C112620   4.353   0.942  14.114  0.4973 -0.6385  0.1970
  856MPD2    C212621   4.241   0.989  14.059  0.1605 -0.0024 -0.3703
  856MPD2    C312622   4.116   0.925  14.070 -0.2409 -1.1070 -0.0217
  856MPD2    C412623   4.111   0.805  14.145 -0.2932  0.0329  0.1788
  856MPD2    C512624   4.230   0.749  14.175 -0.4060 -0.3384  0.6459
  856MPD2     H12625   4.253   1.083  14.007 -1.3186 -0.2297 -1.1086
  856MPD2    H112626   4.017   0.756  14.168 -0.6538  0.4900 -0.3275
  856MPD2    H212627   4.440   0.760  14.199 -2.3541 -2.3651  2.2203
  856MPD2    H312628   4.219   0.662  14.239  1.5357  0.2689  1.7778
  856MPD2     N12629   3.994   0.971  14.008 -0.2660  0.0054  0.5954
  856MPD2    H512630   3.908   0.922  14.027 -0.4714  0.0692 -0.1740
  856MPD2    N112631   4.461   1.028  14.106 -0.0262 -0.0511  0.5628
  856MPD2    H712632   4.447   1.126  14.080 -0.1011  0.1750  1.4490
  857MPD2     C12633   0.736   3.187  12.901 -0.3018 -0.1362 -0.6203
  857MPD2    C112634   0.869   3.157  12.905 -0.7205 -0.2869 -0.1428
  857MPD2    C212635   0.957   3.261  12.888 -0.0319  0.6271 -0.4162
  857MPD2    C312636   0.920   3.387  12.870 -0.2809  0.1075 -0.4969
  857MPD2    C412637   0.784   3.420  12.881  0.1113  0.0654 -0.9850
  857MPD2    C512638   0.695   3.316  12.892 -0.0086  0.9262 -0.1242
  857MPD2     H12639   1.064   3.240  12.887 -0.4728 -1.6727  0.8643
  857MPD2    H112640   0.743   3.519  12.867 -0.1287  0.0392 -0.4515
  857MPD2    H212641   0.669   3.102  12.910  1.5258 -1.4693  0.1162
  857MPD2    H312642   0.587   3.328  12.889  0.1049  1.6856 -1.3233
  857MPD2     N12643   1.016   3.480  12.837 -0.0081 -0.0940  0.1011
  857MPD2    H512644   1.104   3.430  12.838 -1.1535 -2.1285 -1.6209
  857MPD2    N112645   0.899   3.020  12.924  0.3760 -0.0983 -0.6384
  857MPD2    H712646   0.820   2.960  12.907  0.1350 -0.2714  1.1223
  858MPD2     C12647   1.816   2.657  16.115 -0.3194  0.0418  0.2610
  858MPD2    C112648   1.783   2.529  16.165 -0.4418  0.1650  0.1579
  858MPD2    C212649   1.762   2.522  16.308  0.2684 -0.0348 -0.0447
  858MPD2    C312650   1.774   2.632  16.393 -0.4300  0.4755  0.1762
  858MPD2    C412651   1.813   2.752  16.336 -0.8394  0.4616 -0.1812
  858MPD2    C512652   1.831   2.766  16.204 -0.3816  0.1684  0.2673
  858MPD2     H12653   1.726   2.425  16.341 -0.2694  0.0930 -0.2517
  858MPD2    H112654   1.835   2.845  16.387 -1.3842 -0.7457  2.2628
  858MPD2    H212655   1.833   2.658  16.008  1.3406  1.8429  0.5536
  858MPD2    H312656   1.867   2.862  16.167  1.7700 -1.2026 -1.1898
  858MPD2     N12657   1.750   2.624  16.536 -0.1735  0.6543  0.2494
  858MPD2    H512658   1.761   2.710  16.589  1.4621  2.0952 -2.4397
  858MPD2    N112659   1.755   2.428  16.070  0.0024  0.1769 -0.1109
  858MPD2    H712660   1.778   2.448  15.974  1.3613  1.9222  0.5847
  859MPD2     C12661   0.022   4.673  15.445 -0.1374 -0.2192 -0.0281
  859MPD2    C112662   0.035   4.625  15.313  0.1734 -0.0535  0.3865
  859MPD2    C212663   0.071   4.496  15.289  0.7278  0.3928  0.0313
  859MPD2    C312664   0.092   4.411  15.399 -0.7989  0.3449  0.6568
  859MPD2    C412665   0.072   4.454  15.529 -0.2398 -0.2536  0.3539
  859MPD2    C512666   0.040   4.586  15.547 -0.2920  0.5011 -0.3529
  859MPD2     H12667   0.076   4.461  15.187  0.6972 -1.7911  0.7833
  859MPD2    H112668   0.103   4.395  15.615  0.7005 -0.3515 -0.0418
  859MPD2    H212669   0.006   0.037  15.473 -0.7992 -0.0462 -1.0554
  859MPD2    H312670   0.024   4.629  15.645 -2.7991  0.3567 -0.7091
  859MPD2     N12671   0.153   4.288  15.376  0.6536  0.4480  0.2271
  859MPD2    H512672   0.165   4.231  15.459  2.7509 -1.3858 -1.3106
  859MPD2    N112673   0.060   4.710  15.206  0.1032 -0.0164 -0.5851
  859MPD2    H712674   0.121   4.677  15.132  1.3085 -1.1514  0.8960
  860MPD2     C12675   2.722   0.658  11.930  0.4127  0.4116 -0.3166
  860MPD2    C112676   2.719   0.548  12.014 -0.1033 -0.4934  0.5526
  860MPD2    C212677   2.603   0.472  12.018  0.0077  0.7073 -0.1755
  860MPD2    C312678   2.491   0.491  11.947  0.7543 -0.0230 -0.2140
  860MPD2    C412679   2.508   0.591  11.848  0.2642  0.0475  0.7806
  860MPD2    C512680   2.613   0.678  11.839  0.3323  0.1646 -0.8086
  860MPD2     H12681   2.601   0.396  12.096 -1.2717  1.0582  0.1346
  860MPD2    H112682   2.429   0.614  11.778  3.3151  0.5694 -2.4801
  860MPD2    H212683   2.803   0.730  11.934  2.2529 -1.6504 -0.2924
  860MPD2    H312684   2.619   0.756  11.764  0.2119 -0.3436 -1.3450
  860MPD2     N12685   2.375   0.406  11.955 -0.2061 -0.9286 -0.8052
  860MPD2    H512686   2.374   0.327  12.019  1.9691  0.4197  0.9009
  860MPD2    N112687   2.823   0.519  12.104  0.2857  0.8729  0.0417
  860MPD2    H712688   2.805   0.432  12.154 -2.2769 -0.2994 -2.9281
  861MPD2     C12689   0.754   2.739  10.813  0.2326 -0.1844 -0.4493
  861MPD2    C112690   0.717   2.829  10.915 -0.3775 -0.4872  0.4474
  861MPD2    C212691   0.620   2.921  10.892  0.9603  0.1572  0.1739
  861MPD2    C312692   0.567   2.943  10.764 -0.4741 -0.5070  0.0856
  861MPD2    C412693   0.603   2.855  10.668  0.4852 -0.0764  0.5369
  861MPD2    C512694   0.686   2.750  10.692 -0.1876  0.4084  0.5327
  861MPD2     H12695   0.576   2.978  10.974 -0.6059 -0.1016 -0.4927
  861MPD2    H112696   0.547   2.860  10.575  0.3548  0.9673  0.6712
  861MPD2    H212697   0.817   2.651  10.825  1.6802  0.7065 -1.4643
  861MPD2    H312698   0.710   2.681  10.612  1.5335 -1.4160  2.5870
  861MPD2     N12699   0.491   3.056  10.720 -0.6302  0.4657  0.0266
  861MPD2    H512700   0.453   3.056  10.626 -2.8793  0.8455  0.9316
  861MPD2    N112701   0.769   2.820  11.045  0.5358  0.1399  1.1784
  861MPD2    H712702   0.728   2.884  11.113 -1.1489 -2.5626  2.7133
  862MPD2     C12703   0.366   3.322  10.115 -1.1958  1.3033  0.0887
  862MPD2    C112704   0.294   3.256  10.214 -0.0716 -0.4010  0.1255
  862MPD2    C212705   0.220   3.141  10.183  0.1139  0.1668  0.0059
  862MPD2    C312706   0.227   3.081  10.053 -0.1596 -0.4600 -0.1443
  862MPD2    C412707   0.295   3.152   9.960 -0.5880  0.0104 -0.5883
  862MPD2    C512708   0.361   3.275   9.988 -0.7615 -0.4681 -0.3415
  862MPD2     H12709   0.164   3.100  10.266 -0.2398 -1.0847 -0.8520
  862MPD2    H112710   0.278   3.127   9.856 -0.8623  2.5828 -1.1818
  862MPD2    H212711   0.406   3.422  10.128 -1.5220  1.5380 -0.6676
  862MPD2    H312712   0.411   3.338   9.916 -1.0808  0.7281  0.4753
  862MPD2     N12713   0.161   2.963  10.017 -0.1915  0.0459 -0.1567
  862MPD2    H512714   0.167   2.930   9.921 -0.7237  1.1375 -0.5601
  862MPD2    N112715   0.296   3.304  10.343  0.5831  0.6430  0.1452
  862MPD2    H712716   0.229   3.253  10.400 -0.9890  3.1697  0.5581
  863MPD2     C12717   4.353   1.248  16.719  0.6227  0.5164 -0.0441
  863MPD2    C112718   4.404   1.374  16.735 -0.4371  0.0273  0.3929
  863MPD2    C212719   4.518   1.391  16.814  0.4775 -0.3136  0.7421
  863MPD2    C312720   4.574   1.281  16.875  0.1435  0.0859 -0.4902
  863MPD2    C412721   4.514   1.162  16.854  0.7676  0.0775  0.6075
  863MPD2    C512722   4.414   1.144  16.774 -0.3885  0.0359  0.5098
  863MPD2     H12723   4.545   1.494  16.837 -0.4929  0.2618 -0.6587
  863MPD2    H112724   4.550   1.073  16.905 -1.0918 -0.5082  0.9030
  863MPD2    H212725   4.262   1.232  16.663  0.6463  2.1763 -0.5560
  863MPD2    H312726   4.379   1.042  16.759 -2.0515  0.4953  1.2808
  863MPD2     N12727   4.683   1.290  16.965 -0.2242 -0.0863 -0.4563
  863MPD2    H512728   4.703   1.196  16.997 -0.1262 -0.4493 -1.5946
  863MPD2    N112729   4.338   1.483  16.668 -0.2701 -0.2150  0.5747
  863MPD2    H712730   4.254   1.469  16.612 -0.8726  0.1984  1.3830
  864MPD2     C12731   0.468   2.523  17.238  0.0910 -0.1455  0.1657
  864MPD2    C112732   0.500   2.446  17.132 -0.5088  0.0183  0.4500
  864MPD2    C212733   0.597   2.495  17.043 -0.3649  0.1794 -0.9772
  864MPD2    C312734   0.664   2.613  17.070 -0.3522  0.4962 -0.1940
  864MPD2    C412735   0.623   2.689  17.182  0.6816 -0.6340 -0.0713
  864MPD2    C512736   0.526   2.645  17.269 -0.1997 -0.8339  0.1920
  864MPD2     H12737   0.634   2.435  16.960  1.9878  0.9014 -0.4710
  864MPD2    H112738   0.685   2.774  17.204 -0.1372 -0.0730  0.0777
  864MPD2    H212739   0.405   2.494  17.322  1.0400  2.4763  1.7795
  864MPD2    H312740   0.507   2.693  17.364 -1.3345  0.2830 -0.5998
  864MPD2     N12741   0.758   2.672  16.984  0.1626 -0.3742 -0.1577
  864MPD2    H512742   0.799   2.759  17.014  0.5736 -0.2056 -1.2186
  864MPD2    N112743   0.435   2.322  17.124  0.0329 -0.4433 -0.6321
  864MPD2    H712744   0.360   2.296  17.188 -0.4357  1.4969 -0.3845
  865MPD2     C12745   0.594   2.872  16.137 -0.6502 -0.4178  0.0095
  865MPD2    C112746   0.617   2.758  16.212  0.5919  0.3236 -0.1967
  865MPD2    C212747   0.649   2.771  16.347 -0.3429  0.0396  0.1257
  865MPD2    C312748   0.673   2.898  16.401  0.4238  0.3213 -0.1684
  865MPD2    C412749   0.655   3.008  16.330  0.2168 -0.0578  0.3480
  865MPD2    C512750   0.609   2.991  16.197 -0.0353 -0.0577 -0.4862
  865MPD2     H12751   0.681   2.683  16.401 -1.3359  0.6363  1.6649
  865MPD2    H112752   0.673   3.109  16.364  1.6567  0.0988 -0.8531
  865MPD2    H212753   0.571   2.871  16.031  3.7111 -0.4501 -0.9311
  865MPD2    H312754   0.582   3.076  16.136  1.3963  0.8929  0.2069
  865MPD2     N12755   0.719   2.898  16.528 -0.0183  0.1056 -0.0661
  865MPD2    H512756   0.711   2.807  16.573 -2.5737  0.6223  0.4817
  865MPD2    N112757   0.612   2.631  16.149  0.1616  0.2801 -0.1426
  865MPD2    H712758   0.605   2.631  16.048 -0.6597 -0.6467 -0.0932
  866MPD2     C12759   1.642   3.243  10.891  0.2095 -0.4076 -0.2205
  866MPD2    C112760   1.582   3.124  10.919 -0.0882 -0.4027  0.0866
  866MPD2    C212761   1.444   3.114  10.916  0.2820  0.1582  0.4590
  866MPD2    C312762   1.369   3.225  10.870 -1.0083 -0.6297  0.1057
  866MPD2    C412763   1.434   3.338  10.830 -0.3427  0.7272  0.2640
  866MPD2    C512764   1.565   3.347  10.840 -0.3700 -0.6398  0.3698
  866MPD2     H12765   1.403   3.015  10.934  2.2056 -0.3292  2.1315
  866MPD2    H112766   1.384   3.425  10.787  1.1994  1.9736  1.0102
  866MPD2    H212767   1.749   3.260  10.893 -0.0982  1.2697  2.1510
  866MPD2    H312768   1.610   3.440  10.807  1.1122 -2.1851 -2.0052
  866MPD2     N12769   1.230   3.229  10.863 -0.1206 -0.0958 -0.0503
  866MPD2    H512770   1.189   3.316  10.833 -3.5955 -1.8142 -0.2492
  866MPD2    N112771   1.670   3.018  10.949  0.3138  0.4325  0.2661
  866MPD2    H712772   1.769   3.023  10.927 -0.0856 -0.5128 -1.7140
  867MPD2     C12773   4.168   2.627  16.431  0.2355 -0.1260  0.2174
  867MPD2    C112774   4.246   2.604  16.539  0.8014 -0.3548 -0.1482
  867MPD2    C212775   4.250   2.709  16.634  0.0057  0.8080 -0.7881
  867MPD2    C312776   4.166   2.826  16.623  0.1980 -0.6072 -0.1399
  867MPD2    C412777   4.090   2.848  16.509 -0.6098 -0.6208  1.3853
  867MPD2    C512778   4.088   2.742  16.413  0.1179  0.5668  0.5721
  867MPD2     H12779   4.305   2.701  16.727 -0.3213 -0.5567 -0.6986
  867MPD2    H112780   4.030   2.931  16.472 -2.3387 -2.2419  0.5353
  867MPD2    H212781   4.150   2.551  16.355  1.5974  0.8053 -1.0421
  867MPD2    H312782   4.041   2.764  16.317  0.2506 -1.1111  0.1151
  867MPD2     N12783   4.174   2.932  16.714 -0.9088 -0.4637 -0.2532
  867MPD2    H512784   4.121   3.013  16.686  1.1997  0.9373 -0.1891
  867MPD2    N112785   4.319   2.482  16.554 -0.7286  0.5202 -0.3073
  867MPD2    H712786   4.301   2.412  16.484  2.6048 -0.0793 -0.5940
  868MPD2     C12787   1.112   1.837  12.888  0.0193 -0.3641 -0.5622
  868MPD2    C112788   1.153   1.752  12.983  0.2307 -0.3346 -0.4855
  868MPD2    C212789   1.118   1.764  13.115  0.2871  0.0722  0.1535
  868MPD2    C312790   1.021   1.849  13.149  0.0666  0.3767 -0.0930
  868MPD2    C412791   0.953   1.920  13.050 -0.2346  0.3085 -0.0675
  868MPD2    C512792   1.007   1.913  12.922 -0.0966  0.3605  0.4314
  868MPD2     H12793   1.160   1.704  13.195 -1.3087 -0.8044  0.3294
  868MPD2    H112794   0.875   1.995  13.058  0.3236  0.7716  1.0252
  868MPD2    H212795   1.155   1.841  12.789  1.5573 -1.7294  0.0562
  868MPD2    H312796   0.960   1.980  12.850 -0.9584 -0.3477  0.3431
  868MPD2     N12797   0.996   1.849  13.286  0.2870  0.3489 -0.2350
  868MPD2    H512798   1.058   1.789  13.340  1.5429  1.6746 -0.2114
  868MPD2    N112799   1.250   1.659  12.940 -0.0010 -0.7859  0.2878
  868MPD2    H712800   1.277   1.662  12.842 -0.4147  1.4830  0.2453
  869MPD2     C12801   2.647   4.387   0.590  0.4606  0.4439 -0.2346
  869MPD2    C112802   2.609   4.358   0.457  0.3859 -0.1644  0.4173
  869MPD2    C212803   2.689   4.404   0.354  0.8410  0.2261 -0.5201
  869MPD2    C312804   2.807   4.467   0.389  0.8625  0.0148 -0.6715
  869MPD2    C412805   2.850   4.478   0.521  0.2311  0.0899 -0.4323
  869MPD2    C512806   2.770   4.439   0.618 -0.7336 -0.3903 -0.2486
  869MPD2     H12807   2.656   4.401   0.251 -0.3658 -0.0124 -0.1321
  869MPD2    H112808   2.922   4.558   0.536 -0.0821  0.0204  1.4683
  869MPD2    H212809   2.577   4.363   0.669 -2.3135 -0.7747 -3.0890
  869MPD2    H312810   2.796   4.469   0.719  0.0409 -2.4026  0.1579
  869MPD2     N12811   2.891   4.532   0.298  0.6607  0.0352  0.1087
  869MPD2    H512812   2.971   4.585   0.330  0.5793  1.6790 -2.3882
  869MPD2    N112813   2.482   4.291   0.442  0.3719 -0.0327  0.2836
  869MPD2    H712814   2.429   4.252   0.519  1.3554 -0.4246  0.7612
  870MPD2     C12815   2.750   3.550   1.087 -0.3880 -0.6443  0.3258
  870MPD2    C112816   2.660   3.488   0.998 -0.0499 -0.6638  0.2264
  870MPD2    C212817   2.547   3.555   0.957 -0.0689  0.6949  0.7006
  870MPD2    C312818   2.523   3.678   1.020 -0.2621  0.2926 -0.1642
  870MPD2    C412819   2.602   3.720   1.128 -0.1209 -0.0215  0.7194
  870MPD2    C512820   2.719   3.660   1.157  0.4181 -0.2162 -0.2272
  870MPD2     H12821   2.493   3.533   0.865  0.8027 -1.1630  0.6253
  870MPD2    H112822   2.584   3.800   1.199 -4.2290 -0.3221  0.0191
  870MPD2    H212823   2.847   3.506   1.104 -0.7603 -0.4366  3.0510
  870MPD2    H312824   2.788   3.706   1.227 -1.4232 -0.0224  1.4495
  870MPD2     N12825   2.403   3.751   0.979  0.3257  0.4174 -0.0673
  870MPD2    H512826   2.363   3.707   0.897  1.7170  0.7338 -0.9146
  870MPD2    N112827   2.679   3.350   0.965  0.2269  0.1326 -0.0757
  870MPD2    H712828   2.771   3.321   0.998 -0.3240 -0.4909  0.9371
  871MPD2     C12829   2.860   2.656  16.111  0.0662  0.2903  0.3780
  871MPD2    C112830   2.969   2.713  16.179  0.8281 -0.7560  0.6495
  871MPD2    C212831   3.106   2.698  16.136  0.2171 -0.2591 -0.0309
  871MPD2    C312832   3.133   2.607  16.038 -0.2351  0.3013  0.4191
  871MPD2    C412833   3.028   2.546  15.980 -0.4575 -0.1263  1.0590
  871MPD2    C512834   2.896   2.577  16.008  0.3066  0.0582  0.1128
  871MPD2     H12835   3.190   2.748  16.184  0.2030 -0.8199  0.5730
  871MPD2    H112836   3.041   2.458  15.918  3.4568  0.8300  0.5432
  871MPD2    H212837   2.758   2.676  16.140  0.0598  1.0377 -0.1496
  871MPD2    H312838   2.821   2.522  15.953  0.5267  1.1383 -1.2550
  871MPD2     N12839   3.257   2.532  16.023 -0.1248  0.0358  0.6273
  871MPD2    H512840   3.250   2.445  15.971 -0.7153 -0.7182  1.9798
  871MPD2    N112841   2.935   2.797  16.283  0.2842 -0.0440 -0.0903
  871MPD2    H712842   2.848   2.774  16.330 -0.5616  3.8576  0.2770
  872MPD2     C12843   4.036   0.432  13.916  0.5849  0.3652 -0.1106
  872MPD2    C112844   4.028   0.569  13.884 -0.1432 -0.6223  0.1001
  872MPD2    C212845   3.905   0.636  13.917 -0.5648  0.4689 -0.6190
  872MPD2    C312846   3.797   0.564  13.976  0.5271 -0.3066  0.0902
  872MPD2    C412847   3.803   0.427  13.986  0.7279 -0.1635  0.3430
  872MPD2    C512848   3.923   0.364  13.951 -0.6141  0.0650  0.0937
  872MPD2     H12849   3.903   0.743  13.896  0.2446  0.6168  0.0506
  872MPD2    H112850   3.720   0.374  14.030  0.5445  0.5587  0.8585
  872MPD2    H212851   4.119   0.372  13.881 -2.0842 -2.0552 -2.3094
  872MPD2    H312852   3.922   0.256  13.943  0.6920 -0.0965  2.1904
  872MPD2     N12853   3.678   0.625  14.016  1.0515 -0.4794 -0.0728
  872MPD2    H512854   3.594   0.571  14.032 -0.1581  1.5388  0.4540
  872MPD2    N112855   4.142   0.637  13.824 -0.2547 -0.4919 -0.2321
  872MPD2    H712856   4.124   0.735  13.805 -0.6718 -0.7424 -1.1207
  873MPD2     C12857   1.236   0.499   0.525 -0.4616  0.3641 -0.2151
  873MPD2    C112858   1.272   0.388   0.593 -0.2861 -0.5091 -0.2056
  873MPD2    C212859   1.207   0.271   0.554 -0.3001  0.1310 -0.1891
  873MPD2    C312860   1.118   0.270   0.445 -0.5362 -0.1834  0.1795
  873MPD2    C412861   1.115   0.374   0.359  0.0981 -0.8428  0.3020
  873MPD2    C512862   1.168   0.490   0.405 -0.7719 -0.2956 -0.2877
  873MPD2     H12863   1.211   0.183   0.617  0.3415 -0.9836 -1.7782
  873MPD2    H112864   1.056   0.372   0.268 -2.7048 -1.5966  2.1689
  873MPD2    H212865   1.269   0.597   0.560  0.6766 -0.0019 -0.2626
  873MPD2    H312866   1.148   0.584   0.353 -0.3537  0.0149  0.1173
  873MPD2     N12867   1.051   0.152   0.404  0.0637 -0.0890  0.0707
  873MPD2    H512868   0.991   0.174   0.325  4.0514  1.5740 -2.4332
  873MPD2    N112869   1.366   0.400   0.705  0.3349 -0.3095 -0.7098
  873MPD2    H712870   1.386   0.497   0.727  0.2564 -0.6437  0.8652
  874MPD2     C12871   0.603   0.520  16.174 -0.1309  0.3967  0.6804
  874MPD2    C112872   0.597   0.508  16.306  0.3726  0.6957  0.5966
  874MPD2    C212873   0.617   0.623  16.381  0.5871  0.4775 -0.7861
  874MPD2    C312874   0.645   0.743  16.320 -1.1809  0.4637  0.9084
  874MPD2    C412875   0.639   0.750  16.184  0.6633 -0.1925 -0.1370
  874MPD2    C512876   0.624   0.637  16.113 -0.5464 -0.3706  0.0185
  874MPD2     H12877   0.614   0.626  16.489  1.5840  2.5233 -0.8044
  874MPD2    H112878   0.666   0.837  16.126  0.4924  0.0649  0.1719
  874MPD2    H212879   0.597   0.428  16.117  2.9010 -0.5195  1.8503
  874MPD2    H312880   0.644   0.648  16.007 -1.0338 -0.3246 -0.0650
  874MPD2     N12881   0.681   0.863  16.393 -0.2799 -0.3816  0.3372
  874MPD2    H512882   0.706   0.844  16.490  3.2824  2.2807 -0.0660
  874MPD2    N112883   0.576   0.375  16.359 -0.0388  0.3542  0.6957
  874MPD2    H712884   0.567   0.297  16.294 -0.8726 -1.0643  2.4984
  875MPD2     C12885   1.786   3.807  14.534  0.3757 -0.3906  0.1128
  875MPD2    C112886   1.681   3.755  14.603  0.3704  0.2211  0.0570
  875MPD2    C212887   1.666   3.771  14.737 -0.7551  0.8374 -0.1802
  875MPD2    C312888   1.766   3.840  14.810  0.6750  0.9664  0.4382
  875MPD2    C412889   1.877   3.889  14.744  0.0086  0.0489  0.8059
  875MPD2    C512890   1.883   3.868  14.604  0.2867 -0.1657  0.9484
  875MPD2     H12891   1.575   3.735  14.783 -1.3620  1.8509 -0.5885
  875MPD2    H112892   1.961   3.915  14.807  0.8033  1.0085 -0.6539
  875MPD2    H212893   1.795   3.785  14.428 -0.4344 -1.3880  0.2532
  875MPD2    H312894   1.968   3.876  14.538 -1.1750  2.5417 -0.5687
  875MPD2     N12895   1.773   3.842  14.948  0.1333 -0.5434  0.1989
  875MPD2    H512896   1.853   3.888  14.990 -1.7168  0.5871  2.5439
  875MPD2    N112897   1.566   3.700  14.539  0.1772  0.1267 -0.1826
  875MPD2    H712898   1.496   3.670  14.606 -1.9441  1.4576 -1.7613
  876MPD2     C12899   0.480   4.524  15.158  0.6530 -0.9413  0.3383
  876MPD2    C112900   0.517   4.500  15.284  0.5502 -0.4630  0.7238
  876MPD2    C212901   0.572   4.376  15.314 -0.1051  0.2736  0.6138
  876MPD2    C312902   0.591   4.280  15.222 -0.4670 -0.3341  0.6594
  876MPD2    C412903   0.550   4.299  15.094 -0.0764 -0.2818  0.0861
  876MPD2    C512904   0.502   4.423  15.069 -0.1850  0.6921 -0.4026
  876MPD2     H12905   0.597   4.353  15.417  0.2490 -0.2094  0.4180
  876MPD2    H112906   0.562   4.236  15.007 -2.2074 -0.8584  0.2160
  876MPD2    H212907   0.451   4.620  15.119 -0.6308 -0.9692  1.2157
  876MPD2    H312908   0.480   4.435  14.964  0.8157  0.2283 -0.6584
  876MPD2     N12909   0.664   4.167  15.261  0.2651  0.0842 -0.1160
  876MPD2    H512910   0.711   4.174  15.351  0.7764 -1.6051 -0.2554
  876MPD2    N112911   0.508   4.606  15.376 -0.1198  0.2252  0.0476
  876MPD2    H712912   0.487   4.696  15.334  1.3002  1.1561  1.3024
  877MPD2     C12913   0.254   0.547  15.298  0.9909 -0.4035 -0.3371
  877MPD2    C112914   0.394   0.538  15.305 -0.1160  0.1449  0.0007
  877MPD2    C212915   0.471   0.637  15.242 -0.5484  0.3007 -0.1654
  877MPD2    C312916   0.417   0.729  15.153  0.6752  0.8542  0.4041
  877MPD2    C412917   0.280   0.734  15.155  0.7960 -0.9360 -0.2125
  877MPD2    C512918   0.201   0.646  15.223 -0.0793 -0.2250  0.8124
  877MPD2     H12919   0.577   0.625  15.263 -0.2056  0.5340 -1.8094
  877MPD2    H112920   0.226   0.805  15.093  0.5379 -1.9607 -1.1764
  877MPD2    H212921   0.179   0.489  15.352  1.8252 -2.7519 -1.7331
  877MPD2    H312922   0.093   0.656  15.218  0.3128  1.0943 -5.0073
  877MPD2     N12923   0.493   0.820  15.075 -0.2189  0.6298  0.7277
  877MPD2    H512924   0.440   0.880  15.012 -0.4038  0.1101  0.3891
  877MPD2    N112925   0.456   0.438  15.386 -0.0766 -0.3023  0.0354
  877MPD2    H712926   0.557   0.446  15.388 -0.2466  2.0511 -1.0243
  878MPD2     C12927   0.686   4.307  13.381  0.3958 -0.2692  0.4758
  878MPD2    C112928   0.578   4.388  13.378 -0.1050 -0.1831  0.1066
  878MPD2    C212929   0.519   4.440  13.489 -0.0019 -0.2635 -0.0887
  878MPD2    C312930   0.554   4.395  13.618  0.0356 -0.3993 -0.4080
  878MPD2    C412931   0.652   4.298  13.622  0.5842 -0.4148 -0.6138
  878MPD2    C512932   0.714   4.261  13.508  0.5580 -0.5400 -0.8322
  878MPD2     H12933   0.451   4.524  13.484  0.6082  0.3599  2.4086
  878MPD2    H112934   0.700   4.259  13.711  3.1788 -2.7303 -3.0346
  878MPD2    H212935   0.730   4.271  13.289 -0.1077  1.2005 -0.3370
  878MPD2    H312936   0.780   4.177  13.526  0.6379 -0.5242 -1.0530
  878MPD2     N12937   0.487   4.441  13.735  0.2530  0.1660 -0.5386
  878MPD2    H512938   0.407   4.504  13.730  0.2237  0.2446  1.0374
  878MPD2    N112939   0.539   4.418  13.247  0.6032  0.3081 -0.0249
  878MPD2    H712940   0.597   4.385  13.170  0.7272  0.8385 -0.1568
  879MPD2     C12941   0.463   1.494  16.793 -0.5073 -0.1625 -0.0374
  879MPD2    C112942   0.494   1.374  16.864  0.3251  0.4309  0.6494
  879MPD2    C212943   0.405   1.264  16.866 -0.3732  1.1034  0.7685
  879MPD2    C312944   0.283   1.271  16.800 -0.1193  0.4784 -0.4015
  879MPD2    C412945   0.260   1.392  16.729  0.2208  0.3677  0.1588
  879MPD2    C512946   0.346   1.497  16.726 -0.1846  0.1108  0.6434
  879MPD2     H12947   0.431   1.167  16.908  1.5316  1.4465  0.3881
  879MPD2    H112948   0.172   1.392  16.666  0.7553  0.5553 -0.5866
  879MPD2    H212949   0.522   1.585  16.786 -0.1364 -0.2733  1.5479
  879MPD2    H312950   0.332   1.592  16.675 -0.1528 -0.5325 -0.5881
  879MPD2     N12951   0.192   1.165  16.780 -0.2041 -0.2606 -0.1402
  879MPD2    H512952   0.124   1.172  16.705 -0.1101 -2.1265 -0.3937
  879MPD2    N112953   0.621   1.362  16.921  0.4526 -0.3157 -0.1882
  879MPD2    H712954   0.676   1.447  16.912  0.7842 -0.4255  0.8756
  880MPD2     C12955   1.975   2.892   0.110 -0.6504 -0.7475  0.0125
  880MPD2    C112956   2.081   2.968   0.152  0.0189 -0.4778 -0.5872
  880MPD2    C212957   2.181   2.914   0.233 -0.2307 -0.1404 -0.4471
  880MPD2    C312958   2.164   2.781   0.284  0.3676 -0.2387 -0.0861
  880MPD2    C412959   2.045   2.715   0.246  0.7337 -0.0496  0.4499
  880MPD2    C512960   1.955   2.770   0.161 -0.1226 -0.6655  0.2038
  880MPD2     H12961   2.265   2.977   0.257 -0.4192  0.1994 -0.6764
  880MPD2    H112962   2.027   2.614   0.281  1.4518  0.2542  1.6937
  880MPD2    H212963   1.905   2.942   0.043 -0.7630  0.4808  1.0327
  880MPD2    H312964   1.862   2.721   0.133 -0.8072  1.3266 -1.0674
  880MPD2     N12965   2.255   2.738   0.380  0.6043  0.3508 -0.5535
  880MPD2    H512966   2.340   2.790   0.399 -0.0399  0.5977  1.6501
  880MPD2    N112967   2.079   3.106   0.118  0.9335  0.0187  0.0560
  880MPD2    H712968   2.005   3.139   0.058  0.5209  0.1690  0.6421
  881MPD2     C12969   2.481   4.021  17.409  0.2889  0.0312 -0.2315
  881MPD2    C112970   2.451   3.898  17.360  0.2413 -0.2498 -0.8179
  881MPD2    C212971   2.405   3.802  17.446  0.4866 -0.1673  0.3231
  881MPD2    C312972   2.353   3.841  17.567  0.3791 -0.6979  0.4777
  881MPD2    C412973   2.360   3.975  17.607  0.0733 -0.3685 -0.5237
  881MPD2    C512974   2.432   4.066  17.534  0.1723  0.2609 -0.1709
  881MPD2     H12975   2.402   3.697  17.418 -2.4425 -0.3949  1.4954
  881MPD2    H112976   2.325   4.013  17.702  0.2149 -1.8630  0.1312
  881MPD2    H212977   2.519   4.097  17.342 -1.8031  0.6006 -0.7690
  881MPD2    H312978   2.455   4.166  17.569 -1.9672  1.4043 -2.0054
  881MPD2     N12979   2.280   3.749  17.654 -0.4691  0.1613 -0.1075
  881MPD2    H512980   2.235   3.792  17.734  0.2503  0.5155  0.1040
  881MPD2    N112981   2.505   3.861  17.236 -0.7325  0.4649 -0.1669
  881MPD2    H712982   2.573   3.919  17.189 -0.9368 -0.1788 -1.2588
  882MPD2     C12983   0.743   0.673  14.332 -0.0198  0.2933 -0.3154
  882MPD2    C112984   0.642   0.750  14.393 -0.0147  0.2049  0.0178
  882MPD2    C212985   0.514   0.732  14.351 -0.6462  0.2976  0.2630
  882MPD2    C312986   0.477   0.639  14.252  0.7861 -0.6102  0.2974
  882MPD2    C412987   0.576   0.568  14.184  0.1695  0.5143 -0.4173
  882MPD2    C512988   0.704   0.582  14.237  0.1536 -0.7096 -0.0809
  882MPD2     H12989   0.434   0.795  14.388 -0.5448 -0.4286  1.7311
  882MPD2    H112990   0.555   0.494  14.107  0.6768  0.1570 -0.2133
  882MPD2    H212991   0.847   0.691  14.360 -0.3361  0.5371  0.7351
  882MPD2    H312992   0.782   0.522  14.191  1.6912  0.4571  1.0017
  882MPD2     N12993   0.342   0.627  14.217  0.1274 -0.0338 -0.2834
  882MPD2    H512994   0.316   0.543  14.167 -0.0595 -0.5312  0.6556
  882MPD2    N112995   0.675   0.829  14.512  0.1358  0.3568 -0.2275
  882MPD2    H712996   0.773   0.849  14.526  0.1942 -0.3709  0.4037
  883MPD2     C12997   2.416   0.578  16.154 -0.8149  0.6704  0.3262
  883MPD2    C112998   2.442   0.703  16.201 -0.2169  0.3532 -0.0454
  883MPD2    C212999   2.500   0.727  16.322 -0.1562  0.8129 -0.2663
  883MPD2    C313000   2.540   0.624  16.405 -1.3622 -0.0728  0.2371
  883MPD2    C413001   2.506   0.493  16.365 -0.5385 -0.4187  0.3945
  883MPD2    C513002   2.449   0.469  16.239  0.1098  0.8180 -0.4602
  883MPD2     H13003   2.532   0.829  16.343 -1.3014  1.0506  0.3102
  883MPD2    H113004   2.550   0.411  16.421  0.1373 -1.3970 -1.5715
  883MPD2    H213005   2.381   0.562  16.052 -0.7727 -1.7678  0.6836
  883MPD2    H313006   2.420   0.371  16.202  0.8962  0.7263 -0.8227
  883MPD2     N13007   2.617   0.656  16.519  0.0984  0.5533 -0.1125
  883MPD2    H513008   2.666   0.744  16.530 -0.1105  0.7681 -0.8595
  883MPD2    N113009   2.430   0.810  16.115 -0.3276  0.5185  0.1966
  883MPD2    H713010   2.486   0.891  16.139  0.0006 -0.5231  3.0153
  884MPD2     C13011   4.515   1.228  14.963  0.1048 -0.3540 -1.1526
  884MPD2    C113012   4.499   1.366  14.939  0.0913 -0.2691 -0.1988
  884MPD2    C213013   4.387   1.432  14.983  0.0681 -0.1042  0.5602
  884MPD2    C313014   4.291   1.364  15.055  0.5939  0.0675  0.9479
  884MPD2    C413015   4.305   1.232  15.082  0.2271 -0.3719 -0.0602
  884MPD2    C513016   4.428   1.173  15.051 -0.1794  0.0624 -0.0030
  884MPD2     H13017   4.379   1.539  14.965  0.1877 -0.0690  0.7192
  884MPD2    H113018   4.236   1.170  15.137 -1.6115  1.8191  0.0917
  884MPD2    H213019   4.600   1.165  14.940  0.2159 -0.5169 -0.2922
  884MPD2    H313020   4.446   1.073  15.089 -0.4505  0.0494  0.0903
  884MPD2     N13021   4.176   1.442  15.103  0.3678  0.2376  0.1034
  884MPD2    H513022   4.180   1.538  15.072  0.7210  0.1575 -0.0995
  884MPD2    N113023   4.586   1.446  14.864  0.9708  0.3512 -0.4573
  884MPD2    H713024   4.562   1.543  14.849 -0.9637  0.3693  2.6258
  885MPD2     C13025   2.397   1.982   0.257 -0.2504 -0.2274 -0.0946
  885MPD2    C113026   2.514   1.915   0.226  0.0767  0.1132 -0.2307
  885MPD2    C213027   2.536   1.894   0.095  0.9615  0.0824 -0.2022
  885MPD2    C313028   2.448   1.934  17.745  0.1170 -0.1198 -0.6454
  885MPD2    C413029   2.335   2.000   0.028 -0.2806 -0.2457  0.1121
  885MPD2    C513030   2.309   2.028   0.161 -1.0087  0.2520 -0.0936
  885MPD2     H13031   2.627   1.846   0.059  1.2104 -1.4506  2.4008
  885MPD2    H113032   2.266   2.036  17.708 -2.0219 -1.9555  0.8614
  885MPD2    H213033   2.367   1.988   0.361  3.1652  3.0822  0.7121
  885MPD2    H313034   2.222   2.084   0.195 -0.8882  0.2421  0.2298
  885MPD2     N13035   2.479   1.909  17.609 -0.3269 -0.2231 -0.0717
  885MPD2    H513036   2.567   1.864  17.585  0.0218  1.7537 -2.5238
  885MPD2    N113037   2.594   1.881   0.334 -0.2966  0.2224  0.4121
  885MPD2    H713038   2.559   1.902   0.427 -0.7060  1.1574  0.0412
  886MPD2     C13039   4.326   0.081  14.874  0.1442  0.3759  0.4243
  886MPD2    C113040   4.260   0.085  14.996  0.2060 -0.3778  0.0863
  886MPD2    C213041   4.170   0.187  15.015  0.3611  0.0525  0.3196
  886MPD2    C313042   4.141   0.276  14.918  0.0887  0.2257 -0.0343
  886MPD2    C413043   4.203   0.267  14.796  0.0838 -0.1689  0.0779
  886MPD2    C513044   4.297   0.173  14.776 -0.0233 -0.9868 -0.0820
  886MPD2     H13045   4.125   0.206  15.112  1.2806  3.0480  0.1774
  886MPD2    H113046   4.162   0.339  14.727  0.7067  0.1569  0.0508
  886MPD2    H213047   4.394   0.000  14.850 -1.1302 -0.4562 -0.4258
  886MPD2    H313048   4.333   0.165  14.674 -2.5271 -0.7890 -1.0100
  886MPD2     N13049   4.057   0.393  14.933 -0.8046  0.1979  0.1976
  886MPD2    H513050   4.052   0.455  14.852  0.7209  0.9282  0.6746
  886MPD2    N113051   4.279   4.727  15.098 -0.2529  0.4122 -0.2227
  886MPD2    H713052   4.229   0.005  15.185  0.1060  0.4526 -0.0249
  887MPD2     C13053   4.539   4.646  15.826 -0.2078 -0.1864  0.1152
  887MPD2    C113054   4.533   4.729  15.709 -0.1606  0.2260  0.1238
  887MPD2    C213055   4.594   0.116  15.705 -0.1245 -0.9774 -0.0501
  887MPD2    C313056   4.676   0.156  15.803  0.5769 -0.2238 -0.0846
  887MPD2    C413057   4.679   0.076  15.910 -0.7944  0.3620  0.6547
  887MPD2    C513058   4.616   4.697  15.928  0.2795 -0.1184  0.1594
  887MPD2     H13059   4.607   0.169  15.611  2.0558  1.6871  1.7675
  887MPD2    H113060   0.005   0.108  15.990 -0.5432 -1.6646  1.2638
  887MPD2    H213061   4.493   4.549  15.844  0.9470 -1.1179 -1.9556
  887MPD2    H313062   4.623   4.634  16.016 -0.1769 -0.7048 -0.2230
  887MPD2     N13063   0.009   0.276  15.782  0.1439 -0.3651 -0.2715
  887MPD2    H513064   4.731   0.318  15.691 -1.1386  1.7588  0.9580
  887MPD2    N113065   4.453   4.678  15.598 -0.2687  0.1922 -0.3493
  887MPD2    H713066   4.449   4.733  15.514 -2.1246  3.2418  1.7387
  888MPD2     C13067   1.448   4.738  14.755 -0.2845  0.0962  0.8789
  888MPD2    C113068   1.447   0.029  14.890  0.0248  0.2335 -0.1621
  888MPD2    C213069   1.505   0.151  14.932  0.0370  0.7274 -0.0970
  888MPD2    C313070   1.557   0.240  14.837  0.0228  0.1720 -0.1187
  888MPD2    C413071   1.555   0.207  14.699 -0.6114  0.1169  0.5254
  888MPD2    C513072   1.508   0.082  14.667 -0.8920 -0.1495 -0.1830
  888MPD2     H13073   1.508   0.170  15.038 -0.2939  2.5785 -0.4185
  888MPD2    H113074   1.593   0.268  14.618 -1.1948 -0.6141 -0.2905
  888MPD2    H213075   1.406   4.645  14.719 -2.8982  1.5784  0.1056
  888MPD2    H313076   1.519   0.044  14.567 -0.0523  0.0160 -0.1540
  888MPD2     N13077   1.607   0.362  14.894 -0.0041  0.6057 -0.5070
  888MPD2    H513078   1.584   0.383  14.990 -0.6801 -0.6932 -0.3898
  888MPD2    N113079   1.406   4.682  14.993  0.3240 -0.2742  0.2558
  888MPD2    H713080   1.408   4.722  15.086  2.2082 -0.9046  0.4713
  889MPD2     C13081   1.265   4.296  12.725  0.1023 -0.8346 -0.2738
  889MPD2    C113082   1.201   4.202  12.805  0.4334  0.7243  0.2855
  889MPD2    C213083   1.115   4.253  12.902  0.4404 -0.1470 -0.5264
  889MPD2    C313084   1.094   4.388  12.913  0.3118  0.2149 -0.6929
  889MPD2    C413085   1.167   4.481  12.839 -0.0965 -0.1406  0.7901
  889MPD2    C513086   1.254   4.428  12.742 -0.4349  0.0518  0.0935
  889MPD2     H13087   1.051   4.183  12.955  0.2140  0.6516  0.2573
  889MPD2    H113088   1.165   4.586  12.864  1.7999 -0.3906  1.9546
  889MPD2    H213089   1.328   4.260  12.645 -0.8753 -1.1686 -0.8849
  889MPD2    H313090   1.318   4.498  12.689 -1.4782  0.6940 -0.3161
  889MPD2     N13091   0.997   4.431  13.008 -0.1272 -0.5682  0.0865
  889MPD2    H513092   0.955   4.363  13.071  0.8282 -0.9815  0.2877
  889MPD2    N113093   1.188   4.065  12.768 -0.1937 -0.1674 -0.6213
  889MPD2    H713094   1.130   4.011  12.832  0.7005  0.7430  0.9392
  890MPD2     C13095   0.558   1.388  14.703  0.2045  0.2956 -0.4890
  890MPD2    C113096   0.693   1.425  14.703  0.2165 -0.5113 -0.1355
  890MPD2    C213097   0.774   1.374  14.805 -0.0386  1.0380 -0.2947
  890MPD2    C313098   0.725   1.296  14.906  0.0299  0.8209 -0.2633
  890MPD2    C413099   0.593   1.263  14.908  0.3151  1.0968  0.7277
  890MPD2    C513100   0.513   1.299  14.800  0.6690  0.0981  0.5741
  890MPD2     H13101   0.882   1.389  14.805 -0.0181  0.9923 -2.6723
  890MPD2    H113102   0.539   1.204  14.981 -1.6791  0.7448 -1.0215
  890MPD2    H213103   0.494   1.417  14.621  1.1798  1.5607 -0.8027
  890MPD2    H313104   0.408   1.273  14.801  0.3269  1.3738 -3.1198
  890MPD2     N13105   0.815   1.273  15.015 -0.5081 -0.0670  0.7504
  890MPD2    H513106   0.913   1.300  15.007 -0.7869  0.7928  0.1839
  890MPD2    N113107   0.742   1.500  14.595  0.6894 -0.0065  0.0168
  890MPD2    H713108   0.676   1.514  14.520  1.8004  1.0673 -0.7759
  891MPD2     C13109   3.596   4.204  16.415 -0.2002  0.1373 -0.4367
  891MPD2    C113110   3.626   4.337  16.459 -0.0378  0.3572 -0.4034
  891MPD2    C213111   3.758   4.365  16.492  0.1547  0.2422  0.3370
  891MPD2    C313112   3.854   4.269  16.485  0.6100  0.3590 -0.3889
  891MPD2    C413113   3.822   4.138  16.449 -0.2018 -0.2128 -1.3785
  891MPD2    C513114   3.694   4.109  16.405  0.4739  0.0944  0.0784
  891MPD2     H13115   3.784   4.461  16.535  0.2945 -0.1363  1.0998
  891MPD2    H113116   3.887   4.052  16.455  0.9880  0.8338  0.7174
  891MPD2    H213117   3.494   4.170  16.401  1.4104 -3.5261 -3.1890
  891MPD2    H313118   3.680   4.004  16.382 -0.3847  0.2006  0.1158
  891MPD2     N13119   3.980   4.312  16.532 -0.1440  0.2278 -0.1143
  891MPD2    H513120   3.987   4.411  16.555 -0.6099 -0.3715  2.5976
  891MPD2    N113121   3.521   4.433  16.475  0.1807  0.5765  0.3761
  891MPD2    H713122   3.427   4.407  16.447  1.3643 -0.7907 -2.2400
  892MPD2     C13123   4.511   1.290  14.543  0.2848  0.1060 -0.1806
  892MPD2    C113124   4.442   1.183  14.594  0.7724 -0.0094 -0.0667
  892MPD2    C213125   4.479   1.055  14.562  0.4250 -0.4603  0.1277
  892MPD2    C313126   4.603   1.032  14.500 -0.1165  0.4876  0.1975
  892MPD2    C413127   4.685   1.139  14.467 -0.1806 -0.4109 -0.3286
  892MPD2    C513128   4.637   1.271  14.489 -0.2449  0.6464  0.2908
  892MPD2     H13129   4.418   0.972  14.596 -0.1126  0.4016  1.2901
  892MPD2    H113130   0.049   1.122  14.438  0.2992 -0.6396  1.5503
  892MPD2    H213131   4.484   1.392  14.570  1.3158 -0.1794  1.9212
  892MPD2    H313132   4.710   1.348  14.467  0.7132 -0.8590 -1.8493
  892MPD2     N13133   4.643   0.906  14.469  0.2460 -0.6914  0.4132
  892MPD2    H513134   4.736   0.891  14.431  0.6473  1.3620  0.5784
  892MPD2    N113135   4.315   1.218  14.653  0.1034  0.2961  0.2242
  892MPD2    H713136   4.287   1.315  14.649  1.5100  0.7107  0.3040
  893MPD2     C13137   1.849   0.099   1.784 -0.7166 -0.1923  0.3163
  893MPD2    C113138   1.794   0.035   1.677  0.2778  0.4171 -0.2651
  893MPD2    C213139   1.655   0.031   1.669 -0.0124  0.4318 -0.0131
  893MPD2    C313140   1.577   0.099   1.772  0.1470 -0.3989 -0.0197
  893MPD2    C413141   1.640   0.169   1.878 -0.8445  0.0440 -0.8550
  893MPD2    C513142   1.775   0.159   1.885 -0.1383  0.8918  0.8401
  893MPD2     H13143   1.603   4.729   1.583  1.2429 -2.7466  0.7529
  893MPD2    H113144   1.586   0.217   1.959  0.3653  0.4989 -0.3190
  893MPD2    H213145   1.957   0.099   1.793 -0.6247  0.9064 -0.8356
  893MPD2    H313146   1.826   0.215   1.962 -0.6569 -0.3764  2.1165
  893MPD2     N13147   1.436   0.100   1.767 -0.3294  0.3916 -0.1445
  893MPD2    H513148   1.392   0.152   1.842 -1.6308  1.2268 -1.4859
  893MPD2    N113149   1.879   4.720   1.581 -0.0576 -0.1964 -0.4472
  893MPD2    H713150   1.979   4.731   1.593  0.0421 -2.2691  0.6721
  894MPD2     C13151   4.234   1.723   0.530  0.3765 -0.1760  0.7215
  894MPD2    C113152   4.286   1.726   0.655  0.0133 -0.7303 -0.0378
  894MPD2    C213153   4.326   1.845   0.710 -0.3030 -0.2278 -0.3149
  894MPD2    C313154   4.309   1.969   0.648  0.3594 -0.4269  0.1037
  894MPD2    C413155   4.251   1.964   0.521  1.3873  0.0571 -0.1416
  894MPD2    C513156   4.226   1.838   0.458 -0.1501 -0.0634 -0.3739
  894MPD2     H13157   4.363   1.841   0.812  2.3546  0.4450 -1.2326
  894MPD2    H113158   4.222   2.054   0.470 -1.3240 -0.3335  0.7004
  894MPD2    H213159   4.204   1.636   0.472 -0.2826  0.3848  0.2261
  894MPD2    H313160   4.196   1.824   0.355  1.0263 -0.4212 -0.6664
  894MPD2     N13161   4.343   2.086   0.716  0.3246  0.0558 -0.0387
  894MPD2    H513162   4.367   2.072   0.814  3.2446 -1.9212 -1.0344
  894MPD2    N113163   4.294   1.607   0.729  0.0762  0.1675 -0.3367
  894MPD2    H713164   4.341   1.613   0.819 -0.4072  2.1286 -0.2066
  895MPD2     C13165   3.851   0.068  13.617  0.1014  0.1550  0.3879
  895MPD2    C113166   3.728   0.033  13.555 -0.4163 -0.3585  0.1308
  895MPD2    C213167   3.709   4.649  13.513 -0.0058  0.5228 -0.4883
  895MPD2    C313168   3.814   4.553  13.519  0.7274  0.2067  0.2718
  895MPD2    C413169   3.926   4.581  13.592 -0.1788  0.3690 -0.3298
  895MPD2    C513170   3.942   4.710  13.635 -0.3184 -0.4897  0.3290
  895MPD2     H13171   3.619   4.637  13.454 -0.1758 -1.6272  0.2045
  895MPD2    H113172   4.000   4.503  13.604 -0.0303  0.2268 -2.2084
  895MPD2    H213173   3.874   0.168  13.651 -0.4076  1.0144 -1.7956
  895MPD2    H313174   4.034   0.007  13.681 -0.2416  0.8985 -0.9304
  895MPD2     N13175   3.790   4.414  13.473 -0.1432 -0.3049  0.3446
  895MPD2    H513176   3.862   4.346  13.494  0.5341  0.4172  0.3578
  895MPD2    N113177   3.632   0.133  13.538 -0.7435 -0.3511  0.0280
  895MPD2    H713178   3.543   0.098  13.501 -1.3844  2.5866 -1.2126
  896MPD2     C13179   1.308   2.833   1.076 -0.1244 -0.3793 -0.4101
  896MPD2    C113180   1.282   2.798   0.950  0.1796  0.0364 -0.0471
  896MPD2    C213181   1.168   2.720   0.928 -0.1979 -0.1558  0.1166
  896MPD2    C313182   1.075   2.692   1.029  0.1980 -0.0543  0.2499
  896MPD2    C413183   1.115   2.725   1.159  0.2082  1.1681 -0.4796
  896MPD2    C513184   1.233   2.790   1.183 -0.1691 -0.2394 -0.4903
  896MPD2     H13185   1.150   2.693   0.825  1.6037 -0.3126 -0.1563
  896MPD2    H113186   1.062   2.685   1.245  2.4290 -3.2808 -1.2069
  896MPD2    H213187   1.392   2.896   1.104 -0.9261  1.2864 -1.8088
  896MPD2    H313188   1.258   2.807   1.287  0.4670 -0.5220 -0.5980
  896MPD2     N13189   0.948   2.654   0.991  0.0394 -0.1322 -0.4568
  896MPD2    H513190   0.922   2.636   0.895 -0.1780 -0.2900 -0.3682
  896MPD2    N113191   1.378   2.835   0.852 -0.3757  0.3164  0.3209
  896MPD2    H713192   1.454   2.895   0.885  0.3336 -1.0556  1.1546
  897MPD2     C13193   1.435   4.018  10.674  0.1447 -0.8883 -0.0560
  897MPD2    C113194   1.466   4.146  10.650  0.7234  0.1311  0.4120
  897MPD2    C213195   1.374   4.236  10.603  0.1531  0.4011 -0.5582
  897MPD2    C313196   1.247   4.191  10.578  1.0591  0.0937  0.4851
  897MPD2    C413197   1.214   4.056  10.594  0.1469  0.1514 -0.2379
  897MPD2    C513198   1.309   3.966  10.642 -0.0361  0.1576  0.6761
  897MPD2     H13199   1.390   4.344  10.609 -1.6085  0.5284  1.7223
  897MPD2    H113200   1.113   4.018  10.583  0.2731  0.2458 -1.6716
  897MPD2    H213201   1.511   3.947  10.705 -0.7060 -1.6949  0.1746
  897MPD2    H313202   1.292   3.861  10.660  0.1949 -0.1246 -0.7885
  897MPD2     N13203   1.154   4.296  10.536  0.0625  0.7116 -0.4502
  897MPD2    H513204   1.192   4.388  10.557  0.2570 -0.0453  2.4881
  897MPD2    N113205   1.596   4.183  10.689  0.4914  0.7601  0.7477
  897MPD2    H713206   1.652   4.110  10.731  0.3237 -0.8885 -1.9333
  898MPD2     C13207   3.804   0.529  17.490  0.0746 -0.5678 -0.3970
  898MPD2    C113208   3.873   0.648  17.519  0.1646 -0.3587  0.1911
  898MPD2    C213209   3.806   0.765  17.504 -0.1524 -0.5001  0.2904
  898MPD2    C313210   3.670   0.773  17.468  0.3212  0.1961 -1.1156
  898MPD2    C413211   3.607   0.650  17.436  0.7947 -0.4003 -0.3137
  898MPD2    C513212   3.669   0.530  17.449  0.5840 -0.9235 -0.5709
  898MPD2     H13213   3.866   0.851  17.530  0.2752 -0.5308 -0.6291
  898MPD2    H113214   3.507   0.659  17.397  1.7715  1.6700 -2.3579
  898MPD2    H213215   3.854   0.434  17.497 -1.2438 -1.1963  0.4623
  898MPD2    H313216   3.607   0.442  17.436 -0.2662  0.0698 -3.1627
  898MPD2     N13217   3.603   0.900  17.444 -0.6773 -0.3634 -0.2805
  898MPD2    H513218   3.663   0.981  17.435 -1.3374  0.3513  1.6885
  898MPD2    N113219   4.012   0.648  17.554 -0.1546  0.3615  0.1098
  898MPD2    H713220   4.058   0.738  17.568 -0.8055  0.5751  0.8651
  899MPD2     C13221   0.200   0.770  17.208 -0.0896 -0.5294 -0.9676
  899MPD2    C113222   0.202   0.881  17.288 -0.9083  0.7055 -0.0935
  899MPD2    C213223   0.171   0.874  17.417  0.5587  0.5938 -0.2301
  899MPD2    C313224   0.124   0.756  17.469 -0.3083  0.4683 -0.7045
  899MPD2    C413225   0.106   0.647  17.385 -0.0730 -0.3532 -0.5010
  899MPD2    C513226   0.155   0.656  17.257  0.1412 -0.0877 -0.0908
  899MPD2     H13227   0.180   0.958  17.485  3.9188  0.1606 -0.1057
  899MPD2    H113228   0.068   0.552  17.421 -0.4000 -0.5147 -1.2798
  899MPD2    H213229   0.233   0.766  17.105  0.1281 -1.3052 -0.8659
  899MPD2    H313230   0.156   0.571  17.190  0.6543 -0.9271  0.9845
  899MPD2     N13231   0.077   0.738  17.603  0.0579 -0.1844  0.0759
  899MPD2    H513232   0.030   0.653  17.632  1.5117 -0.7770  0.7030
  899MPD2    N113233   0.233   1.002  17.220 -0.3607  0.4809  0.4444
  899MPD2    H713234   0.227   1.002  17.118 -0.5978 -0.4451  0.4584
  900MPD2     C13235   0.171   2.253  12.629 -0.2867 -0.1536  0.1389
  900MPD2    C113236   0.066   2.180  12.676  0.1518  0.1248  0.0818
  900MPD2    C213237   4.683   2.245  12.684 -0.4518 -0.4966 -0.3827
  900MPD2    C313238   4.662   2.382  12.650 -0.1709 -0.5792 -0.2660
  900MPD2    C413239   0.029   2.452  12.604 -0.1825 -0.3843  0.0663
  900MPD2    C513240   0.153   2.392  12.600  0.2548 -0.3913  0.0321
  900MPD2     H13241   4.597   2.195  12.727  0.4594 -0.6354  1.2675
  900MPD2    H113242   0.018   2.556  12.578  1.8280  0.2079  1.5733
  900MPD2    H213243   0.266   2.204  12.613 -1.4419 -2.4157  0.2572
  900MPD2    H313244   0.238   2.448  12.560  0.3717 -1.1295 -0.7518
  900MPD2     N13245   4.532   2.437  12.651  0.5246 -0.0339 -0.2966
  900MPD2    H513246   4.460   2.376  12.688 -0.0024 -0.0059 -1.2668
  900MPD2    N113247   0.095   2.047  12.718  0.2519 -0.1986  0.1105
  900MPD2    H713248   0.192   2.019  12.722  0.1812 -0.5778 -0.9380
  901MPD2     C13249   4.240   1.180  12.644  0.5567  0.1810  0.1317
  901MPD2    C113250   4.350   1.123  12.702  0.0931 -0.3146  0.2173
  901MPD2    C213251   4.448   1.209  12.756  0.0211 -1.0197 -0.0238
  901MPD2    C313252   4.445   1.345  12.742 -0.0456  0.0277 -0.5900
  901MPD2    C413253   4.333   1.398  12.689  0.0267 -0.0103 -0.5296
  901MPD2    C513254   4.232   1.319  12.637 -0.2610 -0.1623  0.4396
  901MPD2     H13255   4.530   1.166  12.812 -0.9548 -3.2160 -0.2852
  901MPD2    H113256   4.314   1.505  12.686 -0.8453 -0.0921  1.9513
  901MPD2    H213257   4.167   1.113  12.601  0.2668  0.6614 -0.1245
  901MPD2    H313258   4.150   1.366  12.586  0.5944 -1.1903 -1.8997
  901MPD2     N13259   4.563   1.414  12.786 -0.0104  0.0501 -0.7864
  901MPD2    H513260   4.642   1.360  12.821 -0.3265  0.2102  0.1611
  901MPD2    N113261   4.360   0.983  12.700  0.1207 -0.2280 -0.6550
  901MPD2    H713262   4.290   0.929  12.650  0.4143  0.5668 -1.9038
  902MPD2     C13263   3.950   0.254  13.259 -0.0725 -0.5337  0.3889
  902MPD2    C113264   3.910   0.318  13.144  0.1932  0.2029  0.4244
  902MPD2    C213265   3.933   0.259  13.023  0.0910 -0.2206 -0.7233
  902MPD2    C313266   4.001   0.142  13.018  0.1330 -0.3902  0.1357
  902MPD2    C413267   4.053   0.089  13.136 -0.0859 -0.0018 -0.6726
  902MPD2    C513268   4.030   0.144  13.250  0.4091  0.3163  0.4832
  902MPD2     H13269   3.908   0.314  12.933 -3.4075 -1.6814 -0.6090
  902MPD2    H113270   4.132   0.014  13.135 -1.9924 -2.0107 -1.5711
  902MPD2    H213271   3.946   0.302  13.356 -0.4563 -0.8728  0.5431
  902MPD2    H313272   4.087   0.111  13.336 -0.3259 -0.9079  0.5054
  902MPD2     N13273   4.052   0.101  12.892  0.7309  0.1687  0.1291
  902MPD2    H513274   4.115   0.021  12.893 -0.4336 -0.7788 -0.8317
  902MPD2    N113275   3.850   0.446  13.141 -0.3099  0.2750 -0.1824
  902MPD2    H713276   3.828   0.494  13.054 -2.1232  1.3143  0.8532
  903MPD2     C13277   3.882   0.354  12.116  0.4460 -0.8018 -0.2423
  903MPD2    C113278   3.851   0.314  12.248 -0.0360  0.1684 -0.1242
  903MPD2    C213279   3.719   0.339  12.296  0.1100 -0.2494  0.2973
  903MPD2    C313280   3.626   0.421  12.225 -0.3239 -0.1069 -0.0120
  903MPD2    C413281   3.669   0.474  12.102 -0.1825  0.0841 -0.0489
  903MPD2    C513282   3.788   0.430  12.048  0.2516  0.2021  0.5028
  903MPD2     H13283   3.685   0.281  12.380 -1.1073  1.9388  1.3231
  903MPD2    H113284   3.600   0.534  12.044  0.1971 -0.7426 -1.3495
  903MPD2    H213285   3.978   0.331  12.072 -0.3218  1.0666 -2.8988
  903MPD2    H313286   3.820   0.460  11.949 -1.3204  0.9741  0.2285
  903MPD2     N13287   3.489   0.429  12.262 -0.3265 -0.4737 -0.1196
  903MPD2    H513288   3.462   0.359  12.330 -1.4095  1.8793  1.8887
  903MPD2    N113289   3.936   0.237  12.332 -0.2921 -0.0299 -0.3643
  903MPD2    H713290   3.895   0.215  12.422 -1.5201  0.8569 -0.7059
  904MPD2     C13291   3.258   4.211  13.906 -0.0131 -0.3084 -0.7474
  904MPD2    C113292   3.198   4.231  14.029  0.1462  0.2475 -0.4220
  904MPD2    C213293   3.277   4.214  14.143  0.0308  0.3321  0.6826
  904MPD2    C313294   3.415   4.204  14.126  0.5853  0.6278 -1.0587
  904MPD2    C413295   3.476   4.203  13.998  0.8654 -0.1465 -0.1480
  904MPD2    C513296   3.392   4.200  13.891  0.1341 -0.5312 -0.0756
  904MPD2     H13297   3.236   4.213  14.243 -1.2307 -0.6038  0.1497
  904MPD2    H113298   3.581   4.183  13.978  0.9696 -0.2950  0.5524
  904MPD2    H213299   3.201   4.204  13.814 -0.8394 -2.7313 -0.0548
  904MPD2    H313300   3.430   4.193  13.789  1.4679  0.9723  0.3122
  904MPD2     N13301   3.487   4.178  14.242 -0.0636 -0.1757  0.3932
  904MPD2    H513302   3.433   4.172  14.328 -2.7239  1.3140 -1.1942
  904MPD2    N113303   3.052   4.246  14.048 -0.3934 -0.2747 -0.4110
  904MPD2    H713304   3.019   4.217  14.139 -1.3325 -0.4964 -0.8244
  905MPD2     C13305   2.921   3.987  13.432  0.1552  0.5400  1.0289
  905MPD2    C113306   2.999   4.099  13.413  0.0094  0.0581  0.5529
  905MPD2    C213307   3.121   4.082  13.351 -0.2725 -0.2511 -0.1429
  905MPD2    C313308   3.177   3.960  13.323 -0.0620  0.0114 -0.6265
  905MPD2    C413309   3.100   3.843  13.340 -0.4734 -0.5674  0.1068
  905MPD2    C513310   2.975   3.859  13.400  0.2287  0.2536 -0.2992
  905MPD2     H13311   3.191   4.164  13.341 -1.1322  0.4586 -0.4282
  905MPD2    H113312   3.140   3.744  13.323 -1.2074 -0.4197 -2.4504
  905MPD2    H213313   2.832   3.991  13.493 -1.1555  3.4620 -1.0911
  905MPD2    H313314   2.926   3.768  13.433  0.6295 -0.0712 -0.6008
  905MPD2     N13315   3.317   3.942  13.299  0.4967 -0.2510 -0.1401
  905MPD2    H513316   3.366   3.856  13.322 -1.0863 -1.2853 -0.6895
  905MPD2    N113317   2.951   4.218  13.467 -0.3456 -0.0436  0.0857
  905MPD2    H713318   2.861   4.214  13.513 -0.5111  1.1889 -0.1164
  906MPD2     C13319   0.067   3.567  11.590 -0.5499 -0.4666 -0.3365
  906MPD2    C113320   4.724   3.578  11.471  0.7092 -0.6651 -0.3972
  906MPD2    C213321   4.590   3.539  11.476  0.1727 -0.2719 -0.0838
  906MPD2    C313322   4.544   3.479  11.592  0.1008  0.5440  0.2452
  906MPD2    C413323   4.627   3.460  11.700 -0.0405 -0.2468  0.2750
  906MPD2    C513324   0.014   3.510  11.705  0.5711  0.0299 -0.3176
  906MPD2     H13325   4.536   3.549  11.383 -2.3066  1.3947  1.5407
  906MPD2    H113326   4.591   3.401  11.783  0.3656 -3.4687 -1.8605
  906MPD2    H213327   0.174   3.579  11.590 -0.2268 -3.3225  1.5965
  906MPD2    H313328   0.068   3.494  11.797  1.9013 -2.5224 -1.5166
  906MPD2     N13329   4.421   3.407  11.603  0.0228 -0.3054 -0.5946
  906MPD2    H513330   4.404   3.364  11.694  0.9517  1.1577  0.2780
  906MPD2    N113331   0.040   3.612  11.346 -0.0748  0.0455  0.4491
  906MPD2    H713332   4.721   3.619  11.263 -0.8190  2.2616  1.1623
  907MPD2     C13333   4.498   3.444  15.866 -0.3172 -0.6571 -0.0805
  907MPD2    C113334   4.487   3.315  15.812 -0.1367 -0.0705 -0.0770
  907MPD2    C213335   4.558   3.221  15.876 -0.4880 -0.1406 -0.3345
  907MPD2    C313336   4.638   3.241  15.987 -0.1539  0.0790 -0.1814
  907MPD2    C413337   4.659   3.368  16.032  0.8215  0.3800  0.2888
  907MPD2    C513338   4.581   3.465  15.973 -0.6912  0.1846 -0.4550
  907MPD2     H13339   4.552   3.119  15.840 -3.0597 -0.5613  1.3010
  907MPD2    H113340   4.730   3.384  16.112  0.0851  1.9238  0.6460
  907MPD2    H213341   4.438   3.528  15.832  0.4232  0.4440  1.3258
  907MPD2    H313342   4.589   3.566  16.011  0.1077 -0.0677  0.0579
  907MPD2     N13343   4.704   3.122  16.034  0.5371 -0.0999 -0.9909
  907MPD2    H513344   4.675   3.042  15.979 -2.2257 -1.7560  2.9101
  907MPD2    N113345   4.410   3.277  15.696 -0.7106  0.0889  0.2374
  907MPD2    H713346   4.423   3.182  15.662 -0.2228  0.1118  0.3628
  908MPD2     C13347   2.323   3.895  10.325  0.0538 -0.9468  0.3319
  908MPD2    C113348   2.192   3.861  10.335  0.0868  0.3816 -0.0273
  908MPD2    C213349   2.121   3.931  10.429  0.0552 -0.3569  0.5437
  908MPD2    C313350   2.168   4.024  10.516 -0.1856 -0.5141  0.6461
  908MPD2    C413351   2.303   4.045  10.514 -0.2838  0.0742  0.1408
  908MPD2    C513352   2.374   3.990  10.408  0.4971  0.0728 -0.4305
  908MPD2     H13353   2.015   3.911  10.439  0.4121 -3.7612 -2.6538
  908MPD2    H113354   2.356   4.112  10.581 -0.9331  0.7097  0.0113
  908MPD2    H213355   2.380   3.848  10.246  0.2870 -1.3679  0.7482
  908MPD2    H313356   2.473   4.030  10.391  0.4529  0.7537  0.9455
  908MPD2     N13357   2.079   4.087  10.603 -0.5129 -0.1185  0.6109
  908MPD2    H513358   1.980   4.073  10.587 -0.8244  1.4855  1.1134
  908MPD2    N113359   2.132   3.761  10.254 -0.1519  0.3548  0.2643
  908MPD2    H713360   2.059   3.707  10.299  0.2913  0.7970  1.5163
  909MPD2     C13361   2.390   1.855  11.821 -0.6415  0.3270  0.2013
  909MPD2    C113362   2.396   1.978  11.765 -0.2905 -0.0928  0.0523
  909MPD2    C213363   2.291   2.065  11.787  0.0473  0.5757 -0.5248
  909MPD2    C313364   2.185   2.031  11.864  0.0833 -0.5809  0.5953
  909MPD2    C413365   2.174   1.908  11.922  0.7533 -0.7577  0.0103
  909MPD2    C513366   2.288   1.828  11.899  0.2526  0.3447  0.1314
  909MPD2     H13367   2.294   2.165  11.747 -0.0574  1.8661  2.6929
  909MPD2    H113368   2.098   1.866  11.986  0.1828 -2.5970 -1.8822
  909MPD2    H213369   2.458   1.773  11.804 -2.1900 -1.1290  1.0451
  909MPD2    H313370   2.279   1.728  11.940 -0.4876  0.0123 -0.8326
  909MPD2     N13371   2.083   2.121  11.881  0.1188  0.6120 -0.3433
  909MPD2    H513372   2.083   2.199  11.816  2.1536 -0.1851 -1.2974
  909MPD2    N113373   2.517   2.025  11.712 -0.2951  0.4796  0.0928
  909MPD2    H713374   2.516   2.116  11.667  0.7921  0.3495 -0.1881
  910MPD2     C13375   4.080   4.088  16.133  0.0661  0.0976  0.3124
  910MPD2    C113376   4.103   4.001  16.022 -0.0789 -0.2600 -0.9222
  910MPD2    C213377   4.043   4.025  15.904  0.1962  0.1085 -0.5312
  910MPD2    C313378   3.952   4.126  15.895  0.7084 -0.1448  0.7466
  910MPD2    C413379   3.934   4.210  15.997  0.0710 -0.5113 -0.2888
  910MPD2    C513380   3.991   4.192  16.118  0.7825 -0.3838  0.2327
  910MPD2     H13381   4.068   3.970  15.814 -0.6136 -1.0351 -0.0627
  910MPD2    H113382   3.869   4.296  15.985 -0.2629 -0.6751  0.3736
  910MPD2    H213383   4.116   4.066  16.233 -0.4771  0.4132  0.5746
  910MPD2    H313384   3.969   4.259  16.200  1.2291 -0.0964  0.1181
  910MPD2     N13385   3.876   4.146  15.782  0.2999 -0.1696  0.3225
  910MPD2    H513386   3.818   4.230  15.781  0.0435 -0.3559 -0.3747
  910MPD2    N113387   4.199   3.894  16.027  0.0104 -0.0931 -1.0765
  910MPD2    H713388   4.209   3.824  15.954  1.9984 -0.2548 -0.6502
  911MPD2     C13389   1.780   4.273  16.260 -0.2718  0.0939 -0.3756
  911MPD2    C113390   1.852   4.384  16.272 -0.1592  0.5377 -0.0562
  911MPD2    C213391   1.803   4.507  16.235 -0.4741  0.4486  0.0562
  911MPD2    C313392   1.668   4.510  16.188  0.7315  0.5035  0.3563
  911MPD2    C413393   1.592   4.397  16.189 -0.1433 -0.1024  0.6822
  911MPD2    C513394   1.647   4.276  16.227  0.4909 -0.6722  0.3210
  911MPD2     H13395   1.859   4.599  16.243  0.0474  0.0633  0.8230
  911MPD2    H113396   1.485   4.397  16.172  0.0559  1.1640 -0.6003
  911MPD2    H213397   1.816   4.174  16.284 -0.4367  0.4407  1.2716
  911MPD2    H313398   1.584   4.189  16.224 -0.0494 -0.2484 -0.7416
  911MPD2     N13399   1.606   4.630  16.139  0.4651  0.9411 -0.5629
  911MPD2    H513400   1.507   4.626  16.116  0.1753 -1.2406  1.0871
  911MPD2    N113401   1.989   4.363  16.316  0.6007  0.4043  0.0345
  911MPD2    H713402   2.022   4.270  16.340  0.6701  0.3340 -0.3325
  912MPD2     C13403   1.072   4.695  15.541  0.4001 -0.1822  0.2087
  912MPD2    C113404   1.122   4.650  15.663  0.0766  0.1514 -0.3086
  912MPD2    C213405   1.078   4.532  15.714 -0.2647  0.1719  0.1868
  912MPD2    C313406   0.974   4.454  15.655  0.5246 -1.4273 -0.0834
  912MPD2    C413407   0.919   4.506  15.533  0.2756  0.2349  0.3408
  912MPD2    C513408   0.973   4.617  15.479 -0.3927 -0.0593  0.8916
  912MPD2     H13409   1.122   4.493  15.805  1.0488 -2.2854 -1.5132
  912MPD2    H113410   0.838   4.454  15.482  1.0884  2.5260 -3.2201
  912MPD2    H213411   1.110   0.048  15.499  0.8432 -0.3993  0.1391
  912MPD2    H313412   0.932   4.652  15.385  1.7934 -1.8198 -0.7138
  912MPD2     N13413   0.934   4.332  15.717 -0.5351  0.0007 -0.1408
  912MPD2    H513414   0.985   4.302  15.800 -0.0770  0.7601 -0.1422
  912MPD2    N113415   1.227   4.721  15.720 -0.7160  0.3456  0.9979
  912MPD2    H713416   1.250   0.072  15.679  0.4366 -0.7828 -0.8451
  913MPD2     C13417   1.456   0.330  10.796 -0.5371  0.4748  0.3508
  913MPD2    C113418   1.494   0.453  10.837 -0.4328 -0.2527  0.3516
  913MPD2    C213419   1.453   0.568  10.770  0.3927  0.0866 -0.1625
  913MPD2    C313420   1.390   0.553  10.647 -0.2899  0.1834 -0.7488
  913MPD2    C413421   1.361   0.428  10.596 -0.2317 -0.4716  0.0924
  913MPD2    C513422   1.391   0.324  10.677  0.2238 -0.3572 -0.9348
  913MPD2     H13423   1.486   0.668  10.797 -0.4649  1.0517 -2.7347
  913MPD2    H113424   1.303   0.413  10.506 -1.4439 -0.9541  0.9451
  913MPD2    H213425   1.485   0.235  10.841 -2.4368  0.1438  0.8607
  913MPD2    H313426   1.369   0.228  10.633  2.1485 -1.2458  0.0290
  913MPD2     N13427   1.331   0.659  10.581 -0.1193 -0.3813 -0.2516
  913MPD2    H513428   1.297   0.646  10.487 -0.9401  0.6382 -0.0913
  913MPD2    N113429   1.580   0.455  10.951 -0.3825 -0.1870  0.1483
  913MPD2    H713430   1.626   0.367  10.973  0.9901  0.1082 -1.6239
  914MPD2     C13431   0.003   1.012  12.019 -0.0577  0.0759 -0.0176
  914MPD2    C113432   4.731   1.077  12.139 -0.2325  0.4826  0.2542
  914MPD2    C213433   4.698   1.004  12.246 -0.6934 -0.3159 -0.0881
  914MPD2    C313434   4.661   0.869  12.243 -0.3432 -0.3164 -0.7571
  914MPD2    C413435   4.679   0.804  12.120  0.3021 -0.2022 -0.2036
  914MPD2    C513436   4.720   0.878  12.010 -0.6868  0.3057 -0.2552
  914MPD2     H13437   4.689   1.049  12.344  2.3352  2.0293 -0.8961
  914MPD2    H113438   4.656   0.700  12.106 -1.4795  0.4189 -1.8143
  914MPD2    H213439   0.012   1.066  11.926  0.4583  1.7339  1.0032
  914MPD2    H313440   4.729   0.827  11.914  1.7759 -0.0222  0.1633
  914MPD2     N13441   4.617   0.807  12.370 -0.2041  0.8075  0.0564
  914MPD2    H513442   4.621   0.869  12.449  2.2714 -0.9901  1.3570
  914MPD2    N113443   0.008   1.219  12.131  0.0778 -0.4500 -0.0997
  914MPD2    H713444   0.046   1.255  12.044 -2.7534 -1.0269 -1.5657
  915MPD2     C13445   3.000   1.309  15.635  0.2169 -0.9130  0.6404
  915MPD2    C113446   2.876   1.308  15.578 -0.1949  0.1043  0.5588
  915MPD2    C213447   2.765   1.379  15.632 -0.5098  0.6335  1.0805
  915MPD2    C313448   2.781   1.426  15.761 -0.0453  0.1488 -0.0365
  915MPD2    C413449   2.910   1.422  15.830  0.1812  0.3902 -0.2032
  915MPD2    C513450   3.015   1.374  15.759  0.0989  0.6075  0.5802
  915MPD2     H13451   2.665   1.371  15.592 -0.9315  0.4399  2.1538
  915MPD2    H113452   2.922   1.442  15.936 -0.3439 -1.8781  0.2914
  915MPD2    H213453   3.076   1.245  15.592  0.6863 -1.1903  1.8647
  915MPD2    H313454   3.105   1.353  15.815  0.7532 -2.9554 -1.8493
  915MPD2     N13455   2.672   1.487  15.826 -0.2345  0.2362  0.3404
  915MPD2    H513456   2.584   1.494  15.776  0.7223  0.1944 -1.3242
  915MPD2    N113457   2.862   1.222  15.463  0.1066  0.1381 -0.2367
  915MPD2    H713458   2.946   1.169  15.443 -0.7665 -0.9138 -1.1853
  916MPD2     C13459   1.241   4.238  15.572  0.0989  0.4398 -0.7269
  916MPD2    C113460   1.223   4.101  15.546  0.4177 -0.4425 -0.1577
  916MPD2    C213461   1.288   4.005  15.617 -0.6787 -0.0051 -0.5513
  916MPD2    C313462   1.396   4.046  15.698 -0.1422  1.0551  0.3665
  916MPD2    C413463   1.423   4.180  15.718  0.8741 -0.2919  0.4247
  916MPD2    C513464   1.346   4.275  15.655 -0.3814 -0.2892 -0.5761
  916MPD2     H13465   1.275   3.897  15.608 -1.5380  0.0617 -0.0647
  916MPD2    H113466   1.500   4.213  15.787 -0.7906 -0.3125  2.3095
  916MPD2    H213467   1.184   4.318  15.527 -0.3533  0.3492 -0.3125
  916MPD2    H313468   1.364   4.381  15.670  0.0829 -0.2684 -1.2803
  916MPD2     N13469   1.467   3.942  15.765 -0.0851  0.2785  0.0393
  916MPD2    H513470   1.444   3.845  15.746 -1.2858  0.1237  2.2615
  916MPD2    N113471   1.107   4.066  15.474 -0.2688  0.1888  0.4007
  916MPD2    H713472   1.032   4.134  15.466 -1.8171 -1.5823 -0.0675
  917MPD2     C13473   0.383   1.625  10.844 -0.8188 -0.6491  0.2785
  917MPD2    C113474   0.491   1.660  10.928 -0.2325 -0.6237  0.0702
  917MPD2    C213475   0.575   1.760  10.886  0.7656 -0.6401 -0.1745
  917MPD2    C313476   0.552   1.817  10.764 -0.3861  0.5068 -0.0779
  917MPD2    C413477   0.437   1.789  10.683  0.0230 -0.2948  1.0295
  917MPD2    C513478   0.353   1.686  10.720  0.1279 -0.2018  0.8872
  917MPD2     H13479   0.666   1.785  10.939  0.4927 -0.5517  0.2619
  917MPD2    H113480   0.416   1.853  10.599  0.3493  0.4006  1.4733
  917MPD2    H213481   0.315   1.544  10.865 -4.3929  2.3787  0.4559
  917MPD2    H313482   0.256   1.665  10.677  0.6547  0.3888 -0.6125
  917MPD2     N13483   0.636   1.915  10.708 -0.2604 -0.1787 -0.0090
  917MPD2    H513484   0.595   1.957  10.626  0.2936 -2.9334 -1.6838
  917MPD2    N113485   0.516   1.579  11.039  0.1223 -0.5404 -0.1948
  917MPD2    H713486   0.455   1.500  11.059  0.9619 -1.6286 -1.9930
  918MPD2     C13487   0.748   1.895  11.980  0.9281  0.1171  0.3300
  918MPD2    C113488   0.836   1.868  11.878  0.9503  0.1484  0.3637
  918MPD2    C213489   0.787   1.817  11.758  0.5320  0.9464 -0.0857
  918MPD2    C313490   0.657   1.781  11.744 -0.2683 -0.0599 -0.6724
  918MPD2    C413491   0.573   1.799  11.852  0.1286 -0.5364  0.2266
  918MPD2    C513492   0.613   1.856  11.965  0.4103 -0.3520  0.4157
  918MPD2     H13493   0.851   1.808  11.671 -0.1071  4.2393 -0.8954
  918MPD2    H113494   0.471   1.761  11.846 -0.9609  2.0210  2.6593
  918MPD2    H213495   0.783   1.942  12.071  1.2282 -0.8646  0.7260
  918MPD2    H313496   0.547   1.875  12.049 -1.0285  1.1325 -1.0494
  918MPD2     N13497   0.620   1.716  11.623 -0.7807  0.1029 -0.1912
  918MPD2    H513498   0.680   1.725  11.542  0.8533 -0.4892  0.9433
  918MPD2    N113499   0.977   1.897  11.890 -1.0944 -0.1982  0.2310
  918MPD2    H713500   1.036   1.880  11.810  1.3318 -0.7532  2.1598
  919MPD2     C13501   1.455   0.667  11.524  0.8331  0.2802  0.1869
  919MPD2    C113502   1.423   0.539  11.478 -0.7174  0.0008  0.6601
  919MPD2    C213503   1.379   0.527  11.350 -0.6504 -0.2490  0.2509
  919MPD2    C313504   1.349   0.640  11.279  0.7604  0.7640  0.0435
  919MPD2    C413505   1.390   0.765  11.324 -1.2077 -0.3650  0.2410
  919MPD2    C513506   1.440   0.779  11.453  0.0356  0.3910  0.4712
  919MPD2     H13507   1.336   0.435  11.312 -0.9382 -0.1250  0.2763
  919MPD2    H113508   1.371   0.853  11.263 -0.6047  0.9393  1.9277
  919MPD2    H213509   1.495   0.679  11.624  0.4928 -2.7466  0.7151
  919MPD2    H313510   1.470   0.877  11.489  1.2173  0.2590 -0.1449
  919MPD2     N13511   1.285   0.639  11.151  0.5220 -0.7464  0.4714
  919MPD2    H513512   1.280   0.729  11.103 -1.2714 -0.7976  0.5591
  919MPD2    N113513   1.427   0.439  11.574  0.5880  0.5993  0.3864
  919MPD2    H713514   1.465   0.472  11.663 -0.1865 -0.8371  1.2465
  920MPD2     C13515   0.764   1.160  10.494 -0.5919  0.5023  0.4597
  920MPD2    C113516   0.702   1.042  10.495 -0.2369 -0.4501  0.3484
  920MPD2    C213517   0.757   0.945  10.577 -0.3448  0.6237  0.6283
  920MPD2    C313518   0.872   0.962  10.649 -0.8804  0.1888 -0.0519
  920MPD2    C413519   0.928   1.091  10.650  0.4246  0.1640  0.1950
  920MPD2    C513520   0.868   1.188  10.573  0.0097  0.0802  0.2551
  920MPD2     H13521   0.695   0.855  10.583  0.6708 -0.0821  0.4787
  920MPD2    H113522   1.018   1.108  10.709  1.5485 -2.9716 -0.6069
  920MPD2    H213523   0.715   1.246  10.450  0.2349  1.1856  0.9002
  920MPD2    H313524   0.904   1.290  10.565 -3.1028  1.0404 -1.3214
  920MPD2     N13525   0.912   0.847  10.716  0.9694  0.0584 -0.0448
  920MPD2    H513526   0.857   0.765  10.693 -1.8473  1.7146  0.6507
  920MPD2    N113527   0.587   1.017  10.416  0.4269  0.1779  0.2465
  920MPD2    H713528   0.532   0.934  10.435  2.2701 -1.7052 -2.7253
  921MPD2     C13529   2.832   4.715  16.768  0.0240  0.0390  0.3871
  921MPD2    C113530   2.854   4.643  16.645 -0.2408 -0.9896  0.3071
  921MPD2    C213531   2.753   4.576  16.592  0.1644  0.2458  0.0456
  921MPD2    C313532   2.631   4.572  16.652  0.7146  0.4676  0.7678
  921MPD2    C413533   2.603   4.656  16.758  0.3762  0.2009 -0.1173
  921MPD2    C513534   2.704   4.725  16.814 -0.2823  0.3289 -0.1884
  921MPD2     H13535   2.775   4.531  16.496 -1.0737  0.7135 -0.4456
  921MPD2    H113536   2.502   4.668  16.794  0.3438  0.0072 -0.1459
  921MPD2    H213537   2.908   0.043  16.807  1.8941 -1.5167 -0.5172
  921MPD2    H313538   2.687   0.051  16.899 -0.6085  0.8332 -0.6335
  921MPD2     N13539   2.523   4.510  16.582 -0.0628  0.3725  0.7569
  921MPD2    H513540   2.432   4.530  16.624 -0.0248 -0.8914  1.4480
  921MPD2    N113541   2.978   4.638  16.583 -0.4177  0.5692 -0.4909
  921MPD2    H713542   2.976   4.611  16.485  0.4662  2.3666 -1.0166
  922MPD2     C13543   3.370   2.648  16.840 -0.2077 -0.6382  1.0241
  922MPD2    C113544   3.299   2.676  16.954  0.4660  0.0899 -0.3733
  922MPD2    C213545   3.227   2.575  17.016 -1.1299 -0.4983  0.2646
  922MPD2    C313546   3.229   2.444  16.963 -0.8959 -0.5114 -0.6218
  922MPD2    C413547   3.314   2.422  16.857 -0.1650  0.4134 -0.2049
  922MPD2    C513548   3.380   2.522  16.795 -0.0006  0.9346 -0.1930
  922MPD2     H13549   3.178   2.590  17.111  0.8768  1.6289  0.9795
  922MPD2    H113550   3.316   2.327  16.804 -0.9269 -0.3476  1.1169
  922MPD2    H213551   3.419   2.719  16.775 -1.8401 -1.2141 -0.8240
  922MPD2    H313552   3.409   2.511  16.691  2.1463  1.2056  0.3609
  922MPD2     N13553   3.151   2.344  17.025  0.1917  0.1901 -0.3647
  922MPD2    H513554   3.088   2.377  17.099 -0.8721 -3.4725  0.3426
  922MPD2    N113555   3.294   2.806  17.014 -1.1598  0.4565  0.2774
  922MPD2    H713556   3.286   2.809  17.115 -0.6329 -0.0170  0.3299
  923MPD2     C13557   3.257   4.154   9.034  1.1265  0.7500  0.1334
  923MPD2    C113558   3.217   4.191   9.160  0.4604 -0.1282 -0.3492
  923MPD2    C213559   3.309   4.253   9.240 -0.2990 -0.5643  0.6985
  923MPD2    C313560   3.440   4.284   9.199  0.1831 -0.0526  0.6350
  923MPD2    C413561   3.476   4.232   9.081  0.4002  0.1516 -0.1891
  923MPD2    C513562   3.385   4.176   8.994  0.4193 -0.6068 -0.1328
  923MPD2     H13563   3.283   4.278   9.342 -2.3082 -1.7969  0.4903
  923MPD2    H113564   3.579   4.247   9.049  0.1868  2.1380  0.0551
  923MPD2    H213565   3.193   4.116   8.955  0.4512  0.0791  0.9998
  923MPD2    H313566   3.407   4.144   8.893 -0.0158 -0.8750 -0.1438
  923MPD2     N13567   3.532   4.344   9.286  0.2457 -0.1098  0.1731
  923MPD2    H513568   3.626   4.334   9.250  0.5429  2.3244  0.3147
  923MPD2    N113569   3.077   4.176   9.193  0.9378  0.3089  0.0525
  923MPD2    H713570   3.018   4.149   9.114 -0.9854  0.3735  1.4556
  924MPD2     C13571   0.092   2.173  15.918  0.1572 -0.6239 -0.1600
  924MPD2    C113572   4.730   2.262  15.911  0.2750  0.4839 -0.6694
  924MPD2    C213573   0.023   2.395  15.925 -0.4249 -0.4965 -0.0493
  924MPD2    C313574   0.154   2.427  15.961  0.5423 -0.4943 -0.1960
  924MPD2    C413575   0.261   2.341  15.958 -1.1035 -0.2703 -0.1595
  924MPD2    C513576   0.223   2.210  15.927  0.1437 -0.0745 -0.7524
  924MPD2     H13577   4.695   2.480  15.920  1.6711  1.1543 -0.2733
  924MPD2    H113578   0.366   2.359  15.982 -1.1525 -0.3678  0.1257
  924MPD2    H213579   0.074   2.067  15.906 -1.5058 -0.0569 -2.6993
  924MPD2    H313580   0.298   2.131  15.928 -0.7553 -0.8954  1.8648
  924MPD2     N13581   0.189   2.554  15.997 -0.5689  0.0830 -0.3370
  924MPD2    H513582   0.287   2.565  16.023  0.1945  0.6720 -3.4475
  924MPD2    N113583   4.601   2.218  15.875  0.0355 -0.3834 -0.0100
  924MPD2    H713584   4.592   2.126  15.833 -2.5245  1.1445 -2.7496
  925MPD2     C13585   3.426   1.012  14.714  0.0540  0.4525 -0.1155
  925MPD2    C113586   3.378   0.883  14.677 -0.2693  0.1993  0.1418
  925MPD2    C213587   3.314   0.808  14.770  0.2522  0.5970  0.0741
  925MPD2    C313588   3.282   0.870  14.891 -0.7026  0.2344 -0.0467
  925MPD2    C413589   3.314   1.004  14.921  0.4850  0.5496 -0.3257
  925MPD2    C513590   3.390   1.072  14.829 -0.2287 -0.5029 -0.2440
  925MPD2     H13591   3.275   0.708  14.754  2.6737 -0.3375  0.0493
  925MPD2    H113592   3.289   1.052  15.014  3.2838 -0.1222  0.7741
  925MPD2    H213593   3.471   1.065  14.630  0.1038 -1.2569 -1.1635
  925MPD2    H313594   3.412   1.176  14.848 -1.3001 -0.6824  1.8910
  925MPD2     N13595   3.210   0.786  14.986  0.3034  0.4972  0.5049
  925MPD2    H513596   3.187   0.690  14.963  2.8320  0.2472 -1.0546
  925MPD2    N113597   3.403   0.817  14.551  0.1696  0.0993 -0.3489
  925MPD2    H713598   3.378   0.721  14.531  1.4788 -0.5171  0.9665
  926MPD2     C13599   2.483   3.674  13.460 -0.1929  0.1941 -0.0365
  926MPD2    C113600   2.369   3.694  13.387  0.0980  0.4359 -0.1512
  926MPD2    C213601   2.368   3.785  13.278  0.1510  0.3395  0.2990
  926MPD2    C313602   2.481   3.860  13.256  0.4988  0.1621 -0.0173
  926MPD2    C413603   2.595   3.837  13.332 -0.4080  0.7479  0.6646
  926MPD2    C513604   2.597   3.747  13.429  0.1114  0.2680  0.5965
  926MPD2     H13605   2.278   3.798  13.219  1.7254 -0.9155 -2.3491
  926MPD2    H113606   2.690   3.882  13.309 -0.3157  0.0889 -0.2417
  926MPD2    H213607   2.487   3.600  13.539  2.4865 -0.3651 -0.7079
  926MPD2    H313608   2.690   3.736  13.483  0.0711 -1.2281  0.3653
  926MPD2     N13609   2.492   3.970  13.166 -0.3837  0.6056 -0.2313
  926MPD2    H513610   2.582   4.017  13.159 -0.4074  0.1878 -3.2318
  926MPD2    N113611   2.246   3.622  13.408  0.4802 -0.3728  0.1086
  926MPD2    H713612   2.170   3.643  13.344 -0.2274 -1.1767  0.7057
  927MPD2     C13613   1.812   1.336  17.383  0.0896  0.1101 -0.2694
  927MPD2    C113614   1.889   1.221  17.384 -0.0053 -0.6747  0.0487
  927MPD2    C213615   1.977   1.203  17.274  0.0163 -0.3580 -0.3718
  927MPD2    C313616   1.987   1.290  17.172 -0.4971 -0.0415  0.0178
  927MPD2    C413617   1.900   1.398  17.168 -0.5867  0.3812 -0.2579
  927MPD2    C513618   1.825   1.423  17.275  0.1578 -0.0241 -0.6112
  927MPD2     H13619   2.040   1.115  17.264  0.0233 -0.3861 -0.0983
  927MPD2    H113620   1.884   1.475  17.094  1.4631  1.4305  0.3895
  927MPD2    H213621   1.730   1.359  17.451 -1.3353  0.1624 -1.9933
  927MPD2    H313622   1.753   1.504  17.271  1.4888  1.0796 -2.0584
  927MPD2     N13623   2.078   1.262  17.073  0.6619 -0.1958 -0.3055
  927MPD2    H513624   2.114   1.167  17.071 -1.4067 -0.9761 -0.4740
  927MPD2    N113625   1.878   1.126  17.490  0.1670 -0.1323  0.3644
  927MPD2    H713626   1.801   1.135  17.556 -0.6845 -0.0402 -0.6518
  928MPD2     C13627   0.118   3.969   1.120 -0.7278 -0.2090 -0.5809
  928MPD2    C113628   0.183   4.089   1.137  0.4892  0.1157 -0.0947
  928MPD2    C213629   0.213   4.164   1.026  0.0728  0.2095  0.2784
  928MPD2    C313630   0.175   4.120   0.902 -0.6535  0.1836  0.5673
  928MPD2    C413631   0.115   4.004   0.889  0.2743  0.5877 -0.0784
  928MPD2    C513632   0.082   3.923   0.994  0.2899  0.2620  0.1478
  928MPD2     H13633   0.259   4.262   1.036  1.3645 -0.2509 -1.1568
  928MPD2    H113634   0.080   3.975   0.791 -0.7983 -0.1427  0.5177
  928MPD2    H213635   0.096   3.907   1.206  0.9540 -1.1867 -0.8652
  928MPD2    H313636   0.031   3.830   0.976 -0.4638  0.3605  1.7493
  928MPD2     N13637   0.189   4.195   0.780  0.0267 -0.0816  0.5350
  928MPD2    H513638   0.138   4.157   0.701  2.6742 -0.4122 -1.0390
  928MPD2    N113639   0.221   4.131   1.268 -0.4674  0.1697 -0.2323
  928MPD2    H713640   0.197   4.071   1.346  0.2442 -0.5274 -0.5435
  929MPD2     C13641   3.618   4.087   9.655 -0.2677 -0.5299 -0.4120
  929MPD2    C113642   3.689   4.117   9.772 -0.4499 -0.1001  0.2706
  929MPD2    C213643   3.652   4.230   9.845  0.5299  0.5616 -0.4914
  929MPD2    C313644   3.542   4.304   9.803  0.1554  0.5592  0.4092
  929MPD2    C413645   3.474   4.272   9.692  0.3272  1.0941  0.0748
  929MPD2    C513646   3.511   4.161   9.618  0.4334  0.4816 -0.1145
  929MPD2     H13647   3.713   4.266   9.927 -1.0539 -0.4320  1.1087
  929MPD2    H113648   3.386   4.324   9.655 -1.4256 -0.9581  1.3671
  929MPD2    H213649   3.628   3.994   9.600 -0.9102 -0.9478  0.1742
  929MPD2    H313650   3.454   4.123   9.533 -0.0466  0.3406  0.2709
  929MPD2     N13651   3.485   4.402   9.883 -0.2470 -0.6854 -0.6677
  929MPD2    H513652   3.395   4.437   9.852  0.8950  1.4251 -1.6364
  929MPD2    N113653   3.791   4.024   9.814 -0.1911 -0.0340  0.0958
  929MPD2    H713654   3.811   3.941   9.759 -0.4796 -0.6080  0.8633
  930MPD2     C13655   1.966   1.377  13.790 -0.1543 -0.0863  0.7549
  930MPD2    C113656   1.922   1.427  13.671  0.7934  0.2150  0.2366
  930MPD2    C213657   1.816   1.359  13.606  0.4469  0.0153  0.2228
  930MPD2    C313658   1.765   1.245  13.661  0.2701  0.5830 -0.6151
  930MPD2    C413659   1.823   1.194  13.772  0.1726 -0.4036  0.0914
  930MPD2    C513660   1.921   1.261  13.837  0.2672 -0.1952 -0.4530
  930MPD2     H13661   1.785   1.374  13.503 -0.4936 -0.4318  0.4342
  930MPD2    H113662   1.791   1.093  13.796 -0.3140 -0.6308 -1.4774
  930MPD2    H213663   2.040   1.432  13.847  2.0630 -1.7727 -0.4832
  930MPD2    H313664   1.961   1.213  13.925  0.5694 -1.1446 -1.1000
  930MPD2     N13665   1.664   1.173  13.596  1.0113 -0.0270 -0.1222
  930MPD2    H513666   1.645   1.074  13.613  3.5547 -0.2634  1.4362
  930MPD2    N113667   1.979   1.536  13.605 -0.2059 -0.1548  0.1752
  930MPD2    H713668   2.041   1.596  13.657  0.5776 -0.7670 -0.0578
  931MPD2     C13669   2.182   0.395  17.485 -0.4433 -0.0819 -0.4191
  931MPD2    C113670   2.141   0.437  17.609  0.2049  0.5668  0.0526
  931MPD2    C213671   2.201   0.371  17.720  0.1858 -0.6101 -0.6841
  931MPD2    C313672   2.296   0.271  17.712  0.0257  0.3596 -0.3628
  931MPD2    C413673   2.321   0.223  17.577 -0.0331 -0.1186 -0.1786
  931MPD2    C513674   2.254   0.283  17.472  0.0847  0.5246  0.0658
  931MPD2     H13675   2.187   0.414   0.064 -1.9294 -0.5508 -1.0137
  931MPD2    H113676   2.380   0.137  17.551  2.7534  1.4316  0.9694
  931MPD2    H213677   2.147   0.442  17.394  0.2630  1.2698  0.0003
  931MPD2    H313678   2.276   0.238  17.376 -0.4269  2.9323 -1.1897
  931MPD2     N13679   2.373   0.224   0.069 -0.3029 -0.2879  0.2256
  931MPD2    H513680   2.455   0.170   0.043  0.4256  1.1071 -0.3850
  931MPD2    N113681   2.051   0.544  17.629  0.0600  0.4820 -0.3290
  931MPD2    H713682   2.035   0.599  17.545  0.8970  0.0375 -0.7710
  932MPD2     C13683   3.052   0.544  11.790  0.4192  0.0778  0.1678
  932MPD2    C113684   3.180   0.546  11.851  0.3367 -0.1378 -0.0088
  932MPD2    C213685   3.241   0.424  11.865  0.0213 -0.4912 -0.1302
  932MPD2    C313686   3.190   0.301  11.826  0.8544 -0.1667 -0.2802
  932MPD2    C413687   3.065   0.304  11.765  0.0915 -0.0274 -0.1321
  932MPD2    C513688   3.001   0.420  11.754 -0.4040 -0.0473  0.5149
  932MPD2     H13689   3.337   0.419  11.916  0.8047  1.5474 -1.4337
  932MPD2    H113690   3.020   0.213  11.726 -1.3111 -0.1090  1.7188
  932MPD2    H213691   2.982   0.625  11.774 -0.2384 -0.7710 -1.2123
  932MPD2    H313692   2.899   0.416  11.719 -0.0765 -0.6057 -0.3699
  932MPD2     N13693   3.251   0.171  11.852 -0.2086  0.6620  0.2928
  932MPD2    H513694   3.190   0.092  11.830  1.2077 -0.8209  1.6567
  932MPD2    N113695   3.245   0.664  11.898 -0.1404 -0.5571 -0.2274
  932MPD2    H713696   3.341   0.664  11.932  0.3244 -0.9867 -1.5563
  933MPD2     C13697   4.553   4.583   1.880 -0.0236 -0.2303  1.1060
  933MPD2    C113698   4.585   4.545   1.745  0.1803  0.3450 -0.3135
  933MPD2    C213699   4.494   4.571   1.646  0.0446 -0.2714 -0.7454
  933MPD2    C313700   4.388   4.656   1.663  0.3065 -0.0756 -0.3869
  933MPD2    C413701   4.366   4.704   1.793 -0.2762 -0.5420  0.0581
  933MPD2    C513702   4.450   4.665   1.896  0.8842 -0.0036 -0.5307
  933MPD2     H13703   4.511   4.536   1.544  0.1342  1.8843 -1.4766
  933MPD2    H113704   4.286   0.034   1.816 -0.5129  0.0578 -2.6421
  933MPD2    H213705   4.604   4.544   1.967  1.2096 -1.1273  0.0013
  933MPD2    H313706   4.420   4.702   1.994  2.6981 -0.1246  0.0654
  933MPD2     N13707   4.308   4.690   1.550  0.0499  0.5071  0.0606
  933MPD2    H513708   4.333   4.639   1.466  1.8100  0.2211  0.7620
  933MPD2    N113709   4.703   4.467   1.730  0.6546 -0.1455 -0.8102
  933MPD2    H713710   0.026   4.454   1.809 -1.9649  2.2835  1.6286
  934MPD2     C13711   1.078   2.427   1.472  0.2639  0.6053 -0.0146
  934MPD2    C113712   1.122   2.395   1.348 -0.2726 -0.0050 -0.1626
  934MPD2    C213713   1.034   2.334   1.258 -0.3068 -0.2528 -0.4352
  934MPD2    C313714   0.904   2.307   1.295  0.0187 -0.7948  0.4289
  934MPD2    C413715   0.858   2.355   1.414 -0.2167 -0.0008 -0.0922
  934MPD2    C513716   0.950   2.402   1.504  0.2386  0.6201 -0.5058
  934MPD2     H13717   1.077   2.311   1.162  0.8412  0.4938 -0.0981
  934MPD2    H113718   0.760   2.337   1.455 -0.8285 -0.9065 -1.9539
  934MPD2    H213719   1.144   2.478   1.541  1.4280 -0.7265 -0.1321
  934MPD2    H313720   0.936   2.429   1.608 -2.0467  2.5295 -1.2857
  934MPD2     N13721   0.806   2.247   1.212  0.2424 -0.4324  1.0226
  934MPD2    H513722   0.710   2.234   1.240  0.0731 -0.3568  0.4878
  934MPD2    N113723   1.253   2.416   1.306 -0.5049 -0.0490  0.2086
  934MPD2    H713724   1.274   2.375   1.216  1.0171  2.1872 -0.4587
  935MPD2     C13725   1.035   1.616   0.517  0.5048 -0.8077 -0.1731
  935MPD2    C113726   0.930   1.586   0.601 -0.0484 -0.2472  0.1841
  935MPD2    C213727   0.847   1.688   0.645  0.3034  0.3596 -0.5386
  935MPD2    C313728   0.867   1.819   0.620  0.2495 -1.3071  0.2016
  935MPD2    C413729   0.984   1.850   0.540  0.2013  0.0982 -0.2248
  935MPD2    C513730   1.059   1.748   0.486  0.1304  0.9183  0.7900
  935MPD2     H13731   0.760   1.659   0.704  1.2870  0.8621  1.1645
  935MPD2    H113732   1.022   1.949   0.517 -0.2502  0.0087 -1.3506
  935MPD2    H213733   1.095   1.543   0.465  2.1161 -0.7144  1.5341
  935MPD2    H313734   1.143   1.760   0.419 -1.1663 -0.4616 -1.0932
  935MPD2     N13735   0.787   1.926   0.674 -0.2044 -0.5132  0.8882
  935MPD2    H513736   0.821   2.020   0.659  0.1422 -0.8848 -0.6156
  935MPD2    N113737   0.900   1.454   0.647 -0.0903 -0.2071  0.5004
  935MPD2    H713738   0.834   1.444   0.723 -0.9088  1.4418  0.0194
  936MPD2     C13739   4.160   3.947  12.577  0.1384 -0.5163  0.2752
  936MPD2    C113740   4.113   3.851  12.665 -0.7705  0.2280  0.4049
  936MPD2    C213741   4.135   3.883  12.798 -0.2883 -0.8328 -0.1606
  936MPD2    C313742   4.228   3.981  12.835 -0.1340 -0.1381 -0.6566
  936MPD2    C413743   4.283   4.056  12.738 -0.1473 -0.0680 -0.4249
  936MPD2    C513744   4.241   4.044  12.614 -0.7201 -0.1962 -0.7574
  936MPD2     H13745   4.106   3.804  12.867 -1.6177  0.8185  1.1971
  936MPD2    H113746   4.354   4.135  12.758 -2.5660  1.6426  1.5588
  936MPD2    H213747   4.137   3.937  12.472 -0.0728 -0.3498  0.3047
  936MPD2    H313748   4.268   4.113  12.534 -2.7465  0.3838 -0.9515
  936MPD2     N13749   4.309   3.968  12.950 -0.4482 -0.1694 -0.1704
  936MPD2    H513750   4.400   4.014  12.947 -1.7706  2.5271  0.8833
  936MPD2    N113751   4.048   3.732  12.632  0.1688  0.1426 -0.1604
  936MPD2    H713752   4.007   3.680  12.710 -1.4623  1.3615 -0.2142
  937MPD2     C13753   1.942   4.652  11.809  0.0432 -0.6527 -0.5534
  937MPD2    C113754   1.891   0.035  11.763 -0.1075  0.0808 -0.1537
  937MPD2    C213755   1.967   0.117  11.684 -0.1827 -0.3030  0.5316
  937MPD2    C313756   2.102   0.095  11.669  0.2209 -0.1768 -0.0661
  937MPD2    C413757   2.157   4.716  11.719  0.0523 -0.2068 -0.3582
  937MPD2    C513758   2.072   4.623  11.776  0.1255 -0.3509  1.2209
  937MPD2     H13759   1.919   0.203  11.639  1.6037 -0.1906 -1.1540
  937MPD2    H113760   2.261   4.684  11.721 -0.2755 -1.4193 -3.1542
  937MPD2    H213761   1.889   4.582  11.872 -1.1597 -0.8960 -1.8307
  937MPD2    H313762   2.109   4.525  11.801  0.5036 -1.0698 -2.0538
  937MPD2     N13763   2.172   0.183  11.586 -0.3895  0.2592 -0.0226
  937MPD2    H513764   2.122   0.243  11.521 -3.0729 -0.5558  1.2920
  937MPD2    N113765   1.754   0.049  11.749 -0.1726  0.1098 -0.1825
  937MPD2    H713766   1.723   0.137  11.709  0.8113 -0.3526 -1.9516
  938MPD2     C13767   4.519   1.431   0.449 -0.5960  0.1867 -0.3947
  938MPD2    C113768   4.595   1.523   0.516 -0.3768 -0.4665  0.2703
  938MPD2    C213769   4.666   1.491   0.636 -0.0987  0.2768 -0.3437
  938MPD2    C313770   4.670   1.356   0.669 -0.0435  0.4363  0.0422
  938MPD2    C413771   4.593   1.263   0.607 -0.4538  0.5079  0.0807
  938MPD2    C513772   4.511   1.302   0.505 -0.2038 -0.5206  0.3094
  938MPD2     H13773   4.721   1.571   0.684 -1.4820  0.9453  0.1289
  938MPD2    H113774   4.589   1.155   0.616  1.7860  0.4594  0.4877
  938MPD2    H213775   4.471   1.450   0.353 -1.9922 -0.9504  0.0742
  938MPD2    H313776   4.474   1.219   0.446 -1.0724  1.0747 -1.3725
  938MPD2     N13777   4.733   1.315   0.787  0.3315 -0.2817 -0.0692
  938MPD2    H513778   4.710   1.219   0.812  0.7999 -0.0056  1.3908
  938MPD2    N113779   4.610   1.654   0.470 -0.9338 -0.4802 -0.1917
  938MPD2    H713780   4.635   1.722   0.542 -0.6785 -1.4077  0.5891
  939MPD2     C13781   1.104   2.986   0.361  0.2581  0.2949 -0.7748
  939MPD2    C113782   1.022   2.895   0.427  0.4583 -0.2625 -0.2157
  939MPD2    C213783   1.007   2.773   0.364  0.1647 -0.2343  1.0325
  939MPD2    C313784   1.039   2.760   0.225 -0.5852  0.0026 -0.4425
  939MPD2    C413785   1.100   2.858   0.161 -0.3093  0.1376 -0.4446
  939MPD2    C513786   1.128   2.971   0.231 -0.7004 -0.1199  0.2900
  939MPD2     H13787   0.952   2.692   0.411 -1.0956 -0.8313 -1.4593
  939MPD2    H113788   1.137   2.861   0.059 -0.8929  0.2654 -0.6520
  939MPD2    H213789   1.134   3.084   0.397  1.2284 -0.4090  0.3212
  939MPD2    H313790   1.180   3.049   0.177 -1.8231  1.1131  0.9853
  939MPD2     N13791   1.021   2.632   0.173 -0.3965 -0.4979  0.0336
  939MPD2    H513792   0.972   2.564   0.230  0.5388 -1.4235 -0.2557
  939MPD2    N113793   0.993   2.907   0.561  0.0439 -0.0032 -0.5807
  939MPD2    H713794   0.941   2.830   0.602 -0.4665 -0.0385 -1.2945
  940MPD2     C13795   0.243   3.412  13.267 -0.2178  0.1545 -0.2304
  940MPD2    C113796   0.175   3.295  13.236  0.2724 -0.1828 -0.2749
  940MPD2    C213797   0.104   3.282  13.119 -0.4127  0.0348  0.3439
  940MPD2    C313798   0.092   3.391  13.030 -0.9029 -0.0021 -0.7332
  940MPD2    C413799   0.162   3.508  13.056 -0.3688 -0.0685  0.1099
  940MPD2    C513800   0.238   3.514  13.170  0.1549 -0.7935 -0.4340
  940MPD2     H13801   0.053   3.188  13.100 -0.3052  0.3818 -1.6469
  940MPD2    H113802   0.158   3.590  12.985  0.6263  0.4693  0.6831
  940MPD2    H213803   0.314   3.429  13.346  0.7981 -2.2060 -0.6519
  940MPD2    H313804   0.309   3.595  13.183 -2.6024  1.3795  1.1878
  940MPD2     N13805   0.018   3.398  12.913 -0.6122 -0.7297 -0.1281
  940MPD2    H513806   0.006   3.491  12.873  1.6213 -0.6434 -0.5822
  940MPD2    N113807   0.196   3.172  13.297 -0.1588 -0.6944  0.2775
  940MPD2    H713808   0.152   3.087  13.264 -0.3541  0.1344 -1.5383
  941MPD2     C13809   2.896   2.626  10.001  0.3427 -0.9394 -0.4450
  941MPD2    C113810   2.982   2.524  10.026 -0.4897  0.4725  0.1585
  941MPD2    C213811   2.935   2.418  10.102 -0.5060 -0.4255 -0.2920
  941MPD2    C313812   2.795   2.411  10.134  0.6822 -0.5107  0.6328
  941MPD2    C413813   2.707   2.512  10.103 -0.4628  0.6040 -0.0136
  941MPD2    C513814   2.758   2.617  10.033 -0.5143 -0.1171  0.1340
  941MPD2     H13815   3.001   2.333  10.110 -0.4063 -0.1936  1.3229
  941MPD2    H113816   2.601   2.517  10.124 -0.4260  1.9288 -0.1047
  941MPD2    H213817   2.926   2.721   9.957 -1.1021  0.2490  1.0993
  941MPD2    H313818   2.697   2.703  10.009 -0.3127 -0.6680 -2.3631
  941MPD2     N13819   2.736   2.308  10.205  0.4014 -0.0610 -0.2414
  941MPD2    H513820   2.637   2.324  10.221  0.7838  0.5108  1.4750
  941MPD2    N113821   3.119   2.533   9.987  0.0623  0.0288 -0.8271
  941MPD2    H713822   3.179   2.460  10.026 -1.7395 -0.3658  1.2139
  942MPD2     C13823   2.655   3.902   9.476 -0.2181  0.4357  0.3049
  942MPD2    C113824   2.642   3.859   9.347  0.0205 -0.3203 -0.5503
  942MPD2    C213825   2.758   3.826   9.280 -0.3693  0.5477 -0.0584
  942MPD2    C313826   2.882   3.845   9.334 -0.2405  0.2237  0.1756
  942MPD2    C413827   2.891   3.900   9.464 -0.0967  0.2015 -0.3179
  942MPD2    C513828   2.777   3.921   9.525  0.0234 -0.0554 -0.4612
  942MPD2     H13829   2.743   3.780   9.183 -1.7020 -0.7155  0.7354
  942MPD2    H113830   2.986   3.920   9.511  0.6791  1.3687 -2.3930
  942MPD2    H213831   2.569   3.934   9.533 -0.5476 -2.1369  1.2482
  942MPD2    H313832   2.778   3.964   9.625  0.2317 -2.6716  0.6589
  942MPD2     N13833   3.002   3.819   9.262  0.1635  0.0944  0.9400
  942MPD2    H513834   3.087   3.835   9.315  0.4471 -0.2174  0.5743
  942MPD2    N113835   2.513   3.837   9.283 -0.0395 -0.2304  0.1020
  942MPD2    H713836   2.511   3.807   9.186  2.0572 -1.3017  0.3758
  943MPD2     C13837   1.689   2.108   9.446  0.4178 -0.4348  0.3612
  943MPD2    C113838   1.681   2.044   9.574 -0.9456  0.1207  0.5490
  943MPD2    C213839   1.772   2.080   9.673  0.4596  0.0180  0.2091
  943MPD2    C313840   1.868   2.181   9.653  0.8853  1.0620 -0.0303
  943MPD2    C413841   1.872   2.241   9.534 -0.0599  0.6536  0.2007
  943MPD2    C513842   1.794   2.197   9.433 -0.1121  0.0431 -0.2356
  943MPD2     H13843   1.758   2.051   9.777  0.5073  0.2433  0.2784
  943MPD2    H113844   1.943   2.319   9.509 -0.1174  0.6088 -0.0989
  943MPD2    H213845   1.634   2.083   9.356  0.0033  1.5224  0.0700
  943MPD2    H313846   1.810   2.244   9.337 -1.8417  2.0290  0.4236
  943MPD2     N13847   1.952   2.227   9.758 -0.2969  0.0387  0.5475
  943MPD2    H513848   2.011   2.307   9.737 -0.5484  0.3142  0.8956
  943MPD2    N113849   1.585   1.948   9.595  0.3030 -0.4321  0.5020
  943MPD2    H713850   1.528   1.917   9.517  1.1673 -0.9043  0.0607
  944MPD2     C13851   2.530   1.675  11.377  0.2799  0.1115 -0.4225
  944MPD2    C113852   2.399   1.657  11.399 -0.0923 -0.6477 -0.2585
  944MPD2    C213853   2.312   1.761  11.413  0.4939  0.3115  0.8822
  944MPD2    C313854   2.361   1.890  11.409  0.0681 -0.1874  0.0024
  944MPD2    C413855   2.493   1.907  11.372 -0.0516 -0.5094  0.7306
  944MPD2    C513856   2.574   1.798  11.366 -0.0867  0.3563  0.0752
  944MPD2     H13857   2.205   1.752  11.429  0.4357  2.0739  1.4542
  944MPD2    H113858   2.525   2.006  11.343  0.1349 -0.9972 -0.7046
  944MPD2    H213859   2.598   1.596  11.347 -0.0280  0.2234 -1.3862
  944MPD2    H313860   2.675   1.810  11.330  0.6851 -3.1317  1.0094
  944MPD2     N13861   2.275   1.993  11.430 -0.1357 -0.0527  0.1835
  944MPD2    H513862   2.194   1.965  11.484 -0.1761  0.1997  0.2570
  944MPD2    N113863   2.350   1.525  11.377  0.2949  0.2724  0.1247
  944MPD2    H713864   2.419   1.456  11.348 -1.7656 -1.8842  0.2739
    1TMC1    C113865   1.056   3.431  15.442 -0.1242 -0.5514  0.5590
    1TMC1    C213866   1.137   3.439  15.332 -1.0395  0.9073 -0.9149
    1TMC1    C313867   1.251   3.503  15.342 -0.4791 -0.1885  0.1810
    1TMC1    C413868   1.084   3.484  15.564  0.2317  0.2508  0.1486
    1TMC1    C513869   1.208   3.545  15.569  0.2292 -0.7371  0.2029
    1TMC1    C613870   1.290   3.552  15.462  0.2737  0.1625 -0.0501
    1TMC1     C13871   0.938   3.348  15.429 -0.1488 -0.2245 -0.0439
    1TMC1     O13872   0.897   3.301  15.537 -0.3423 -0.1411  0.3539
    1TMC1     H13873   1.118   3.389  15.237  2.0440  0.6990 -1.4165
    1TMC1    H113874   1.030   3.465  15.656  0.4110 -0.6301  0.0660
    1TMC1    H213875   1.393   3.584  15.470  0.5000 -0.8869  1.2462
    1TMC1    C713876   1.254   3.605  15.699  0.0642  0.2241 -0.1291
    1TMC1    C813877   1.356   3.463  15.258  0.1823 -0.8693  1.0270
    1TMC1    O113878   1.369   3.636  15.732  0.1345 -0.2881  0.1337
    1TMC1    O213879   1.357   3.364  15.187 -0.9248 -0.6183  0.4362
    1TMC1    O313880   1.148   3.668  15.760 -0.1541 -0.0651 -0.0646
    1TMC1    H313881   1.061   3.641  15.722 -0.4841  0.9345 -0.0285
    1TMC1    O513882   1.448   3.560  15.253  0.2485  0.6674  0.1103
    1TMC1    H513883   1.414   3.641  15.298 -2.0087  0.9433 -2.0908
    2MPD2     C13884   0.603   3.044  15.152 -0.3994  0.4518 -0.1078
    2MPD2    C113885   0.675   3.114  15.061 -0.0655  0.2185 -0.7634
    2MPD2    C213886   0.765   3.203  15.121  0.0043  0.1034  0.6966
    2MPD2    C313887   0.793   3.218  15.257 -0.4493  0.1734  0.5805
    2MPD2    C413888   0.716   3.135  15.337 -0.4775  0.3324 -0.2946
    2MPD2    C513889   0.621   3.051  15.286 -1.1204  0.5280 -0.2162
    2MPD2     H13890   0.829   3.261  15.056  1.2553  0.8842  2.6449
    2MPD2    H113891   0.725   3.133  15.445 -0.9592 -0.6396 -0.2710
    2MPD2    H213892   0.527   2.980  15.109  0.5208 -0.4469 -0.4014
    2MPD2    H313893   0.562   2.995  15.359  0.0684  1.5318  1.5012
    2MPD2     N13894   0.903   3.307  15.294  0.4416  0.0645 -0.1157
    2MPD2    H513895   0.954   3.344  15.215  1.6685  0.5880  0.9191
    2MPD2    N113896   0.641   3.102  14.925  0.4139 -0.0485 -0.0542
    2MPD2    H713897   0.564   3.041  14.899  1.5695 -1.6251  0.2117
    3TMC2    C113898   0.648   3.186  14.695 -0.2123  0.1573  0.0342
    3TMC2    C213899   0.557   3.089  14.659 -0.7291 -0.0536 -0.1794
    3TMC2    C313900   0.485   3.114  14.546 -0.2012 -0.7081  0.9987
    3TMC2    C413901   0.674   3.298  14.618 -0.2377 -0.0779 -0.4226
    3TMC2    C513902   0.603   3.318  14.508 -0.7312 -0.1612  0.3661
    3TMC2    C613903   0.502   3.228  14.467 -0.5182 -0.6737 -0.0336
    3TMC2     C13904   0.707   3.180  14.825  0.3814 -0.3434 -0.4618
    3TMC2     O13905   0.808   3.250  14.841 -0.4102 -0.0600  0.2649
    3TMC2     H13906   0.547   2.992  14.707  1.3199  1.2161  2.8623
    3TMC2    H113907   0.725   3.383  14.663 -1.7369  1.1400 -1.0108
    3TMC2    H213908   0.460   3.233  14.368  0.6516  0.3216 -0.4775
    3TMC2    C713909   0.638   3.430  14.423 -0.3015  0.6239 -0.5783
    3TMC2    C813910   0.413   2.999  14.491  0.3783  0.7295  0.1011
    3TMC2    O113911   0.719   3.508  14.467  0.0182  0.2395  0.1201
    3TMC2    O213912   0.443   2.882  14.517  0.4958 -0.0865  0.4685
    3TMC2    O513913   0.288   3.035  14.466 -0.3268  0.3259  0.1008
    3TMC2    H513914   0.274   3.132  14.456 -2.0280 -0.2012 -2.4778
    4TMC2    C113915   0.038   3.558  13.610 -0.3663  0.0843 -0.4550
    4TMC2    C213916   0.067   3.667  13.527 -0.2955 -0.4462  0.4336
    4TMC2    C313917   0.177   3.739  13.554  0.0473 -0.4177  0.4784
    4TMC2    C413918   0.121   3.515  13.713  0.0069  0.3202  0.3829
    4TMC2    C513919   0.227   3.597  13.741 -0.2901 -0.4443 -0.1814
    4TMC2    C613920   0.268   3.706  13.655 -0.3055  0.1910 -0.4151
    4TMC2     C13921   4.698   3.452  13.558  1.0668 -0.4142 -0.8399
    4TMC2     O13922   0.012   3.339  13.572  0.1697  0.1525 -0.2080
    4TMC2     H13923   0.009   3.678  13.436 -1.5981 -0.0355  1.3191
    4TMC2    H113924   0.097   3.430  13.775 -2.1981 -0.6827 -1.8803
    4TMC2    H213925   0.354   3.769  13.673 -0.2150 -0.0497  0.0010
    4TMC2    C713926   0.290   3.570  13.870 -0.2465  0.0427  0.3360
    4TMC2    C813927   0.235   3.796  13.436 -0.0517 -0.3586  0.3131
    4TMC2    O113928   0.233   3.501  13.953 -0.3465  0.0046 -0.5689
    4TMC2    O213929   0.154   3.826  13.352  0.4338 -0.5866  0.7951
    4TMC2    O513930   0.341   3.709  13.423  0.2634 -0.4613 -0.3703
    4TMC2    H513931   0.415   3.713  13.488  0.1626  1.3200 -0.3583
    5MPD2     C13932   4.253   3.241  13.375  0.3633 -0.4183 -0.4730
    5MPD2    C113933   4.245   3.379  13.375  0.0850 -0.2301  0.1494
    5MPD2    C213934   4.350   3.454  13.429  0.3289  0.2223  0.0271
    5MPD2    C313935   4.470   3.395  13.464  0.4322  0.3960 -0.0826
    5MPD2    C413936   4.466   3.258  13.478  0.7287 -0.0510 -0.1932
    5MPD2    C513937   4.360   3.180  13.434 -0.2805  0.0183  0.2460
    5MPD2     H13938   4.340   3.562  13.430  1.7670  0.4101 -4.0162
    5MPD2    H113939   4.557   3.209  13.510  2.3210  1.0898 -2.9599
    5MPD2    H213940   4.170   3.184  13.334  0.7419 -0.4086 -1.2592
    5MPD2    H313941   4.378   3.074  13.433  1.8431  0.3583  2.0623
    5MPD2     N13942   4.574   3.482  13.507  0.3288  0.5597  0.2974
    5MPD2    H513943   4.548   3.580  13.503 -1.9301 -0.0580 -0.2011
    5MPD2    N113944   4.135   3.436  13.312 -0.0904 -0.1169  0.4829
    5MPD2    H713945   4.067   3.372  13.271  0.7502 -1.9995  1.9829
    6MPD1     C13946   3.531   0.347  12.703 -0.1044  0.6268 -0.1760
    6MPD1    C113947   3.468   0.253  12.622  1.1007 -0.0226  0.5221
    6MPD1    C213948   3.507   0.120  12.618 -0.3052 -0.8109  0.0341
    6MPD1    C313949   3.603   0.076  12.709  1.0156  0.1412  0.5012
    6MPD1    C413950   3.637   0.166  12.807 -0.6761 -0.2182 -0.4925
    6MPD1    C513951   3.609   0.297  12.803 -0.1895  0.3051  0.6116
    6MPD1     H13952   3.474   0.050  12.542 -0.2824 -1.3353  0.5034
    6MPD1    H113953   3.703   0.132  12.886 -0.2896 -1.1754 -1.2310
    6MPD1    H213954   3.502   0.451  12.694 -0.5734  0.5245  0.1737
    6MPD1    H313955   3.648   0.363  12.880  2.8842  0.6027 -1.1898
    6MPD1     N13956   3.658   4.683  12.717 -0.1257  0.3475  0.6697
    6MPD1    H513957   3.735   4.673  12.782  0.5629  0.8447 -0.0683
    6MPD1    N113958   3.403   0.292  12.510  0.4868 -0.0324  0.7958
    6MPD1    H613959   3.338   0.224  12.470 -0.5454  1.8903 -0.8471
    6MPD1    H713960   3.341   0.368  12.537  0.1162  0.6937 -2.0462
    7MPD2     C13961   4.045   4.315  13.175 -0.2927 -0.0535 -0.2876
    7MPD2    C113962   3.980   4.229  13.083 -0.8724 -0.6992  0.2237
    7MPD2    C213963   3.944   4.104  13.121 -0.9352 -0.2932  0.2094
    7MPD2    C313964   3.966   4.061  13.247  0.1339  0.1515 -0.1783
    7MPD2    C413965   4.033   4.131  13.337 -0.3475 -0.5518 -0.7822
    7MPD2    C513966   4.066   4.262  13.306  0.5313 -0.2133 -0.2938
    7MPD2     H13967   3.909   4.025  13.056  0.5249 -0.8811  0.1356
    7MPD2    H113968   4.064   4.094  13.434  0.7040  0.7376 -0.6204
    7MPD2    H213969   4.091   4.407  13.142 -0.0354  0.1563  0.6646
    7MPD2    H313970   4.129   4.309  13.381  1.3694 -1.4207 -0.2507
    7MPD2     N13971   3.913   3.941  13.291 -0.3681  0.0603  0.1813
    7MPD2    H513972   3.943   3.906  13.381 -0.5723 -4.0922 -1.3517
    7MPD2    N113973   3.940   4.264  12.952  0.0775  0.8332  0.3346
    7MPD2    H713974   3.879   4.197  12.906 -1.3045  2.1340  0.2885
    8TMC3    C113975   3.794   3.742  13.247 -0.0072 -0.2185  0.5943
    8TMC3    C213976   3.897   3.687  13.320 -0.7616  0.3952 -0.5765
    8TMC3    C313977   3.966   3.588  13.265 -0.0214 -0.3254 -0.3437
    8TMC3    C413978   3.751   3.676  13.136  0.0543 -0.1153 -0.0367
    8TMC3    C513979   3.836   3.586  13.078 -0.4639  0.0685  0.8206
    8TMC3    C613980   3.950   3.546  13.139 -0.4497 -0.9274  0.1761
    8TMC3     C13981   3.806   3.882  13.223 -0.2872  0.1626 -0.5373
    8TMC3     O13982   3.725   3.922  13.139  0.2598  0.1799 -0.1344
    8TMC3     H13983   3.936   3.739  13.406 -3.0677 -2.3795  2.1512
    8TMC3    H113984   3.657   3.715  13.096  1.2675  2.6946 -0.1596
    8TMC3    H213985   4.011   3.475  13.084  0.7743 -0.8087  1.4096
    8TMC3    C713986   3.845   3.575  12.934 -0.7708  0.9083 -0.5370
    8TMC3    C813987   4.097   3.564  13.327 -0.2069 -0.0724 -0.4229
    8TMC3    O113988   3.956   3.585  12.880  0.5269  0.0176  0.1580
    8TMC3    O213989   4.137   3.655  13.398 -0.4612  0.1570 -0.2542
    9TMC3    C113990   3.709   4.465  12.663  0.3258  0.0714  0.1039
    9TMC3    C213991   3.676   4.348  12.598  0.1903  0.1033  0.5744
    9TMC3    C313992   3.769   4.243  12.602 -0.4952 -0.8103 -0.5798
    9TMC3    C413993   3.824   4.476  12.735 -0.3695  0.8056  0.4543
    9TMC3    C513994   3.908   4.364  12.749 -0.5448  0.3584  0.2311
    9TMC3    C613995   3.877   4.241  12.688  0.6224  0.0219  0.7880
    9TMC3     C13996   3.617   4.577  12.640 -0.0722 -0.0637 -0.2063
    9TMC3     O13997   3.514   4.563  12.572  0.5404  0.0847  0.0636
    9TMC3     H13998   3.597   4.341  12.524  2.7864 -1.0311 -2.1281
    9TMC3    H113999   3.862   4.562  12.788 -0.3935  1.3180 -0.3658
    9TMC3    H214000   3.954   4.165  12.686  0.6622  0.1062 -1.0062
    9TMC3    C714001   3.982   4.371  12.883 -0.2950  0.3511 -0.5617
    9TMC3    C814002   3.718   4.118  12.547 -0.0868  0.0131  0.1721
    9TMC3    O114003   4.028   4.484  12.907  0.6900 -0.0436 -0.0064
    9TMC3    O214004   3.637   4.121  12.451 -0.5674  0.1794 -0.6579
   10MPD2     C14005   3.559   3.651  12.709  0.4265  0.5039  0.5127
   10MPD2    C114006   3.677   3.684  12.773  0.0684  0.3024 -0.5456
   10MPD2    C214007   3.742   3.805  12.749 -0.0818 -1.0824  0.1301
   10MPD2    C314008   3.695   3.891  12.650 -0.0322  0.3819  0.3752
   10MPD2    C414009   3.583   3.850  12.583 -0.5364 -0.3851 -0.2446
   10MPD2    C514010   3.511   3.733  12.611  0.6819 -0.1038  0.8881
   10MPD2     H14011   3.835   3.831  12.798  0.1537 -0.5056 -0.6185
   10MPD2    H114012   3.540   3.909  12.503  1.2675 -1.7875 -2.2621
   10MPD2    H214013   3.500   3.561  12.725  1.5818 -0.8116 -2.4999
   10MPD2    H314014   3.425   3.706  12.551  0.6614  0.1862  0.7881
   10MPD2     N14015   3.753   4.020  12.640  0.1650  0.1336  0.1572
   10MPD2    H514016   3.824   4.037  12.711 -1.0592  2.3912  0.8361
   10MPD2    N114017   3.723   3.590  12.874 -0.4559  0.4308  0.1372
   10MPD2    H714018   3.656   3.517  12.898  0.0790 -0.0348  0.2042
   11MPD2     C14019   0.685   3.637  14.206  0.0670 -0.0496  0.3910
   11MPD2    C114020   0.577   3.551  14.213 -0.0488 -0.0320 -0.1285
   11MPD2    C214021   0.484   3.550  14.112 -0.5741 -0.1196  0.3346
   11MPD2    C314022   0.502   3.630  14.000 -0.1761  0.1001 -0.0661
   11MPD2    C414023   0.616   3.697  13.996  0.3161  0.1813 -0.8891
   11MPD2    C514024   0.715   3.704  14.094 -0.4099  0.1939 -0.2350
   11MPD2     H14025   0.407   3.474  14.109 -1.5124  0.8742 -0.6830
   11MPD2    H114026   0.643   3.740  13.900  1.6226  0.3322 -0.4543
   11MPD2    H214027   0.755   3.637  14.290  0.1770 -0.3556  0.2998
   11MPD2    H314028   0.808   3.757  14.078  1.1508 -1.7334  2.3650
   11MPD2     N14029   0.412   3.633  13.888 -0.4066  0.4889 -0.1786
   11MPD2    H514030   0.445   3.694  13.814 -0.4935  1.6312  0.7244
   11MPD2    N114031   0.560   3.449  14.308 -0.3081  0.3480  0.3154
   11MPD2    H714032   0.482   3.388  14.283  0.7808 -1.4677  1.3012
    1MPD1     C14033   3.411   0.100  17.452  0.0246 -0.1511  0.3897
    1MPD1    C114034   3.533   0.103  17.390 -0.9250 -0.5406  0.1983
    1MPD1    C214035   3.535   0.104  17.248  0.2851 -0.3212  0.7431
    1MPD1    C314036   3.418   0.111  17.177 -0.5958  0.0230  0.1914
    1MPD1    C414037   3.298   0.095  17.244 -0.1740  0.6774  0.8879
    1MPD1    C514038   3.295   0.095  17.376  0.0893  0.7903  0.2344
    1MPD1     H14039   3.633   0.108  17.201 -0.0900 -0.5697 -0.0423
    1MPD1    H114040   3.207   0.094  17.186  1.2246  0.2795 -1.2911
    1MPD1    H214041   3.400   0.099  17.560 -0.1053 -0.2174  0.3752
    1MPD1    H314042   3.199   0.103  17.424 -0.0081  3.1530 -0.3566
    1MPD1     N14043   3.418   0.128  17.038  0.4590 -0.0518  0.0137
    1MPD1    H514044   3.323   0.118  17.004  0.4613 -0.8036  0.2301
    1MPD1    N114045   3.656   0.076  17.463  0.5504  0.2154  0.0932
    1MPD1    H614046   3.655   0.113  17.558 -1.4405 -0.4959  0.3373
    1MPD1    H714047   3.744   0.107  17.420  2.2847 -2.2718  1.8562
    2MPD1     C14048   4.140   0.251  16.333 -0.4740  0.3298  0.1008
    2MPD1    C114049   4.024   0.212  16.264  0.0790 -0.5131  0.1965
    2MPD1    C214050   3.901   0.212  16.329  0.1094 -0.3296  0.2415
    2MPD1    C314051   3.888   0.249  16.462  0.7709  0.0473 -0.4276
    2MPD1    C414052   3.999   0.291  16.524  0.5747  0.3807  0.1085
    2MPD1    C514053   4.123   0.294  16.460 -0.1564 -0.5132  0.0707
    2MPD1     H14054   3.812   0.181  16.276  0.9132 -1.8128 -0.2351
    2MPD1    H114055   4.000   0.323  16.627 -0.9882  0.1192  0.1987
    2MPD1    H214056   4.243   0.246  16.301 -0.2937 -1.5530  0.9986
    2MPD1    H314057   4.214   0.318  16.516  0.8972 -2.1182 -0.9579
    2MPD1     N14058   3.775   0.214  16.536 -0.6049  0.7346 -0.1721
    2MPD1    H514059   3.790   0.243  16.632 -1.3574 -0.7431  0.3918
    2MPD1    N114060   4.036   0.177  16.128  0.5497  0.6864 -0.3148
    2MPD1    H614061   4.129   0.137  16.118  0.0415 -0.4309 -0.6537
    2MPD1    H714062   3.964   0.107  16.109  1.1116  0.0335 -0.0425
    3TMC3    C114063   3.543   0.203  16.595  1.0284  0.0253 -0.4599
    3TMC3    C214064   3.414   0.236  16.560 -0.5897 -0.1634 -0.2863
    3TMC3    C314065   3.326   0.257  16.670 -0.1206  0.2170 -0.3968
    3TMC3    C414066   3.577   0.172  16.721  0.1622  0.1483 -0.0746
    3TMC3    C514067   3.478   0.177  16.815 -0.1510  0.2509 -0.1428
    3TMC3    C614068   3.354   0.221  16.800 -0.0597  0.3087  0.6731
    3TMC3     C14069   3.646   0.185  16.493  0.1969 -0.7606 -0.5657
    3TMC3     O14070   3.600   0.170  16.377  0.7257 -0.4385  0.0173
    3TMC3     H14071   3.395   0.266  16.458 -1.8610 -1.6649 -0.4830
    3TMC3    H114072   3.671   0.124  16.745 -1.5981 -1.9921  2.7003
    3TMC3    H214073   3.290   0.253  16.881  0.8109 -1.4560  2.0586
    3TMC3    C714074   3.518   0.161  16.951 -0.5408  0.2174  0.0779
    3TMC3    C814075   3.177   0.290  16.646  0.2847  0.0330 -0.1823
    3TMC3    O114076   3.635   0.173  16.990 -0.2704  0.1533  0.2737
    3TMC3    O214077   3.104   0.306  16.744 -0.3753  0.3064 -0.0026
    4MPD1     C14078   2.754   0.234  16.357  0.2823  0.1858 -0.3307
    4MPD1    C114079   2.862   0.239  16.277  0.0616  0.3707  0.0409
    4MPD1    C214080   2.984   0.264  16.334  0.1087 -0.2858 -0.1590
    4MPD1    C314081   3.008   0.280  16.469  0.9717  0.0085 -0.5701
    4MPD1    C414082   2.895   0.276  16.547 -0.1162 -0.3824  0.5369
    4MPD1    C514083   2.769   0.260  16.488 -0.0391 -0.1313 -0.2042
    4MPD1     H14084   3.071   0.254  16.271  1.5342  0.0319  1.7369
    4MPD1    H114085   2.903   0.288  16.654  1.6780  0.7053  0.2847
    4MPD1    H214086   2.666   0.188  16.315  0.2535 -0.2278  0.1802
    4MPD1    H314087   2.680   0.250  16.549 -0.6669 -0.0530 -1.1055
    4MPD1     N14088   3.142   0.291  16.516 -0.3311  0.4037 -0.1211
    4MPD1    H514089   3.216   0.299  16.448  1.3622  0.0246  1.6703
    4MPD1    N114090   2.861   0.180  16.152 -0.0932 -0.2597  0.2044
    4MPD1    H614091   2.922   0.232  16.089  0.0312 -1.4098 -0.6179
    4MPD1    H714092   2.768   0.183  16.112 -0.1034 -0.6934  0.1953
    1TCq1    O114093   3.473   0.371  11.490  0.3584 -1.0218  0.5640
    1TCq1    C114094   3.360   0.437  11.476  0.1283  0.5158  0.1890
    1TCq1    O214095   3.346   0.554  11.488  0.0402 -0.3405 -0.6872
    1TCq1    C214096   3.272   0.339  11.416 -0.1799  0.2680 -0.0735
    1TCq1    C314097   3.251   0.219  11.473  0.3218 -0.4625 -0.0695
    1TCq1    C414098   3.163   0.128  11.417 -0.3851 -0.6678 -0.1965
    1TCq1    C514099   3.084   0.170  11.312 -0.6951  0.5852  0.9871
    1TCq1    C614100   3.105   0.295  11.254  0.2075  0.3146  0.1487
    1TCq1    C714101   3.203   0.385  11.304 -0.3017 -0.1498 -0.4705
    1TCq1    C814102   3.028   0.325  11.136  0.6648 -0.7226 -0.5873
    1TCq1    O414103   2.940   0.253  11.098  0.1976  0.0923 -0.0487
    1TCq1    C914104   3.112   0.018  11.497  0.0458 -0.2285 -0.9565
    1TCq1    O514105   3.186   4.722  11.590  0.1047 -0.1378 -0.0159
    1TCq1    O614106   2.995   4.714  11.479  0.4645  0.7768 -0.1138
    1TCq1    H114107   3.478   0.276  11.466 -0.4821 -0.4670 -1.8722
    1TCq1    H214108   3.276   0.206  11.578 -3.8262  0.5701  1.0288
    1TCq1    H314109   3.009   0.100  11.277 -1.4625  2.4986 -1.1905
    1TCq1    H414110   3.225   0.484  11.265 -0.0922 -0.6826 -1.6940
    2MPD1     C14111   3.058   0.549  10.680  0.6616 -0.3472  0.4440
    2MPD1    C114112   3.148   0.606  10.755  0.6867  0.2207  0.5323
    2MPD1    C214113   3.149   0.560  10.883 -0.8186  0.4096  0.1381
    2MPD1    C314114   3.060   0.468  10.933  0.4422 -0.1681 -0.2195
    2MPD1    C414115   2.960   0.418  10.853 -0.7950  0.1021  0.6769
    2MPD1    C514116   2.960   0.466  10.726  0.2588 -0.1809 -0.4339
    2MPD1     H14117   3.231   0.590  10.947 -0.3499 -0.0959 -0.2202
    2MPD1    H114118   2.881   0.350  10.883  0.8014 -1.4907  1.2528
    2MPD1    H214119   3.049   0.575  10.575  0.7462 -1.4243  0.1713
    2MPD1    H314120   2.890   0.427  10.653 -1.2304  2.0690 -0.2196
    2MPD1     N14121   3.088   0.425  11.063 -0.1709  0.0263  0.1415
    2MPD1    H514122   3.170   0.458  11.113 -0.3987 -1.4110  1.4406
    2MPD1    N114123   3.248   0.687  10.698  0.1884  0.4776  0.3887
    2MPD1    H614124   3.231   0.745  10.616  0.9677  0.8795  0.5133
    2MPD1    H714125   3.286   0.750  10.768 -1.1653  0.3500  1.2338
    1TMC1    C114126   1.375   1.623   1.241 -0.1793  0.2479  0.2103
    1TMC1    C214127   1.376   1.737   1.164 -0.3194 -0.0940 -0.0351
    1TMC1    C314128   1.502   1.775   1.120 -0.0167 -0.1025 -0.1451
    1TMC1    C414129   1.482   1.553   1.279  0.0146 -0.1259 -0.4902
    1TMC1    C514130   1.602   1.599   1.237  0.4859 -0.3785 -0.8881
    1TMC1    C614131   1.612   1.709   1.152 -0.1381  0.0414 -0.2033
    1TMC1     C14132   1.246   1.553   1.265  0.0919  0.1910 -0.5134
    1TMC1     O14133   1.246   1.479   1.364  0.0107  0.1191  0.3354
    1TMC1     H14134   1.288   1.799   1.149 -0.2705  0.3977  1.6818
    1TMC1    H114135   1.465   1.455   1.324  1.6804  0.5534  1.6069
    1TMC1    H214136   1.707   1.743   1.113  1.4536 -0.9383  2.8125
    1TMC1    C714137   1.703   1.500   1.223  0.0752 -0.6218 -0.5267
    1TMC1    C814138   1.507   1.887   1.035  0.1393  0.4785 -0.4437
    1TMC1    O114139   1.705   1.418   1.317  0.2424 -0.3289 -1.0805
    1TMC1    O214140   1.420   1.967   1.024 -0.1561 -0.3756 -0.3289
    1TMC1    O314141   1.690   1.462   1.093  0.4557  0.3097  0.1805
    1TMC1    H314142   1.696   1.531   1.024  2.3232  2.2370  2.2784
    1TMC1    O514143   1.582   1.852   0.928 -0.5949  0.2728  0.2645
    1TMC1    H514144   1.622   1.763   0.937 -1.5870 -0.1110  0.8256
    2MPD1     C14145   0.732   1.568   1.256  0.5937  0.2100  0.5922
    2MPD1    C114146   0.772   1.623   1.135  0.3022  0.8456  0.2529
    2MPD1    C214147   0.910   1.614   1.102  0.4707  0.0239  0.2469
    2MPD1    C314148   1.005   1.555   1.193  0.0723 -0.7235 -0.8310
    2MPD1    C414149   0.956   1.480   1.300  0.1606  0.5547  0.0527
    2MPD1    C514150   0.819   1.494   1.326  0.3696  0.3098 -0.4673
    2MPD1     H14151   0.959   1.655   1.015  0.6880 -2.8462 -0.9680
    2MPD1    H114152   1.014   1.420   1.368 -1.5950 -1.6914 -0.4364
    2MPD1    H214153   0.626   1.569   1.279  0.4597  0.5943 -0.0211
    2MPD1    H314154   0.777   1.451   1.416  1.7093  0.7401  0.3729
    2MPD1     N14155   1.144   1.602   1.185  0.0779  0.3130  0.0801
    2MPD1    H514156   1.165   1.659   1.104 -3.8460  0.8111 -0.5561
    2MPD1    N114157   0.685   1.706   1.067 -0.1704 -0.0314 -0.0519
    2MPD1    H614158   0.585   1.705   1.085 -0.2345  2.4236 -0.2545
    2MPD1    H714159   0.700   1.694   0.967 -0.1763 -0.6683  0.0191
    1MPD1     C14160   0.254   0.213  12.629  0.7054  0.0928 -0.1226
    1MPD1    C114161   0.215   0.247  12.497  0.1074 -0.1150 -0.0552
    1MPD1    C214162   0.298   0.219  12.396 -0.1312  0.7562  0.0079
    1MPD1    C314163   0.410   0.136  12.411  0.1029 -0.1446  1.2978
    1MPD1    C414164   0.443   0.092  12.541 -0.8364 -0.0740  1.0031
    1MPD1    C514165   0.370   0.138  12.649 -0.2663 -0.2117  0.2356
    1MPD1     H14166   0.281   0.256  12.295 -2.4029 -1.3157 -0.3826
    1MPD1    H114167   0.535   0.039  12.561 -1.6116 -0.9316  2.3592
    1MPD1    H214168   0.188   0.231  12.713  0.5012  0.5367 -0.3775
    1MPD1    H314169   0.401   0.091  12.742 -2.9843 -1.7284  0.3755
    1MPD1     N14170   0.496   0.115  12.300 -0.2819 -0.1128  0.6550
    1MPD1    H514171   0.463   0.158  12.213  2.5880  1.6854  0.4550
    1MPD1    N114172   0.112   0.335  12.472  0.2119 -0.6158  0.1948
    1MPD1    H614173   0.087   0.349  12.374 -2.2642 -0.1015  0.9273
    1MPD1    H714174   0.034   0.322  12.535 -0.1317  0.1959 -0.0680
    2MPD1     C14175   4.625   0.167  11.827  0.1135 -0.0059  0.1279
    2MPD1    C114176   4.539   0.088  11.752  0.8735 -0.0603  0.4284
    2MPD1    C214177   4.583   4.720  11.680 -0.3442  1.1036 -0.7236
    2MPD1    C314178   4.718   4.686  11.697  0.0925 -0.1719  0.2607
    2MPD1    C414179   0.054   0.014  11.787  0.4527  0.2836  0.5540
    2MPD1    C514180   0.013   0.127  11.851  0.4008 -0.3304 -0.0100
    2MPD1     H14181   4.512   4.677  11.611  0.4376  0.6790 -1.2592
    2MPD1    H114182   0.158   4.726  11.802  0.1964  0.2735  2.2390
    2MPD1    H214183   4.592   0.258  11.876  1.3437  1.1557 -1.2011
    2MPD1    H314184   0.074   0.182  11.921 -1.3130 -0.0773  1.3019
    2MPD1     N14185   0.046   4.581  11.631 -0.0227 -0.6027  0.9158
    2MPD1    H514186   0.143   4.568  11.659  0.4595 -0.7535 -0.8173
    2MPD1    N114187   4.414   0.144  11.729 -0.2380  0.2524  0.5294
    2MPD1    H614188   4.348   0.068  11.714 -0.8431  1.0064 -0.6192
    2MPD1    H714189   4.375   0.199  11.806 -1.4860 -0.1423  0.1774
    3MPD1     C14190   4.340   3.986  10.995 -0.0651  0.9483 -0.3770
    3MPD1    C114191   4.313   4.109  11.051  0.4865 -0.4067  1.0039
    3MPD1    C214192   4.426   4.180  11.093  0.9605  0.3042  0.5542
    3MPD1    C314193   4.554   4.125  11.089 -0.0540 -0.0702  0.1714
    3MPD1    C414194   4.580   4.001  11.042  0.2677 -0.9736  0.7900
    3MPD1    C514195   4.468   3.934  11.001 -0.1955 -0.0915  0.0032
    3MPD1     H14196   4.412   4.283  11.122  0.8925  0.3618  0.3175
    3MPD1    H114197   4.679   3.957  11.031  1.1549  0.8878  1.2867
    3MPD1    H214198   4.259   3.924  10.960  2.3633 -2.3769 -0.0812
    3MPD1    H314199   4.490   3.846  10.942  0.6175  0.7696 -0.9967
    3MPD1     N14200   4.648   4.205  11.151  0.3635 -0.2764  0.5914
    3MPD1    H514201   4.612   4.287  11.199 -0.7972 -0.1821 -0.4400
    3MPD1    N114202   4.192   4.177  11.042  1.0398  0.1881 -0.1093
    3MPD1    H614203   4.114   4.111  11.049  0.1382  1.1177 -1.4621
    3MPD1    H714204   4.187   4.243  11.120 -1.1548 -1.1869  0.9367
    4MPD2     C14205   0.559   0.066  11.518 -0.5172 -0.1925 -0.1408
    4MPD2    C114206   0.672   0.100  11.585 -0.2271  0.7566 -0.4089
    4MPD2    C214207   0.778   0.148  11.511  0.3577 -0.6286  0.0572
    4MPD2    C314208   0.768   0.160  11.373 -0.3387 -0.1901 -0.6052
    4MPD2    C414209   0.651   0.126  11.303  0.0697 -0.0328  0.1888
    4MPD2    C514210   0.551   0.073  11.382  0.0221 -0.8670 -0.1655
    4MPD2     H14211   0.870   0.177  11.559  0.3375 -0.2732 -0.1186
    4MPD2    H114212   0.643   0.133  11.196 -1.0867  1.4049  0.3689
    4MPD2    H214213   0.466   0.039  11.567  0.0486 -1.9642 -0.0266
    4MPD2    H314214   0.461   0.034  11.338  0.7306 -0.2391 -2.1579
    4MPD2     N14215   0.888   0.195  11.304 -0.2437  1.1013 -0.3965
    4MPD2    H514216   0.972   0.198  11.360  0.3028 -0.1423 -1.1408
    4MPD2    N114217   0.685   0.103  11.727 -0.5573  0.0703  0.1942
    4MPD2    H714218   0.776   0.138  11.755 -0.2260 -1.4142  1.0139
    5TMC3    C114219   0.664   0.021  11.939 -0.4288 -0.0612 -0.5311
    5TMC3    C214220   0.599   0.044  12.059  0.7135 -0.2668  0.1233
    5TMC3    C314221   0.683   0.035  12.167  0.2160 -0.8934  0.0764
    5TMC3    C414222   0.796   4.722  11.928 -0.5947 -0.1294  0.1204
    5TMC3    C514223   0.866   4.715  12.047  0.6484 -0.3433 -0.1853
    5TMC3    C614224   0.813   4.736  12.164  0.0923 -0.6239  0.3911
    5TMC3     C14225   0.593   0.063  11.823 -0.5704 -0.4005 -0.2851
    5TMC3     O14226   0.478   0.016  11.810 -0.1270 -0.2403 -0.5199
    5TMC3     H14227   0.498   0.084  12.058  1.2176  0.9371 -2.2454
    5TMC3    H114228   0.830   4.685  11.832 -0.0697  2.0747 -0.5444
    5TMC3    H214229   0.870   4.724  12.256  0.4702 -1.2109  0.0789
    5TMC3    C714230   1.000   4.661  12.033  0.2899  0.3525 -0.1533
    5TMC3    C814231   0.617   0.046  12.298 -0.1195  0.0747  0.6291
    5TMC3    O114232   1.035   4.572  12.108  0.5193  0.2282 -0.4266
    5TMC3    O214233   0.672   4.724  12.393  0.0880  0.3797  0.4537
    6TMC3    C114234   0.077   4.421  11.447 -0.0566 -0.7578  0.3826
    6TMC3    C214235   0.018   4.327  11.362 -0.1033  0.3540 -0.3221
    6TMC3    C314236   0.101   4.273  11.270 -0.1863 -0.2341  0.0894
    6TMC3    C414237   0.211   4.459  11.441 -0.0419  0.7531 -0.6605
    6TMC3    C514238   0.286   4.398  11.345 -0.1385  0.4308 -0.2770
    6TMC3    C614239   0.235   4.299  11.263  0.1796  0.5897 -0.6410
    6TMC3     C14240   4.725   4.513  11.522 -0.4166 -0.2996 -0.2107
    6TMC3     O14241   4.610   4.529  11.470 -0.4528  0.4776  0.3566
    6TMC3     H14242   4.658   4.291  11.390 -0.7674  0.6812 -2.2380
    6TMC3    H114243   0.241   4.557  11.475 -0.4825  1.7296 -3.0580
    6TMC3    H214244   0.299   4.255  11.188  0.0522  0.4398 -0.6611
    6TMC3    C714245   0.426   4.445  11.321  1.1852  0.4850 -0.9038
    6TMC3    C814246   0.039   4.173  11.185 -0.6079  0.9336  0.6759
    6TMC3    O114247   0.467   4.455  11.206  0.1329  0.1164  0.4473
    6TMC3    O214248   0.106   4.087  11.132 -0.3837  0.4378  0.0843
    7MPD2     C14249   1.327   4.537  11.667 -0.2250 -1.3342  0.0617
    7MPD2    C114250   1.246   4.640  11.621 -0.2472  0.5487 -0.0628
    7MPD2    C214251   1.154   4.693  11.708  0.0612 -0.6534 -0.8923
    7MPD2    C314252   1.151   4.653  11.842  0.0082 -0.4077  0.2757
    7MPD2    C414253   1.217   4.541  11.881 -0.2577 -0.0283 -0.4046
    7MPD2    C514254   1.308   4.492  11.797 -0.1287  0.2766 -0.1061
    7MPD2     H14255   1.095   0.042  11.687  1.3574  1.0874  2.6524
    7MPD2    H114256   1.220   4.512  11.986 -1.7204  1.0096 -0.0734
    7MPD2    H214257   1.412   4.503  11.609  0.3650 -1.1396  0.8122
    7MPD2    H314258   1.370   4.411  11.832 -1.9815 -0.7261  0.8094
    7MPD2     N14259   1.051   4.714  11.921  0.3393  0.2563 -0.3482
    7MPD2    H514260   1.004   0.054  11.880 -2.0089  1.0161  3.7579
    7MPD2    N114261   1.267   4.687  11.488  0.1145  0.3913 -0.2684
    7MPD2    H714262   1.338   4.634  11.438 -0.1755 -0.0609 -0.2065
    8TMC3    C114263   1.178   0.054  11.291  0.1444  0.0904  0.3050
    8TMC3    C214264   1.161   4.675  11.230  0.2004 -0.1781 -0.3871
    8TMC3    C314265   1.062   4.665  11.136 -0.4519 -0.0644  0.3352
    8TMC3    C414266   1.114   0.166  11.250  0.4793 -0.3848 -0.0246
    8TMC3    C514267   1.037   0.158  11.134  0.4779 -0.1700  0.3449
    8TMC3    C614268   1.030   0.038  11.065  0.3075 -0.2667 -0.6375
    8TMC3     C14269   1.201   0.054  11.434 -0.4097  0.7436 -0.7742
    8TMC3     O14270   1.154   0.147  11.495 -0.1348  0.0153  0.0944
    8TMC3     H14271   1.201   4.581  11.268 -1.2416  0.1808  2.0214
    8TMC3    H114272   1.130   0.261  11.299  0.3072  0.7976 -2.2690
    8TMC3    H214273   0.960   0.031  10.983 -0.5470 -0.5067  0.1091
    8TMC3    C714274   0.904   0.202  11.167 -0.3391  0.1278  0.0858
    8TMC3    C814275   0.944   4.599  11.187 -0.3005 -0.5740  1.0716
    8TMC3    O114276   0.825   0.203  11.074  1.0365 -0.5158 -0.3809
    8TMC3    O214277   0.840   4.620  11.126  1.0620  1.2792 -0.6722
    9MPD2     C14278   0.900   4.503  11.529 -0.0505  0.0320  0.0191
    9MPD2    C114279   0.858   4.532  11.405  0.4087  0.0492 -0.1611
    9MPD2    C214280   0.724   4.513  11.374  0.1167 -0.4109  0.0973
    9MPD2    C314281   0.629   4.479  11.471  0.1748 -0.1126 -0.5552
    9MPD2    C414282   0.677   4.450  11.601 -0.4186  0.2184  0.0022
    9MPD2    C514283   0.805   4.483  11.630 -0.6872  0.2973  0.2497
    9MPD2     H14284   0.697   4.524  11.270 -1.3473  0.2551  0.5496
    9MPD2    H114285   0.611   4.424  11.683 -0.7761 -1.4312 -0.7917
    9MPD2    H214286   1.005   4.507  11.554 -0.3663 -0.1604  1.3751
    9MPD2    H314287   0.834   4.471  11.734 -0.7673  1.3606  0.3956
    9MPD2     N14288   0.492   4.452  11.443 -0.6833  0.0357  0.1890
    9MPD2    H514289   0.432   4.421  11.519 -2.2639  1.3118 -0.5245
    9MPD2    N114290   0.958   4.565  11.316 -1.1039  0.3500  0.6004
    9MPD2    H714291   1.053   4.550  11.349 -1.0484  1.4202  0.9365
    1MPD1     C14292   2.524   4.360  16.995 -0.0183 -0.0165 -0.3660
    1MPD1    C114293   2.462   4.315  17.108  0.2007 -0.3539  0.1407
    1MPD1    C214294   2.373   4.211  17.095  0.3349 -0.2455 -0.3604
    1MPD1    C314295   2.322   4.164  16.973  0.2869  0.2582  0.5945
    1MPD1    C414296   2.380   4.223  16.858 -0.2807 -0.2481 -0.9954
    1MPD1    C514297   2.482   4.312  16.871 -0.0274 -1.0438 -0.3468
    1MPD1     H14298   2.324   4.179  17.186 -1.4115  1.9099 -0.5267
    1MPD1    H114299   2.356   4.184  16.760  0.4155 -0.7894 -0.9544
    1MPD1    H214300   2.607   4.430  17.000  1.1330 -1.3436 -1.1625
    1MPD1    H314301   2.540   4.335  16.783  0.6262 -1.7151 -0.0881
    1MPD1     N14302   2.229   4.062  16.962  0.2777 -0.1240 -0.2721
    1MPD1    H514303   2.201   4.049  16.865 -2.0500  1.7868  0.1493
    1MPD1    N114304   2.497   4.355  17.238  0.4280 -0.2245 -0.2303
    1MPD1    H614305   2.522   4.453  17.247  0.7984 -0.4164  0.8000
    1MPD1    H714306   2.415   4.339  17.297  1.1628  1.8995  1.3455
    2TMC2    C114307   1.899   3.834  16.884 -0.5735 -0.9526  0.2492
    2TMC2    C214308   1.878   3.719  16.952 -0.3922  0.2287 -0.0646
    2TMC2    C314309   1.973   3.683  17.047  0.5463  0.4751  0.3793
    2TMC2    C414310   2.011   3.908  16.894 -1.0089 -0.2028  0.1971
    2TMC2    C514311   2.096   3.872  16.995 -0.2521  0.0998  0.1935
    2TMC2    C614312   2.082   3.756  17.074 -0.5947 -0.5675  0.0682
    2TMC2     C14313   1.799   3.865  16.780  0.0542  0.0561  0.6073
    2TMC2     O14314   1.843   3.928  16.680 -0.1991 -0.1581  0.1690
    2TMC2     H14315   1.816   3.638  16.915 -0.3670  0.6103 -0.9548
    2TMC2    H114316   2.017   4.012  16.863 -0.6417  0.4303  2.4119
    2TMC2    H214317   2.146   3.728  17.157  0.5570  0.6749 -0.3876
    2TMC2    C714318   2.173   3.979  17.057  0.2270  0.3520  0.1312
    2TMC2    C814319   1.982   3.548  17.106  0.1328 -0.5636  0.3460
    2TMC2    O114320   2.196   3.961  17.176 -0.7695 -0.3719 -0.8810
    2TMC2    O214321   2.071   3.493  17.171 -0.3202 -0.4988  0.2344
    2TMC2    O514322   1.858   3.515  17.130  0.0778 -0.2315 -0.1268
    2TMC2    H514323   1.845   3.432  17.181  1.0959  0.4918  1.3333
    3MPD1     C14324   1.311   3.814  16.606  0.2008 -0.2750  0.0606
    3MPD1    C114325   1.322   3.757  16.729  0.6920 -0.0702  0.2428
    3MPD1    C214326   1.441   3.765  16.797 -0.9161  0.3525 -0.1595
    3MPD1    C314327   1.553   3.815  16.737  0.2800  0.0835 -0.4933
    3MPD1    C414328   1.536   3.879  16.618  0.3490  0.7452  0.0286
    3MPD1    C514329   1.414   3.880  16.550  0.1328  0.7123 -0.5002
    3MPD1     H14330   1.440   3.723  16.897 -2.3788 -1.7252 -1.0529
    3MPD1    H114331   1.623   3.929  16.578 -1.4076  2.1516 -2.0184
    3MPD1    H214332   1.216   3.819  16.554  1.1161  0.5736 -1.5235
    3MPD1    H314333   1.389   3.936  16.461  1.1245 -0.0402 -1.2477
    3MPD1     N14334   1.677   3.804  16.813 -0.0043 -0.1793  0.4310
    3MPD1    H514335   1.672   3.756  16.903  0.4793  0.3271  0.7300
    3MPD1    N114336   1.219   3.668  16.779  0.0020  0.7735 -0.0463
    3MPD1    H614337   1.188   3.669  16.877 -4.8377 -3.7102 -1.4857
    3MPD1    H714338   1.129   3.687  16.736 -0.3698 -0.7576  0.0608
    1TMC1    C114339   3.607   2.749  12.971  0.0984  0.0491 -0.8333
    1TMC1    C214340   3.604   2.612  13.011 -0.0284  0.0049 -0.0518
    1TMC1    C314341   3.525   2.533  12.933  0.3857 -0.3786 -0.6160
    1TMC1    C414342   3.530   2.790  12.859  0.8511 -0.4594  0.0102
    1TMC1    C514343   3.445   2.704  12.798  0.8074 -0.1227 -0.1126
    1TMC1    C614344   3.441   2.571  12.834 -0.5642  0.8572 -0.2177
    1TMC1     C14345   3.706   2.835  13.024  0.2024  0.2164 -0.1603
    1TMC1     O14346   3.725   2.936  12.956 -0.3947 -0.0685 -0.3211
    1TMC1     H14347   3.657   2.576  13.099  2.3042 -1.6208 -2.1329
    1TMC1    H114348   3.515   2.896  12.842  0.6758 -0.1929  1.7736
    1TMC1    H214349   3.391   2.499  12.770 -0.0939 -0.8440  1.3402
    1TMC1    C714350   3.398   2.741  12.669 -0.0012  0.1618 -0.2449
    1TMC1    C814351   3.537   2.389  12.953 -0.3352 -0.2132  0.0232
    1TMC1    O114352   3.312   2.677  12.609 -0.0634 -0.0157 -0.2060
    1TMC1    O214353   3.471   2.304  12.900 -0.0291 -0.4238  0.3139
    1TMC1    O314354   3.499   2.803  12.602 -0.0930  0.1478 -0.0553
    1TMC1    H314355   3.577   2.820  12.660 -1.0228  1.5067  0.8038
    1TMC1    O514356   3.642   2.356  13.030  0.4113  0.4081 -0.1909
    1TMC1    H514357   3.700   2.432  13.053 -0.6457  0.9268  0.7619
    2MPD2     C14358   3.970   2.935  13.134 -1.2113 -0.4217  0.0067
    2MPD2    C114359   3.892   2.841  13.192  0.4099 -0.1612 -0.2357
    2MPD2    C214360   3.942   2.781  13.304 -0.4365 -0.0364  0.0196
    2MPD2    C314361   4.071   2.811  13.356 -0.2734  0.5387  0.6587
    2MPD2    C414362   4.148   2.905  13.294  1.0145  0.5302 -0.6066
    2MPD2    C514363   4.091   2.969  13.183 -0.0382  0.0493  0.8937
    2MPD2     H14364   3.887   2.695  13.342 -0.1591  0.1180  0.7685
    2MPD2    H114365   4.244   2.945  13.325  1.0595  0.8039 -1.0870
    2MPD2    H214366   3.951   2.991  13.044 -1.9348 -0.1080  0.3559
    2MPD2    H314367   4.156   3.040  13.132  1.5221 -2.2152 -0.2826
    2MPD2     N14368   4.112   2.751  13.467  0.2984 -0.0390  0.6431
    2MPD2    H514369   4.045   2.686  13.505 -0.6932 -0.5547 -1.9866
    2MPD2    N114370   3.770   2.792  13.138 -0.4123 -0.1264 -0.5083
    2MPD2    H714371   3.726   2.721  13.196  1.1666  1.4171  2.5722
    3TCq1    O114372   4.046   2.489  14.011 -0.8607  0.1821 -0.3929
    3TCq1    C114373   4.101   2.612  13.969 -0.1454 -0.7485 -0.0792
    3TCq1    O214374   4.039   2.716  13.987 -0.3607 -0.2417 -0.5534
    3TCq1    C214375   4.177   2.585  13.845 -0.2454 -0.8233  0.3358
    3TCq1    C314376   4.286   2.501  13.852 -0.3850  0.0938  1.1724
    3TCq1    C414377   4.383   2.509  13.753  0.6879 -0.6342 -0.3471
    3TCq1    C514378   4.373   2.598  13.654 -0.1554  0.0185 -0.3019
    3TCq1    C614379   4.261   2.670  13.639  0.2838 -0.7849  0.2701
    3TCq1    C714380   4.163   2.665  13.738 -0.5166 -0.1218 -0.3881
    3TCq1    C814381   4.242   2.763  13.527 -0.2235 -0.2195  0.9189
    3TCq1    O414382   4.341   2.812  13.483 -0.2124  0.4929 -0.3044
    3TCq1    C914383   4.497   2.433  13.765 -0.0565  0.9477  0.0520
    3TCq1    O514384   4.508   2.362  13.871  0.5200  0.6436  0.1443
    3TCq1    O614385   4.561   2.427  13.658 -0.0517 -0.3510 -0.1536
    3TCq1    H114386   4.095   2.412  13.973 -1.0201  0.4518 -1.1456
    3TCq1    H214387   4.294   2.438  13.939  1.4044  1.0812  1.7043
    3TCq1    H314388   4.458   2.610  13.587 -1.0880  1.0567 -1.2886
    3TCq1    H414389   4.088   2.743  13.745  1.4551  1.6749  1.0699
    1MPD2     C14390   3.413   4.099  14.791  0.0220 -0.6548  0.4748
    1MPD2    C114391   3.311   4.014  14.814 -0.0325 -0.4156  0.2696
    1MPD2    C214392   3.346   3.877  14.817 -0.0760 -0.1293 -0.1844
    1MPD2    C314393   3.480   3.832  14.808 -0.1658  0.2952  0.4236
    1MPD2    C414394   3.578   3.927  14.791 -0.0489 -0.4989  0.7027
    1MPD2    C514395   3.546   4.056  14.775 -0.4622  0.2512 -0.0071
    1MPD2     H14396   3.263   3.808  14.831 -0.2439  0.2719  0.8350
    1MPD2    H114397   3.681   3.896  14.796 -0.4007 -1.9442 -1.2241
    1MPD2    H214398   3.396   4.205  14.805  0.1773 -0.1546 -2.9422
    1MPD2    H314399   3.619   4.136  14.766 -0.6611  0.4951  0.5551
    1MPD2     N14400   3.508   3.694  14.807 -0.0217  0.5393  0.2115
    1MPD2    H514401   3.428   3.633  14.825  0.0383  0.2400 -0.5292
    1MPD2    N114402   3.184   4.064  14.844  1.5067  0.7863  0.2743
    1MPD2    H714403   3.168   4.163  14.827 -0.3735  0.8435  2.3784
    2TMC3    C114404   2.957   4.052  14.859 -0.4695 -0.2137  0.1197
    2TMC3    C214405   2.847   3.979  14.903  0.3460 -0.4157  0.1051
    2TMC3    C314406   2.734   3.960  14.820 -0.0267 -0.2787 -0.3422
    2TMC3    C414407   2.940   4.127  14.747 -0.1046 -0.2127  0.1633
    2TMC3    C514408   2.823   4.119  14.668  0.0816  0.5511  0.4726
    2TMC3    C614409   2.722   4.035  14.701 -0.0375  0.8323  0.1596
    2TMC3     C14410   3.080   3.983  14.881  0.1339 -0.8383 -0.4180
    2TMC3     O14411   3.074   3.871  14.932  0.2845  0.1072  0.4985
    2TMC3     H14412   2.863   3.916  14.991 -1.0748 -0.2523  0.4683
    2TMC3    H114413   3.018   4.198  14.722 -1.1915 -0.1556 -3.0018
    2TMC3    H214414   2.638   4.010  14.636  0.1845 -1.2209  0.6445
    2TMC3    C714415   2.799   4.211  14.562  0.6476  0.0916 -1.4731
    2TMC3    C814416   2.708   3.812  14.798  0.0386 -0.2245 -0.4000
    2TMC3    O114417   2.685   4.209  14.522  0.3086  0.0975  0.1100
    2TMC3    O214418   2.613   3.788  14.724 -0.5153 -0.6109 -0.5599
    3TCq1    O114419   3.293   0.306  13.839  0.3934  0.3108  0.3374
    3TCq1    C114420   3.366   0.337  13.946  0.0068  0.5186  0.4916
    3TCq1    O214421   3.465   0.406  13.957 -0.2753 -0.5197  0.2162
    3TCq1    C214422   3.307   0.266  14.067  0.2514 -0.1353 -0.2358
    3TCq1    C314423   3.357   0.308  14.191 -0.2509  0.2005 -0.3992
    3TCq1    C414424   3.328   0.225  14.293 -0.0017 -0.1489  0.3160
    3TCq1    C514425   3.258   0.105  14.280 -0.3525  0.0741 -0.4779
    3TCq1    C614426   3.208   0.073  14.156 -0.3991 -0.5646  0.4742
    3TCq1    C714427   3.227   0.156  14.051  0.6170 -0.4256  0.1388
    3TCq1    C814428   3.104   4.717  14.137  0.5339 -0.4471  0.5168
    3TCq1    O414429   3.035   4.725  14.036  0.0782  0.2669  0.5524
    3TCq1    C914430   3.363   0.267  14.426 -0.7332  0.3289  0.0658
    3TCq1    O514431   3.315   0.201  14.524 -0.1732  0.3460 -0.1580
    3TCq1    O614432   3.447   0.363  14.438  0.1750 -0.4537 -0.1089
    3TCq1    H114433   3.203   0.270  13.859  0.9690 -0.9099  0.7609
    3TCq1    H214434   3.412   0.401  14.203 -1.3025  0.6100  1.2065
    3TCq1    H314435   3.237   0.043  14.367 -0.2092  1.2997  0.4393
    3TCq1    H414436   3.190   0.121  13.955  0.8311 -0.0101 -0.0974
    4MPD2     C14437   2.908   4.508  14.169 -0.1870 -0.1203  0.2331
    4MPD2    C114438   3.011   4.519  14.254  0.3763  1.1779 -0.2154
    4MPD2    C214439   3.017   4.435  14.365  0.4818 -1.2870  0.1030
    4MPD2    C314440   2.913   4.348  14.391  0.4606 -0.4550 -0.0148
    4MPD2    C414441   2.810   4.330  14.302 -0.0672  0.6356  0.3931
    4MPD2    C514442   2.810   4.415  14.187 -0.5839  0.3551 -1.0269
    4MPD2     H14443   3.092   4.445  14.442 -0.3768  2.8791  0.4081
    4MPD2    H114444   2.730   4.257  14.302  2.4273 -2.0902  0.0194
    4MPD2    H214445   2.906   4.553  14.071  1.7948 -0.9411 -0.1869
    4MPD2    H314446   2.738   4.385  14.112 -1.4049 -0.1350 -0.0292
    4MPD2     N14447   2.911   4.275  14.513 -0.4473 -0.7159 -0.3675
    4MPD2    H514448   2.999   4.261  14.562 -0.4345  2.9772  0.6925
    4MPD2    N114449   3.110   4.616  14.230  0.0076  0.1897  0.7612
    4MPD2    H714450   3.187   4.624  14.296  0.8023  2.8061 -0.5068
    5TMC2    C114451   3.387   3.371  14.746 -0.1366 -0.1070  0.4804
    5TMC2    C214452   3.433   3.303  14.856  0.4600 -0.6958  0.1527
    5TMC2    C314453   3.564   3.315  14.902 -0.3033 -0.0848 -0.2981
    5TMC2    C414454   3.475   3.466  14.697 -0.5118 -0.2671  1.0522
    5TMC2    C514455   3.598   3.488  14.757  0.0822 -0.3261 -0.0410
    5TMC2    C614456   3.646   3.413  14.856 -0.9214 -0.1746  0.7307
    5TMC2     C14457   3.261   3.444  14.767 -0.2221 -0.2796  0.0370
    5TMC2     O14458   3.277   3.565  14.788 -0.4466 -0.8052 -0.8372
    5TMC2     H14459   3.357   3.242  14.905  0.8853 -2.3710 -1.2764
    5TMC2    H114460   3.457   3.521  14.606  0.4182  0.4405  1.2905
    5TMC2    H214461   3.730   3.450  14.915 -0.1222  1.5427 -1.4842
    5TMC2    C714462   3.628   3.632  14.770 -0.4581 -0.3995 -0.1244
    5TMC2    C814463   3.589   3.283  15.041 -0.4226  0.1799 -0.9328
    5TMC2    O114464   3.733   3.679  14.733  0.2693 -0.6352 -0.2856
    5TMC2    O214465   3.659   3.350  15.118 -0.2325 -0.1380  0.4006
    5TMC2    O514466   3.509   3.177  15.078 -0.1450 -0.1925  0.1359
    5TMC2    H514467   3.471   3.122  15.006  0.4680  0.1296 -0.4319
    6MPD2     C14468   2.757   3.525  14.706 -1.3544 -0.8541  0.1427
    6MPD2    C114469   2.851   3.608  14.758 -0.5152  0.6152  0.3451
    6MPD2    C214470   2.981   3.559  14.772 -0.3124 -0.4447  0.2646
    6MPD2    C314471   3.013   3.438  14.718  0.6719  0.1869  0.4640
    6MPD2    C414472   2.919   3.360  14.659 -0.5270  0.5793  0.1163
    6MPD2    C514473   2.795   3.409  14.653  0.5039  0.0320  0.0962
    6MPD2     H14474   3.055   3.623  14.818  0.1369 -0.6782 -0.1299
    6MPD2    H114475   2.932   3.271  14.598  0.2168  0.8460 -0.1065
    6MPD2    H214476   2.655   3.562  14.699 -1.1484 -0.8691 -3.0326
    6MPD2    H314477   2.713   3.347  14.619  2.6330 -3.1713  0.8607
    6MPD2     N14478   3.145   3.383  14.720  0.1887 -0.2145 -0.2572
    6MPD2    H514479   3.161   3.294  14.675 -0.8109  0.7649 -2.5517
    6MPD2    N114480   2.825   3.741  14.804 -0.2643  0.3712 -0.2023
    6MPD2    H714481   2.903   3.789  14.849 -0.7860  0.8867  0.1420
  945NH4     N114482   0.999   3.293  12.213  0.9185  0.4136  0.0218
  945NH4     H214483   1.021   3.253  12.306  0.0067 -0.1760 -0.0187
  945NH4     H314484   0.920   3.240  12.171  2.6638 -1.5852 -0.7277
  945NH4     H414485   1.072   3.290  12.139  0.4866 -0.4162 -0.3665
  945NH4     H514486   0.966   3.392  12.219 -2.0432 -0.5430 -0.6545
  946SOD     NA14487   2.161   1.628   6.543  0.2485 -0.1799  0.2714
  947SOD     NA14488   1.696   2.215  16.440  0.0217  0.4128  0.4257
  948SOD     NA14489   2.394   0.011  13.604 -0.3182  0.5714 -0.3719
  949SOD     NA14490   3.627   1.691  17.252 -0.0300 -0.3077  0.2843
  950SOD     NA14491   1.347   2.311   7.877 -0.3928 -0.3247 -0.6526
  951SOD     NA14492   3.738   3.506  11.958  0.0134 -0.2614 -0.5780
  952SOD     NA14493   4.376   0.595  12.136 -0.5543  0.2195 -0.0342
  953SOL     OW14494   4.673   2.779   3.002  0.6034 -0.5908  0.2024
  953SOL    HW114495   4.668   2.738   2.916 -0.5912  1.0379 -0.4960
  953SOL    HW214496   4.700   2.867   2.978  2.0869 -1.4108 -1.0843
  954SOL     OW14497   1.441   0.258   9.615 -0.1476 -0.8865  0.0262
  954SOL    HW114498   1.389   0.203   9.673  0.5063 -1.6524 -0.1061
  954SOL    HW214499   1.525   0.270   9.661 -0.1473 -1.4379  0.1639
  955SOL     OW14500   3.016   3.657   6.060  0.0255 -0.1509  0.3207
  955SOL    HW114501   2.933   3.664   6.107  1.6499  0.1314  3.1373
  955SOL    HW214502   3.020   3.562   6.053  0.6047 -0.0522 -0.6552
  956SOL     OW14503   4.691   0.779  11.470  0.0377 -0.0694 -0.2739
  956SOL    HW114504   4.615   0.722  11.474 -0.1442  0.3310  1.8048
  956SOL    HW214505   4.685   0.812  11.381 -0.3594  1.7999  0.4573
  957SOL     OW14506   1.519   2.009  16.762  0.7517 -0.7457  0.3479
  957SOL    HW114507   1.532   2.072  16.832  0.8686 -0.5863  0.1823
  957SOL    HW214508   1.554   2.057  16.687 -3.1553 -1.2328 -1.7891
  958SOL     OW14509   4.071   4.493   2.654 -0.1317  0.3183 -0.2006
  958SOL    HW114510   4.086   4.581   2.690  1.1606 -0.4158  1.0308
  958SOL    HW214511   4.057   4.500   2.560 -3.1823  3.3533  0.4547
  959SOL     OW14512   0.928   4.467   9.151  0.2372  0.2611 -0.3098
  959SOL    HW114513   0.844   4.425   9.169 -0.4011  1.5233 -0.3426
  959SOL    HW214514   0.988   4.396   9.126 -0.7485 -0.5358 -0.3833
  960SOL     OW14515   0.351   1.761   8.042  0.0225  0.2618  0.3089
  960SOL    HW114516   0.407   1.740   8.116 -0.0974 -1.2490 -0.0326
  960SOL    HW214517   0.309   1.838   8.079 -0.8492  1.9147 -4.0847
  961SOL     OW14518   1.064   2.731  12.046  0.3771 -0.2758 -0.0603
  961SOL    HW114519   0.992   2.677  12.013  0.4039 -0.5487  0.3304
  961SOL    HW214520   1.131   2.664  12.056 -0.3122 -1.0961 -0.9378
  962SOL     OW14521   1.723   3.583   3.632  0.2323  0.7150 -0.2341
  962SOL    HW114522   1.745   3.675   3.645 -0.9350  1.1463 -1.3218
  962SOL    HW214523   1.632   3.583   3.601  1.0031 -2.1991 -2.5628
  963SOL     OW14524   4.296   3.878   6.972 -0.2482  0.3648  0.1257
  963SOL    HW114525   4.270   3.816   6.904  0.9791 -1.4334  1.3249
  963SOL    HW214526   4.344   3.817   7.027 -3.2781  0.0999  2.4956
  964SOL     OW14527   2.910   1.051   7.773 -0.6035  0.2452 -0.1485
  964SOL    HW114528   2.842   1.102   7.729  0.7230  0.8681 -1.5132
  964SOL    HW214529   2.963   1.030   7.696  2.9585  0.7302  2.1842
  965SOL     OW14530   1.261   4.083   0.344  0.0795 -0.4852  0.8373
  965SOL    HW114531   1.272   3.998   0.386 -1.4541 -1.2214 -0.2860
  965SOL    HW214532   1.198   4.126   0.402 -1.4494 -1.5740 -0.0189
  966SOL     OW14533   0.186   3.412   7.578 -0.0432  0.0431  0.2304
  966SOL    HW114534   0.279   3.437   7.579  0.2250 -0.9661  0.1994
  966SOL    HW214535   0.156   3.486   7.631 -0.1324  0.3481 -0.2448
  967SOL     OW14536   2.486   3.884   2.429  0.9549  0.2447 -0.2165
  967SOL    HW114537   2.476   3.808   2.486  1.6176  2.1957  2.4780
  967SOL    HW214538   2.394   3.882   2.402  0.3285  2.2726  1.7817
  968SOL     OW14539   3.984   2.822   9.260 -0.4086 -0.1071 -0.3098
  968SOL    HW114540   3.997   2.827   9.355 -0.2896  0.3965 -0.3531
  968SOL    HW214541   3.930   2.744   9.250 -1.1584  0.5083 -1.0092
  969SOL     OW14542   1.421   1.083   2.331 -0.1619 -0.3715  0.1307
  969SOL    HW114543   1.340   1.056   2.374 -0.8783 -1.8526 -2.1340
  969SOL    HW214544   1.490   1.049   2.389  0.0233  3.0799  1.9520
  970SOL     OW14545   1.870   0.644   6.275  0.4555 -0.0194  0.3466
  970SOL    HW114546   1.940   0.610   6.219  1.5195  1.6280  0.6706
  970SOL    HW214547   1.793   0.590   6.258 -0.0282  0.4154  1.1419
  971SOL     OW14548   1.382   2.524   7.945 -0.5434 -0.1036 -0.2004
  971SOL    HW114549   1.466   2.566   7.927  0.6477 -2.3883  0.0269
  971SOL    HW214550   1.315   2.581   7.908  0.8354  1.1687 -0.7406
  972SOL     OW14551   1.730   1.758   9.119  0.1113 -0.1307 -0.1045
  972SOL    HW114552   1.724   1.837   9.065  1.4807 -1.7658 -2.6060
  972SOL    HW214553   1.674   1.789   9.191 -0.5174 -1.4471 -0.0291
  973SOL     OW14554   0.906   1.517   8.443  0.4353 -0.6817 -0.0024
  973SOL    HW114555   0.959   1.443   8.475  0.2873 -0.8617 -0.1689
  973SOL    HW214556   0.980   1.577   8.444  0.0509 -0.2150  1.6005
  974SOL     OW14557   3.523   0.082   7.786 -0.3527  0.7106  0.4680
  974SOL    HW114558   3.593   0.073   7.721 -1.7845 -0.3980 -0.9645
  974SOL    HW214559   3.558   0.016   7.845 -2.2595 -0.9973 -0.2910
  975SOL     OW14560   0.124   2.108   9.597 -0.5903 -0.1033  0.1836
  975SOL    HW114561   0.037   2.142   9.578 -1.6927 -2.4716  0.9725
  975SOL    HW214562   0.147   2.164   9.671 -0.4121  1.4299 -1.0446
  976SOL     OW14563   0.303   2.582   0.707 -0.1742  0.5645  0.3028
  976SOL    HW114564   0.260   2.581   0.622  0.5741 -0.8319 -0.0655
  976SOL    HW214565   0.370   2.647   0.689 -0.7705  1.1004 -0.0125
  977SOL     OW14566   1.065   4.144   4.212 -0.1035  0.0203  0.4325
  977SOL    HW114567   0.981   4.146   4.167 -0.2196  1.9723  0.7362
  977SOL    HW214568   1.124   4.102   4.150 -0.9701 -2.5748  1.4037
  978SOL     OW14569   3.529   3.231   8.799  0.1152 -0.1242  0.0142
  978SOL    HW114570   3.592   3.166   8.768  0.5988  0.3550 -0.0115
  978SOL    HW214571   3.448   3.181   8.807  0.3492 -0.5416 -0.2580
  979SOL     OW14572   4.602   1.386   4.620  0.0630 -0.4825  0.5355
  979SOL    HW114573   4.512   1.418   4.617 -0.0108 -0.8430 -1.2848
  979SOL    HW214574   4.612   1.353   4.531  1.4731 -1.2249  0.9646
  980SOL     OW14575   0.635   0.472  17.342  0.2321  0.4789  0.3087
  980SOL    HW114576   0.642   0.419  17.422  1.2544  0.0851 -0.0479
  980SOL    HW214577   0.547   0.451  17.311  0.8840 -0.4944 -0.8345
  981SOL     OW14578   1.848   0.705   5.965  0.8835 -0.8961  0.0531
  981SOL    HW114579   1.825   0.612   5.962  0.2063 -0.6777 -2.0503
  981SOL    HW214580   1.898   0.723   5.885 -0.9224  1.5171 -0.5268
  982SOL     OW14581   1.284   2.840  10.180  0.2724 -0.3152  0.0313
  982SOL    HW114582   1.201   2.849  10.225 -0.1616  2.1718 -1.2267
  982SOL    HW214583   1.247   2.821  10.094 -0.1708 -0.9954  0.3822
  983SOL     OW14584   3.999   1.887   1.588  0.1626  0.9472  0.1515
  983SOL    HW114585   4.018   1.819   1.653  0.2625  2.1593  1.3939
  983SOL    HW214586   4.075   1.943   1.604  0.3372  1.0097 -0.8522
  984SOL     OW14587   1.817   3.032  12.044  0.0889  0.3631  0.1057
  984SOL    HW114588   1.865   3.099  11.996  1.8629 -1.3256 -0.5062
  984SOL    HW214589   1.730   3.071  12.046 -0.2619 -0.5199  1.8406
  985SOL     OW14590   3.424   2.447   3.667  0.0330 -0.3939 -0.0847
  985SOL    HW114591   3.511   2.408   3.658  0.4399  0.2690  0.8725
  985SOL    HW214592   3.440   2.478   3.757  1.2545  0.5503 -0.6217
  986SOL     OW14593   0.294   3.018  17.712 -0.2180 -0.7103 -0.3677
  986SOL    HW114594   0.302   3.096   0.011  1.8993 -0.8343 -0.4884
  986SOL    HW214595   0.228   3.051  17.651 -0.2437 -0.7727 -0.3739
  987SOL     OW14596   1.721   4.200   4.874 -0.3269  0.3122 -0.0208
  987SOL    HW114597   1.704   4.258   4.801 -0.0068 -1.3733 -1.4454
  987SOL    HW214598   1.779   4.253   4.929 -1.5930  1.8730 -0.2032
  988SOL     OW14599   1.111   3.665   1.535  0.5624  0.0097  0.5275
  988SOL    HW114600   1.115   3.577   1.498  0.3462 -0.6919  2.1720
  988SOL    HW214601   1.122   3.714   1.454  0.3724 -3.5620 -1.6379
  989SOL     OW14602   2.567   1.410   0.665 -0.4510 -0.1131  0.1266
  989SOL    HW114603   2.607   1.486   0.707  1.3822 -0.8236 -0.2908
  989SOL    HW214604   2.550   1.361   0.746  4.9673  2.0086  2.6018
  990SOL     OW14605   2.327   3.395  17.199  0.0953 -0.0647 -0.0633
  990SOL    HW114606   2.233   3.411  17.203  0.0804 -0.5140  1.3798
  990SOL    HW214607   2.357   3.486  17.193  1.6102 -0.6623 -1.5109
  991SOL     OW14608   1.442   1.577   9.343  0.1154 -0.0659 -0.8474
  991SOL    HW114609   1.442   1.497   9.396 -2.6238  0.2716 -0.3416
  991SOL    HW214610   1.434   1.529   9.260  0.6559  1.6114 -1.8679
  992SOL     OW14611   0.294   1.471   9.213  0.5444  0.5644  0.0687
  992SOL    HW114612   0.229   1.420   9.262  1.4671  0.2480  0.9663
  992SOL    HW214613   0.366   1.413   9.191 -0.1508 -0.6418  0.9480
  993SOL     OW14614   3.617   4.009   2.732 -0.4287 -0.0447 -0.4589
  993SOL    HW114615   3.709   3.984   2.744 -0.2160 -0.0940 -2.1236
  993SOL    HW214616   3.633   4.087   2.678 -0.0059 -0.5254 -1.0409
  994SOL     OW14617   2.547   3.151  11.431 -0.3421  0.2736  0.7579
  994SOL    HW114618   2.553   3.066  11.386 -0.0330  0.7641 -0.1226
  994SOL    HW214619   2.465   3.157  11.480 -0.8303 -0.1911  0.0026
  995SOL     OW14620   1.227   3.097   9.992  0.1421 -0.2286  0.0146
  995SOL    HW114621   1.182   3.090   9.908 -2.1798 -2.8881  1.4828
  995SOL    HW214622   1.190   3.019  10.033  0.3160  0.2356  1.0602
  996SOL     OW14623   3.556   4.651   8.178  0.0208 -0.3151  0.2124
  996SOL    HW114624   3.511   4.735   8.170 -0.3113 -0.7457 -2.5283
  996SOL    HW214625   3.649   4.672   8.179  0.0453 -0.3865 -0.5796
  997SOL     OW14626   3.873   2.157  10.909  0.7437 -0.1977 -0.4105
  997SOL    HW114627   3.934   2.160  10.835  1.6270 -0.1418  0.3272
  997SOL    HW214628   3.872   2.250  10.930 -0.0915 -0.7384  1.9957
  998SOL     OW14629   1.872   0.565   8.453 -0.0713  0.1841  0.6244
  998SOL    HW114630   1.828   0.481   8.434 -0.3362 -0.1139  2.5977
  998SOL    HW214631   1.890   0.563   8.547 -1.0492  1.6591  0.8363
  999SOL     OW14632   0.586   0.353   5.634  0.1243  0.2293 -0.2056
  999SOL    HW114633   0.575   0.439   5.593 -1.3282  0.6168  0.9716
  999SOL    HW214634   0.619   0.294   5.567 -0.1995 -0.5163  0.2926
 1000SOL     OW14635   1.540   3.352   7.900  0.1695 -0.2613  0.5086
 1000SOL    HW114636   1.619   3.311   7.934  0.8572  2.0123  1.6822
 1000SOL    HW214637   1.572   3.440   7.882 -1.7756 -0.3001 -3.0270
 1001SOL     OW14638   3.065   1.133   4.771  0.3957 -0.2240 -0.1205
 1001SOL    HW114639   3.075   1.228   4.778 -0.4031 -0.2709  1.6119
 1001SOL    HW214640   3.067   1.111   4.864 -0.1320  0.5244  0.0675
 1002SOL     OW14641   1.616   2.678   8.755  0.0951  0.8985 -0.3566
 1002SOL    HW114642   1.700   2.724   8.758  1.3938 -1.3312 -1.7351
 1002SOL    HW214643   1.602   2.692   8.662  1.6889 -1.7235 -0.9958
 1003SOL     OW14644   2.068   3.162  10.618 -0.0774  0.1017 -0.2710
 1003SOL    HW114645   2.124   3.083  10.619 -0.9399 -0.4692  1.7482
 1003SOL    HW214646   2.003   3.116  10.565  0.3892 -1.7490  0.7500
 1004SOL     OW14647   4.101   3.768   7.259 -0.5134  0.0080  0.4789
 1004SOL    HW114648   4.141   3.801   7.339 -1.9180 -2.3325  2.1379
 1004SOL    HW214649   4.170   3.718   7.214 -1.7235 -0.0692 -1.3110
 1005SOL     OW14650   2.074   4.485   4.019  0.1169  0.0599  0.1636
 1005SOL    HW114651   2.036   4.534   3.946 -2.2527 -0.7143  0.8499
 1005SOL    HW214652   2.062   4.391   4.003 -3.4807  0.9887 -2.6992
 1006SOL     OW14653   3.187   3.129   7.909 -0.3931  0.1385 -0.3391
 1006SOL    HW114654   3.101   3.119   7.869 -0.6057  0.5813  0.0134
 1006SOL    HW214655   3.237   3.119   7.828  0.6470  0.6885  0.2349
 1007SOL     OW14656   2.250   0.379   5.789 -0.1639 -0.2193 -0.2312
 1007SOL    HW114657   2.174   0.432   5.764 -2.7301 -4.2568 -0.8593
 1007SOL    HW214658   2.204   0.303   5.823  0.8346 -0.4585  0.6094
 1008SOL     OW14659   3.257   4.679   8.009 -0.3285 -0.1343 -0.0102
 1008SOL    HW114660   3.225   4.707   7.923  1.5255 -1.3960 -1.0944
 1008SOL    HW214661   3.274   0.027   8.046 -1.8118  0.1773 -0.0622
 1009SOL     OW14662   1.532   0.047   6.576 -0.3619  0.4831 -0.5609
 1009SOL    HW114663   1.581   0.063   6.495  0.9664  1.5015  0.4212
 1009SOL    HW214664   1.446   0.016   6.549 -1.2237  1.1113  1.4413
 1010SOL     OW14665   3.744   3.840   8.436  0.2921 -0.0238 -0.1921
 1010SOL    HW114666   3.753   3.746   8.452  3.2614 -0.1661 -2.8813
 1010SOL    HW214667   3.665   3.830   8.383 -0.1905 -0.0069  0.5216
 1011SOL     OW14668   4.045   0.510  16.125 -0.2319 -0.4358 -0.2078
 1011SOL    HW114669   4.023   0.418  16.112 -1.3636 -0.1554 -0.2853
 1011SOL    HW214670   4.037   0.546  16.037 -1.8923 -1.3743 -0.4286
 1012SOL     OW14671   3.146   3.375   8.040  0.3533 -0.2591 -0.2847
 1012SOL    HW114672   3.125   3.412   7.955  0.0161 -0.2169 -0.1834
 1012SOL    HW214673   3.159   3.284   8.012 -0.1823 -0.5877  0.5274
 1013SOL     OW14674   1.265   3.602   2.330  0.7063 -0.7484 -0.3221
 1013SOL    HW114675   1.295   3.566   2.413  1.1925 -1.4554 -0.8017
 1013SOL    HW214676   1.174   3.573   2.325  1.1655 -2.3561  1.0096
 1014SOL     OW14677   0.556   2.667   4.432 -0.2716  0.1065 -0.1821
 1014SOL    HW114678   0.574   2.610   4.507  0.5274  2.2554  1.2612
 1014SOL    HW214679   0.637   2.654   4.384 -0.1320  1.9932 -0.4375
 1015SOL     OW14680   1.815   2.027   8.700  0.1771  0.1704  0.6703
 1015SOL    HW114681   1.852   1.964   8.639 -1.8638 -0.5785  0.1789
 1015SOL    HW214682   1.896   2.077   8.710 -1.2567  2.2981  1.6525
 1016SOL     OW14683   2.694   0.597   7.701 -0.7978 -0.3562 -0.0175
 1016SOL    HW114684   2.749   0.518   7.704  0.1362  0.2552 -1.1484
 1016SOL    HW214685   2.674   0.595   7.795  1.7859  0.3895  0.5417
 1017SOL     OW14686   4.094   3.888   0.801  0.4299  0.3121 -0.6768
 1017SOL    HW114687   4.152   3.867   0.728 -1.3297 -0.1993 -1.9263
 1017SOL    HW214688   4.018   3.830   0.790  0.8889 -0.3015 -0.6435
 1018SOL     OW14689   2.074   3.056  16.490 -0.0659 -0.1098 -0.0568
 1018SOL    HW114690   2.101   3.135  16.537  0.9750  0.1017 -1.0442
 1018SOL    HW214691   1.980   3.072  16.479 -0.0665  0.1335  0.2693
 1019SOL     OW14692   1.513   4.287  13.402  0.5359 -0.0985  0.2149
 1019SOL    HW114693   1.502   4.272  13.496 -1.1385 -0.2751  0.0007
 1019SOL    HW214694   1.595   4.334  13.391 -0.3923  1.0968 -1.5781
 1020SOL     OW14695   2.557   0.636   1.550 -0.3077 -0.1682  0.2126
 1020SOL    HW114696   2.480   0.692   1.559 -0.1507  0.1788 -0.6494
 1020SOL    HW214697   2.621   0.706   1.556 -1.7494  1.0881  1.0109
 1021SOL     OW14698   0.134   3.510  15.131  0.0364  0.1271  0.1835
 1021SOL    HW114699   0.204   3.575  15.123  1.5944 -1.5923 -0.0405
 1021SOL    HW214700   0.176   3.440  15.081 -1.1471  0.1270 -0.8033
 1022SOL     OW14701   3.316   0.502   2.839  0.0020  0.8020 -0.2939
 1022SOL    HW114702   3.264   0.426   2.814 -0.7504  1.4890 -0.8035
 1022SOL    HW214703   3.307   0.503   2.934  0.3346 -2.1417 -0.2323
 1023SOL     OW14704   0.045   1.512  10.843 -0.4642 -0.7306 -0.3186
 1023SOL    HW114705   0.101   1.500  10.919 -0.1351  0.5841 -0.3603
 1023SOL    HW214706   4.706   1.498  10.896 -0.8645 -1.0651 -0.9862
 1024SOL     OW14707   2.704   3.909   8.019 -0.3721  0.0299  0.1787
 1024SOL    HW114708   2.629   3.893   7.961  0.4024  1.6755 -1.2837
 1024SOL    HW214709   2.685   3.999   8.045  5.2069  0.8108  1.4124
 1025SOL     OW14710   2.476   0.410   3.956  0.6237  0.1051 -0.0851
 1025SOL    HW114711   2.427   0.480   3.911  0.2455 -1.9121 -2.8251
 1025SOL    HW214712   2.511   0.448   4.036 -0.4376 -0.3794  0.6121
 1026SOL     OW14713   0.262   1.460   4.186 -0.5672  0.2154 -0.2882
 1026SOL    HW114714   0.260   1.367   4.165  1.9165  0.0779  0.1672
 1026SOL    HW214715   0.343   1.464   4.236 -0.5291 -0.6277 -0.2776
 1027SOL     OW14716   2.185   1.709   6.766 -0.9328  0.3799 -0.3491
 1027SOL    HW114717   2.115   1.672   6.820  0.6406  0.3160  1.6190
 1027SOL    HW214718   2.262   1.723   6.821 -3.2618 -1.1927  3.3241
 1028SOL     OW14719   2.869   3.992   7.769  0.1157  0.0857  0.2349
 1028SOL    HW114720   2.870   3.900   7.797 -0.4309  0.6409  2.1061
 1028SOL    HW214721   2.956   3.992   7.729  0.7529  1.1077  1.5893
 1029SOL     OW14722   1.450   1.552   6.572 -0.3073  0.0417 -0.1262
 1029SOL    HW114723   1.416   1.462   6.565 -1.2264  0.3286  0.7395
 1029SOL    HW214724   1.366   1.596   6.587  0.3120  1.6117 -1.2761
 1030SOL     OW14725   1.712   3.533   8.722 -0.5365 -0.0942 -0.2733
 1030SOL    HW114726   1.694   3.440   8.706  2.7988 -1.1278  1.7444
 1030SOL    HW214727   1.733   3.565   8.634  0.5688 -0.8842 -0.3092
 1031SOL     OW14728   4.685   2.661   2.755 -0.2230 -0.1842 -0.5374
 1031SOL    HW114729   0.026   2.649   2.705  1.6486  2.4961  1.8574
 1031SOL    HW214730   4.627   2.693   2.686  1.2157  1.5764 -0.9381
 1032SOL     OW14731   4.135   1.980   0.014 -0.3334  0.2548 -0.2404
 1032SOL    HW114732   4.220   2.006   0.051 -0.5447  1.4630 -0.5895
 1032SOL    HW214733   4.124   2.048  17.702  1.5386  0.1042 -0.7071
 1033SOL     OW14734   4.572   3.751  10.143  0.3884  0.0302  0.2635
 1033SOL    HW114735   4.627   3.677  10.118 -1.6102 -1.6169  0.7280
 1033SOL    HW214736   4.502   3.711  10.194 -0.0017  1.2206  0.6754
 1034SOL     OW14737   4.141   2.132   8.902  0.1255 -0.3847 -0.0821
 1034SOL    HW114738   4.166   2.094   8.987 -0.6369 -0.0449  0.2903
 1034SOL    HW214739   4.169   2.224   8.902 -0.2833 -0.2640 -0.3597
 1035SOL     OW14740   2.240   4.096  15.282 -0.3295 -0.3274  0.3112
 1035SOL    HW114741   2.220   4.184  15.314 -0.8148  0.0116 -0.9391
 1035SOL    HW214742   2.156   4.052  15.293 -0.6026  0.5456  1.7374
 1036SOL     OW14743   0.428   0.229   7.004 -0.0132 -0.2877  0.5496
 1036SOL    HW114744   0.443   0.247   7.097  0.2774  1.1208  0.2355
 1036SOL    HW214745   0.510   0.184   6.986  0.8665  2.0710 -1.3302
 1037SOL     OW14746   1.175   0.832   9.604  0.3273  0.2669  0.1577
 1037SOL    HW114747   1.144   0.783   9.681 -1.7637 -0.8129 -1.3707
 1037SOL    HW214748   1.248   0.779   9.572 -1.1676 -1.4496 -0.4272
 1038SOL     OW14749   4.728   2.741  12.845 -0.0589  0.7279  0.6170
 1038SOL    HW114750   4.675   2.814  12.876 -0.3678  0.7271  0.0988
 1038SOL    HW214751   4.672   2.695  12.783  0.5807  1.6131 -0.6304
 1039SOL     OW14752   0.133   3.306   6.338  0.1520 -0.3202 -0.1832
 1039SOL    HW114753   0.181   3.376   6.294 -0.0533  1.5044  2.4769
 1039SOL    HW214754   0.179   3.226   6.312 -1.0754 -1.4337  1.0234
 1040SOL     OW14755   4.621   3.440  10.173  0.5488 -0.2300 -0.8465
 1040SOL    HW114756   4.616   3.416  10.081 -1.6882  1.8079 -1.2514
 1040SOL    HW214757   4.712   3.433  10.201  0.3755 -1.8829 -0.6530
 1041SOL     OW14758   0.142   4.586   5.158  0.4299  1.3194  0.3258
 1041SOL    HW114759   0.158   4.566   5.250 -1.3717  0.2568  0.4215
 1041SOL    HW214760   0.186   4.668   5.139  1.0397  0.5952 -1.4183
 1042SOL     OW14761   1.000   4.049   8.473  0.7160  0.0738  0.6316
 1042SOL    HW114762   1.037   4.133   8.501  2.0932  0.3410 -1.9763
 1042SOL    HW214763   0.964   4.026   8.558 -1.0668 -1.0655 -0.4337
 1043SOL     OW14764   1.097   0.340   2.302  0.3398  0.6388 -0.2952
 1043SOL    HW114765   1.072   0.315   2.391 -0.9844 -1.2454 -1.1861
 1043SOL    HW214766   1.189   0.360   2.320  0.8314 -1.7018 -0.0807
 1044SOL     OW14767   1.421   1.997   5.102 -0.3170  0.7486  0.1630
 1044SOL    HW114768   1.359   1.940   5.148  0.3773 -1.3449 -1.5038
 1044SOL    HW214769   1.362   2.055   5.054 -3.0076  0.8216  3.5338
 1045SOL     OW14770   0.969   1.890   8.601 -0.0206  0.6510 -0.1074
 1045SOL    HW114771   0.877   1.865   8.599  0.7266 -2.2381  1.8028
 1045SOL    HW214772   0.961   1.982   8.627 -1.0242 -0.0816  2.1948
 1046SOL     OW14773   4.305   2.849   4.730 -0.3541 -0.1105 -0.5712
 1046SOL    HW114774   4.301   2.768   4.780 -2.0324  0.3635  0.0378
 1046SOL    HW214775   4.344   2.904   4.799 -0.0987 -0.4406 -0.4566
 1047SOL     OW14776   1.178   0.512  15.385  0.2525  0.2998 -0.1931
 1047SOL    HW114777   1.179   0.606  15.367 -1.1881  0.5083  0.8616
 1047SOL    HW214778   1.268   0.502  15.417  1.0191  0.2054 -2.3748
 1048SOL     OW14779   4.235   4.311   2.331 -0.0062  0.4801  0.5705
 1048SOL    HW114780   4.225   4.402   2.361  1.7779  0.6016  0.7681
 1048SOL    HW214781   4.255   4.267   2.413  0.9316  0.6685  0.4478
 1049SOL     OW14782   3.567   1.578  11.017 -0.1539  0.5765 -0.1438
 1049SOL    HW114783   3.555   1.672  11.004 -0.0849  0.7632  1.0977
 1049SOL    HW214784   3.626   1.569  11.092  0.6893  1.3352 -0.7206
 1050SOL     OW14785   2.614   4.041   7.192  0.2227  0.0710  0.3489
 1050SOL    HW114786   2.662   4.077   7.117 -0.4063  1.9736  0.8593
 1050SOL    HW214787   2.532   4.013   7.153  0.9863  1.6137 -2.4125
 1051SOL     OW14788   2.197   1.608   1.322 -0.0176  0.2775  0.2912
 1051SOL    HW114789   2.252   1.642   1.392 -0.8078  0.5023  0.7960
 1051SOL    HW214790   2.266   1.599   1.256  0.4911  1.2066  0.6915
 1052SOL     OW14791   0.299   2.966   1.242 -0.4571 -0.4283 -0.0116
 1052SOL    HW114792   0.284   2.979   1.148  2.9958  0.7178 -0.3980
 1052SOL    HW214793   0.374   2.908   1.237 -0.2711 -0.2397  0.6132
 1053SOL     OW14794   3.394   1.949   3.987  0.4351 -0.1952 -0.1015
 1053SOL    HW114795   3.462   2.003   4.028  1.2020  1.7764 -3.9543
 1053SOL    HW214796   3.425   1.936   3.898 -0.2059  1.3778 -0.5532
 1054SOL     OW14797   4.304   1.310  14.138  0.1310 -0.0425 -0.7860
 1054SOL    HW114798   4.303   1.311  14.042 -0.5796 -1.6820 -0.7922
 1054SOL    HW214799   4.213   1.326  14.162  0.0762 -1.6272  0.0656
 1055SOL     OW14800   4.225   1.260   8.113  0.2931 -0.0422  0.0297
 1055SOL    HW114801   4.193   1.171   8.124  0.5746 -0.3278 -1.4345
 1055SOL    HW214802   4.178   1.283   8.032  1.3384 -0.3839 -0.6669
 1056SOL     OW14803   3.749   2.056   7.073  0.0252 -0.5776 -0.0429
 1056SOL    HW114804   3.791   2.021   7.152 -0.5932 -1.4254 -0.0892
 1056SOL    HW214805   3.661   2.022   7.091 -1.2677  2.1327 -1.0754
 1057SOL     OW14806   4.107   0.463  11.799 -0.1982  0.2875  0.4172
 1057SOL    HW114807   4.131   0.549  11.766 -1.8184  1.3169  1.8956
 1057SOL    HW214808   4.099   0.413  11.718  0.6718 -0.1660  0.6133
 1058SOL     OW14809   0.237   0.641   4.052  0.1216  0.3862 -0.4872
 1058SOL    HW114810   0.276   0.564   4.009  0.3646 -0.1420  0.6914
 1058SOL    HW214811   0.172   0.659   3.984 -0.8859 -2.2321 -0.2375
 1059SOL     OW14812   2.656   1.202   5.026 -0.6057  0.1346 -0.0844
 1059SOL    HW114813   2.696   1.137   5.083 -3.2118 -1.7712 -0.4339
 1059SOL    HW214814   2.638   1.147   4.950 -1.1635  0.3602 -0.1188
 1060SOL     OW14815   4.390   1.958   8.179  0.2236  0.3517 -0.4266
 1060SOL    HW114816   4.432   1.890   8.232 -1.1520  0.6185  1.0017
 1060SOL    HW214817   4.339   1.999   8.249  0.7559 -0.7204  0.5686
 1061SOL     OW14818   4.543   0.268   8.521  0.7568 -0.3392 -0.1871
 1061SOL    HW114819   4.601   0.335   8.556  1.5762 -0.6171 -1.0235
 1061SOL    HW214820   4.487   0.242   8.595  1.1483  1.3508  0.7073
 1062SOL     OW14821   1.595   2.687  15.858  0.5323  0.5545 -0.3133
 1062SOL    HW114822   1.589   2.751  15.787 -0.6065  1.6930  0.8022
 1062SOL    HW214823   1.583   2.748  15.932  2.6558 -0.2043  0.6738
 1063SOL     OW14824   3.906   3.179   7.485 -0.2974  0.0335 -0.1782
 1063SOL    HW114825   3.879   3.206   7.573 -0.8232  2.1996 -1.0105
 1063SOL    HW214826   3.848   3.241   7.440 -0.8834 -1.6281 -1.6979
 1064SOL     OW14827   0.577   4.649  11.048 -0.8747  0.1966 -0.3853
 1064SOL    HW114828   0.665   4.624  11.077  0.3040  5.5700  0.5868
 1064SOL    HW214829   0.523   4.579  11.086  0.4474  0.3663  1.8176
 1065SOL     OW14830   3.932   1.424   8.607  0.8247  0.1456 -0.0235
 1065SOL    HW114831   3.848   1.445   8.566 -0.2053 -1.3887  1.3136
 1065SOL    HW214832   3.987   1.488   8.561  0.4002  0.1684 -0.4989
 1066SOL     OW14833   2.767   4.669   8.906 -0.1164  0.4492 -0.1789
 1066SOL    HW114834   2.701   4.634   8.965  1.5355  0.4971  1.7090
 1066SOL    HW214835   2.739   4.617   8.831 -1.6310 -1.9047  2.0083
 1067SOL     OW14836   2.760   3.449  11.509  0.2632 -0.1423 -0.1145
 1067SOL    HW114837   2.701   3.435  11.435 -0.3794  0.0476  0.3581
 1067SOL    HW214838   2.767   3.544  11.521  3.6101 -0.0988 -2.4984
 1068SOL     OW14839   3.583   4.071   7.031  0.4034 -0.2731 -0.1923
 1068SOL    HW114840   3.580   4.161   7.066  0.8139 -0.2646 -0.1776
 1068SOL    HW214841   3.648   4.080   6.962  2.1322 -1.8092  1.2343
 1069SOL     OW14842   1.107   4.194   8.175 -0.1752 -0.0719 -0.0341
 1069SOL    HW114843   1.177   4.210   8.111 -0.1074  0.2352  0.1194
 1069SOL    HW214844   1.032   4.174   8.120  0.2603 -0.1242 -0.6137
 1070SOL     OW14845   2.015   1.095   7.685 -0.7612  0.2272 -0.0646
 1070SOL    HW114846   2.034   1.008   7.650  0.6344  0.1520  0.8362
 1070SOL    HW214847   1.922   1.079   7.698 -0.9624  1.2276 -0.2193
 1071SOL     OW14848   4.300   4.221   7.781 -0.2515 -0.0096  0.3810
 1071SOL    HW114849   4.342   4.170   7.713 -0.9999 -1.3234  0.8957
 1071SOL    HW214850   4.265   4.151   7.837 -0.0352 -0.3953  0.0321
 1072SOL     OW14851   3.621   3.979   6.491 -0.2492 -0.2077 -0.3916
 1072SOL    HW114852   3.694   3.928   6.525 -0.1756  0.0865 -0.0945
 1072SOL    HW214853   3.640   3.983   6.398 -1.8145  1.3568 -0.6418
 1073SOL     OW14854   4.519   2.679   3.353  0.4450 -0.2368  0.1930
 1073SOL    HW114855   4.528   2.598   3.404  0.2086 -0.3080  0.1228
 1073SOL    HW214856   4.606   2.692   3.314 -0.7699  1.3392 -1.9587
 1074SOL     OW14857   2.153   0.368   7.228 -0.5611 -0.2381 -0.0575
 1074SOL    HW114858   2.228   0.345   7.282 -2.2848  0.1477  2.4928
 1074SOL    HW214859   2.175   0.451   7.186 -1.4231 -0.0813 -0.2163
 1075SOL     OW14860   4.023   2.366   5.134 -0.6793  0.0851  0.0496
 1075SOL    HW114861   3.942   2.328   5.101 -0.4921 -0.1623 -0.1249
 1075SOL    HW214862   3.990   2.454   5.151 -0.8582  0.1664 -0.7273
 1076SOL     OW14863   2.876   2.958   4.905  0.1575  0.2320 -0.0061
 1076SOL    HW114864   2.939   3.031   4.899 -0.5053  0.7950 -0.0804
 1076SOL    HW214865   2.943   2.892   4.888 -0.2573  0.1865 -1.4909
 1077SOL     OW14866   0.536   3.403  15.063 -0.8675 -0.2748 -0.0256
 1077SOL    HW114867   0.506   3.441  15.146 -2.9506 -0.2886 -0.7622
 1077SOL    HW214868   0.618   3.371  15.100 -0.5327 -0.5296 -1.0124
 1078SOL     OW14869   3.337   1.768   4.413 -0.0485  0.1720  0.5455
 1078SOL    HW114870   3.274   1.819   4.463 -0.9730  0.4444 -0.9008
 1078SOL    HW214871   3.325   1.799   4.323  3.1634 -2.8376 -0.9273
 1079SOL     OW14872   3.622   0.104   3.740 -0.1408  0.0693  0.3809
 1079SOL    HW114873   3.694   0.150   3.698  0.6728 -0.8475  0.7778
 1079SOL    HW214874   3.607   0.170   3.808 -2.0835 -0.0814  0.1064
 1080SOL     OW14875   2.869   0.479   4.680  0.2609  0.3108 -0.6766
 1080SOL    HW114876   2.933   0.442   4.618  0.4373  0.6412 -0.6915
 1080SOL    HW214877   2.789   0.435   4.652  0.8568 -0.8397 -0.5867
 1081SOL     OW14878   3.631   3.911  10.432  0.0437  0.0318 -0.3844
 1081SOL    HW114879   3.548   3.888  10.390  1.3784  0.5948 -3.2903
 1081SOL    HW214880   3.668   3.983  10.381  2.4185 -0.2705  0.9361
 1082SOL     OW14881   0.905   0.167  16.788 -0.2817 -0.2839  0.7400
 1082SOL    HW114882   0.970   0.201  16.727 -3.1289  1.1761 -1.4166
 1082SOL    HW214883   0.949   0.193  16.870  0.0794 -0.2344  0.5321
 1083SOL     OW14884   3.010   4.227   7.023  0.1623 -0.2392 -0.1852
 1083SOL    HW114885   3.050   4.296   6.970 -0.0031 -0.5621 -0.7301
 1083SOL    HW214886   3.088   4.187   7.063  0.4323 -0.3896 -0.8533
 1084SOL     OW14887   0.679   2.132  11.710 -0.0467  0.3464 -0.5208
 1084SOL    HW114888   0.673   2.036  11.710  0.5368  0.3157 -1.7488
 1084SOL    HW214889   0.659   2.146  11.618 -3.6159  0.5193  0.2758
 1085SOL     OW14890   3.038   0.511   9.096  0.6340  0.6256  0.9045
 1085SOL    HW114891   3.026   0.481   9.006  0.7591  2.3055  0.3340
 1085SOL    HW214892   3.108   0.453   9.128  0.1361 -0.6994 -0.3858
 1086SOL     OW14893   0.209   0.082   3.413 -0.2968  0.0640 -0.4860
 1086SOL    HW114894   0.137   0.024   3.439  0.7923 -1.5931 -1.1576
 1086SOL    HW214895   0.260   0.076   3.493 -0.4098  2.4560 -0.2436
 1087SOL     OW14896   0.133   0.738   9.836  0.3520 -0.2726  0.1008
 1087SOL    HW114897   0.092   0.678   9.899 -0.9770  0.1086 -0.3817
 1087SOL    HW214898   0.133   0.678   9.761 -2.3671  0.0695 -0.1850
 1088SOL     OW14899   1.649   3.534   4.206  0.4025  0.5058  0.7909
 1088SOL    HW114900   1.641   3.443   4.175  1.8274  0.3210  0.9506
 1088SOL    HW214901   1.602   3.581   4.137  0.0887 -2.1586 -0.8456
 1089SOL     OW14902   2.635   0.388   3.338 -0.7338 -0.0239 -0.4093
 1089SOL    HW114903   2.547   0.425   3.346 -0.7795 -0.3537  0.5662
 1089SOL    HW214904   2.625   0.299   3.305  0.2606  0.1256 -1.0814
 1090SOL     OW14905   2.556   1.857  12.340  0.3268 -0.5750 -0.0729
 1090SOL    HW114906   2.605   1.775  12.349  0.8285 -0.5012 -2.1558
 1090SOL    HW214907   2.625   1.918  12.368 -0.9048  1.4476 -1.5214
 1091SOL     OW14908   0.336   4.561   3.520  0.1100 -0.1961  0.1930
 1091SOL    HW114909   0.321   4.636   3.578  0.2129 -1.1573  1.4759
 1091SOL    HW214910   0.428   4.544   3.536  0.2193  0.9042  0.7291
 1092SOL     OW14911   2.100   0.822   7.628 -0.5464  0.0917  0.1540
 1092SOL    HW114912   2.142   0.750   7.675  1.3864  0.4050 -1.0552
 1092SOL    HW214913   2.174   0.852   7.574  0.6737  0.8740  2.2401
 1093SOL     OW14914   1.222   1.971   8.016 -0.1071 -0.0512  0.0349
 1093SOL    HW114915   1.236   2.009   7.930  1.6291  0.0319  0.3672
 1093SOL    HW214916   1.173   2.042   8.058 -0.1544  1.3244 -2.3556
 1094SOL     OW14917   3.574   0.548   5.530  0.0303  0.0670  0.3565
 1094SOL    HW114918   3.614   0.509   5.607  1.5047 -0.4091 -0.6461
 1094SOL    HW214919   3.482   0.533   5.549 -0.6412  1.2902 -1.9774
 1095SOL     OW14920   4.097   3.604  17.218 -0.5646 -0.1058  0.0596
 1095SOL    HW114921   4.029   3.585  17.153 -0.4138 -1.0187  0.1746
 1095SOL    HW214922   4.038   3.635  17.287  0.2509  1.8881 -0.1346
 1096SOL     OW14923   4.614   4.286   3.872 -0.1549  0.1503  0.2358
 1096SOL    HW114924   4.633   4.193   3.859  2.3397  0.6363  0.4603
 1096SOL    HW214925   4.521   4.281   3.896 -0.2771  1.7732  0.1051
 1097SOL     OW14926   3.764   4.401  10.904  0.0262  0.2028  0.2191
 1097SOL    HW114927   3.735   4.395  10.995  1.7931 -0.1188  0.7688
 1097SOL    HW214928   3.680   4.407  10.859 -0.5668  0.5002  1.3735
 1098SOL     OW14929   2.845   0.473   6.940  0.0015  0.5233 -0.2761
 1098SOL    HW114930   2.911   0.491   6.873 -3.1880  4.2074 -2.4327
 1098SOL    HW214931   2.877   0.391   6.976 -0.5298  0.5077  0.1529
 1099SOL     OW14932   4.056   3.204   1.838 -0.2348 -0.4414  0.2527
 1099SOL    HW114933   3.981   3.253   1.803 -1.2487 -0.5824  2.2408
 1099SOL    HW214934   4.047   3.125   1.786  1.2523  0.0642 -0.7645
 1100SOL     OW14935   3.529   0.608  11.712  0.0730 -0.1399 -0.7386
 1100SOL    HW114936   3.608   0.554  11.723  0.8815  1.5305  1.6094
 1100SOL    HW214937   3.478   0.570  11.641  2.4464 -0.7231 -2.1370
 1101SOL     OW14938   0.377   1.217   5.463 -0.1885  0.3612 -0.6234
 1101SOL    HW114939   0.368   1.211   5.368 -2.3917  1.4868 -0.4957
 1101SOL    HW214940   0.337   1.133   5.488  1.2126 -0.1397 -0.0552
 1102SOL     OW14941   2.125   1.360   4.801  0.0724 -0.2557 -0.3127
 1102SOL    HW114942   2.067   1.388   4.729 -2.4566 -0.5545  1.6215
 1102SOL    HW214943   2.122   1.434   4.862 -0.5386  1.9444 -2.9670
 1103SOL     OW14944   2.384   1.788   6.179 -0.3000  0.4281 -0.4962
 1103SOL    HW114945   2.461   1.784   6.123  0.4738  0.1967  0.5893
 1103SOL    HW214946   2.369   1.882   6.186  0.4032  0.3688  1.6378
 1104SOL     OW14947   1.237   2.586  17.107 -0.3314 -1.0104  0.0619
 1104SOL    HW114948   1.166   2.526  17.084 -0.8888 -0.5796  0.6544
 1104SOL    HW214949   1.205   2.671  17.076  1.0871 -0.1410  1.0027
 1105SOL     OW14950   1.701   0.881   4.423  0.3924  0.0433  0.4233
 1105SOL    HW114951   1.707   0.934   4.502  0.2753 -0.1001  0.5258
 1105SOL    HW214952   1.737   0.796   4.447  1.0278  0.0447 -0.4966
 1106SOL     OW14953   1.525   3.688   6.778 -0.2644 -0.2452  0.6309
 1106SOL    HW114954   1.441   3.668   6.738  0.9458  0.3131 -2.2060
 1106SOL    HW214955   1.585   3.669   6.705 -1.2681  0.9463 -0.4946
 1107SOL     OW14956   3.621   0.411   3.356 -0.1893  0.2778  0.5224
 1107SOL    HW114957   3.596   0.320   3.341  0.6929 -0.0394  0.9164
 1107SOL    HW214958   3.550   0.469   3.380 -0.7608 -1.2339  2.5302
 1108SOL     OW14959   0.049   4.287   4.297  0.3377 -0.0454 -0.1786
 1108SOL    HW114960   0.103   4.350   4.249 -0.7039  1.1999  0.2735
 1108SOL    HW214961   0.027   4.233   4.221  0.1882 -0.9260  0.4882
 1109SOL     OW14962   4.698   4.724  14.073  0.0695  0.0368 -0.2610
 1109SOL    HW114963   4.677   4.647  14.021 -1.1231 -0.0912  0.4022
 1109SOL    HW214964   4.626   4.730  14.136 -2.1572  1.1647 -2.8755
 1110SOL     OW14965   4.301   0.934  16.013  0.2136 -0.9465 -0.1104
 1110SOL    HW114966   4.306   0.883  15.932  0.8434  2.5673 -2.3054
 1110SOL    HW214967   4.393   0.963  16.016 -0.0477  0.0429 -1.3157
 1111SOL     OW14968   4.306   2.420   3.269 -0.0617  0.4756 -0.6747
 1111SOL    HW114969   4.373   2.372   3.219  1.1358  0.4903  0.9014
 1111SOL    HW214970   4.363   2.440   3.344 -2.2829 -0.8038  1.3629
 1112SOL     OW14971   4.408   2.144   3.889  0.0567 -0.0611 -0.6427
 1112SOL    HW114972   4.337   2.173   3.946 -0.8087 -1.7583 -0.8621
 1112SOL    HW214973   4.393   2.214   3.825 -1.1409 -0.2212 -0.5408
 1113SOL     OW14974   0.795   0.490   6.022 -0.0068  0.0475 -0.3195
 1113SOL    HW114975   0.719   0.472   5.967 -0.0656 -1.3157  0.1894
 1113SOL    HW214976   0.760   0.541   6.095  1.3844  0.6191 -0.0525
 1114SOL     OW14977   0.932   3.049   1.529  0.6049  0.6892 -1.1357
 1114SOL    HW114978   0.937   2.992   1.605  0.8929  0.2516 -1.4828
 1114SOL    HW214979   0.890   2.989   1.467  0.4600  0.3117 -0.6766
 1115SOL     OW14980   0.685   1.695   5.362 -0.1019 -0.2816  0.8425
 1115SOL    HW114981   0.763   1.744   5.335 -1.4301  1.2422 -0.1852
 1115SOL    HW214982   0.620   1.764   5.363  0.5942  0.3716  2.1167
 1116SOL     OW14983   3.684   4.722   7.590 -0.0130 -0.3360 -0.3256
 1116SOL    HW114984   3.669   4.699   7.498  0.1028 -3.9863  0.5527
 1116SOL    HW214985   3.729   4.643   7.622 -0.8604 -0.4303  0.6409
 1117SOL     OW14986   3.864   4.665  17.714  0.1576  0.1816  0.0738
 1117SOL    HW114987   3.858   0.020  17.698 -0.0523  0.2153  0.3507
 1117SOL    HW214988   3.770   4.649  17.727 -0.5527  3.7782 -0.6194
 1118SOL     OW14989   3.858   4.575   5.811  0.0554  0.1491 -0.0382
 1118SOL    HW114990   3.903   4.592   5.894 -0.8835  1.5790  0.1823
 1118SOL    HW214991   3.935   4.591   5.756  0.0340 -0.9814 -0.4028
 1119SOL     OW14992   3.176   0.199   4.344  0.4370 -0.0032 -0.3364
 1119SOL    HW114993   3.133   0.270   4.390  0.1535  0.7019 -1.6695
 1119SOL    HW214994   3.197   0.142   4.418 -0.1771  1.1658  0.7313
 1120SOL     OW14995   3.474   1.045   8.293 -0.5587 -0.0759 -0.5929
 1120SOL    HW114996   3.382   1.020   8.283 -1.1277  1.8232 -0.0294
 1120SOL    HW214997   3.504   0.980   8.357  0.0311  0.1232 -0.6728
 1121SOL     OW14998   2.364   2.633   5.637 -0.2539 -0.5696  0.5879
 1121SOL    HW114999   2.386   2.662   5.725  0.8817 -0.2335  0.1907
 1121SOL    HW215000   2.449   2.605   5.601 -0.4290  0.1629 -0.4013
 1122SOL     OW15001   1.173   2.641   7.612  0.0927  0.2080  0.0347
 1122SOL    HW115002   1.146   2.554   7.639 -1.7376  0.9386  0.5732
 1122SOL    HW215003   1.226   2.656   7.691 -0.5930 -1.2994  0.7774
 1123SOL     OW15004   3.267   4.094   6.446 -0.0492  0.3167 -0.3431
 1123SOL    HW115005   3.359   4.067   6.446  0.1369  0.9388 -1.2519
 1123SOL    HW215006   3.230   4.049   6.522 -1.4286  0.2553 -1.0374
 1124SOL     OW15007   4.131   4.263   6.515  0.4380  0.7008  0.5194
 1124SOL    HW115008   4.105   4.307   6.596  0.9712  2.1512 -0.0857
 1124SOL    HW215009   4.087   4.180   6.534  2.9288 -0.8165 -0.2864
 1125SOL     OW15010   1.584   3.482   4.509 -0.0039  0.1892  0.0983
 1125SOL    HW115011   1.574   3.517   4.421  0.9937  0.7960  0.2229
 1125SOL    HW215012   1.572   3.389   4.491  0.1490  0.0140  0.8860
 1126SOL     OW15013   3.993   4.430   8.062 -0.2780  0.2157 -0.6736
 1126SOL    HW115014   3.945   4.361   8.017  0.1669 -1.2998  1.1935
 1126SOL    HW215015   4.016   4.389   8.145 -1.8071 -0.0802 -0.3984
 1127SOL     OW15016   0.141   1.760   1.512 -0.0383 -0.7941 -0.4410
 1127SOL    HW115017   0.185   1.711   1.443  0.2545 -0.6553 -0.3561
 1127SOL    HW215018   0.217   1.810   1.543 -0.9919  0.5242 -0.1913
 1128SOL     OW15019   4.690   2.966   3.878 -0.1403 -0.8438  0.1427
 1128SOL    HW115020   0.020   2.905   3.901  1.5186  0.3747 -1.5992
 1128SOL    HW215021   4.629   2.905   3.836 -0.8250  1.3793 -2.1420
 1129SOL     OW15022   4.206   1.379   7.430  0.1146  0.1852  0.1698
 1129SOL    HW115023   4.242   1.295   7.460 -0.2688  0.6035  1.8426
 1129SOL    HW215024   4.280   1.437   7.446  1.5602 -1.7473  0.4560
 1130SOL     OW15025   0.970   0.191   7.944  0.0015  0.2578 -0.0800
 1130SOL    HW115026   1.020   0.201   7.863  0.1859 -0.6586 -0.0783
 1130SOL    HW215027   1.039   0.158   8.002  2.7188  2.4049 -2.0500
 1131SOL     OW15028   1.139   1.458   6.602  0.2275  0.6363  0.5761
 1131SOL    HW115029   1.169   1.371   6.627 -1.2072  0.4125  1.4785
 1131SOL    HW215030   1.050   1.436   6.576 -0.0695  0.6907  1.5535
 1132SOL     OW15031   4.426   3.144   1.287 -0.9834  0.8483  0.5932
 1132SOL    HW115032   4.337   3.122   1.258  0.6742 -1.9111 -2.4758
 1132SOL    HW215033   4.469   3.139   1.202  0.1886  0.5507  1.2018
 1133SOL     OW15034   3.419   0.655   7.047 -0.3038 -0.4822  0.5499
 1133SOL    HW115035   3.455   0.577   7.090 -0.9528 -0.5245  1.0190
 1133SOL    HW215036   3.473   0.667   6.969  1.4764 -0.0968  1.8223
 1134SOL     OW15037   0.849   3.832  13.018  0.1660 -0.1879 -0.3905
 1134SOL    HW115038   0.942   3.847  13.035  0.0196 -0.0194  0.2533
 1134SOL    HW215039   0.851   3.764  12.951  3.7112 -0.6163  0.1104
 1135SOL     OW15040   1.426   0.506   4.588 -0.3759  0.7816 -0.1832
 1135SOL    HW115041   1.440   0.525   4.681  0.6673 -0.0878 -0.1529
 1135SOL    HW215042   1.440   0.411   4.585  1.1062  1.0465 -1.3483
 1136SOL     OW15043   4.462   2.849   6.252  0.7792 -0.3970 -0.5953
 1136SOL    HW115044   4.515   2.770   6.259  0.9116 -0.0802  2.0294
 1136SOL    HW215045   4.395   2.817   6.312  0.9087 -0.0467 -0.2606
 1137SOL     OW15046   4.273   0.447   5.055  0.4696 -0.2620  0.0310
 1137SOL    HW115047   4.302   0.426   4.966 -1.3112 -1.0456 -0.3619
 1137SOL    HW215048   4.339   0.513   5.078 -0.1057  0.0933  0.6465
 1138SOL     OW15049   0.352   4.199  16.324  0.5330 -0.3524 -0.0062
 1138SOL    HW115050   0.339   4.176  16.232  0.0236  0.5842 -0.1718
 1138SOL    HW215051   0.423   4.138  16.346  0.4913 -0.5542 -0.4181
 1139SOL     OW15052   0.151   3.002   9.706 -0.0938 -0.1213 -0.0179
 1139SOL    HW115053   0.120   2.945   9.636  0.6348  2.6038 -2.5365
 1139SOL    HW215054   0.225   3.032   9.653  0.1890 -0.0655  0.3998
 1140SOL     OW15055   2.386   1.865   1.224  0.3131  0.1192 -0.2064
 1140SOL    HW115056   2.352   1.934   1.166 -0.8548 -0.8071 -0.6378
 1140SOL    HW215057   2.302   1.825   1.247  0.0764  0.5762 -0.2696
 1141SOL     OW15058   4.738   2.224   9.199  0.2274  0.0336 -0.7793
 1141SOL    HW115059   0.047   2.290   9.149  0.4040 -1.2174 -2.2686
 1141SOL    HW215060   0.003   2.156   9.131 -2.3072 -0.4866 -0.4139
 1142SOL     OW15061   1.211   3.540   8.453 -0.2783  0.4930 -0.1087
 1142SOL    HW115062   1.253   3.458   8.429 -0.9123  0.2103 -0.2556
 1142SOL    HW215063   1.281   3.594   8.489  0.7342 -1.5290  0.9472
 1143SOL     OW15064   4.227   0.886  11.094 -0.7695  0.5734 -0.0133
 1143SOL    HW115065   4.199   0.813  11.038 -0.1169  0.5256 -0.2709
 1143SOL    HW215066   4.162   0.875  11.163 -0.4861 -2.7548 -0.2906
 1144SOL     OW15067   4.472   4.106   7.624 -0.3993  0.0792 -0.1922
 1144SOL    HW115068   4.561   4.133   7.645 -0.1045 -1.1503  0.1453
 1144SOL    HW215069   4.482   4.071   7.535  0.7789  1.6891 -0.6842
 1145SOL     OW15070   2.157   4.030   2.969 -0.6297 -0.4918 -0.2570
 1145SOL    HW115071   2.225   4.006   2.907  0.7158  3.3320 -0.2595
 1145SOL    HW215072   2.208   4.013   3.048  2.7391  2.4127 -1.8343
 1146SOL     OW15073   0.295   2.745   9.511  0.3130  0.5949 -0.1081
 1146SOL    HW115074   0.289   2.677   9.443  1.2537  1.0400 -0.6416
 1146SOL    HW215075   0.215   2.790   9.484  0.7925  0.8956 -1.0566
 1147SOL     OW15076   3.664   2.665  14.627  0.2535 -0.3473  0.1441
 1147SOL    HW115077   3.744   2.654  14.677 -0.3356 -3.1051  0.4774
 1147SOL    HW215078   3.701   2.729  14.566 -2.3615 -0.5099 -1.6482
 1148SOL     OW15079   3.606   0.406   1.519  0.0088  0.1388 -0.4832
 1148SOL    HW115080   3.659   0.473   1.563  1.3647 -2.5101  1.8794
 1148SOL    HW215081   3.665   0.331   1.519 -0.9111 -0.5837 -1.1944
 1149SOL     OW15082   0.136   0.017   1.780 -0.1805 -0.1046 -0.4274
 1149SOL    HW115083   0.058   0.067   1.804  1.5349  2.0246  0.7745
 1149SOL    HW215084   0.177   0.012   1.867  2.2451  1.9741 -1.4541
 1150SOL     OW15085   1.317   1.227   4.298 -0.3574 -0.2271  0.2715
 1150SOL    HW115086   1.379   1.180   4.242 -1.6065 -1.7870  0.2013
 1150SOL    HW215087   1.231   1.215   4.257  0.5835  0.3050 -1.8419
 1151SOL     OW15088   1.836   2.878  15.272 -0.3477 -0.2581 -0.2287
 1151SOL    HW115089   1.831   2.969  15.242  2.4039  0.4313  1.4079
 1151SOL    HW215090   1.752   2.853  15.233  1.2208 -2.0803 -2.3858
 1152SOL     OW15091   1.142   0.602   0.091 -0.2350 -0.2556 -0.0048
 1152SOL    HW115092   1.118   0.687   0.127  1.0487  0.0498  0.1171
 1152SOL    HW215093   1.061   0.553   0.103  0.3966 -0.6383  2.6625
 1153SOL     OW15094   4.478   1.513  13.738  0.4610 -0.2091 -0.5666
 1153SOL    HW115095   4.557   1.547  13.781 -0.7191  0.3330  1.1608
 1153SOL    HW215096   4.409   1.578  13.754  1.0766  0.5859 -1.1438
 1154SOL     OW15097   2.534   3.840   2.780 -0.0719  0.2792 -0.7360
 1154SOL    HW115098   2.516   3.774   2.847 -0.6035  2.4389  1.2937
 1154SOL    HW215099   2.456   3.896   2.785  1.0631  1.6480  1.5914
 1155SOL     OW15100   4.685   4.472   6.043  0.3476 -0.2909 -0.2908
 1155SOL    HW115101   4.706   4.517   6.125 -0.7989  2.1465 -1.3357
 1155SOL    HW215102   4.728   4.532   5.982  0.9327  0.2647  0.6694
 1156SOL     OW15103   2.199   0.945   5.765  0.2290  0.5223 -0.0069
 1156SOL    HW115104   2.259   0.965   5.837  1.5883 -0.6870 -0.8166
 1156SOL    HW215105   2.129   1.004   5.793 -1.3736 -0.1464 -2.6208
 1157SOL     OW15106   0.197   2.002   8.023  0.6884  0.3949  0.4601
 1157SOL    HW115107   0.205   2.098   8.024  2.7153  0.2348  0.8422
 1157SOL    HW215108   0.124   1.986   8.083  0.0067 -1.5849 -0.8982
 1158SOL     OW15109   4.007   3.628   6.107 -0.3231  0.4091  0.4919
 1158SOL    HW115110   3.958   3.675   6.040 -1.3979 -0.5559  0.6065
 1158SOL    HW215111   4.075   3.582   6.058 -1.1329  0.3371 -0.5533
 1159SOL     OW15112   0.557   3.719  11.886  0.5849  0.4175 -0.3375
 1159SOL    HW115113   0.583   3.631  11.857 -3.1222 -0.8005  0.0648
 1159SOL    HW215114   0.643   3.759  11.874 -0.0777  2.0740  0.4351
 1160SOL     OW15115   1.328   3.552   6.633 -0.4852  0.6671 -0.1188
 1160SOL    HW115116   1.298   3.463   6.651 -0.4977  0.2665 -2.1594
 1160SOL    HW215117   1.346   3.551   6.539 -0.9624  0.1263 -0.2011
 1161SOL     OW15118   1.856   0.901   1.465  0.0808  0.8099 -0.4494
 1161SOL    HW115119   1.862   0.863   1.378 -2.5843  0.8422 -0.6388
 1161SOL    HW215120   1.818   0.830   1.516  0.6250  0.5163 -0.4502
 1162SOL     OW15121   3.092   4.195   0.636  0.2193  0.0686 -0.1494
 1162SOL    HW115122   3.051   4.174   0.553 -0.4352 -2.6872  0.8936
 1162SOL    HW215123   3.147   4.117   0.644  2.3817  1.6014  0.0924
 1163SOL     OW15124   2.210   3.107   8.426  0.0679 -0.1865  0.1217
 1163SOL    HW115125   2.295   3.093   8.383  0.5394 -0.0738  1.0240
 1163SOL    HW215126   2.179   3.019   8.405 -1.1015 -0.2312  2.1006
 1164SOL     OW15127   2.379   2.555   4.831 -0.2802  0.2395 -0.3619
 1164SOL    HW115128   2.440   2.482   4.818 -0.3852 -0.2730  2.0593
 1164SOL    HW215129   2.315   2.514   4.890  1.5753 -0.5738  1.0927
 1165SOL     OW15130   1.945   4.655   7.353  0.2307  0.5273 -0.5333
 1165SOL    HW115131   1.888   4.671   7.428 -0.5983 -1.7574 -0.6924
 1165SOL    HW215132   2.028   4.700   7.374  1.1598 -0.4578 -2.1149
 1166SOL     OW15133   2.124   0.873   8.281 -0.9877 -0.4998 -0.2950
 1166SOL    HW115134   2.097   0.783   8.262 -1.3269 -0.9110  2.1370
 1166SOL    HW215135   2.159   0.855   8.368 -3.2668 -0.1945  0.6816
 1167SOL     OW15136   0.943   3.158   7.739 -0.3559  0.7155 -0.2526
 1167SOL    HW115137   0.912   3.107   7.813  0.6349  0.2693 -0.1430
 1167SOL    HW215138   1.029   3.117   7.729 -0.7814  0.1344 -1.5444
 1168SOL     OW15139   0.056   3.483   2.536  0.2064 -0.7849  0.7457
 1168SOL    HW115140   0.151   3.490   2.547  0.0193 -1.5825  2.8554
 1168SOL    HW215141   0.027   3.571   2.558 -3.5512 -1.7188 -0.4257
 1169SOL     OW15142   2.406   0.255   8.523 -0.3844  0.0883  0.1937
 1169SOL    HW115143   2.317   0.228   8.500 -0.0561 -0.3539 -0.5426
 1169SOL    HW215144   2.447   0.259   8.437 -0.3762 -1.7462  0.1195
 1170SOL     OW15145   4.003   3.275   3.892  0.0018  0.7058  0.5737
 1170SOL    HW115146   3.934   3.226   3.849 -0.6788  0.1091  2.3541
 1170SOL    HW215147   4.014   3.218   3.968 -1.2796 -1.5809 -0.9849
 1171SOL     OW15148   3.733   4.176   1.452  0.5676 -1.0524  0.1687
 1171SOL    HW115149   3.808   4.220   1.411 -0.7142  1.1635  0.2525
 1171SOL    HW215150   3.725   4.115   1.378 -0.2326  2.7036 -2.7847
 1172SOL     OW15151   0.538   3.498   5.122 -0.0240 -0.3250 -0.5938
 1172SOL    HW115152   0.507   3.585   5.097  0.3307 -0.8145 -2.7531
 1172SOL    HW215153   0.464   3.441   5.099  0.8983 -1.7016 -0.1467
 1173SOL     OW15154   4.138   1.953   6.368 -0.0369 -0.3070  0.4086
 1173SOL    HW115155   4.120   1.866   6.403  1.4896 -0.4017  0.9294
 1173SOL    HW215156   4.111   2.013   6.438 -0.6738 -1.4029  1.1088
 1174SOL     OW15157   2.136   0.023  13.638  0.3214  0.3400  0.0719
 1174SOL    HW115158   2.112   0.053  13.551 -0.3542  2.8706  1.1263
 1174SOL    HW215159   2.114   4.669  13.638  0.5424  0.3099 -2.1621
 1175SOL     OW15160   2.699   4.222  12.491 -0.1258 -0.2561 -0.9121
 1175SOL    HW115161   2.734   4.151  12.437  1.6974  1.0637 -1.4896
 1175SOL    HW215162   2.758   4.297  12.479  1.6260 -1.5730 -0.6215
 1176SOL     OW15163   0.596   1.128  15.992  0.4561 -0.0644 -0.4676
 1176SOL    HW115164   0.665   1.159  15.933  0.3414  0.3599 -0.3815
 1176SOL    HW215165   0.647   1.137  16.073  0.4261  1.0174 -0.5648
 1177SOL     OW15166   2.508   0.842  12.322  0.4208 -0.0501 -0.4812
 1177SOL    HW115167   2.519   0.753  12.289  1.5530  0.6828 -2.0929
 1177SOL    HW215168   2.513   0.829  12.417 -0.6359 -2.4063 -0.7507
 1178SOL     OW15169   3.046   2.449  11.224 -0.5168  0.3699 -0.0166
 1178SOL    HW115170   3.038   2.366  11.178  0.6053 -0.8084  1.9229
 1178SOL    HW215171   2.997   2.498  11.158 -2.6273 -0.7823  0.6810
 1179SOL     OW15172   1.608   4.607   8.985 -0.3482  0.5044 -0.0667
 1179SOL    HW115173   1.643   4.522   9.013 -0.0843  1.3956  2.2573
 1179SOL    HW215174   1.537   4.613   9.049  0.2687 -0.9634  0.7647
 1180SOL     OW15175   0.107   2.724   7.570 -0.3032 -0.1374 -0.3666
 1180SOL    HW115176   0.148   2.675   7.499 -1.3795  0.3207 -1.3002
 1180SOL    HW215177   0.034   2.668   7.597  0.3477 -1.1270 -0.6706
 1181SOL     OW15178   4.039   1.735   4.540  0.3968 -0.2681  0.0052
 1181SOL    HW115179   4.098   1.811   4.541  0.5856 -0.3930 -1.4067
 1181SOL    HW215180   4.027   1.715   4.447 -1.4707 -2.3062  0.6910
 1182SOL     OW15181   1.815   2.107  16.873  0.1326 -0.7709 -0.1556
 1182SOL    HW115182   1.810   2.013  16.888  1.6040 -1.1000 -1.6880
 1182SOL    HW215183   1.750   2.144  16.932 -0.3863  0.9873 -1.8027
 1183SOL     OW15184   0.277   3.065   6.223  0.5522  0.3517 -0.5804
 1183SOL    HW115185   0.212   3.014   6.271  1.3400 -0.8863 -0.8249
 1183SOL    HW215186   0.346   3.002   6.203 -0.5615 -0.8568 -0.6120
 1184SOL     OW15187   2.444   2.270   5.246 -0.2260  0.4144  0.0379
 1184SOL    HW115188   2.463   2.177   5.259 -0.5766  0.4399  0.7336
 1184SOL    HW215189   2.512   2.287   5.181 -0.1284  0.9953  0.2949
 1185SOL     OW15190   2.927   1.584  15.269  0.1719 -0.3784 -0.0811
 1185SOL    HW115191   2.881   1.662  15.238 -1.6529 -0.8985  1.2667
 1185SOL    HW215192   2.874   1.512  15.234 -4.0660  1.3476  2.7014
 1186SOL     OW15193   4.224   0.652   1.585 -0.5294 -0.0870 -0.7271
 1186SOL    HW115194   4.284   0.711   1.631 -0.6339 -0.5149 -0.0389
 1186SOL    HW215195   4.272   0.569   1.597  1.3104  1.1434  0.4740
 1187SOL     OW15196   3.480   2.242   0.487 -0.5191 -0.4862 -0.2338
 1187SOL    HW115197   3.396   2.284   0.470 -0.7034 -0.2399  1.2841
 1187SOL    HW215198   3.495   2.264   0.579  0.4205  0.4323 -0.6037
 1188SOL     OW15199   1.206   3.862   1.083  0.4579  0.5673 -0.8778
 1188SOL    HW115200   1.149   3.847   1.007 -2.4015  1.6089  1.0351
 1188SOL    HW215201   1.291   3.829   1.053  0.4019 -0.2928 -0.1041
 1189SOL     OW15202   0.318   4.136  16.079 -0.0145  0.4613 -0.0078
 1189SOL    HW115203   0.376   4.100  16.012  0.1383 -0.1951  0.4781
 1189SOL    HW215204   0.282   4.210  16.031 -0.2985 -1.1764 -2.3003
 1190SOL     OW15205   0.014   3.441   5.851 -0.7383  0.3947  0.3829
 1190SOL    HW115206   0.080   3.500   5.814 -0.9154  1.7897  2.2729
 1190SOL    HW215207   0.055   3.355   5.853  0.1109  0.7844 -0.5460
 1191SOL     OW15208   0.672   1.962   2.211 -0.4468  0.0439 -0.6542
 1191SOL    HW115209   0.724   1.881   2.206 -0.0633  0.3295 -1.3545
 1191SOL    HW215210   0.593   1.929   2.254 -0.1209  3.1463  2.3294
 1192SOL     OW15211   3.098   4.279   2.011 -0.5901 -0.1249 -0.2059
 1192SOL    HW115212   3.128   4.302   2.098 -0.4702 -0.2197 -0.2212
 1192SOL    HW215213   3.182   4.241   1.986 -0.4157 -1.5903  2.6553
 1193SOL     OW15214   3.725   4.170   1.731 -0.2676 -0.3237 -0.0932
 1193SOL    HW115215   3.725   4.151   1.637  0.6617 -0.4437 -0.0711
 1193SOL    HW215216   3.632   4.161   1.748  0.1191 -3.6366  0.2644
 1194SOL     OW15217   2.267   2.159   6.672 -1.0698 -0.5283 -0.1219
 1194SOL    HW115218   2.206   2.114   6.731 -0.5290 -1.2338 -0.0975
 1194SOL    HW215219   2.220   2.242   6.663  0.4970  0.4229  0.4807
 1195SOL     OW15220   4.404   3.605  10.865  0.3018  0.4494 -0.2919
 1195SOL    HW115221   4.447   3.564  10.790 -1.2284  1.3156 -1.6340
 1195SOL    HW215222   4.318   3.563  10.864  1.4140 -1.7606 -2.3483
 1196SOL     OW15223   2.957   1.276  13.577 -0.4397  0.3678  0.4440
 1196SOL    HW115224   3.004   1.304  13.656 -2.1394  1.0138  1.2395
 1196SOL    HW215225   3.020   1.303  13.511  0.2611  0.6829  1.2425
 1197SOL     OW15226   1.635   3.866  11.715  0.3939  0.0550  0.2499
 1197SOL    HW115227   1.687   3.947  11.713 -3.0423  2.2466  0.0968
 1197SOL    HW215228   1.605   3.872  11.806  2.5475 -1.1113  1.0441
 1198SOL     OW15229   3.005   1.409   5.082  0.5485  0.0644 -0.5817
 1198SOL    HW115230   2.933   1.379   5.138  0.5869  0.2215 -0.4475
 1198SOL    HW215231   3.058   1.446   5.152 -0.8631  0.1588  0.4326
 1199SOL     OW15232   2.251   3.699   3.703  0.1029 -0.4371  0.4787
 1199SOL    HW115233   2.230   3.633   3.769 -2.6592 -1.7995 -1.7667
 1199SOL    HW215234   2.248   3.644   3.625 -1.2946 -2.7042  2.1342
 1200SOL     OW15235   1.253   3.071   7.568 -0.4135 -0.1053 -0.3866
 1200SOL    HW115236   1.270   3.165   7.571  0.0767 -0.1075 -3.1417
 1200SOL    HW215237   1.287   3.035   7.650 -0.8576 -1.4955 -0.8102
 1201SOL     OW15238   2.535   0.164   2.513 -0.5236  0.0318  0.2774
 1201SOL    HW115239   2.495   0.231   2.458 -1.3310 -1.7153 -1.2551
 1201SOL    HW215240   2.592   0.130   2.445  0.3878 -1.2843  1.6915
 1202SOL     OW15241   3.715   3.432   6.731 -0.0721  0.3916  0.2066
 1202SOL    HW115242   3.652   3.377   6.684  3.5565 -0.8045 -3.3039
 1202SOL    HW215243   3.660   3.457   6.805  0.2548  1.2125  0.1628
 1203SOL     OW15244   1.131   1.415   9.294  0.4114  0.2885 -0.1141
 1203SOL    HW115245   1.051   1.420   9.347 -0.7432 -1.3977 -1.6929
 1203SOL    HW215246   1.105   1.485   9.233  0.2577  0.4320  0.1162
 1204SOL     OW15247   4.356   1.672   9.805  0.1903 -0.1068 -0.1052
 1204SOL    HW115248   4.445   1.638   9.804 -0.0168 -0.6880  0.5020
 1204SOL    HW215249   4.370   1.766   9.794  0.7292 -0.1102  0.5179
 1205SOL     OW15250   1.529   1.800  11.006 -0.1328 -0.5534  0.6051
 1205SOL    HW115251   1.475   1.815  11.083  0.0492  0.3123  0.5716
 1205SOL    HW215252   1.612   1.779  11.049 -0.6309 -2.8127  0.4456
 1206SOL     OW15253   1.643   1.472  13.886 -0.5942 -0.2304 -0.1637
 1206SOL    HW115254   1.650   1.561  13.851 -1.9570  0.5073  1.4538
 1206SOL    HW215255   1.666   1.416  13.812  1.5665  1.1314 -0.5159
 1207SOL     OW15256   3.853   3.867  10.594  0.7336 -0.1498 -0.2537
 1207SOL    HW115257   3.823   3.777  10.608  1.1926 -0.7087 -2.7902
 1207SOL    HW215258   3.781   3.912  10.550  2.2558  0.2962 -2.3102
 1208SOL     OW15259   1.891   1.938   2.861 -0.2384  0.3767  0.1896
 1208SOL    HW115260   1.984   1.959   2.855 -0.8005  2.5931 -0.8854
 1208SOL    HW215261   1.899   1.844   2.851  1.3900  0.6071 -0.7116
 1209SOL     OW15262   2.228   0.099   4.610 -0.0026  0.7099 -0.2989
 1209SOL    HW115263   2.320   0.097   4.585  0.0871  1.2850 -0.0366
 1209SOL    HW215264   2.191   0.035   4.551  0.7950 -0.5248  0.5464
 1210SOL     OW15265   0.811   4.099   9.965 -0.1691 -0.7226  0.4764
 1210SOL    HW115266   0.861   4.018   9.974 -0.2818 -0.8429  0.0334
 1210SOL    HW215267   0.829   4.131  10.053  0.4596  2.5992 -0.8604
 1211SOL     OW15268   2.484   2.691  10.351  0.1042 -0.0918 -0.4730
 1211SOL    HW115269   2.422   2.708  10.422  1.7759  2.1111  0.4579
 1211SOL    HW215270   2.439   2.701  10.267 -1.4753 -2.0366  0.1215
 1212SOL     OW15271   1.219   2.586   5.095 -0.3437 -0.2756 -0.2423
 1212SOL    HW115272   1.164   2.565   5.020  1.6486 -1.5791 -1.3360
 1212SOL    HW215273   1.187   2.523   5.160  1.0408 -0.9490 -0.2146
 1213SOL     OW15274   2.607   3.435   7.089 -0.0545 -0.0998  0.0190
 1213SOL    HW115275   2.656   3.446   7.008 -0.5795 -0.7490 -0.3869
 1213SOL    HW215276   2.686   3.414   7.139  0.9127 -0.2423 -1.5500
 1214SOL     OW15277   0.064   1.746   2.762  0.5615 -0.4171 -0.0357
 1214SOL    HW115278   4.730   1.708   2.715  0.1878  1.4658 -0.9754
 1214SOL    HW215279   0.018   1.812   2.815 -1.3720 -0.2635 -1.9279
 1215SOL     OW15280   4.289   1.577   5.640 -0.0946  0.1149  0.0021
 1215SOL    HW115281   4.249   1.589   5.726 -1.3221 -3.9476 -0.0120
 1215SOL    HW215282   4.359   1.642   5.639  0.2824 -0.2934  0.7444
 1216SOL     OW15283   2.854   1.695   1.508  0.7195  0.3265  0.1301
 1216SOL    HW115284   2.865   1.616   1.455 -0.3310 -0.5556  1.2171
 1216SOL    HW215285   2.835   1.652   1.592 -0.4479 -0.4885 -0.5543
 1217SOL     OW15286   2.125   3.539   2.445  0.4129 -0.2799  0.2268
 1217SOL    HW115287   2.043   3.545   2.395 -0.3993 -1.3156  1.4359
 1217SOL    HW215288   2.145   3.632   2.457 -1.3032 -0.1176  1.7578
 1218SOL     OW15289   0.182   3.741  17.466  0.0944 -0.4395  0.5100
 1218SOL    HW115290   0.186   3.680  17.392 -1.4004 -0.0302  0.0832
 1218SOL    HW215291   0.087   3.729  17.474 -0.1443  0.9590 -0.2228
 1219SOL     OW15292   1.487   4.057   7.153  0.1549 -0.0033 -0.7114
 1219SOL    HW115293   1.552   4.073   7.085  0.5381  0.8652 -0.1356
 1219SOL    HW215294   1.527   4.122   7.210 -0.6845 -0.3056  0.2205
 1220SOL     OW15295   3.252   1.794   5.910 -0.2862  0.3268  0.0415
 1220SOL    HW115296   3.299   1.855   5.967 -2.3094 -0.6583  2.7643
 1220SOL    HW215297   3.270   1.710   5.953 -0.0494 -0.3385 -1.3580
 1221SOL     OW15298   3.939   0.488   5.818 -0.5329 -0.7067  0.1877
 1221SOL    HW115299   3.884   0.438   5.879 -1.6738 -1.0424 -1.1364
 1221SOL    HW215300   3.982   0.545   5.882  1.0748  1.8704 -3.1924
 1222SOL     OW15301   3.420   2.002  16.937  0.3640 -0.7625  0.2036
 1222SOL    HW115302   3.370   2.083  16.945 -0.8923 -1.2104 -3.0545
 1222SOL    HW215303   3.373   1.952  16.870 -0.2929  0.8353 -0.5129
 1223SOL     OW15304   0.454   3.240   4.527  0.4904 -0.1262 -0.4199
 1223SOL    HW115305   0.467   3.203   4.614 -1.6497  0.4730  0.1522
 1223SOL    HW215306   0.505   3.180   4.472 -1.0326  0.0857 -2.0728
 1224SOL     OW15307   0.054   4.083   3.100  0.0268 -0.0435  0.0700
 1224SOL    HW115308   4.734   4.043   3.164  1.2082  0.6691  1.6374
 1224SOL    HW215309   0.015   4.169   3.081 -1.9909 -0.5005  2.0483
 1225SOL     OW15310   4.370   0.805   0.430  0.6973 -0.4020  0.2176
 1225SOL    HW115311   4.379   0.720   0.387 -1.0333 -0.5443  0.1084
 1225SOL    HW215312   4.426   0.788   0.506  0.3924 -0.4653  0.4313
 1226SOL     OW15313   2.806   1.494   4.219 -0.3184 -0.2460  0.6636
 1226SOL    HW115314   2.719   1.497   4.179  0.1632 -1.1422 -0.4247
 1226SOL    HW215315   2.792   1.448   4.302  0.2235 -1.4548  0.0745
 1227SOL     OW15316   4.442   0.360  15.207 -0.3556 -0.3243  0.6340
 1227SOL    HW115317   4.488   0.419  15.267  0.1629  1.7541 -1.7852
 1227SOL    HW215318   4.382   0.423  15.167  0.4270 -0.3774 -0.6346
 1228SOL     OW15319   4.555   1.787  14.467  0.4121 -0.6922 -0.2119
 1228SOL    HW115320   4.489   1.728  14.431 -0.3149 -1.2355  2.0294
 1228SOL    HW215321   4.635   1.742  14.439  2.0446  0.9930  1.7642
 1229SOL     OW15322   4.491   2.635   2.234 -0.2775  1.0496 -0.1259
 1229SOL    HW115323   4.429   2.688   2.184  1.1367  0.9855 -1.9644
 1229SOL    HW215324   4.425   2.572   2.263  1.5629 -1.2452 -0.9860
 1230SOL     OW15325   4.240   4.481  10.293  0.5143  0.5916 -0.0073
 1230SOL    HW115326   4.275   4.461  10.380 -0.0941 -1.5204 -0.2426
 1230SOL    HW215327   4.200   4.398  10.267  1.4187 -0.3305  1.5418
 1231SOL     OW15328   1.104   2.417   5.287  0.3807 -0.0213 -0.0367
 1231SOL    HW115329   1.119   2.366   5.367 -0.0719 -0.8475 -0.4777
 1231SOL    HW215330   1.079   2.348   5.225  2.5301 -1.0276  0.2051
 1232SOL     OW15331   3.798   2.001   9.643 -0.2378  0.1163  0.4907
 1232SOL    HW115332   3.726   2.013   9.582 -0.7515 -2.2747  0.6300
 1232SOL    HW215333   3.771   1.915   9.674 -3.0544  1.4295  1.6446
 1233SOL     OW15334   3.302   1.333  15.940  0.1805 -0.2669  0.5299
 1233SOL    HW115335   3.364   1.300  16.005  0.5142  1.9396  1.3328
 1233SOL    HW215336   3.224   1.318  15.994  0.8199 -4.0883  0.3511
 1234SOL     OW15337   1.419   3.100   5.690  0.1879 -0.2076 -0.3857
 1234SOL    HW115338   1.359   3.087   5.617  1.5475  0.4699 -1.6145
 1234SOL    HW215339   1.398   3.024   5.745 -0.1272  0.4621  0.4202
 1235SOL     OW15340   1.270   2.583   0.443  0.2217 -0.6400  0.2428
 1235SOL    HW115341   1.335   2.591   0.374  1.0928  0.8001  1.2213
 1235SOL    HW215342   1.299   2.653   0.501  1.4877 -0.7434 -0.2543
 1236SOL     OW15343   2.445   0.709   6.741 -0.5534  0.2121 -0.3699
 1236SOL    HW115344   2.493   0.692   6.660  0.4958 -1.8275  0.6706
 1236SOL    HW215345   2.472   0.638   6.800  1.0625  0.8907 -0.2806
 1237SOL     OW15346   1.294   0.115   2.111 -1.1613 -0.1424  0.6971
 1237SOL    HW115347   1.283   0.026   2.078 -1.7633  0.4139 -0.5923
 1237SOL    HW215348   1.233   0.117   2.185 -0.3403  1.0602  1.3445
 1238SOL     OW15349   0.381   4.209  10.403 -0.2559  0.1759  0.3257
 1238SOL    HW115350   0.412   4.166  10.483  0.9373 -0.3354 -0.4147
 1238SOL    HW215351   0.299   4.231  10.448  0.4977  1.7426  0.9051
 1239SOL     OW15352   3.573   2.884   5.264 -0.3343 -0.0307 -0.3972
 1239SOL    HW115353   3.646   2.828   5.239 -1.1246 -0.9849 -0.5709
 1239SOL    HW215354   3.565   2.942   5.188  0.2501  2.5187  1.5105
 1240SOL     OW15355   1.189   0.736   3.139  0.7595 -0.4178  0.7250
 1240SOL    HW115356   1.231   0.815   3.105  0.1223 -0.6542 -0.5880
 1240SOL    HW215357   1.156   0.692   3.061  2.0399 -1.0482  0.5327
 1241SOL     OW15358   1.315   0.903   2.965 -0.0039  0.3086  0.4429
 1241SOL    HW115359   1.312   0.999   2.974 -1.5027  0.1075  2.1865
 1241SOL    HW215360   1.278   0.904   2.877 -0.7374  0.7134  0.7466
 1242SOL     OW15361   3.588   2.852  14.324  0.1471 -0.5042 -0.6056
 1242SOL    HW115362   3.553   2.935  14.358  0.4254 -0.8149  0.4288
 1242SOL    HW215363   3.508   2.804  14.301 -0.7400 -0.8843  3.2384
 1243SOL     OW15364   3.333   3.719   5.595 -0.4902  0.3971 -0.1447
 1243SOL    HW115365   3.371   3.806   5.608 -1.7879  0.9772 -0.1475
 1243SOL    HW215366   3.286   3.723   5.678  0.5243 -0.6401  0.4774
 1244SOL     OW15367   0.747   0.161   3.421 -0.1985 -0.9913  0.2338
 1244SOL    HW115368   0.735   0.234   3.360 -1.1361 -0.8878  0.5403
 1244SOL    HW215369   0.666   0.150   3.470  0.2095 -1.3599  0.8265
 1245SOL     OW15370   0.320   0.567  12.782 -0.1397  0.2135  0.0062
 1245SOL    HW115371   0.371   0.528  12.852 -0.4796  2.1495  1.3381
 1245SOL    HW215372   0.319   0.501  12.713 -0.7821  1.7408 -1.4733
 1246SOL     OW15373   1.401   0.944  16.547  0.1427 -0.3024  0.7319
 1246SOL    HW115374   1.379   0.884  16.476 -3.1481 -1.4236  2.7084
 1246SOL    HW215375   1.451   1.009  16.497  0.1812 -1.4306 -0.6915
 1247SOL     OW15376   1.431   2.269   5.530  0.5343  0.0069  0.5869
 1247SOL    HW115377   1.488   2.277   5.454 -1.8551 -0.0647 -1.1851
 1247SOL    HW215378   1.427   2.362   5.553  0.1850  0.1706 -0.1371
 1248SOL     OW15379   2.782   0.224   5.322 -0.0085  0.4014 -0.5129
 1248SOL    HW115380   2.764   0.187   5.409 -0.1960  1.7363  0.0186
 1248SOL    HW215381   2.802   0.316   5.340  0.5510 -0.1844  1.9756
 1249SOL     OW15382   1.488   4.115   5.894 -0.0160  0.0443  0.1463
 1249SOL    HW115383   1.507   4.209   5.897 -1.1093  0.2367  1.0642
 1249SOL    HW215384   1.485   4.086   5.985 -0.5419  1.9621  0.7545
 1250SOL     OW15385   3.161   1.060  14.300 -0.3641 -0.6849 -0.1891
 1250SOL    HW115386   3.077   1.014  14.305  0.3689 -2.2350 -1.9515
 1250SOL    HW215387   3.165   1.071  14.395 -2.0410 -1.4071 -0.0316
 1251SOL     OW15388   4.112   2.203   8.601 -0.1305 -0.8405 -0.0331
 1251SOL    HW115389   4.107   2.165   8.689  1.9505  0.9699  0.8645
 1251SOL    HW215390   4.191   2.255   8.586 -0.7154  0.8946  2.8817
 1252SOL     OW15391   0.853   4.017   8.723 -0.0271 -0.3307 -0.2391
 1252SOL    HW115392   0.871   3.939   8.776  1.4010  0.5828  0.6189
 1252SOL    HW215393   0.761   4.003   8.702 -0.7273  0.3574  2.3280
 1253SOL     OW15394   2.687   0.023   1.768  0.2546  0.8351 -0.2521
 1253SOL    HW115395   2.773   0.041   1.729  0.9711 -0.5129  0.6741
 1253SOL    HW215396   2.720   4.690   1.821  0.3478  1.2849  0.3014
 1254SOL     OW15397   3.234   2.866   5.111 -0.3993  0.2937 -0.4421
 1254SOL    HW115398   3.303   2.898   5.052  1.0530  1.5346  1.9377
 1254SOL    HW215399   3.219   2.953   5.146  2.3098  0.3945  0.4736
 1255SOL     OW15400   3.321   0.654   8.607 -0.5466  0.2246  0.3211
 1255SOL    HW115401   3.304   0.614   8.692 -2.0628  1.2590  0.4970
 1255SOL    HW215402   3.354   0.740   8.634  3.1517 -1.4110  1.0625
 1256SOL     OW15403   0.790   0.608   0.421  0.5920  0.0547 -0.2264
 1256SOL    HW115404   0.866   0.642   0.467 -0.1909  2.0843 -0.4428
 1256SOL    HW215405   0.717   0.655   0.462 -0.5054 -1.0557 -0.8803
 1257SOL     OW15406   3.032   2.941   7.295  0.3418  0.8673 -0.1074
 1257SOL    HW115407   3.070   2.875   7.352  0.6930  1.2856  0.1463
 1257SOL    HW215408   3.103   2.949   7.231  1.6725  3.2237  1.6229
 1258SOL     OW15409   4.711   4.170   5.556  0.4683 -0.4757  0.3589
 1258SOL    HW115410   4.720   4.214   5.641 -0.7497 -1.8801  1.2222
 1258SOL    HW215411   4.619   4.173   5.533  0.5265  0.3076  0.2415
 1259SOL     OW15412   1.757   0.734  17.229  0.6609 -0.4678  0.7575
 1259SOL    HW115413   1.847   0.716  17.204  0.3732 -1.5531  0.4900
 1259SOL    HW215414   1.744   0.673  17.302 -0.2564  1.0517  1.8674
 1260SOL     OW15415   3.292   3.172  12.024 -0.2817 -0.2757 -0.2915
 1260SOL    HW115416   3.356   3.202  12.088 -0.9266 -0.6914  0.5363
 1260SOL    HW215417   3.353   3.147  11.955 -0.6524 -0.2654 -0.6248
 1261SOL     OW15418   1.743   3.498   1.260 -0.4208 -0.0346 -0.2650
 1261SOL    HW115419   1.836   3.516   1.271 -0.4455 -0.3044  0.3993
 1261SOL    HW215420   1.740   3.404   1.275  0.7494 -0.0087  0.1037
 1262SOL     OW15421   1.418   3.212   0.950  0.4104  0.0515  0.5673
 1262SOL    HW115422   1.441   3.292   0.903 -0.2819 -0.5599 -0.8194
 1262SOL    HW215423   1.331   3.193   0.916  1.7416  0.7483 -3.1351
 1263SOL     OW15424   2.111   3.992   6.449 -0.3278  0.1096 -0.2773
 1263SOL    HW115425   2.035   3.936   6.434  0.0406 -1.1220  2.3681
 1263SOL    HW215426   2.149   3.961   6.531 -2.3591 -0.7764  0.3371
 1264SOL     OW15427   1.713   2.880   3.612 -0.4959 -0.2497 -0.3230
 1264SOL    HW115428   1.684   2.811   3.554  1.6374 -0.7072 -0.8454
 1264SOL    HW215429   1.636   2.877   3.669 -1.5944 -1.4385 -1.8749
 1265SOL     OW15430   2.153   1.113   0.025 -0.0065 -0.3634 -0.3639
 1265SOL    HW115431   2.098   1.172  17.728  0.7838  0.8211  0.1496
 1265SOL    HW215432   2.088   1.080   0.087 -0.1775  0.3125 -0.1788
 1266SOL     OW15433   2.716   3.097   6.806 -0.1701  0.2067  0.2910
 1266SOL    HW115434   2.627   3.077   6.776  0.3044 -1.5675  0.1120
 1266SOL    HW215435   2.695   3.084   6.899  2.9267 -1.2940  0.7609
 1267SOL     OW15436   4.424   1.345  11.965  0.0840  0.0663 -0.2343
 1267SOL    HW115437   4.510   1.350  11.924  0.7592 -1.0557  1.0283
 1267SOL    HW215438   4.363   1.373  11.896  0.6087  0.1908 -0.6500
 1268SOL     OW15439   0.030   3.297   9.672 -0.2911 -0.1546 -0.5894
 1268SOL    HW115440   4.710   3.279   9.599  2.4531 -0.3532 -2.7734
 1268SOL    HW215441   0.065   3.211   9.694 -0.6671  0.5207  2.7343
 1269SOL     OW15442   3.966   3.537   3.588  0.5153  0.4250 -0.6385
 1269SOL    HW115443   3.955   3.562   3.496 -1.8504  2.2448  0.1604
 1269SOL    HW215444   4.061   3.528   3.597  0.6041 -0.5881 -2.5230
 1270SOL     OW15445   4.446   2.904   3.603 -0.2593  0.3361  0.4935
 1270SOL    HW115446   4.382   2.969   3.631 -0.4781  1.3016 -2.2077
 1270SOL    HW215447   4.398   2.849   3.541  1.4596 -1.6477  0.9371
 1271SOL     OW15448   2.636   3.286   1.782 -0.2304  0.2129 -0.4624
 1271SOL    HW115449   2.674   3.292   1.694 -0.7306  0.7038 -0.6446
 1271SOL    HW215450   2.703   3.270   1.848 -0.2102  1.7611 -0.1143
 1272SOL     OW15451   0.974   4.149   3.034  0.3978  0.0589  0.5160
 1272SOL    HW115452   1.044   4.093   3.067 -1.2161 -1.7505  0.8587
 1272SOL    HW215453   1.009   4.186   2.953  0.0817  2.5277  1.5234
 1273SOL     OW15454   3.303   3.931   4.521  0.2397  0.3191  0.2211
 1273SOL    HW115455   3.277   3.952   4.432 -1.2103  1.3729  0.8798
 1273SOL    HW215456   3.394   3.960   4.517  0.3878 -0.4031 -1.3322
 1274SOL     OW15457   2.246   0.633  12.116  0.5133 -0.0363 -0.0951
 1274SOL    HW115458   2.316   0.684  12.076 -1.3037  2.4437 -0.1280
 1274SOL    HW215459   2.174   0.695  12.107  0.3379 -0.4105 -1.1960
 1275SOL     OW15460   3.058   4.592   2.977  0.1845  0.0411 -0.2000
 1275SOL    HW115461   3.045   4.513   3.029  1.5746 -0.9320 -1.3438
 1275SOL    HW215462   3.051   4.556   2.889  0.0592  1.8341 -0.9199
 1276SOL     OW15463   2.770   1.030   8.050  0.1420  0.8044 -0.3114
 1276SOL    HW115464   2.815   0.962   8.100 -0.3556  0.9124  0.2864
 1276SOL    HW215465   2.826   1.031   7.973  0.5125  0.3196 -0.0506
 1277SOL     OW15466   3.751   0.505   9.243 -0.0711  0.2014 -0.4047
 1277SOL    HW115467   3.807   0.581   9.258 -0.1426  0.6069 -2.2402
 1277SOL    HW215468   3.666   0.549   9.235  0.4538  1.8905  3.4349
 1278SOL     OW15469   1.789   0.723   7.472 -0.3756  0.2204  0.1320
 1278SOL    HW115470   1.845   0.772   7.412 -0.5775  1.1351  0.6878
 1278SOL    HW215471   1.838   0.641   7.470 -1.2036 -0.3610  3.3942
 1279SOL     OW15472   2.926   0.982   9.550 -0.5406  0.3812  0.1373
 1279SOL    HW115473   2.890   0.942   9.472  2.8440  0.0172 -1.2400
 1279SOL    HW215474   2.878   0.933   9.617 -2.1645 -2.9654 -3.4811
 1280SOL     OW15475   1.464   4.082  16.929  0.0470  0.0518  0.1012
 1280SOL    HW115476   1.508   4.035  17.000  0.3281 -0.7723 -0.6195
 1280SOL    HW215477   1.538   4.109  16.874 -1.0570 -1.7165 -2.2585
 1281SOL     OW15478   2.307   4.280   9.341  0.0898 -0.3205  0.2480
 1281SOL    HW115479   2.301   4.236   9.426 -0.0459  1.2050  1.0331
 1281SOL    HW215480   2.356   4.359   9.362  1.2593 -0.9378 -0.1825
 1282SOL     OW15481   3.424   4.242   5.697 -0.2044  0.3768  0.1235
 1282SOL    HW115482   3.513   4.267   5.672  0.1768  0.2723  1.3770
 1282SOL    HW215483   3.423   4.254   5.792 -2.0544  0.6094  0.0751
 1283SOL     OW15484   1.338   3.661  12.172 -0.3718 -0.1027 -0.0872
 1283SOL    HW115485   1.298   3.580  12.203  0.9063 -0.5280  0.4277
 1283SOL    HW215486   1.298   3.674  12.086  1.5863 -2.4151 -1.3308
 1284SOL     OW15487   1.130   2.592   2.554  0.5632 -0.0941 -0.5379
 1284SOL    HW115488   1.193   2.586   2.482  0.8715 -1.0829 -0.1779
 1284SOL    HW215489   1.064   2.655   2.525 -0.7569 -0.9865  0.5208
 1285SOL     OW15490   2.033   3.649  13.966  0.7947  0.0291  0.3502
 1285SOL    HW115491   1.977   3.667  14.041  1.4513  1.1404  0.5561
 1285SOL    HW215492   1.978   3.588  13.915  2.2313 -1.8903  1.0853
 1286SOL     OW15493   4.046   2.062   5.529  0.2155  0.2231  0.2343
 1286SOL    HW115494   4.024   2.123   5.600  1.6119 -0.4329  1.2336
 1286SOL    HW215495   3.955   2.040   5.511  0.5609  0.2455 -1.4763
 1287SOL     OW15496   1.273   2.685   2.271 -0.5702  0.1236 -0.5213
 1287SOL    HW115497   1.182   2.656   2.274 -0.7601  0.8203  0.4783
 1287SOL    HW215498   1.318   2.608   2.235 -1.2669 -1.1453  1.2918
 1288SOL     OW15499   0.746   2.266   9.154  1.0464  0.4063 -0.1559
 1288SOL    HW115500   0.807   2.324   9.199  1.6069 -1.7597  1.8840
 1288SOL    HW215501   0.720   2.212   9.229 -3.0699 -0.3863 -2.1217
 1289SOL     OW15502   4.457   0.013   7.123  0.3856  0.2008 -0.0417
 1289SOL    HW115503   4.397   4.695   7.074  0.7299  0.3483 -0.6388
 1289SOL    HW215504   4.399   0.017   7.199 -0.8141  0.0452 -0.9439
 1290SOL     OW15505   2.141   1.963  12.292  0.5355  0.5867 -0.2034
 1290SOL    HW115506   2.149   2.056  12.312  1.3156  0.8588 -1.7918
 1290SOL    HW215507   2.082   1.972  12.217  0.7996  0.9322 -0.3684
 1291SOL     OW15508   3.640   0.996   0.496  0.0343 -0.5224  0.7938
 1291SOL    HW115509   3.698   1.006   0.421  0.2883  0.0630  1.0636
 1291SOL    HW215510   3.620   1.090   0.498  0.4569 -0.3955 -1.0038
 1292SOL     OW15511   4.550   0.902   1.668  0.1898  0.3715 -0.1087
 1292SOL    HW115512   4.556   0.948   1.584 -0.9566  0.4393 -0.1565
 1292SOL    HW215513   4.544   0.972   1.733 -1.2807  1.5530 -1.5184
 1293SOL     OW15514   1.990   0.801   3.755 -0.4394  0.1922 -0.3043
 1293SOL    HW115515   1.917   0.862   3.753 -1.0573 -0.4682  3.2697
 1293SOL    HW215516   1.970   0.739   3.825  1.4183 -0.5096 -0.3979
 1294SOL     OW15517   3.704   1.762   9.735 -0.1401  0.2811  0.1841
 1294SOL    HW115518   3.712   1.690   9.798  0.2662  0.2514  0.0983
 1294SOL    HW215519   3.631   1.802   9.783 -1.0477 -1.8890  0.6304
 1295SOL     OW15520   2.962   0.633   8.263 -0.1404  0.0409  0.5331
 1295SOL    HW115521   2.882   0.590   8.295 -0.4202  0.7706  0.8036
 1295SOL    HW215522   3.022   0.558   8.261 -0.2740 -0.1467  3.2863
 1296SOL     OW15523   1.657   3.354  15.166 -0.6927  0.0268  0.0925
 1296SOL    HW115524   1.564   3.378  15.161 -0.8889 -0.2269  2.5893
 1296SOL    HW215525   1.684   3.383  15.079 -1.4997  0.3691 -0.0448
 1297SOL     OW15526   0.549   1.050   3.361 -0.2841 -0.1012  0.8077
 1297SOL    HW115527   0.484   1.107   3.401  0.6155  0.4307  1.5273
 1297SOL    HW215528   0.510   0.963   3.375 -1.7322  0.3673 -0.3998
 1298SOL     OW15529   4.100   0.054   8.580 -0.2811  0.5618 -0.0340
 1298SOL    HW115530   4.137   4.705   8.591  1.3787  1.3962  1.0099
 1298SOL    HW215531   4.107   0.073   8.486  0.0937 -1.9955 -0.5425
 1299SOL     OW15532   0.728   2.369  11.355  0.1497 -0.1627 -0.4510
 1299SOL    HW115533   0.646   2.413  11.380  0.3917 -0.4575  0.8488
 1299SOL    HW215534   0.709   2.290  11.406  0.4060 -0.0672 -0.2101
 1300SOL     OW15535   2.007   1.238   2.645 -0.1110 -0.6333  0.1393
 1300SOL    HW115536   1.934   1.180   2.624 -2.1880  1.4734  1.4793
 1300SOL    HW215537   2.088   1.196   2.618  0.2480  1.3297 -1.8887
 1301SOL     OW15538   2.998   3.257   5.796  0.5580  0.5894  0.1044
 1301SOL    HW115539   2.977   3.332   5.739  0.0903 -0.8460 -1.5948
 1301SOL    HW215540   3.030   3.191   5.735  1.1557  2.5359 -1.6935
 1302SOL     OW15541   2.408   2.107  14.153  0.0804 -0.0177  0.1122
 1302SOL    HW115542   2.408   2.013  14.139 -0.9223 -0.3852  2.6469
 1302SOL    HW215543   2.419   2.137  14.062 -0.2360 -0.1591  0.0268
 1303SOL     OW15544   3.402   4.133   8.139  0.1172 -0.2904  0.1015
 1303SOL    HW115545   3.343   4.203   8.110 -0.1105 -0.0773  1.0906
 1303SOL    HW215546   3.484   4.182   8.141  0.2013 -0.3640 -1.7749
 1304SOL     OW15547   4.155   0.712   4.957 -0.2283  0.2958 -0.3522
 1304SOL    HW115548   4.149   0.622   4.988 -2.3396  1.6034  3.1252
 1304SOL    HW215549   4.062   0.724   4.937 -0.3440 -2.5803 -1.4822
 1305SOL     OW15550   0.217   2.522   9.353 -0.9147  0.2787  0.0453
 1305SOL    HW115551   0.207   2.495   9.262  0.1377  2.1089 -0.6146
 1305SOL    HW215552   0.132   2.551   9.386 -0.7819  1.9468 -1.0783
 1306SOL     OW15553   1.115   0.247   1.477 -0.3405 -0.2057  0.2805
 1306SOL    HW115554   1.071   0.163   1.469 -0.5360 -0.1539  0.7830
 1306SOL    HW215555   1.193   0.232   1.424 -0.0967  1.5785  0.1370
 1307SOL     OW15556   0.943   4.330   3.417 -0.1554 -0.2045 -0.3279
 1307SOL    HW115557   0.966   4.275   3.492  0.7570  3.6504  2.2311
 1307SOL    HW215558   0.860   4.369   3.444  0.4529  0.5650  0.4341
 1308SOL     OW15559   3.794   1.274   9.920  0.1426  0.6754 -0.1424
 1308SOL    HW115560   3.746   1.211   9.866 -0.4020  0.1692  0.9384
 1308SOL    HW215561   3.872   1.228   9.949 -1.0666 -1.5195 -0.3828
 1309SOL     OW15562   2.586   4.718   1.166 -0.2799  0.4137  0.0468
 1309SOL    HW115563   2.512   0.022   1.209  0.1746  1.0086  0.2340
 1309SOL    HW215564   2.583   4.736   1.072  0.5861 -3.6945 -0.7351
 1310SOL     OW15565   0.762   3.948   3.010 -0.0953  0.4846  0.4338
 1310SOL    HW115566   0.807   4.026   2.978 -0.2781  0.4800  0.1687
 1310SOL    HW215567   0.799   3.886   2.947  1.2569  0.6339  1.0808
 1311SOL     OW15568   0.594   0.425  11.225  1.0319 -0.4915  0.3485
 1311SOL    HW115569   0.540   0.429  11.304  1.4455 -2.9027  0.7607
 1311SOL    HW215570   0.548   0.357  11.174  1.9404 -0.5342 -0.4052
 1312SOL     OW15571   4.441   3.689   8.702 -0.0540 -0.3456 -0.4978
 1312SOL    HW115572   4.535   3.671   8.697  0.3406  1.5353  0.5823
 1312SOL    HW215573   4.393   3.607   8.713 -0.3394  0.1882  2.1927
 1313SOL     OW15574   2.493   1.381   8.749  0.2277  0.5046  0.5724
 1313SOL    HW115575   2.443   1.462   8.741 -2.1821 -0.8139  2.0895
 1313SOL    HW215576   2.436   1.311   8.717  1.2638 -0.1669  0.1847
 1314SOL     OW15577   1.479   2.835   3.751  0.0587  0.0194  0.1330
 1314SOL    HW115578   1.404   2.891   3.729  0.2030  0.4869  0.8187
 1314SOL    HW215579   1.478   2.844   3.846  2.2034  0.6603  0.0837
 1315SOL     OW15580   1.449   0.238  11.168 -0.0168  0.3089 -0.0363
 1315SOL    HW115581   1.447   0.237  11.263 -0.7345  0.4440 -0.0431
 1315SOL    HW215582   1.377   0.298  11.146  0.2129  0.1481 -1.2430
 1316SOL     OW15583   3.894   3.221   3.381 -0.2721 -0.1446  0.0465
 1316SOL    HW115584   3.945   3.166   3.441 -1.7430 -0.5035  0.9514
 1316SOL    HW215585   3.817   3.172   3.352  0.0282 -1.3270  1.2884
 1317SOL     OW15586   3.878   4.337  13.804  0.0015  0.0984 -0.6701
 1317SOL    HW115587   3.873   4.428  13.833 -1.0334 -0.5710  1.2545
 1317SOL    HW215588   3.784   4.320  13.804 -0.2810  1.6085 -4.0520
 1318SOL     OW15589   1.128   4.442   4.108 -0.1559  0.4652  0.0860
 1318SOL    HW115590   1.143   4.374   4.174 -0.3416 -0.9667 -1.3447
 1318SOL    HW215591   1.217   4.478   4.117  1.2444 -2.4082 -2.0901
 1319SOL     OW15592   3.680   1.365   2.303  0.1015  0.1518  0.0861
 1319SOL    HW115593   3.700   1.458   2.315  0.7524  0.0139  0.0625
 1319SOL    HW215594   3.766   1.325   2.312  0.4451  0.9097  0.1775
 1320SOL     OW15595   4.538   4.059   0.265 -0.2231  0.0346 -0.2937
 1320SOL    HW115596   4.590   4.123   0.312  0.1690 -0.1941 -0.4192
 1320SOL    HW215597   4.449   4.069   0.300  0.1261  0.7623  0.3541
 1321SOL     OW15598   2.965   3.663   7.989 -0.1797  0.1916  0.2543
 1321SOL    HW115599   2.918   3.683   8.070 -0.3535  0.0363  0.1927
 1321SOL    HW215600   3.057   3.665   8.014  0.4667  1.3423 -2.1441
 1322SOL     OW15601   1.716   1.551   9.456  0.1076  0.3351  0.3405
 1322SOL    HW115602   1.762   1.619   9.506 -0.0334  0.8019 -0.1652
 1322SOL    HW215603   1.639   1.594   9.420  0.8252  1.7876  0.5453
 1323SOL     OW15604   3.026   1.304   7.309  0.1024  0.1171 -0.6845
 1323SOL    HW115605   2.970   1.382   7.306 -2.4732 -1.6839  0.5731
 1323SOL    HW215606   2.955   1.244   7.329  1.0060 -0.7689 -0.1724
 1324SOL     OW15607   1.847   3.371   2.306  0.1272 -0.5282  0.3584
 1324SOL    HW115608   1.780   3.361   2.238  0.0778  2.8872 -0.0778
 1324SOL    HW215609   1.857   3.466   2.314 -0.1290 -0.5256  0.6458
 1325SOL     OW15610   0.116   1.959   4.449 -0.4212  0.6245  0.8173
 1325SOL    HW115611   0.025   1.968   4.420 -0.3435 -2.5806 -0.3043
 1325SOL    HW215612   0.106   1.874   4.492 -0.6647  2.1892  3.8601
 1326SOL     OW15613   3.674   1.124   7.190 -0.2045  0.4057 -0.4176
 1326SOL    HW115614   3.749   1.098   7.138 -2.3926 -1.8685 -2.4338
 1326SOL    HW215615   3.705   1.181   7.260 -1.2903  1.7437 -1.0165
 1327SOL     OW15616   0.975   4.387   5.505  0.0822  0.0128 -0.1776
 1327SOL    HW115617   0.939   4.430   5.583  0.5229 -0.5932  0.3675
 1327SOL    HW215618   1.060   4.354   5.535  0.9671  1.8484 -0.6688
 1328SOL     OW15619   1.043   1.632   2.894  0.0332 -0.3848  0.7550
 1328SOL    HW115620   0.998   1.592   2.819  0.8002  0.5881 -0.2122
 1328SOL    HW215621   1.010   1.567   2.957  1.8394 -0.3942  1.6687
 1329SOL     OW15622   1.976   0.459  11.647 -0.0659  0.1118 -0.1764
 1329SOL    HW115623   2.058   0.483  11.691  0.7238 -0.0399 -1.5630
 1329SOL    HW215624   1.962   0.538  11.595 -0.2336  0.4229  0.3522
 1330SOL     OW15625   2.495   0.753   9.399 -0.3712 -0.0212 -0.0051
 1330SOL    HW115626   2.529   0.671   9.433  0.0477 -0.7416 -2.1677
 1330SOL    HW215627   2.487   0.810   9.475  1.6004  0.5104 -0.2138
 1331SOL     OW15628   2.568   1.145   4.785 -0.0779  0.5588 -0.2010
 1331SOL    HW115629   2.494   1.185   4.739 -0.3032  0.9277  0.4912
 1331SOL    HW215630   2.633   1.120   4.720  1.5535  1.7508  0.9744
 1332SOL     OW15631   0.888   2.132   8.672 -0.1387  0.2679 -0.5621
 1332SOL    HW115632   0.883   2.216   8.627 -0.9204 -0.5230 -1.9406
 1332SOL    HW215633   0.921   2.172   8.753 -1.3291 -1.7948  0.9488
 1333SOL     OW15634   3.976   3.897  13.615 -0.4091 -0.3104 -0.3441
 1333SOL    HW115635   3.996   3.978  13.663  1.9508 -0.2247 -1.4660
 1333SOL    HW215636   3.999   3.825  13.674 -0.5699  1.3508  1.7543
 1334SOL     OW15637   1.007   0.420   9.084  0.0400  0.2537 -0.5673
 1334SOL    HW115638   1.007   0.516   9.079 -1.0003  0.3348  1.1014
 1334SOL    HW215639   0.972   0.403   9.171 -2.6260  1.1580 -1.4463
 1335SOL     OW15640   0.886   2.588  15.330 -0.1378  0.1472 -0.4713
 1335SOL    HW115641   0.869   2.605  15.423 -0.0911 -1.2054 -0.2188
 1335SOL    HW215642   0.820   2.520  15.325 -0.8057  0.7249  0.4216
 1336SOL     OW15643   2.352   4.612  10.921  0.3194 -0.8681  0.3873
 1336SOL    HW115644   2.332   4.702  10.945  1.1544 -0.3708 -0.7709
 1336SOL    HW215645   2.264   4.574  10.921  0.3303 -0.8845  1.0342
 1337SOL     OW15646   2.150   2.049   2.763 -0.3895 -0.3530  0.0402
 1337SOL    HW115647   2.106   2.118   2.712 -0.5283 -0.1437  0.4460
 1337SOL    HW215648   2.231   2.091   2.793  0.9357  0.1336 -4.1280
 1338SOL     OW15649   3.788   0.331   8.779  0.0010 -0.2137  0.1876
 1338SOL    HW115650   3.806   0.246   8.819  2.5480  0.6226  0.8082
 1338SOL    HW215651   3.803   0.305   8.689  1.9947  1.9775 -0.1120
 1339SOL     OW15652   1.613   0.951  11.759  0.2379  0.3822  0.3890
 1339SOL    HW115653   1.630   0.998  11.677  0.6659  1.2753  0.9866
 1339SOL    HW215654   1.683   0.885  11.758  0.8874  1.0767  0.2855
 1340SOL     OW15655   2.101   3.684   6.114  0.3036  0.2008 -0.0486
 1340SOL    HW115656   2.079   3.591   6.113 -0.3463  0.3766 -1.8671
 1340SOL    HW215657   2.124   3.696   6.206  0.3373 -1.0781  0.1106
 1341SOL     OW15658   1.375   3.507   7.756  0.6069  0.0231 -0.0165
 1341SOL    HW115659   1.345   3.455   7.681 -0.2060 -2.8513  2.2751
 1341SOL    HW215660   1.425   3.441   7.804  1.4523  0.3920 -0.3917
 1342SOL     OW15661   4.018   4.224   5.620 -0.3119  0.0053  0.0185
 1342SOL    HW115662   4.030   4.245   5.712 -2.0926 -1.4056  0.5638
 1342SOL    HW215663   4.067   4.296   5.580 -2.1872  1.0273 -0.4401
 1343SOL     OW15664   2.091   2.001  16.203 -0.1119  0.8769 -0.4739
 1343SOL    HW115665   2.155   1.968  16.140 -0.4561 -1.5732  0.4543
 1343SOL    HW215666   2.143   2.080  16.222  1.2761 -0.3492  0.7905
 1344SOL     OW15667   0.066   2.092   1.724 -0.1589  0.5696 -0.1436
 1344SOL    HW115668   0.092   2.085   1.816 -1.2978  2.3870  0.3212
 1344SOL    HW215669   0.141   2.139   1.689 -1.7123  2.8318 -0.5183
 1345SOL     OW15670   3.536   0.741  16.047  0.0521 -0.3584  0.2814
 1345SOL    HW115671   3.585   0.780  15.975  0.5624  0.0931  0.8712
 1345SOL    HW215672   3.599   0.684  16.091  0.9055  0.4484  0.0894
 1346SOL     OW15673   3.539   4.625   7.046 -0.6710 -0.4142  0.0787
 1346SOL    HW115674   3.474   4.572   6.999 -0.8828 -0.1960  0.1214
 1346SOL    HW215675   3.518   4.717   7.031 -0.8188 -0.7108 -1.5093
 1347SOL     OW15676   3.408   1.538   7.409 -0.0268  0.2413  0.2088
 1347SOL    HW115677   3.330   1.495   7.446 -0.1279  1.9332  1.9835
 1347SOL    HW215678   3.392   1.530   7.315 -0.5351  0.2546  0.2921
 1348SOL     OW15679   4.695   0.172  12.236  0.1102 -0.1957  0.2959
 1348SOL    HW115680   4.601   0.174  12.252  0.3732  2.4384  1.4361
 1348SOL    HW215681   4.719   0.265  12.242  0.3934 -0.0890 -2.1614
 1349SOL     OW15682   4.339   1.895   8.525  0.1064  0.9342 -0.2920
 1349SOL    HW115683   4.250   1.869   8.500  0.8185  0.1810 -2.0484
 1349SOL    HW215684   4.326   1.892   8.620  0.3882 -0.3227 -0.2939
 1350SOL     OW15685   2.403   0.544   5.975  0.4167 -0.5633 -0.0199
 1350SOL    HW115686   2.357   0.505   5.900 -0.7174 -1.1742  0.9921
 1350SOL    HW215687   2.493   0.513   5.980 -0.0023 -1.6688  0.5730
 1351SOL     OW15688   1.899   0.043   6.425  0.1875 -0.4371  0.0928
 1351SOL    HW115689   1.878   0.124   6.471  0.7548  0.0680 -0.5345
 1351SOL    HW215690   1.938   4.730   6.495 -1.8488 -2.3982 -0.2511
 1352SOL     OW15691   0.246   4.029   3.884  0.0260  0.7221  0.0018
 1352SOL    HW115692   0.282   4.074   3.961 -1.7915  0.6634  0.9022
 1352SOL    HW215693   0.170   3.988   3.925  0.7062 -2.5987 -2.1310
 1353SOL     OW15694   4.072   1.034  16.441  0.0975  0.0367  0.0303
 1353SOL    HW115695   4.081   1.031  16.536 -1.6620  0.8692  0.2050
 1353SOL    HW215696   4.056   0.940  16.426 -0.2387 -0.0989  1.2845
 1354SOL     OW15697   1.527   0.784   8.676  0.1960 -0.3337  0.0151
 1354SOL    HW115698   1.595   0.815   8.736  0.9108  2.3466 -2.1837
 1354SOL    HW215699   1.464   0.745   8.737 -0.8278  1.4840  0.1233
 1355SOL     OW15700   1.625   0.162  15.338  0.0243 -0.2588 -0.4831
 1355SOL    HW115701   1.597   0.214  15.413  2.1749 -0.7064  0.6313
 1355SOL    HW215702   1.603   0.077  15.375 -1.5392  1.1475  1.7907
 1356SOL     OW15703   0.216   0.572  16.546  0.8578  0.0569 -0.1478
 1356SOL    HW115704   0.270   0.641  16.585  2.8464 -1.8996  0.5886
 1356SOL    HW215705   0.253   0.568  16.458 -0.7921  4.0034 -1.0199
 1357SOL     OW15706   3.833   2.074   8.296  0.0918  0.6043  0.1888
 1357SOL    HW115707   3.778   1.996   8.297 -0.0277  0.6855 -0.0375
 1357SOL    HW215708   3.807   2.115   8.379 -0.2979  0.2141  0.2540
 1358SOL     OW15709   2.221   1.861   1.658 -0.2288 -0.0054  0.1636
 1358SOL    HW115710   2.151   1.904   1.708 -0.2294 -0.0127  0.1690
 1358SOL    HW215711   2.211   1.914   1.579 -1.4350  1.8944  1.5763
 1359SOL     OW15712   1.510   4.200  12.918 -0.4591 -0.6550  0.2917
 1359SOL    HW115713   1.485   4.218  13.008  1.7070  0.1471  0.7307
 1359SOL    HW215714   1.452   4.251  12.862 -2.1996  0.5460  3.1922
 1360SOL     OW15715   4.649   0.850   5.232  0.0718 -0.4550  0.1252
 1360SOL    HW115716   4.689   0.763   5.223  0.6052 -0.3828  1.7981
 1360SOL    HW215717   4.645   0.881   5.142 -0.1539  1.0036  0.6426
 1361SOL     OW15718   3.322   0.454   5.541 -0.5839  0.6568  0.1590
 1361SOL    HW115719   3.313   0.391   5.613  0.2000  1.5833  1.0666
 1361SOL    HW215720   3.262   0.419   5.475  1.6309 -2.3811 -0.2516
 1362SOL     OW15721   0.910   1.302   9.434  0.1763 -0.1612 -0.3531
 1362SOL    HW115722   0.816   1.322   9.436  0.3276  0.6165 -0.9216
 1362SOL    HW215723   0.912   1.277   9.526 -0.1257  0.1820 -0.2549
 1363SOL     OW15724   4.139   2.585   3.130 -0.3442 -0.6205 -0.4634
 1363SOL    HW115725   4.216   2.537   3.158  0.4264  0.1926 -1.1988
 1363SOL    HW215726   4.067   2.525   3.151 -1.1702  0.6092  0.2471
 1364SOL     OW15727   2.722   0.137   6.123 -0.1292  0.3514 -0.4633
 1364SOL    HW115728   2.647   0.106   6.073 -0.7915  0.0717  0.7048
 1364SOL    HW215729   2.712   0.229   6.101 -0.0122  0.5169  0.1546
 1365SOL     OW15730   2.781   0.216  12.084 -0.3376  0.8215  0.2055
 1365SOL    HW115731   2.696   0.185  12.115  0.5620 -3.0460 -1.1689
 1365SOL    HW215732   2.775   0.175  11.997 -1.7728 -0.0815  0.7404
 1366SOL     OW15733   1.329   4.106  11.722  0.4649  0.4248 -0.3233
 1366SOL    HW115734   1.360   4.132  11.809  1.9461  1.4983 -1.1653
 1366SOL    HW215735   1.410   4.109  11.670  1.9234 -3.5285  1.7454
 1367SOL     OW15736   3.950   3.017   1.156 -0.2374 -0.6577  0.0963
 1367SOL    HW115737   3.892   2.964   1.100  0.7228 -1.5769 -0.0386
 1367SOL    HW215738   3.937   3.103   1.117 -1.6959 -0.4816  0.9750
 1368SOL     OW15739   1.434   0.663   6.897  0.6533 -0.2267 -0.2568
 1368SOL    HW115740   1.411   0.572   6.882 -1.3888  0.5440 -1.9246
 1368SOL    HW215741   1.345   0.698   6.907  0.7468 -0.8860  2.7389
 1369SOL     OW15742   1.745   0.870   9.160 -0.4867 -0.1470 -0.0034
 1369SOL    HW115743   1.688   0.938   9.196 -1.7015 -0.5162 -1.2433
 1369SOL    HW215744   1.759   0.810   9.234  0.1104  0.9262  0.7575
 1370SOL     OW15745   3.558   2.316   5.439 -0.1147 -0.2330  0.4359
 1370SOL    HW115746   3.606   2.391   5.406 -0.2087 -0.1486  0.4888
 1370SOL    HW215747   3.514   2.366   5.508  0.3548  1.2980 -0.3902
 1371SOL     OW15748   4.051   2.761   8.972  0.1454  0.5466  0.3074
 1371SOL    HW115749   4.004   2.801   9.045 -2.5922  1.5338 -1.9697
 1371SOL    HW215750   4.134   2.734   9.011  0.1177 -0.9494 -0.6537
 1372SOL     OW15751   3.177   2.248   9.081  0.4226 -0.2679  0.3320
 1372SOL    HW115752   3.169   2.206   8.995 -1.6732  2.3443 -0.7691
 1372SOL    HW215753   3.268   2.276   9.073  0.2140  0.2317 -0.3596
 1373SOL     OW15754   0.408   0.357  16.845 -0.0098  0.2408 -0.6334
 1373SOL    HW115755   0.352   0.285  16.817 -1.3037  1.0671 -0.1705
 1373SOL    HW215756   0.449   0.388  16.764 -1.5674 -1.0164 -1.9136
 1374SOL     OW15757   1.047   3.661   5.753 -0.6346 -0.1835 -0.7306
 1374SOL    HW115758   1.095   3.671   5.670  1.4477  0.5053  0.5447
 1374SOL    HW215759   0.993   3.739   5.748  0.8866  0.9630  0.8817
 1375SOL     OW15760   3.865   3.635   6.840 -0.6618  0.3955 -0.5877
 1375SOL    HW115761   3.826   3.560   6.796 -0.4880 -1.1248  1.8946
 1375SOL    HW215762   3.789   3.675   6.881 -1.0541  0.1478 -1.0723
 1376SOL     OW15763   1.541   2.152   4.469  0.0823 -0.6038  0.0565
 1376SOL    HW115764   1.469   2.212   4.487  0.6707 -0.1522  0.8631
 1376SOL    HW215765   1.539   2.165   4.374 -1.5288 -1.7294 -0.0782
 1377SOL     OW15766   3.143   0.546   1.696 -0.1419 -0.6753 -0.4561
 1377SOL    HW115767   3.194   0.509   1.624  2.0461  1.7551 -0.1585
 1377SOL    HW215768   3.159   0.639   1.678  2.0682 -1.1758 -0.9639
 1378SOL     OW15769   2.360   2.214   8.571  0.0040 -0.1138 -0.0342
 1378SOL    HW115770   2.326   2.184   8.656 -1.0796  2.1646  0.3700
 1378SOL    HW215771   2.454   2.222   8.584 -0.0694  2.5931 -1.0747
 1379SOL     OW15772   2.334   1.078   7.539  0.6715  0.2442 -0.5500
 1379SOL    HW115773   2.341   1.126   7.622 -0.6493  0.2255 -0.4265
 1379SOL    HW215774   2.270   1.135   7.496  1.0667  1.9999  1.1695
 1380SOL     OW15775   2.789   4.271   5.062 -0.0421  0.0218  0.0811
 1380SOL    HW115776   2.865   4.246   5.115  0.0025  1.3925  0.6620
 1380SOL    HW215777   2.743   4.187   5.057 -0.7551  0.3949  0.4200
 1381SOL     OW15778   2.317   1.978   5.473 -0.1687  0.1563  0.3465
 1381SOL    HW115779   2.290   1.893   5.507  1.5263  0.7007  3.0320
 1381SOL    HW215780   2.248   2.023   5.521 -1.0294 -1.5854  0.7070
 1382SOL     OW15781   2.974   3.443   7.538  0.2724  0.3292 -0.2261
 1382SOL    HW115782   2.918   3.520   7.547 -2.2145 -1.6937  1.8284
 1382SOL    HW215783   2.980   3.423   7.631  0.6563  2.4890  0.2266
 1383SOL     OW15784   3.391   3.902   0.698 -0.3155 -0.0683 -0.5923
 1383SOL    HW115785   3.367   3.983   0.744 -1.5847 -2.1182  2.3683
 1383SOL    HW215786   3.370   3.843   0.770  1.6550 -0.6735 -0.5120
 1384SOL     OW15787   2.469   2.688  13.077  0.2292  0.3909  0.1959
 1384SOL    HW115788   2.417   2.677  12.998  0.9113  2.1736 -0.4939
 1384SOL    HW215789   2.549   2.727  13.041 -0.6904  1.3342 -0.8199
 1385SOL     OW15790   3.540   3.585   5.462  0.1694 -0.5924 -0.0179
 1385SOL    HW115791   3.474   3.643   5.500  2.1685  1.4108  0.3679
 1385SOL    HW215792   3.565   3.536   5.540 -1.2193  1.5307  1.7583
 1386SOL     OW15793   0.303   1.254   6.425  0.4742  0.3547  0.3351
 1386SOL    HW115794   0.271   1.179   6.475 -2.2312  1.5419  0.3652
 1386SOL    HW215795   0.284   1.323   6.490 -3.0737  0.3340 -0.6963
 1387SOL     OW15796   0.329   0.072   3.187  0.2904  0.2185  0.7386
 1387SOL    HW115797   0.261   0.117   3.137  1.6692  1.8829  0.3423
 1387SOL    HW215798   0.295   0.086   3.275  0.2381  0.7469  0.6335
 1388SOL     OW15799   2.684   3.303   6.598  0.8343 -0.2665  0.0887
 1388SOL    HW115800   2.754   3.366   6.582  0.5602 -0.1736 -0.7630
 1388SOL    HW215801   2.726   3.235   6.650  0.5969  1.3258  2.3460
 1389SOL     OW15802   0.511   0.732   3.688  0.0565 -0.1327 -0.3285
 1389SOL    HW115803   0.417   0.732   3.672  0.0760 -0.0150 -0.4412
 1389SOL    HW215804   0.510   0.684   3.771 -0.6464  1.1414  0.4033
 1390SOL     OW15805   3.439   1.306   5.131  0.4838 -0.5125 -0.1266
 1390SOL    HW115806   3.346   1.314   5.153  0.7118  0.1773  0.5791
 1390SOL    HW215807   3.436   1.335   5.040  0.6156 -0.5695 -0.1482
 1391SOL     OW15808   0.076   3.728  12.169  0.8431  0.0624 -0.0920
 1391SOL    HW115809   0.000   3.736  12.226 -0.0042 -1.0393 -1.0402
 1391SOL    HW215810   0.066   3.807  12.116 -0.2360  1.3694  2.1064
 1392SOL     OW15811   2.312   3.037   4.121 -0.6079  0.8611 -0.1877
 1392SOL    HW115812   2.377   3.046   4.051 -2.0995 -0.7786 -1.7905
 1392SOL    HW215813   2.340   3.109   4.178 -0.4130  0.0101  0.8040
 1393SOL     OW15814   4.468   2.271   4.710  0.2243 -0.0277  0.1636
 1393SOL    HW115815   4.505   2.225   4.785  0.0852 -3.3263 -1.8300
 1393SOL    HW215816   4.545   2.321   4.684 -1.4209  2.0113 -0.8351
 1394SOL     OW15817   0.702   4.652   2.614 -0.3169  0.6153  0.7607
 1394SOL    HW115818   0.688   4.721   2.679  1.6157  0.4442  1.3792
 1394SOL    HW215819   0.787   4.618   2.642  0.2149 -0.4662 -2.2240
 1395SOL     OW15820   1.929   4.706   2.784 -0.3393 -0.0891  0.1030
 1395SOL    HW115821   2.022   4.702   2.763 -0.3380 -0.8176  0.2675
 1395SOL    HW215822   1.935   0.043   2.842 -2.1379  0.9596 -1.0681
 1396SOL     OW15823   1.342   2.236   8.133 -0.3325 -0.1852 -0.2433
 1396SOL    HW115824   1.436   2.225   8.150 -0.3019  1.0922  0.4461
 1396SOL    HW215825   1.332   2.318   8.181 -1.0676 -1.5309  1.9070
 1397SOL     OW15826   2.597   2.874   3.140 -0.0933 -0.5627 -0.7829
 1397SOL    HW115827   2.614   2.951   3.195  0.2477 -1.2791  0.1117
 1397SOL    HW215828   2.540   2.907   3.070 -0.9228 -0.1655  0.0808
 1398SOL     OW15829   1.582   1.164   2.790 -0.0770  0.7586  0.5998
 1398SOL    HW115830   1.596   1.225   2.718 -0.2455 -0.7442 -0.6962
 1398SOL    HW215831   1.605   1.081   2.750 -1.2076  0.9480 -0.4380
 1399SOL     OW15832   3.688   4.039   8.851 -0.2681 -0.4391 -0.1167
 1399SOL    HW115833   3.640   4.047   8.769  0.8872 -1.3562 -0.8788
 1399SOL    HW215834   3.753   4.108   8.835 -0.4003 -0.9093 -2.6464
 1400SOL     OW15835   3.900   2.904   8.804  0.0098 -0.6537  0.5206
 1400SOL    HW115836   3.962   2.871   8.869 -0.1222  1.7663  1.8888
 1400SOL    HW215837   3.911   2.841   8.734 -1.8130 -2.3163  1.7169
 1401SOL     OW15838   3.107   3.990   5.652  0.2544 -0.3622  0.4603
 1401SOL    HW115839   3.136   3.958   5.738  1.3670  1.1523  0.6431
 1401SOL    HW215840   3.012   3.993   5.666  0.0094 -1.2094 -0.9975
 1402SOL     OW15841   1.251   3.031   2.305  0.1612 -0.2501 -0.2019
 1402SOL    HW115842   1.336   3.055   2.342 -0.2916  1.6850 -0.4081
 1402SOL    HW215843   1.215   2.990   2.384  0.6328  0.5923  0.4597
 1403SOL     OW15844   0.715   0.794   6.667 -0.2427 -0.5809 -0.0990
 1403SOL    HW115845   0.691   0.820   6.579  1.7163 -2.1379 -1.0889
 1403SOL    HW215846   0.658   0.718   6.677 -3.3855  1.8254  0.2780
 1404SOL     OW15847   4.051   1.370   3.196  0.1002 -0.2640  0.5295
 1404SOL    HW115848   3.976   1.313   3.177 -0.3168  0.0766  1.1915
 1404SOL    HW215849   4.021   1.410   3.277 -0.3795 -1.6819  1.0583
 1405SOL     OW15850   3.328   1.036   1.936  0.2131  0.2066  0.1693
 1405SOL    HW115851   3.292   0.990   2.013  0.7779  0.0609  0.3474
 1405SOL    HW215852   3.315   1.129   1.956  0.3479  0.3467 -0.4087
 1406SOL     OW15853   1.228   2.508   3.062  0.0599 -0.4898 -0.2465
 1406SOL    HW115854   1.243   2.486   2.970 -0.8904 -1.0988 -0.2568
 1406SOL    HW215855   1.240   2.602   3.069 -1.4327 -0.3108 -0.2386
 1407SOL     OW15856   0.644   1.659   5.620  0.3649  0.5479  0.0496
 1407SOL    HW115857   0.586   1.734   5.628  0.2633  0.7154 -2.3840
 1407SOL    HW215858   0.643   1.653   5.525 -1.3105  0.1121  0.1054
 1408SOL     OW15859   4.563   2.811  17.488  0.7208 -0.7181  0.3345
 1408SOL    HW115860   4.580   2.889  17.436  3.1435 -0.8159  0.9731
 1408SOL    HW215861   4.513   2.848  17.560 -1.3683 -0.2651 -1.3477
 1409SOL     OW15862   0.891   2.025  14.907 -0.0353  0.3944 -0.3544
 1409SOL    HW115863   0.875   2.019  14.813  1.6759 -2.2894 -0.4677
 1409SOL    HW215864   0.983   2.052  14.909 -0.6929  2.6886 -1.7928
 1410SOL     OW15865   2.279   3.560   4.658  0.2877  0.1383  0.0471
 1410SOL    HW115866   2.247   3.636   4.608 -0.6972  0.1153  0.6369
 1410SOL    HW215867   2.200   3.550   4.712 -1.7918  0.6629 -2.9038
 1411SOL     OW15868   2.492   1.644  10.654  0.2436 -0.4581  0.0899
 1411SOL    HW115869   2.521   1.570  10.707  1.0080  0.4364  0.9194
 1411SOL    HW215870   2.581   1.673  10.637  0.2360  0.2806  1.2512
 1412SOL     OW15871   0.753   4.728   4.256  0.0014 -0.0377 -0.0978
 1412SOL    HW115872   0.808   0.041   4.316  1.8948 -1.5478 -0.5159
 1412SOL    HW215873   0.783   4.639   4.273 -1.0513 -0.3803 -0.0490
 1413SOL     OW15874   0.546   0.728   9.397  0.7330 -0.3329 -0.3150
 1413SOL    HW115875   0.511   0.810   9.363  0.5549 -0.1823  0.2229
 1413SOL    HW215876   0.502   0.657   9.352  0.0140 -0.7103  0.9805
 1414SOL     OW15877   4.057   0.685   6.774  0.7043 -0.1210  0.0190
 1414SOL    HW115878   4.149   0.678   6.749 -0.2446 -1.0663 -3.1405
 1414SOL    HW215879   4.060   0.646   6.862 -3.9288 -0.2782  0.1386
 1415SOL     OW15880   4.065   0.870   3.075  0.2820 -0.1482 -0.3980
 1415SOL    HW115881   4.067   0.775   3.061  0.1374 -0.1011 -0.7389
 1415SOL    HW215882   4.116   0.897   2.998 -0.2515  0.6502 -0.4701
 1416SOL     OW15883   0.366   2.191   8.855  0.4857  0.5528 -0.1117
 1416SOL    HW115884   0.432   2.236   8.803  2.7008  0.0427  2.2738
 1416SOL    HW215885   0.372   2.233   8.941 -0.1730  0.2095  0.0990
 1417SOL     OW15886   4.393   1.451   3.582 -0.4106  0.6301  0.2981
 1417SOL    HW115887   4.321   1.490   3.633  1.2014  1.8309  1.6540
 1417SOL    HW215888   4.458   1.451   3.652 -1.2638  0.3171  1.1044
 1418SOL     OW15889   3.252   2.771   7.717 -0.3088  0.3137 -0.0055
 1418SOL    HW115890   3.160   2.743   7.716  0.3939 -1.9745 -0.0794
 1418SOL    HW215891   3.280   2.727   7.797 -1.3259 -4.1116 -2.0789
 1419SOL     OW15892   2.216   2.122   9.351  0.0963 -0.7842  0.4006
 1419SOL    HW115893   2.277   2.160   9.415 -1.1113  0.5072  0.7937
 1419SOL    HW215894   2.133   2.159   9.381  0.7112 -0.9236  2.2828
 1420SOL     OW15895   4.247   3.074   8.602  0.2075 -0.1267  0.5401
 1420SOL    HW115896   4.155   3.096   8.584  1.3743  2.8772 -1.7533
 1420SOL    HW215897   4.246   2.983   8.630  0.9876  0.0755  1.2076
 1421SOL     OW15898   2.228   0.330   1.850 -0.5930 -0.4936  0.5199
 1421SOL    HW115899   2.212   0.409   1.798 -1.1142 -1.7565 -1.2462
 1421SOL    HW215900   2.309   0.293   1.816 -0.8392  0.2028 -0.8226
 1422SOL     OW15901   1.732   2.191   8.407  0.1075 -0.0079 -0.6047
 1422SOL    HW115902   1.717   2.270   8.458 -3.5777 -1.2321  0.1649
 1422SOL    HW215903   1.820   2.161   8.429 -0.1985  0.3740  1.0974
 1423SOL     OW15904   3.814   4.540   8.389 -0.2619 -0.4631  0.4048
 1423SOL    HW115905   3.872   4.467   8.368  0.5048  0.2541  0.0531
 1423SOL    HW215906   3.753   4.494   8.447 -1.7852  1.3017  0.2034
 1424SOL     OW15907   0.541   3.647   1.978 -0.1387 -0.0956  0.6392
 1424SOL    HW115908   0.531   3.596   1.898  1.7397 -3.0640  2.2663
 1424SOL    HW215909   0.627   3.621   2.012  0.2416  1.7202  1.0785
 1425SOL     OW15910   1.080   2.497   4.824 -0.1199  0.1894  0.0454
 1425SOL    HW115911   1.008   2.437   4.803  0.1346  0.1995 -0.8450
 1425SOL    HW215912   1.043   2.574   4.781 -0.4875  0.7258  1.3244
 1426SOL     OW15913   3.377   0.297   2.514  0.0154  0.2492 -0.3766
 1426SOL    HW115914   3.404   0.265   2.600 -1.3982  0.9037  0.3233
 1426SOL    HW215915   3.305   0.236   2.496  1.1347 -1.5004  1.1171
 1427SOL     OW15916   1.050   4.727   5.573 -0.1440 -0.7318 -0.3428
 1427SOL    HW115917   0.961   4.731   5.608  0.4320 -0.3777  1.0467
 1427SOL    HW215918   1.052   0.064   5.515 -0.2432 -1.7207 -1.6612
 1428SOL     OW15919   4.170   1.519   9.646 -0.6978  0.1249 -0.5896
 1428SOL    HW115920   4.231   1.584   9.681 -0.7286 -0.6571  0.8853
 1428SOL    HW215921   4.110   1.509   9.720 -1.2695  0.5200 -0.9970
 1429SOL     OW15922   3.341   0.986   1.665  0.3555  0.1823  0.7609
 1429SOL    HW115923   3.419   1.029   1.630  1.8271 -0.9932  2.6442
 1429SOL    HW215924   3.346   1.006   1.758  1.9502  1.4580  0.4072
 1430SOL     OW15925   2.909   1.040   0.828 -0.3410 -0.0854 -0.4091
 1430SOL    HW115926   2.832   1.083   0.791 -0.3372  0.3410  0.0797
 1430SOL    HW215927   2.922   0.965   0.769  0.7594 -2.1423  2.4238
 1431SOL     OW15928   4.384   2.913   7.398 -0.1358 -0.1391 -0.4560
 1431SOL    HW115929   4.422   2.996   7.370 -0.2794  0.3092  0.6950
 1431SOL    HW215930   4.305   2.914   7.344  0.3314  1.2447 -1.1128
 1432SOL     OW15931   3.691   3.748   2.490  0.2529 -0.0533  0.2727
 1432SOL    HW115932   3.706   3.655   2.474 -0.8335 -0.5625  2.3323
 1432SOL    HW215933   3.653   3.757   2.577  2.7178  1.0419  1.2155
 1433SOL     OW15934   4.084   4.037   6.942 -0.3086  0.1376  0.5156
 1433SOL    HW115935   4.169   3.997   6.960  0.2891  1.1580 -0.0488
 1433SOL    HW215936   4.101   4.130   6.955  1.5982 -0.3635  1.6117
 1434SOL     OW15937   2.658   1.845   6.157 -0.0014  0.3361  0.2216
 1434SOL    HW115938   2.681   1.857   6.249 -1.3118  0.2982  0.5532
 1434SOL    HW215939   2.696   1.924   6.118 -2.2576  1.9733  1.3429
 1435SOL     OW15940   0.426   1.080   5.818  0.6141 -0.3504  0.6678
 1435SOL    HW115941   0.384   1.139   5.756  0.3892  1.4054  2.5235
 1435SOL    HW215942   0.517   1.094   5.791 -0.1476  3.0948 -0.0107
 1436SOL     OW15943   1.264   4.047  17.101  0.5177  0.1918  0.4798
 1436SOL    HW115944   1.325   4.067  17.030 -1.6776  2.2345 -0.8155
 1436SOL    HW215945   1.296   3.962  17.132 -0.0470 -1.2014 -2.7970
 1437SOL     OW15946   0.601   2.329  14.810 -0.2936  0.0718 -0.0567
 1437SOL    HW115947   0.671   2.273  14.778  0.3126  1.0542 -0.4508
 1437SOL    HW215948   0.581   2.377  14.730 -6.0500 -2.0568  0.1099
 1438SOL     OW15949   3.561   2.148   7.283 -0.2325  0.1506 -0.2379
 1438SOL    HW115950   3.650   2.156   7.319  0.1359 -0.8665 -0.9133
 1438SOL    HW215951   3.508   2.123   7.359 -1.8723  2.7118 -0.5279
 1439SOL     OW15952   1.920   0.956   6.569  0.0297  0.0151  0.3172
 1439SOL    HW115953   1.969   1.010   6.507 -1.0737  1.4463  0.6783
 1439SOL    HW215954   1.934   0.869   6.533 -2.2626  0.2038 -1.0560
 1440SOL     OW15955   0.309   3.648  15.490 -0.2730  0.4456 -0.1888
 1440SOL    HW115956   0.296   3.606  15.404 -1.8910 -0.7893  0.6542
 1440SOL    HW215957   0.245   3.606  15.547 -2.1536  1.4356 -1.5353
 1441SOL     OW15958   2.414   0.032   3.968 -0.0332  0.5177 -0.7254
 1441SOL    HW115959   2.399   4.708   3.898 -2.2138 -0.4353  0.6079
 1441SOL    HW215960   2.468   0.094   3.919  0.5443  0.6522  0.0964
 1442SOL     OW15961   0.546   2.579   1.775  0.3621 -0.0601 -0.4444
 1442SOL    HW115962   0.496   2.654   1.806  1.8786  0.1848  1.3830
 1442SOL    HW215963   0.500   2.518   1.833 -1.1291  1.0545 -0.4740
 1443SOL     OW15964   0.304   1.524  11.941 -0.1906  0.1350  0.2521
 1443SOL    HW115965   0.343   1.560  11.861 -3.4318  0.2463 -1.3076
 1443SOL    HW215966   0.271   1.608  11.973  1.6880  1.4508 -1.2291
 1444SOL     OW15967   1.490   3.161   5.978  0.2299  0.2977 -0.3361
 1444SOL    HW115968   1.538   3.092   6.024 -0.7775 -1.2951 -1.7288
 1444SOL    HW215969   1.489   3.123   5.890 -3.6898  0.3976 -0.3452
 1445SOL     OW15970   2.817   2.048   6.066 -0.0420  0.0401 -0.3421
 1445SOL    HW115971   2.815   2.143   6.055  0.6409  0.1594  0.5933
 1445SOL    HW215972   2.909   2.023   6.056 -0.1481 -0.7423  0.5767
 1446SOL     OW15973   1.783   3.577   1.662 -0.2184 -0.1064  0.6804
 1446SOL    HW115974   1.731   3.533   1.729 -2.7346  0.2518 -1.0189
 1446SOL    HW215975   1.822   3.501   1.618  1.5966  1.2638 -0.0540
 1447SOL     OW15976   0.150   1.196   8.122 -0.5728 -0.1637 -0.3118
 1447SOL    HW115977   0.219   1.207   8.056 -1.0990  0.6205 -0.7334
 1447SOL    HW215978   0.073   1.174   8.070 -1.1335  0.3409  0.3103
 1448SOL     OW15979   3.456   0.655   1.596  0.0042 -0.2710 -0.0342
 1448SOL    HW115980   3.551   0.651   1.585 -0.0732 -2.1244 -0.1243
 1448SOL    HW215981   3.464   0.668   1.691 -0.9041  1.9253 -0.2550
 1449SOL     OW15982   4.084   2.889   4.990 -0.4188 -0.1985  0.5963
 1449SOL    HW115983   4.175   2.883   5.020 -0.6576 -0.4899  1.2620
 1449SOL    HW215984   4.066   2.820   4.926  0.6420  0.0906 -0.0165
 1450SOL     OW15985   0.181   1.135  13.576  0.4010 -0.4355 -0.3516
 1450SOL    HW115986   0.213   1.046  13.585 -0.5565 -0.6409  0.9950
 1450SOL    HW215987   0.259   1.187  13.556  1.8624 -1.5695  2.4904
 1451SOL     OW15988   0.490   4.625   6.902  0.1761  0.0143 -0.1278
 1451SOL    HW115989   0.551   4.578   6.845 -0.6663  0.1795 -1.1509
 1451SOL    HW215990   0.541   4.696   6.943  1.1676  0.3484 -1.9303
 1452SOL     OW15991   3.557   4.260   3.024  0.3131  0.4194 -0.5952
 1452SOL    HW115992   3.643   4.298   3.044  0.6971  0.3240 -2.0614
 1452SOL    HW215993   3.546   4.263   2.929 -1.2046  1.7350 -0.3694
 1453SOL     OW15994   1.338   2.393   3.645  0.5462  0.5602 -0.6007
 1453SOL    HW115995   1.400   2.340   3.695  0.0934  2.5392  2.0680
 1453SOL    HW215996   1.264   2.334   3.657 -0.5841  1.9343 -0.7967
 1454SOL     OW15997   3.505   1.226   9.067  0.0610  0.0229  0.8854
 1454SOL    HW115998   3.470   1.210   9.155  1.1578 -0.5677  1.2221
 1454SOL    HW215999   3.450   1.301   9.046 -0.1495 -0.9861 -2.1823
 1455SOL     OW16000   2.282   3.446   6.649 -0.3048  0.1631  0.4581
 1455SOL    HW116001   2.248   3.381   6.587 -0.9517  1.0551 -0.1142
 1455SOL    HW216002   2.204   3.500   6.658 -1.9006 -2.2738  1.3318
 1456SOL     OW16003   3.043   0.936   8.603 -0.5244 -0.7069  0.0018
 1456SOL    HW116004   2.992   0.855   8.616 -1.6812 -0.2810 -1.8083
 1456SOL    HW216005   3.123   0.909   8.648 -0.2769  2.1791  1.2659
 1457SOL     OW16006   4.675   0.139  10.869  0.8274 -0.0350  0.8351
 1457SOL    HW116007   4.722   0.157  10.950  0.2957 -0.2657  1.1989
 1457SOL    HW216008   0.011   0.147  10.811 -0.5680  2.1373 -0.7066
 1458SOL     OW16009   3.907   3.999   4.062  0.2297 -0.2143  0.0624
 1458SOL    HW116010   3.910   3.976   3.969  1.4224 -1.2280  0.3386
 1458SOL    HW216011   3.818   4.030   4.078  0.7235  0.6384  1.1799
 1459SOL     OW16012   0.479   4.227   7.619  0.3503  0.2564  0.3418
 1459SOL    HW116013   0.477   4.302   7.560 -1.4168  0.0980  0.2103
 1459SOL    HW216014   0.534   4.163   7.573  0.7622  1.3005 -0.6267
 1460SOL     OW16015   1.713   0.881   3.759  0.3281 -0.2149 -0.5387
 1460SOL    HW116016   1.678   0.806   3.711 -0.9165 -0.2500  0.4231
 1460SOL    HW216017   1.691   0.953   3.699  0.0878 -0.7853 -1.1288
 1461SOL     OW16018   3.297   3.319   0.532  0.3991 -0.1262 -1.0805
 1461SOL    HW116019   3.390   3.326   0.554 -0.3008  0.9817  1.4843
 1461SOL    HW216020   3.264   3.405   0.559  1.2496 -0.0928 -0.1252
 1462SOL     OW16021   3.415   1.928  10.320 -0.6721  0.6471  0.2312
 1462SOL    HW116022   3.504   1.958  10.301 -0.5454  1.2062  1.6790
 1462SOL    HW216023   3.362   2.008  10.321  1.2845  1.9367 -2.0019
 1463SOL     OW16024   0.230   3.215   7.841  0.3668  0.2023  0.3733
 1463SOL    HW116025   0.268   3.215   7.753 -0.5469 -0.0170 -0.0301
 1463SOL    HW216026   0.145   3.256   7.821  0.2196 -0.8887 -1.2147
 1464SOL     OW16027   4.650   4.581   3.139  0.4726  0.7919 -0.5720
 1464SOL    HW116028   4.631   4.644   3.070 -0.0969  0.5958 -0.5926
 1464SOL    HW216029   4.573   4.574   3.196  1.0723  0.9630  0.2656
 1465SOL     OW16030   2.165   3.208   5.364 -0.0233 -0.5218 -0.8164
 1465SOL    HW116031   2.212   3.127   5.381  3.2577  1.6584  0.3249
 1465SOL    HW216032   2.234   3.269   5.389 -1.1045  0.1699  0.4782
 1466SOL     OW16033   3.162   4.582   1.944 -0.4330 -0.1450  0.5116
 1466SOL    HW116034   3.168   4.493   1.978 -1.1810  0.8202  3.1897
 1466SOL    HW216035   3.200   4.573   1.857 -2.6447  1.9562 -0.6596
 1467SOL     OW16036   1.517   4.056  17.439  0.2335 -0.5496  0.8886
 1467SOL    HW116037   1.572   3.994  17.392  2.8090  0.4666  2.5221
 1467SOL    HW216038   1.429   4.019  17.438  0.5798 -1.3657  0.3301
 1468SOL     OW16039   3.009   3.501   5.634  0.7418 -1.1855 -0.0452
 1468SOL    HW116040   3.085   3.457   5.595  0.0408 -1.3999 -1.1904
 1468SOL    HW216041   3.056   3.564   5.689 -0.9046  0.2126 -0.2125
 1469SOL     OW16042   4.658   4.704   6.906  0.0459  0.0096  0.5980
 1469SOL    HW116043   4.578   4.714   6.957 -0.4130  1.2684 -0.3589
 1469SOL    HW216044   4.686   4.615   6.925  1.3059 -0.0198 -1.3841
 1470SOL     OW16045   1.979   3.085   0.985  0.1094 -0.8179 -0.0558
 1470SOL    HW116046   2.064   3.086   0.942 -0.7656  0.6929 -1.7516
 1470SOL    HW216047   1.975   2.994   1.015  0.9760 -1.0695 -0.7164
 1471SOL     OW16048   1.491   1.168   7.034 -0.4102 -0.0327 -0.7806
 1471SOL    HW116049   1.495   1.136   6.944 -0.2667 -2.4143  0.0678
 1471SOL    HW216050   1.553   1.116   7.085  0.3382  1.0562 -0.5722
 1472SOL     OW16051   2.606   0.091  13.684 -0.1333  0.4725 -0.5903
 1472SOL    HW116052   2.682   0.052  13.727  0.0864 -0.3343 -1.7181
 1472SOL    HW216053   2.616   0.177  13.724  3.0688 -0.2463  0.1455
 1473SOL     OW16054   0.821   2.934   8.388  0.2558 -0.0662 -0.6073
 1473SOL    HW116055   0.777   2.954   8.470 -0.3504 -0.5513 -0.8131
 1473SOL    HW216056   0.883   3.005   8.373  0.0007  0.4766  0.8812
 1474SOL     OW16057   4.577   2.152   4.931  0.1660 -0.0194  0.1577
 1474SOL    HW116058   4.607   2.061   4.933  0.0035 -0.1280 -2.6429
 1474SOL    HW216059   4.547   2.165   5.021  0.1301  0.5644  0.0592
 1475SOL     OW16060   1.137   1.177  14.515  0.1196  0.2388 -0.2583
 1475SOL    HW116061   1.210   1.116  14.528  1.0961  1.1261 -1.6192
 1475SOL    HW216062   1.138   1.217  14.602  0.9269 -1.8692  0.7060
 1476SOL     OW16063   0.337   2.188   1.688  0.2813  0.5906 -0.5850
 1476SOL    HW116064   0.356   2.230   1.772 -3.1974  1.0437 -0.0060
 1476SOL    HW216065   0.389   2.247   1.634  0.4084 -0.8761 -2.0389
 1477SOL     OW16066   2.417   1.265   8.988 -0.5011  0.1497  0.1987
 1477SOL    HW116067   2.424   1.319   8.909 -1.8116  1.4532  0.9753
 1477SOL    HW216068   2.369   1.326   9.044  0.9506  1.7447 -0.2980
 1478SOL     OW16069   0.704   0.284   4.145 -0.6056 -0.2646 -0.1293
 1478SOL    HW116070   0.669   0.271   4.233  1.0558 -0.0501  0.5702
 1478SOL    HW216071   0.769   0.213   4.144 -0.8235 -0.4310 -1.9088
 1479SOL     OW16072   1.116   0.448   7.051  0.6124  0.2292 -0.3124
 1479SOL    HW116073   1.154   0.362   7.073  1.6717  0.9345  0.6080
 1479SOL    HW216074   1.179   0.482   6.987 -0.2921  3.2532  0.4144
 1480SOL     OW16075   4.596   1.381   1.903 -0.0123 -0.1175  0.5799
 1480SOL    HW116076   4.611   1.342   1.817  1.2378  1.0103  0.2876
 1480SOL    HW216077   4.601   1.473   1.878 -0.0307 -0.0721  0.7450
 1481SOL     OW16078   4.297   3.177   4.481  0.5155 -0.0423  0.2895
 1481SOL    HW116079   4.325   3.129   4.403 -1.4491  1.3419 -1.2823
 1481SOL    HW216080   4.219   3.129   4.511 -0.8424  0.3792 -2.5927
 1482SOL     OW16081   0.563   3.432   3.997 -0.5773  0.4096  0.0486
 1482SOL    HW116082   0.605   3.376   4.063  1.8167  1.3384 -0.6937
 1482SOL    HW216083   0.493   3.482   4.039 -1.7946 -1.7049  0.5185
 1483SOL     OW16084   1.140   4.031  11.526 -0.4324  0.3454 -0.0063
 1483SOL    HW116085   1.213   4.051  11.584 -1.1302 -2.7137  1.9654
 1483SOL    HW216086   1.194   4.012  11.449 -0.9182 -0.5376 -0.1299
 1484SOL     OW16087   4.320   2.550   8.558  0.1152 -0.3440 -0.4715
 1484SOL    HW116088   4.406   2.511   8.544 -1.0529 -2.5644 -1.4835
 1484SOL    HW216089   4.278   2.561   8.473 -0.0083  0.3171 -0.3224
 1485SOL     OW16090   3.008   4.565  10.857 -0.4378 -0.4056 -0.0670
 1485SOL    HW116091   3.063   4.517  10.795 -1.0614 -1.5282  0.2345
 1485SOL    HW216092   3.013   4.511  10.936 -0.5810  0.9975  0.8911
 1486SOL     OW16093   0.091   0.243   5.122 -0.1399 -0.4831  0.3299
 1486SOL    HW116094   0.162   0.223   5.061  0.2074 -0.6761  0.7923
 1486SOL    HW216095   0.140   0.208   5.197 -0.1592 -2.8298 -0.7439
 1487SOL     OW16096   4.689   3.784   6.766  0.6633  0.3613  0.3303
 1487SOL    HW116097   4.594   3.790   6.757  0.9076  0.2140 -2.3614
 1487SOL    HW216098   4.718   3.698   6.737 -2.4318 -0.7085  0.4820
 1488SOL     OW16099   0.867   0.021   3.237  0.5268 -0.1997 -0.2764
 1488SOL    HW116100   0.799   0.045   3.300 -0.7690 -1.7530 -1.0621
 1488SOL    HW216101   0.824   4.685   3.197  0.4237 -0.7266  0.8090
 1489SOL     OW16102   0.333   1.627   4.869  0.1433 -0.2531 -0.3506
 1489SOL    HW116103   0.372   1.586   4.946 -0.3346  0.4101  0.2461
 1489SOL    HW216104   0.260   1.568   4.854 -0.3495  0.3840 -0.4515
 1490SOL     OW16105   3.396   0.808   9.001 -0.2612  0.1146 -0.4803
 1490SOL    HW116106   3.410   0.770   9.088  0.1622 -0.1248 -0.6526
 1490SOL    HW216107   3.323   0.755   8.968  0.4513 -1.6772  0.8284
 1491SOL     OW16108   0.592   0.847   2.596  0.1499 -0.0324 -0.2211
 1491SOL    HW116109   0.514   0.880   2.640  0.2210  0.5459 -0.5326
 1491SOL    HW216110   0.627   0.931   2.565 -1.3957  0.7531  0.1804
 1492SOL     OW16111   1.965   1.640  10.586  0.1375 -0.1980 -0.0608
 1492SOL    HW116112   2.044   1.666  10.633  0.6501 -1.5275 -0.1766
 1492SOL    HW216113   1.903   1.690  10.640  2.1870 -0.4783  2.5633
 1493SOL     OW16114   3.691   3.469   4.921 -0.1379 -0.1574  0.4109
 1493SOL    HW116115   3.621   3.534   4.921 -0.5322 -0.5667 -1.0824
 1493SOL    HW216116   3.702   3.447   5.013 -1.1086  0.4146  0.6616
 1494SOL     OW16117   3.741   0.276   2.496 -0.0607  0.3298  0.1087
 1494SOL    HW116118   3.761   0.262   2.589  1.9382 -1.5374 -0.5949
 1494SOL    HW216119   3.654   0.313   2.504 -0.1121  0.1421  0.4572
 1495SOL     OW16120   4.407   0.582   0.280  0.3685 -0.0959  0.3000
 1495SOL    HW116121   4.358   0.512   0.237  0.9588 -0.5575  0.3842
 1495SOL    HW216122   4.496   0.549   0.286  0.6995  0.3920 -1.8496
 1496SOL     OW16123   3.210   2.470  16.407 -0.2391  0.4515  0.3322
 1496SOL    HW116124   3.175   2.450  16.494 -1.1442 -0.2086 -0.1824
 1496SOL    HW216125   3.152   2.419  16.350  1.0534 -2.5097  1.6794
 1497SOL     OW16126   1.225   3.449   1.065  0.2959  0.3507  0.8595
 1497SOL    HW116127   1.265   3.439   1.151  1.9984 -1.4312 -0.1427
 1497SOL    HW216128   1.243   3.363   1.027  1.0486  1.0060 -0.2742
 1498SOL     OW16129   0.559   3.413  13.232 -0.2473  0.1224  0.5862
 1498SOL    HW116130   0.576   3.398  13.325 -1.7623 -2.0360  0.5135
 1498SOL    HW216131   0.649   3.414  13.198 -0.0146 -0.8368  1.1999
 1499SOL     OW16132   0.191   2.532  13.842  0.2528  0.7421 -0.1068
 1499SOL    HW116133   0.248   2.508  13.915 -3.0488  0.1145  2.3058
 1499SOL    HW216134   0.162   2.619  13.871  1.1728  0.2250  2.3815
 1500SOL     OW16135   2.010   2.467   6.154 -0.1933  0.0954 -0.2809
 1500SOL    HW116136   1.944   2.415   6.108  0.3637 -0.0007 -0.9766
 1500SOL    HW216137   2.092   2.438   6.114 -1.7059 -2.7843 -1.3421
 1501SOL     OW16138   1.774   2.287  13.826 -0.2287  0.3969 -0.1800
 1501SOL    HW116139   1.679   2.275  13.827  0.0431 -1.8015 -0.5020
 1501SOL    HW216140   1.785   2.311  13.918 -0.2209 -0.6431  0.0935
 1502SOL     OW16141   4.059   4.275  10.213 -0.3287 -0.1094  0.1486
 1502SOL    HW116142   4.029   4.278  10.304 -1.5034 -1.1102 -0.1929
 1502SOL    HW216143   4.002   4.211  10.169  0.2129  0.7478 -1.7634
 1503SOL     OW16144   0.913   2.265   4.833  0.1826 -1.0953  0.2944
 1503SOL    HW116145   0.921   2.169   4.836  0.6794 -0.9768  2.7675
 1503SOL    HW216146   0.841   2.265   4.770  1.1314  0.3886 -0.8139
 1504SOL     OW16147   4.024   1.121   9.942 -0.5802  0.2620  0.2345
 1504SOL    HW116148   4.075   1.043   9.964 -1.2386 -0.9321 -2.4942
 1504SOL    HW216149   4.091   1.186   9.918 -1.3149  0.9283 -0.0140
 1505SOL     OW16150   2.533   0.794   8.871  0.4749 -0.5244 -0.0108
 1505SOL    HW116151   2.463   0.859   8.869 -0.3866 -1.4588 -0.3087
 1505SOL    HW216152   2.509   0.744   8.949  3.2700 -0.8061  0.6830
 1506SOL     OW16153   0.698   0.873  15.874  0.4613  0.1065  0.2921
 1506SOL    HW116154   0.628   0.927  15.913  0.0010  0.8249 -1.5111
 1506SOL    HW216155   0.663   0.853  15.787 -1.9296  0.7906  1.0953
 1507SOL     OW16156   2.269   4.580   8.757 -0.4159  0.0142 -0.1747
 1507SOL    HW116157   2.302   4.491   8.752 -0.6128 -0.1419  1.2281
 1507SOL    HW216158   2.330   4.632   8.704 -0.1233 -1.9526 -1.7769
 1508SOL     OW16159   4.555   2.706  13.360  0.3437  0.2031  0.1636
 1508SOL    HW116160   4.552   2.620  13.401 -0.8629 -0.5194 -1.4670
 1508SOL    HW216161   4.471   2.732  13.398  1.1628  1.4427  1.1216
 1509SOL     OW16162   0.256   3.008   2.243  0.4562  0.7383  0.6695
 1509SOL    HW116163   0.286   3.062   2.170  0.4369  1.7686  1.4226
 1509SOL    HW216164   0.184   3.058   2.281 -0.0316  1.2971 -0.9753
 1510SOL     OW16165   2.221   3.460   5.196  0.2958  0.3839  0.5079
 1510SOL    HW116166   2.223   3.499   5.284  0.4028  1.1860  0.1482
 1510SOL    HW216167   2.242   3.535   5.140 -1.7848 -0.6804 -1.6918
 1511SOL     OW16168   2.535   4.676   5.978  0.0450  0.4187  0.0625
 1511SOL    HW116169   2.504   4.598   6.023  0.5637  0.2792  0.1778
 1511SOL    HW216170   2.467   4.691   5.912  2.8329 -0.7883 -3.0456
 1512SOL     OW16171   2.526   2.045   3.083 -0.3810 -0.0041 -0.0267
 1512SOL    HW116172   2.529   1.979   3.013  0.8118 -0.4259  0.4224
 1512SOL    HW216173   2.498   1.986   3.153  0.9153 -1.4584 -0.7372
 1513SOL     OW16174   2.074   1.936   4.793 -0.0098  0.2940 -0.2331
 1513SOL    HW116175   2.153   1.954   4.844 -0.4027  2.0709 -0.2663
 1513SOL    HW216176   2.002   1.925   4.855 -0.0457 -1.8643 -0.6809
 1514SOL     OW16177   0.009   0.274   5.822 -0.0341  0.3944 -0.4746
 1514SOL    HW116178   0.093   0.288   5.779 -0.0727  1.8453 -0.1105
 1514SOL    HW216179   0.014   0.348   5.884  1.4923  0.9807 -1.2864
 1515SOL     OW16180   0.454   4.520  12.336  0.3713 -0.3344 -0.3644
 1515SOL    HW116181   0.498   4.599  12.369 -0.2842 -0.4752  0.8424
 1515SOL    HW216182   0.503   4.464  12.396  0.9996  0.6030 -0.0071
 1516SOL     OW16183   0.554   2.856   8.872  0.5188  0.2722 -0.2918
 1516SOL    HW116184   0.569   2.797   8.798 -0.5136  1.6021 -1.5516
 1516SOL    HW216185   0.524   2.794   8.938  1.1934 -0.0367 -0.2742
 1517SOL     OW16186   0.231   0.879   5.903 -0.3429  0.1232  0.2518
 1517SOL    HW116187   0.303   0.939   5.884 -1.7937  2.0490  0.7561
 1517SOL    HW216188   0.154   0.928   5.872 -0.5061 -0.0630  0.3574
 1518SOL     OW16189   1.024   4.134   3.599  0.3980 -0.7965  0.1531
 1518SOL    HW116190   0.940   4.093   3.618  0.9310 -1.1130  1.8045
 1518SOL    HW216191   1.053   4.068   3.536  2.3875 -1.0305  1.3284
 1519SOL     OW16192   0.652   1.041   9.200  0.4201 -0.2454 -0.2034
 1519SOL    HW116193   0.579   1.031   9.262  0.6496  0.4966  0.1796
 1519SOL    HW216194   0.622   1.118   9.151  0.2631 -0.5077 -0.5261
 1520SOL     OW16195   2.991   0.197   9.293 -0.1033  0.5814  0.3785
 1520SOL    HW116196   2.994   0.220   9.200  0.2870 -0.6132  0.0967
 1520SOL    HW216197   3.018   0.280   9.332  1.5386  1.7751 -3.2861
 1521SOL     OW16198   4.070   0.198   7.330  0.1517  0.6173  0.6274
 1521SOL    HW116199   3.975   0.184   7.318  0.1209  0.3251  1.2411
 1521SOL    HW216200   4.068   0.265   7.397  1.3984  1.0272  0.2373
 1522SOL     OW16201   3.143   1.054   3.830  0.1966 -0.0834 -0.1967
 1522SOL    HW116202   3.144   1.133   3.776 -0.6231 -0.3078 -0.5592
 1522SOL    HW216203   3.068   1.017   3.783  0.1670 -1.0526  0.6293
 1523SOL     OW16204   3.456   3.136  12.842 -0.2855 -0.0528 -0.0982
 1523SOL    HW116205   3.378   3.084  12.860  0.5353 -0.4814  2.2418
 1523SOL    HW216206   3.504   3.101  12.767 -2.7033  1.4507 -2.3551
 1524SOL     OW16207   1.418   0.386   6.891 -0.1432  0.3143 -0.2116
 1524SOL    HW116208   1.475   0.322   6.934 -0.5561 -1.2211 -1.9743
 1524SOL    HW216209   1.337   0.337   6.876 -0.7426  1.0128  0.6652
 1525SOL     OW16210   3.247   3.666  10.889 -0.4688 -0.0127 -0.1460
 1525SOL    HW116211   3.239   3.572  10.906 -1.0553  0.2816  1.2349
 1525SOL    HW216212   3.186   3.697  10.956  0.6707  1.0758  0.3966
 1526SOL     OW16213   2.762   0.221   3.057  0.2347 -0.7897 -0.6663
 1526SOL    HW116214   2.828   0.197   3.121 -1.0927  1.1151  1.4344
 1526SOL    HW216215   2.734   0.143   3.009  1.3794 -0.6084 -1.6202
 1527SOL     OW16216   4.023   1.605   0.887  0.7147 -0.0418 -0.0032
 1527SOL    HW116217   4.097   1.664   0.902 -0.0862  0.3406  2.3600
 1527SOL    HW216218   3.975   1.605   0.970  0.8259 -1.4378  0.0576
 1528SOL     OW16219   0.369   3.993  17.156  0.0275  0.3463 -0.3604
 1528SOL    HW116220   0.347   4.035  17.073 -0.9330 -0.5304 -0.5548
 1528SOL    HW216221   0.407   4.069  17.200 -0.2039  0.3931 -0.2423
 1529SOL     OW16222   3.568   3.416   8.506 -0.0739  0.2651  0.4195
 1529SOL    HW116223   3.644   3.472   8.523  1.7370 -2.0883  0.1796
 1529SOL    HW216224   3.534   3.394   8.593 -0.0039  1.6009  0.7826
 1530SOL     OW16225   3.634   1.909  16.201 -0.2980 -0.1798 -0.0787
 1530SOL    HW116226   3.614   1.820  16.229  1.9337 -1.2100 -1.8018
 1530SOL    HW216227   3.657   1.908  16.108 -1.4861  2.5352 -0.4146
 1531SOL     OW16228   2.143   2.463   4.946  0.2009  0.7900 -0.3943
 1531SOL    HW116229   2.158   2.368   4.952 -0.7144  0.6115 -0.9618
 1531SOL    HW216230   2.062   2.469   4.895  1.4666 -0.1866 -2.5058
 1532SOL     OW16231   3.961   1.235   4.182  0.3919  0.1598  0.0619
 1532SOL    HW116232   4.002   1.148   4.187 -1.4251 -0.5654  2.3892
 1532SOL    HW216233   3.958   1.261   4.274  0.2708  1.4026 -0.3012
 1533SOL     OW16234   3.742   0.518   7.325  0.9259 -0.5432  0.5352
 1533SOL    HW116235   3.768   0.570   7.249 -0.1088 -0.0416  0.5252
 1533SOL    HW216236   3.823   0.525   7.375  1.2579 -1.0031  0.0547
 1534SOL     OW16237   3.949   2.377   9.341 -0.4791  0.7989 -0.2907
 1534SOL    HW116238   3.927   2.415   9.426  0.6510  2.2956 -0.6694
 1534SOL    HW216239   4.039   2.411   9.340 -0.5337  0.9915  0.9856
 1535SOL     OW16240   3.824   0.166   6.115 -0.5952 -0.1490 -0.0695
 1535SOL    HW116241   3.879   0.162   6.037 -0.5060 -0.0643 -0.0109
 1535SOL    HW216242   3.860   0.247   6.152  0.1165 -0.9848  1.0865
 1536SOL     OW16243   2.344   2.822  13.702 -0.2631  0.2427  0.4145
 1536SOL    HW116244   2.264   2.826  13.754 -0.8726 -3.9605 -0.1835
 1536SOL    HW216245   2.408   2.854  13.766 -0.2042  1.4683 -0.2493
 1537SOL     OW16246   0.807   3.525  16.663 -0.2224 -0.3496  0.5312
 1537SOL    HW116247   0.849   3.448  16.626  1.2228 -0.0810  1.6040
 1537SOL    HW216248   0.884   3.582  16.659  0.1251 -0.8094  0.7074
 1538SOL     OW16249   4.475   0.633   5.083  0.2594  0.4156  0.0495
 1538SOL    HW116250   4.543   0.567   5.093 -0.4673 -0.1516  1.2220
 1538SOL    HW216251   4.509   0.712   5.124  0.7504  0.4416 -0.4043
 1539SOL     OW16252   3.968   3.506  10.735 -0.1855 -0.9575 -0.0601
 1539SOL    HW116253   4.010   3.547  10.660 -0.8304 -1.0520 -0.4633
 1539SOL    HW216254   3.880   3.531  10.709  0.7355  1.2628 -0.9987
 1540SOL     OW16255   3.191   3.740   1.647  0.4634  0.1008  0.0702
 1540SOL    HW116256   3.108   3.714   1.686  1.4754 -0.2355  2.0010
 1540SOL    HW216257   3.226   3.673   1.588 -0.8656 -0.9213  0.4484
 1541SOL     OW16258   1.437   2.866   6.626  0.0268  0.0906  0.6004
 1541SOL    HW116259   1.517   2.885   6.577  0.2850  1.5909  1.6051
 1541SOL    HW216260   1.373   2.866   6.555  0.5469 -2.7429  0.1588
 1542SOL     OW16261   4.430   1.490   6.008 -0.2043  0.2834  0.3425
 1542SOL    HW116262   4.507   1.465   5.957 -2.0120 -2.0167 -1.2914
 1542SOL    HW216263   4.412   1.578   5.976 -1.7323 -0.8380 -1.9222
 1543SOL     OW16264   4.311   1.524   8.246  0.3880 -0.4463 -0.3591
 1543SOL    HW116265   4.340   1.451   8.190  2.1805 -0.0820  0.0911
 1543SOL    HW216266   4.230   1.544   8.199  0.8095 -1.4214 -1.5003
 1544SOL     OW16267   0.838   1.737   2.175 -0.0346  0.2678  0.1372
 1544SOL    HW116268   0.892   1.778   2.107 -1.3924  1.3312 -0.3011
 1544SOL    HW216269   0.869   1.647   2.172 -1.3835 -0.1900 -0.2222
 1545SOL     OW16270   1.182   0.955   2.406  0.4794  0.1097 -0.1270
 1545SOL    HW116271   1.118   0.964   2.477 -1.3709  0.6966 -1.8731
 1545SOL    HW216272   1.143   0.882   2.358  2.0420  0.3771 -1.8021
 1546SOL     OW16273   2.453   3.080   6.733  0.0541 -0.0778  0.1403
 1546SOL    HW116274   2.369   3.036   6.737 -0.0076  0.1034  0.7359
 1546SOL    HW216275   2.456   3.118   6.645  3.3787 -0.7958 -0.0785
 1547SOL     OW16276   4.292   4.489  10.975 -0.0756 -0.6118 -0.5432
 1547SOL    HW116277   4.212   4.536  11.001 -0.8291 -1.9434 -0.4398
 1547SOL    HW216278   4.308   4.448  11.060 -1.6125 -0.3322 -0.1136
 1548SOL     OW16279   1.334   3.330  10.096  0.0620 -0.2666  0.0109
 1548SOL    HW116280   1.368   3.261  10.153  1.2777  0.6973  0.4399
 1548SOL    HW216281   1.287   3.264  10.044 -0.6560 -0.5352  0.9986
 1549SOL     OW16282   3.826   4.555   4.070  0.6979  0.0206  0.5562
 1549SOL    HW116283   3.772   4.629   4.042  0.0435 -0.6467  0.0542
 1549SOL    HW216284   3.756   4.502   4.109 -1.6065  2.2738 -0.5297
 1550SOL     OW16285   1.096   2.095   6.595 -0.5761 -0.2691  0.2581
 1550SOL    HW116286   1.114   2.112   6.688 -0.7348 -2.0796  0.6088
 1550SOL    HW216287   1.147   2.165   6.555  1.0205 -2.2781 -1.1796
 1551SOL     OW16288   3.724   0.385   4.650  0.1830  0.7809  0.3500
 1551SOL    HW116289   3.680   0.440   4.715  1.3317  1.2648  0.7214
 1551SOL    HW216290   3.741   0.311   4.707 -0.5146 -0.5660 -1.2027
 1552SOL     OW16291   0.015   0.991   5.742 -0.3204 -0.0395 -0.2852
 1552SOL    HW116292   4.682   0.929   5.731  0.3194 -0.9238  0.4632
 1552SOL    HW216293   4.715   1.067   5.699 -0.2168  0.8288  1.1488
 1553SOL     OW16294   3.742   2.366   6.929  0.0020 -0.4006  0.3179
 1553SOL    HW116295   3.660   2.326   6.959 -0.9070  0.7994 -0.5575
 1553SOL    HW216296   3.797   2.343   7.004  1.2105 -1.6517 -0.9368
 1554SOL     OW16297   0.120   3.665   6.512 -0.2153  0.2776 -0.0307
 1554SOL    HW116298   0.097   3.747   6.468  2.1401  1.2371  0.5041
 1554SOL    HW216299   0.036   3.621   6.499  0.9901 -0.9623 -3.7211
 1555SOL     OW16300   0.444   3.091   8.774  0.2994  0.4478 -0.3473
 1555SOL    HW116301   0.475   3.010   8.814  0.5850 -0.3723 -2.1947
 1555SOL    HW216302   0.513   3.110   8.711  0.1902  2.2447  0.0957
 1556SOL     OW16303   1.048   0.072   8.824 -0.4794 -0.6126 -0.4269
 1556SOL    HW116304   1.006   4.726   8.829  0.0621 -0.6602  2.8677
 1556SOL    HW216305   0.971   0.124   8.801  2.2771  3.7935  0.2732
 1557SOL     OW16306   0.052   4.024   8.414 -0.8808  0.0978 -0.2072
 1557SOL    HW116307   4.712   4.057   8.371 -1.6599 -0.3315  0.9099
 1557SOL    HW216308   0.087   3.970   8.342  0.6316 -1.3898  1.6400
 1558SOL     OW16309   0.020   0.396   3.372  0.3036 -0.2474 -0.3627
 1558SOL    HW116310   4.720   0.442   3.297  0.0269 -1.0906 -0.7407
 1558SOL    HW216311   4.720   0.309   3.357 -0.7698  0.1881 -0.1057
 1559SOL     OW16312   2.714   0.793   6.944 -0.0040  1.0776  0.2620
 1559SOL    HW116313   2.707   0.852   6.868  0.0259  0.5696 -0.1328
 1559SOL    HW216314   2.783   0.834   6.996  1.0468 -0.5803  0.1405
 1560SOL     OW16315   2.942   2.185   2.238 -0.1179 -0.2347 -0.7638
 1560SOL    HW116316   2.893   2.243   2.179 -0.1859 -0.3247 -0.7958
 1560SOL    HW216317   2.870   2.125   2.257 -0.4042  0.4503  0.3570
 1561SOL     OW16318   3.334   3.356   6.250 -0.3811 -0.1030 -0.0388
 1561SOL    HW116319   3.403   3.415   6.219 -0.2350  0.2710  0.9889
 1561SOL    HW216320   3.364   3.273   6.213  0.1988 -0.2196  0.6973
 1562SOL     OW16321   1.058   0.063   7.263  0.3203  0.1905 -0.5963
 1562SOL    HW116322   0.993   0.124   7.228  0.5442  0.1086 -1.1634
 1562SOL    HW216323   1.035   4.722   7.217  2.3822  0.0227 -1.3563
 1563SOL     OW16324   3.948   3.406   1.528  0.4348  0.1433 -0.0460
 1563SOL    HW116325   3.998   3.479   1.491 -0.7719  0.6268 -0.7323
 1563SOL    HW216326   3.970   3.324   1.485  2.2703  0.1095  0.9609
 1564SOL     OW16327   1.655   3.252  14.718 -0.0726  0.4396  0.0692
 1564SOL    HW116328   1.577   3.224  14.765  0.3583 -1.5320 -0.3905
 1564SOL    HW216329   1.690   3.308  14.788  0.5451  1.3881 -0.9967
 1565SOL     OW16330   1.408   1.788  12.695  0.0781 -0.1678  0.3647
 1565SOL    HW116331   1.360   1.730  12.636 -0.4798  0.3510  0.3002
 1565SOL    HW216332   1.433   1.854  12.630  2.3757 -1.4565 -0.0505
 1566SOL     OW16333   1.845   4.699  17.451 -0.0682  0.1950 -0.4200
 1566SOL    HW116334   1.885   0.023  17.512  2.3149 -0.0931 -1.6780
 1566SOL    HW216335   1.772   0.017  17.428 -1.1655 -0.1045  2.2781
 1567SOL     OW16336   3.664   2.020   3.360 -0.2300  0.3205 -0.2575
 1567SOL    HW116337   3.622   1.945   3.402  0.2532 -0.5483 -1.3289
 1567SOL    HW216338   3.597   2.069   3.313 -1.4615 -2.5816 -1.5687
 1568SOL     OW16339   4.242   2.948   0.189  0.5804 -0.3662 -0.5320
 1568SOL    HW116340   4.214   2.977   0.276 -0.1328  2.9877 -1.8557
 1568SOL    HW216341   4.164   2.916   0.143 -0.0589 -0.1341  0.3983
 1569SOL     OW16342   1.071   4.149   6.134  0.1619  0.3380 -0.2877
 1569SOL    HW116343   1.122   4.070   6.151  1.9609  1.4341 -0.6097
 1569SOL    HW216344   1.141   4.214   6.136  0.8719 -0.4295  0.4528
 1570SOL     OW16345   4.318   3.510   8.923  0.1392  0.3736 -0.2648
 1570SOL    HW116346   4.245   3.530   8.864 -1.3748 -2.0111  0.7878
 1570SOL    HW216347   4.293   3.560   9.000 -1.7310 -0.6077 -0.2208
 1571SOL     OW16348   1.566   0.218   2.490  0.0280  0.3807  1.3389
 1571SOL    HW116349   1.657   0.192   2.476 -0.0296  0.4346  0.8668
 1571SOL    HW216350   1.521   0.151   2.439  0.5463  0.5577  0.6558
 1572SOL     OW16351   1.552   2.423   4.023 -0.2995  0.0893 -1.1020
 1572SOL    HW116352   1.604   2.466   4.091  2.1998 -0.4141 -2.7069
 1572SOL    HW216353   1.508   2.498   3.983  0.5381  1.3934  0.4327
 1573SOL     OW16354   0.432   3.865  17.422  0.0264  0.5940 -0.8205
 1573SOL    HW116355   0.350   3.819  17.439  1.7640 -2.6472 -1.1727
 1573SOL    HW216356   0.418   3.895  17.332  1.7730  3.4922 -0.1458
 1574SOL     OW16357   2.620   1.862  16.296  0.2021  0.1534  0.1816
 1574SOL    HW116358   2.564   1.800  16.341 -1.3283  0.9840 -0.5521
 1574SOL    HW216359   2.609   1.931  16.361  0.8165  0.1409  0.2987
 1575SOL     OW16360   2.818   0.557   3.028  0.4567  0.2494 -0.8202
 1575SOL    HW116361   2.796   0.631   3.085  1.3048 -1.3228  1.5151
 1575SOL    HW216362   2.867   0.600   2.957 -0.8997 -0.3032 -2.0805
 1576SOL     OW16363   1.075   0.460   6.456 -0.3739 -0.1637  0.6778
 1576SOL    HW116364   1.045   0.410   6.380 -3.0539  1.1064  0.8924
 1576SOL    HW216365   1.009   0.529   6.455 -1.9604 -1.7187 -1.6215
 1577SOL     OW16366   2.931   4.263   8.230  0.2051  0.3093  0.0659
 1577SOL    HW116367   2.935   4.275   8.135 -1.7861 -1.5574 -0.2468
 1577SOL    HW216368   2.873   4.187   8.226  0.3927  0.1816 -0.2713
 1578SOL     OW16369   2.320   1.422   7.606 -0.3178 -0.2367 -0.0397
 1578SOL    HW116370   2.278   1.373   7.535  1.8524 -0.3419 -1.2278
 1578SOL    HW216371   2.377   1.357   7.649 -1.2451 -1.9294 -1.3573
 1579SOL     OW16372   0.564   3.801   6.283  0.6725 -0.2486 -0.3660
 1579SOL    HW116373   0.591   3.819   6.193 -0.1322  0.4687 -0.4651
 1579SOL    HW216374   0.644   3.824   6.330  0.4698  0.6575 -0.4615
 1580SOL     OW16375   1.564   4.690   2.917  0.5851 -0.2026  1.3087
 1580SOL    HW116376   1.592   4.616   2.972 -1.1858 -1.2761  0.8013
 1580SOL    HW216377   1.471   4.670   2.903  1.5505 -3.0254 -0.9576
 1581SOL     OW16378   3.748   0.626  15.396 -0.4118 -0.6831  0.3564
 1581SOL    HW116379   3.749   0.612  15.301  1.5040  2.2977 -0.0584
 1581SOL    HW216380   3.793   0.711  15.400  0.1244 -0.9269 -0.4071
 1582SOL     OW16381   0.943   1.515   8.021 -0.0149  0.3273 -0.3919
 1582SOL    HW116382   0.993   1.580   8.070 -0.1994  1.1913 -1.3448
 1582SOL    HW216383   0.891   1.468   8.087 -0.5166 -1.6172 -2.1737
 1583SOL     OW16384   4.236   3.046   9.018 -0.5132 -0.4097  0.0607
 1583SOL    HW116385   4.141   3.059   9.012 -0.3902  0.6383  0.3297
 1583SOL    HW216386   4.258   3.136   9.042 -0.5945 -0.2811 -0.3424
 1584SOL     OW16387   4.565   0.560   7.803 -0.2774  0.1098  0.4635
 1584SOL    HW116388   4.542   0.568   7.896 -0.6262  1.0858  0.2987
 1584SOL    HW216389   4.641   0.617   7.804 -1.4275  1.6536 -0.0242
 1585SOL     OW16390   0.210   4.071   6.367  0.5615 -0.6491  0.6548
 1585SOL    HW116391   0.188   4.109   6.452  1.3614 -0.0265  0.5842
 1585SOL    HW216392   0.272   4.137   6.337  0.8033 -1.2531 -0.1833
 1586SOL     OW16393   1.907   1.964  15.997 -0.0003  0.3757 -0.0892
 1586SOL    HW116394   1.969   1.994  16.064 -1.2038  2.4427  0.0874
 1586SOL    HW216395   1.841   1.923  16.055 -0.7018  1.2225 -0.2885
 1587SOL     OW16396   0.697   3.066   7.596 -0.3073 -0.3072  0.1412
 1587SOL    HW116397   0.782   3.078   7.553  0.7879 -0.1271  2.3458
 1587SOL    HW216398   0.640   3.064   7.519 -0.7564 -0.5725  0.4850
 1588SOL     OW16399   1.970   3.080  15.980  0.3719 -0.1336  0.0282
 1588SOL    HW116400   2.014   3.036  16.053  0.7334 -1.1495 -0.7976
 1588SOL    HW216401   2.024   3.156  15.960  1.5076 -0.6961  0.9661
 1589SOL     OW16402   3.551   3.786  10.733  0.4973  0.1853  0.0813
 1589SOL    HW116403   3.613   3.850  10.766  0.8777  0.5869 -1.4381
 1589SOL    HW216404   3.495   3.801  10.809 -0.6731 -0.1292 -0.7198
 1590SOL     OW16405   0.245   2.715   8.491  0.3195  0.6966 -0.6826
 1590SOL    HW116406   0.229   2.655   8.564 -1.9083  0.4164 -1.3886
 1590SOL    HW216407   0.334   2.699   8.460  0.0438  1.0091 -1.6343
 1591SOL     OW16408   2.461   0.827   9.153  0.0879  0.2327  0.0661
 1591SOL    HW116409   2.478   0.921   9.160 -0.0068  0.4458 -2.3667
 1591SOL    HW216410   2.504   0.788   9.229  0.6341  0.8312  0.0629
 1592SOL     OW16411   1.504   0.911   2.147 -0.0460 -0.1627 -0.0076
 1592SOL    HW116412   1.458   0.969   2.209  0.5823 -1.5220  1.7291
 1592SOL    HW216413   1.583   0.963   2.137 -0.4688 -0.3051 -3.9629
 1593SOL     OW16414   0.213   4.183   4.492 -0.3151 -0.2341 -0.1203
 1593SOL    HW116415   0.163   4.113   4.532 -0.9191 -0.6204 -1.5578
 1593SOL    HW216416   0.155   4.212   4.422  0.2774  2.9472  0.7064
 1594SOL     OW16417   0.551   4.260   5.321  0.1448  0.0184 -0.0539
 1594SOL    HW116418   0.642   4.229   5.317  0.3000  0.2200  1.7334
 1594SOL    HW216419   0.540   4.281   5.228 -3.3962 -0.7844  0.1993
 1595SOL     OW16420   1.339   2.792   5.495 -0.1576 -0.0811 -0.1196
 1595SOL    HW116421   1.300   2.827   5.575  0.7043 -1.0375  0.7128
 1595SOL    HW216422   1.353   2.871   5.443 -0.4750  0.1202  0.0994
 1596SOL     OW16423   3.951   3.477   0.323 -0.1994 -0.2679 -0.4594
 1596SOL    HW116424   3.911   3.466   0.237  1.4391  0.2278 -1.2817
 1596SOL    HW216425   4.013   3.404   0.314 -0.0639 -0.0102 -1.5685
 1597SOL     OW16426   3.241   4.332   3.996  0.2587  0.3926  0.3351
 1597SOL    HW116427   3.247   4.384   4.076  1.0251  1.1018 -0.1891
 1597SOL    HW216428   3.261   4.392   3.924 -0.8684  0.2626 -0.0862
 1598SOL     OW16429   0.321   3.791  17.698 -0.3761 -0.4508 -0.3878
 1598SOL    HW116430   0.277   3.770  17.616 -1.9551 -1.7820  0.8002
 1598SOL    HW216431   0.261   3.756   0.009  0.2074  0.2982  0.5508
 1599SOL     OW16432   0.913   2.509   5.518  0.0170 -0.1415  0.1886
 1599SOL    HW116433   0.867   2.588   5.489 -0.2417 -0.4670 -0.2822
 1599SOL    HW216434   0.993   2.552   5.547  1.1355 -0.3231 -2.6192
 1600SOL     OW16435   2.520   2.262  11.932  0.1697 -0.5198 -0.3087
 1600SOL    HW116436   2.448   2.266  11.995  0.3790  1.2109 -0.1722
 1600SOL    HW216437   2.578   2.194  11.967  0.2995 -0.4430 -0.3706
 1601SOL     OW16438   2.939   3.442   7.832 -0.1933 -0.0989  0.3085
 1601SOL    HW116439   2.883   3.377   7.874 -0.3996  1.3369  2.2362
 1601SOL    HW216440   2.913   3.521   7.880  0.1822 -0.2803  0.8003
 1602SOL     OW16441   1.137   3.962  15.901  0.1337 -0.2069 -0.1080
 1602SOL    HW116442   1.198   3.909  15.953 -1.4884 -1.3245  0.6765
 1602SOL    HW216443   1.191   3.992  15.828  1.0053 -1.2527  0.1118
 1603SOL     OW16444   4.240   0.979  11.967  0.4401  0.2692  0.6574
 1603SOL    HW116445   4.285   1.027  12.037  0.0670  1.3014  0.1875
 1603SOL    HW216446   4.165   1.036  11.954 -0.4734 -0.6686  1.7999
 1604SOL     OW16447   4.396   0.721   2.028  0.3289  0.0787 -0.0272
 1604SOL    HW116448   4.343   0.800   2.014  1.0211  1.1052  3.1171
 1604SOL    HW216449   4.478   0.771   2.027  1.2863 -1.5302 -1.2531
 1605SOL     OW16450   2.527   1.204   7.238 -0.2538  0.3367  0.3891
 1605SOL    HW116451   2.433   1.200   7.259 -0.0902 -2.9989  0.4302
 1605SOL    HW216452   2.536   1.122   7.189  1.4154 -0.7331  2.4401
 1606SOL     OW16453   4.521   3.549   9.426 -0.0567 -0.2897  0.2824
 1606SOL    HW116454   4.536   3.611   9.498  2.3902 -0.0007 -0.4505
 1606SOL    HW216455   4.555   3.470   9.468 -0.1693 -1.0453 -1.0733
 1607SOL     OW16456   2.560   4.427   8.302 -0.3290  0.6745 -0.9027
 1607SOL    HW116457   2.641   4.471   8.326 -1.0458  1.5160 -0.0431
 1607SOL    HW216458   2.580   4.397   8.213 -1.1007  1.6032 -1.4029
 1608SOL     OW16459   1.302   4.315   0.239  0.5057  0.5410 -0.8048
 1608SOL    HW116460   1.390   4.331   0.273  0.4203 -1.2719  0.2885
 1608SOL    HW216461   1.278   4.239   0.293 -0.1888  2.1616  1.1729
 1609SOL     OW16462   0.463   0.820   4.134  0.2390 -0.3384 -0.6476
 1609SOL    HW116463   0.439   0.801   4.225  0.1651  0.1401 -0.5654
 1609SOL    HW216464   0.412   0.750   4.095  0.7966 -1.1817  0.1392
 1610SOL     OW16465   3.240   3.432   9.825  0.5988  0.4778  0.0501
 1610SOL    HW116466   3.307   3.498   9.808  1.2582  0.4416  2.3903
 1610SOL    HW216467   3.197   3.484   9.893 -0.3728  2.0177 -1.7567
 1611SOL     OW16468   4.484   3.664   6.307  0.4470 -0.0246  0.1656
 1611SOL    HW116469   4.419   3.705   6.250 -1.5401  0.4433  2.7415
 1611SOL    HW216470   4.429   3.605   6.358  1.2496 -1.2117 -0.3696
 1612SOL     OW16471   3.058   3.166  16.863  0.2434  0.1747  0.1886
 1612SOL    HW116472   3.136   3.204  16.823 -0.1664  0.2617 -0.5373
 1612SOL    HW216473   3.051   3.081  16.820 -1.0190 -0.6130  1.9656
 1613SOL     OW16474   0.340   1.686   1.332  0.0471 -0.6008  0.0193
 1613SOL    HW116475   0.392   1.650   1.405 -0.2261  1.9023  1.4459
 1613SOL    HW216476   0.392   1.674   1.253  0.6505 -1.7892  0.5847
 1614SOL     OW16477   1.511   2.986   3.102 -0.1849  0.4059  0.3789
 1614SOL    HW116478   1.478   3.066   3.142  0.4254 -0.8531  3.4896
 1614SOL    HW216479   1.527   3.030   3.019  0.3752  0.3786  0.4716
 1615SOL     OW16480   0.336   0.262   2.189 -0.3458 -0.3385 -0.1150
 1615SOL    HW116481   0.280   0.339   2.176 -0.2070 -0.3890 -1.0143
 1615SOL    HW216482   0.424   0.299   2.197 -0.9495  1.1824 -0.4024
 1616SOL     OW16483   3.786   4.447   5.325 -0.1932  0.0317 -0.0287
 1616SOL    HW116484   3.832   4.365   5.346  0.7306  0.4703 -0.3689
 1616SOL    HW216485   3.696   4.421   5.344 -0.4349 -0.3012 -1.6785
 1617SOL     OW16486   4.591   0.699  13.251 -0.3801 -0.1223 -0.5910
 1617SOL    HW116487   4.632   0.735  13.173  0.4242 -1.7330 -0.9189
 1617SOL    HW216488   4.653   0.731  13.317  0.7826 -3.6498  0.0251
 1618SOL     OW16489   3.123   0.526   2.052  0.0398  0.2288  0.0562
 1618SOL    HW116490   3.051   0.464   2.042 -0.6227  1.1541 -0.8843
 1618SOL    HW216491   3.190   0.470   2.014 -0.3189 -1.4607  1.8511
 1619SOL     OW16492   4.547   2.919   9.162  0.1506 -0.5345 -0.2640
 1619SOL    HW116493   4.480   2.889   9.223 -1.9866  3.3986 -0.6393
 1619SOL    HW216494   4.519   3.010   9.154 -0.6243 -0.6251  1.5401
 1620SOL     OW16495   4.695   4.541   4.947  0.4975  0.4967 -0.1985
 1620SOL    HW116496   4.634   4.479   4.986  0.1524  0.1245 -1.3431
 1620SOL    HW216497   0.015   4.560   5.020  1.1928  0.0071 -0.6284
 1621SOL     OW16498   2.570   2.499  13.480 -0.4233  0.1462 -0.5786
 1621SOL    HW116499   2.661   2.521  13.463 -0.6680  0.1509 -1.9414
 1621SOL    HW216500   2.519   2.574  13.447 -0.4619 -0.6096 -2.2104
 1622SOL     OW16501   3.783   3.187  13.023  0.2164  0.1024  0.1347
 1622SOL    HW116502   3.736   3.219  12.946 -0.3997  0.5174  0.6823
 1622SOL    HW216503   3.780   3.093  13.008 -1.4481  0.2690 -0.5617
 1623SOL     OW16504   1.445   1.423  14.260  0.1771 -0.1062 -0.1247
 1623SOL    HW116505   1.361   1.382  14.282  0.0304  1.4749  2.1942
 1623SOL    HW216506   1.486   1.427  14.346 -2.8001  1.6329  1.2253
 1624SOL     OW16507   3.974   0.347  15.892 -0.2056  0.1770 -0.1823
 1624SOL    HW116508   3.904   0.301  15.846  0.1961 -1.6898  1.0496
 1624SOL    HW216509   3.994   0.279  15.957 -1.1607 -0.2571 -0.3365
 1625SOL     OW16510   1.977   0.792   9.018 -0.0104 -0.4782 -0.3844
 1625SOL    HW116511   1.938   0.706   9.003  0.8407 -0.8930 -0.1697
 1625SOL    HW216512   1.916   0.830   9.081 -2.7795 -2.2982 -1.9745
 1626SOL     OW16513   1.456   0.657   5.187  0.3462 -0.9297 -0.1948
 1626SOL    HW116514   1.463   0.603   5.266  2.1852 -1.1305 -0.5004
 1626SOL    HW216515   1.362   0.647   5.171  0.3807 -1.8051  0.1533
 1627SOL     OW16516   3.772   1.039   0.277  0.6685 -0.1098 -1.0642
 1627SOL    HW116517   3.746   0.990   0.199 -0.3771  0.2838 -0.9638
 1627SOL    HW216518   3.843   1.093   0.244  1.7947 -0.3978  0.8949
 1628SOL     OW16519   2.421   4.622   1.735 -0.0051 -0.3629 -0.1581
 1628SOL    HW116520   2.401   4.590   1.647 -0.0725 -0.2691 -0.1773
 1628SOL    HW216521   2.515   4.633   1.728 -0.2234  2.4275  1.0968
 1629SOL     OW16522   2.636   2.154  14.304 -0.4869  0.4005 -0.2690
 1629SOL    HW116523   2.640   2.247  14.323 -0.4661  0.1508  0.9324
 1629SOL    HW216524   2.569   2.147  14.236 -0.3577  1.4865 -0.5062
 1630SOL     OW16525   0.786   3.436   7.031  0.3904  0.1105 -0.4384
 1630SOL    HW116526   0.693   3.451   7.014 -0.0787 -2.0376  0.2492
 1630SOL    HW216527   0.778   3.395   7.118 -2.2724  1.2995 -0.1331
 1631SOL     OW16528   1.098   3.458   4.843 -0.2105 -0.3616 -0.0446
 1631SOL    HW116529   1.164   3.389   4.853 -2.1681 -2.7245 -3.1829
 1631SOL    HW216530   1.068   3.467   4.933  1.8510 -0.6576  0.6774
 1632SOL     OW16531   4.488   2.423   3.826  0.1571 -0.0869 -0.1015
 1632SOL    HW116532   4.551   2.385   3.886  0.7656 -2.4853 -2.2680
 1632SOL    HW216533   4.542   2.415   3.747 -0.9418  0.8266 -0.9549
 1633SOL     OW16534   1.762   1.530   5.522  0.1553  0.3014  0.4807
 1633SOL    HW116535   1.776   1.625   5.523  1.3454  0.1420 -1.2958
 1633SOL    HW216536   1.836   1.521   5.582 -1.0737 -0.2202  1.9280
 1634SOL     OW16537   2.807   3.668   5.543  0.0462 -0.8965 -0.0539
 1634SOL    HW116538   2.873   3.603   5.567  0.6176 -0.0856  0.5349
 1634SOL    HW216539   2.728   3.637   5.588 -0.3305 -0.4475 -0.4054
 1635SOL     OW16540   4.305   0.649  10.082  0.4854 -0.4526 -0.1587
 1635SOL    HW116541   4.372   0.581  10.088 -1.3180 -2.0309  1.9422
 1635SOL    HW216542   4.359   0.727  10.069  0.3553 -0.2353  0.5747
 1636SOL     OW16543   2.309   0.845   1.936  0.3741  0.0422 -0.5489
 1636SOL    HW116544   2.360   0.887   2.005 -0.3493 -0.4536  0.2940
 1636SOL    HW216545   2.231   0.899   1.928  0.1078  0.2132  3.2893
 1637SOL     OW16546   3.051   4.256   6.273 -0.2058  0.2025 -0.2475
 1637SOL    HW116547   3.085   4.176   6.233  0.0914  1.2243 -2.0499
 1637SOL    HW216548   3.118   4.317   6.241 -0.2020  1.0029  1.2684
 1638SOL     OW16549   0.694   0.552   8.594 -0.1991 -0.3103  0.0325
 1638SOL    HW116550   0.618   0.604   8.620 -0.0845  0.2272 -0.7238
 1638SOL    HW216551   0.724   0.529   8.682 -0.3071 -1.3401 -0.1986
 1639SOL     OW16552   2.467   4.290   3.131 -0.2331  0.1183  0.2647
 1639SOL    HW116553   2.398   4.333   3.081 -0.0032 -0.5924 -0.6754
 1639SOL    HW216554   2.421   4.227   3.188 -1.1505  0.6324  0.0921
 1640SOL     OW16555   2.677   2.054  17.369 -0.3600  0.1583  0.4005
 1640SOL    HW116556   2.697   2.091  17.455 -2.2613  0.3465  0.7514
 1640SOL    HW216557   2.618   2.123  17.340  0.6972  0.4257 -1.1080
 1641SOL     OW16558   3.158   3.275   9.622 -0.2772 -0.3663  0.7711
 1641SOL    HW116559   3.201   3.304   9.702  0.9965  0.1225 -0.0940
 1641SOL    HW216560   3.094   3.347   9.617  0.3142  0.3441  3.4259
 1642SOL     OW16561   0.181   0.568   7.016 -0.3222 -0.2214  0.0171
 1642SOL    HW116562   0.100   0.541   6.972 -0.7135  0.1098  0.5238
 1642SOL    HW216563   0.172   0.525   7.101  0.8305  1.3114  0.9148
 1643SOL     OW16564   1.966   2.596   2.043 -0.2126 -0.0664 -0.3156
 1643SOL    HW116565   1.935   2.682   2.014 -0.5110 -0.1151 -0.1324
 1643SOL    HW216566   2.017   2.573   1.965 -0.1877  1.3230 -0.7062
 1644SOL     OW16567   0.806   1.604  13.014  0.3465  0.1534  1.1967
 1644SOL    HW116568   0.828   1.569  13.100  0.6290 -0.4807  0.8675
 1644SOL    HW216569   0.789   1.697  13.027 -0.5605  0.1918 -0.2728
 1645SOL     OW16570   4.195   1.609   7.732  0.4074 -0.3804  0.4496
 1645SOL    HW116571   4.117   1.662   7.753 -0.5066 -0.8311 -1.8129
 1645SOL    HW216572   4.227   1.658   7.657 -0.9938 -1.7318 -1.0595
 1646SOL     OW16573   3.199   2.209  11.142  0.2767 -0.5208  0.3837
 1646SOL    HW116574   3.165   2.138  11.198  1.4379 -0.2481  1.4403
 1646SOL    HW216575   3.290   2.210  11.169  1.3163  1.4442 -3.2343
 1647SOL     OW16576   1.400   3.746   8.244 -0.2670  0.1093 -0.1334
 1647SOL    HW116577   1.399   3.729   8.149  1.2671  0.0804 -0.1467
 1647SOL    HW216578   1.484   3.712   8.275  0.1402 -0.5023 -1.8996
 1648SOL     OW16579   3.272   0.873  10.477  0.5279 -0.4275  0.2869
 1648SOL    HW116580   3.315   0.796  10.440 -1.7410  0.0832 -3.3902
 1648SOL    HW216581   3.352   0.917  10.505  1.4771 -0.0508 -2.9745
 1649SOL     OW16582   0.149   0.705   9.178 -0.2817 -0.2242  0.3998
 1649SOL    HW116583   0.082   0.711   9.110 -1.2978  0.1429  1.4227
 1649SOL    HW216584   0.171   0.612   9.167 -1.4881 -0.5019  0.3415
 1650SOL     OW16585   1.180   1.858   7.231 -0.0872  0.5980 -0.0055
 1650SOL    HW116586   1.090   1.864   7.261  0.2435 -0.6272  1.2401
 1650SOL    HW216587   1.203   1.766   7.238  1.9120  1.2857  2.4876
 1651SOL     OW16588   1.157   0.159  12.892  0.2778 -0.6690 -0.0670
 1651SOL    HW116589   1.223   0.111  12.842  0.5346  0.1043 -0.4819
 1651SOL    HW216590   1.182   0.250  12.877  3.1843 -1.3006  1.0627
 1652SOL     OW16591   1.430   3.748  17.391 -0.6858  0.6361  0.0268
 1652SOL    HW116592   1.375   3.811  17.438 -0.3822  0.7326  0.2528
 1652SOL    HW216593   1.400   3.765  17.302 -0.0547  0.4446 -0.2195
 1653SOL     OW16594   3.441   3.812   6.779 -0.2058 -0.1218 -0.0142
 1653SOL    HW116595   3.532   3.802   6.750 -0.5450  0.6044 -1.3754
 1653SOL    HW216596   3.445   3.789   6.871  0.3304 -0.1762 -0.0521
 1654SOL     OW16597   1.248   4.536  16.147 -0.3433  0.1217 -0.0148
 1654SOL    HW116598   1.250   4.553  16.053 -1.6139  1.2225  0.1514
 1654SOL    HW216599   1.173   4.595  16.155 -0.3419  0.0782  0.3344
 1655SOL     OW16600   3.850   4.352   1.188 -0.3217 -0.2171 -0.1327
 1655SOL    HW116601   3.933   4.397   1.175 -0.3041 -1.0346 -2.9359
 1655SOL    HW216602   3.860   4.278   1.129  0.0906 -0.2051 -0.0776
 1656SOL     OW16603   0.607   3.079   7.106  0.1607  0.0626  0.1076
 1656SOL    HW116604   0.687   3.121   7.138  0.2823  0.6018 -0.9079
 1656SOL    HW216605   0.610   3.080   7.010  0.6591  2.0951  0.1458
 1657SOL     OW16606   0.701   3.880  16.603 -0.4968  0.2204  0.1710
 1657SOL    HW116607   0.670   3.940  16.671 -0.9505 -1.1342  1.1720
 1657SOL    HW216608   0.668   3.933  16.530 -0.6892 -2.2619 -1.5399
 1658SOL     OW16609   1.656   0.608   3.289  0.1109  0.4687 -0.2182
 1658SOL    HW116610   1.579   0.635   3.239 -1.9066 -1.3185  1.9233
 1658SOL    HW216611   1.689   0.526   3.252 -2.2645 -0.1085 -1.0851
 1659SOL     OW16612   1.586   0.129  10.496  0.1343 -0.6376  0.1372
 1659SOL    HW116613   1.492   0.111  10.500  0.0238  0.3574  2.2656
 1659SOL    HW216614   1.615   0.093  10.412  2.1677 -0.6726  0.8475
 1660SOL     OW16615   3.485   0.921   4.277  0.2440  0.5367  0.3540
 1660SOL    HW116616   3.545   0.992   4.298  2.2823 -1.2347  0.5252
 1660SOL    HW216617   3.404   0.964   4.304 -1.3397 -1.6113 -1.0229
 1661SOL     OW16618   3.344   2.757   0.399 -0.1139 -0.4064 -0.2929
 1661SOL    HW116619   3.359   2.850   0.417  0.3688 -0.7505  1.0617
 1661SOL    HW216620   3.380   2.744   0.312  0.5409  1.6680 -0.3401
 1662SOL     OW16621   2.431   1.484  14.819 -0.5524  0.7947 -1.1530
 1662SOL    HW116622   2.468   1.446  14.739 -1.5165 -3.7960  0.5259
 1662SOL    HW216623   2.350   1.436  14.834 -1.1863  1.7958 -1.4056
 1663SOL     OW16624   1.998   3.299   4.441  0.4852  0.1790  0.1930
 1663SOL    HW116625   1.991   3.297   4.536 -1.4284  0.9365  0.0671
 1663SOL    HW216626   1.975   3.209   4.418 -2.4963  0.8562  0.5496
 1664SOL     OW16627   1.383   3.706  13.140 -0.1959  0.3217  0.6052
 1664SOL    HW116628   1.379   3.781  13.081  0.6451 -0.2620 -0.1966
 1664SOL    HW216629   1.292   3.700  13.171 -0.7122 -0.2208 -1.0014
 1665SOL     OW16630   2.504   2.580   9.382 -0.0203  0.0854  0.3626
 1665SOL    HW116631   2.492   2.670   9.349 -1.8068 -0.5896 -0.8442
 1665SOL    HW216632   2.521   2.606   9.472  0.4203  0.0304  0.2958
 1666SOL     OW16633   1.212   4.273   8.817  0.2534  0.7688  0.0600
 1666SOL    HW116634   1.260   4.357   8.821  3.3572 -1.0227  0.6093
 1666SOL    HW216635   1.153   4.286   8.743  0.9721  3.1721 -0.0935
 1667SOL     OW16636   0.205   2.776  15.261  0.6861 -0.3157  0.5548
 1667SOL    HW116637   0.284   2.722  15.262 -0.1765 -1.5821 -0.0582
 1667SOL    HW216638   0.144   2.708  15.233 -0.6183  1.4534 -0.8955
 1668SOL     OW16639   1.949   4.638   6.661  0.0867  0.0239 -0.5824
 1668SOL    HW116640   1.902   4.703   6.712 -2.4928 -2.1166 -0.2684
 1668SOL    HW216641   2.006   4.604   6.730 -0.6442 -0.1603 -0.0686
 1669SOL     OW16642   0.026   4.462  16.965 -0.3136  0.6631  0.4294
 1669SOL    HW116643   0.058   4.408  16.893  0.1428  2.3650 -0.6494
 1669SOL    HW216644   0.073   4.546  16.958 -1.0716  1.0558  0.1172
 1670SOL     OW16645   0.744   0.311   7.864 -0.0369 -0.1916 -0.0190
 1670SOL    HW116646   0.817   0.284   7.919  0.3729  0.5041 -0.2228
 1670SOL    HW216647   0.710   0.231   7.825 -2.1895  0.9765 -0.5418
 1671SOL     OW16648   2.676   2.773   5.988  0.0485 -0.1160 -0.0509
 1671SOL    HW116649   2.626   2.836   5.935 -0.0335 -1.0421 -1.0751
 1671SOL    HW216650   2.680   2.815   6.073 -1.3742  1.6043 -0.8336
 1672SOL     OW16651   4.721   2.857   6.039 -0.2794  0.0555 -0.8006
 1672SOL    HW116652   4.682   2.944   6.048  1.5838  0.7662  0.2981
 1672SOL    HW216653   4.679   2.808   6.109  0.8571 -0.1727 -0.2739
 1673SOL     OW16654   2.750   0.265   0.696  0.3636 -0.1604 -0.3726
 1673SOL    HW116655   2.804   0.333   0.656  0.5490  0.2244  0.5380
 1673SOL    HW216656   2.771   0.257   0.789  0.8074 -0.9342 -0.5384
 1674SOL     OW16657   0.301   4.068   9.458 -0.0680 -1.0867 -0.1681
 1674SOL    HW116658   0.268   3.985   9.492  0.2811 -1.0901  0.1562
 1674SOL    HW216659   0.394   4.056   9.477 -0.0919 -1.0284 -0.0212
 1675SOL     OW16660   0.804   2.732   2.156 -0.2733 -0.3379  0.4245
 1675SOL    HW116661   0.864   2.765   2.088 -0.1916 -3.2876 -0.9148
 1675SOL    HW216662   0.802   2.789   2.233  0.3587 -0.9381  0.8804
 1676SOL     OW16663   4.010   3.883   4.383 -0.3319  0.1953 -1.0253
 1676SOL    HW116664   4.069   3.926   4.320  0.1770  0.8474 -0.0990
 1676SOL    HW216665   3.936   3.943   4.380 -0.4417  0.0965 -0.0358
 1677SOL     OW16666   4.370   0.246   2.466 -0.2345  0.4228 -0.2665
 1677SOL    HW116667   4.313   0.227   2.391  0.2907 -0.0788 -0.5300
 1677SOL    HW216668   4.450   0.197   2.449  0.5528  1.7394 -0.3488
 1678SOL     OW16669   2.760   2.640   5.324 -0.3516 -0.2009  0.1813
 1678SOL    HW116670   2.793   2.655   5.236 -2.3637  1.2002 -0.3344
 1678SOL    HW216671   2.839   2.654   5.376  0.3139  1.3236 -1.2579
 1679SOL     OW16672   4.610   1.184   5.541 -0.4804 -0.1703  0.2513
 1679SOL    HW116673   4.580   1.128   5.470  2.3399 -1.4572  0.0816
 1679SOL    HW216674   4.526   1.225   5.560  0.3640  1.6811  0.0206
 1680SOL     OW16675   1.447   0.781   4.324  0.5066  0.3230 -0.1938
 1680SOL    HW116676   1.519   0.832   4.361  0.5664  0.5228 -0.5852
 1680SOL    HW216677   1.501   0.721   4.272  0.2961 -0.5241  0.5668
 1681SOL     OW16678   1.749   2.192  17.686  0.5699 -0.1726  0.3431
 1681SOL    HW116679   1.842   2.187  17.711  1.0229 -2.2322 -1.8158
 1681SOL    HW216680   1.721   2.113  17.640  0.9027  0.2032 -0.4877
 1682SOL     OW16681   0.499   2.800  11.959 -0.1233 -0.1365  0.1867
 1682SOL    HW116682   0.482   2.711  11.928 -1.0490  0.6138 -1.4793
 1682SOL    HW216683   0.434   2.851  11.910  1.0354  0.2035 -0.9885
 1683SOL     OW16684   3.329   1.507  11.532  0.5397 -0.0266  0.0456
 1683SOL    HW116685   3.350   1.498  11.439  1.0996 -1.0061  0.2675
 1683SOL    HW216686   3.325   1.602  11.540  0.4411 -0.1995  2.0252
 1684SOL     OW16687   2.781   1.989   7.986  0.2655 -0.0997  0.1275
 1684SOL    HW116688   2.704   1.968   7.933 -0.5216 -0.3898  1.3847
 1684SOL    HW216689   2.776   1.926   8.058 -0.0204  1.3966  1.4085
 1685SOL     OW16690   1.290   3.060   5.463 -0.1315 -0.4501 -0.3197
 1685SOL    HW116691   1.224   3.116   5.422  0.4778  1.1796  0.9533
 1685SOL    HW216692   1.337   3.031   5.385 -2.0099 -0.2311 -1.5425
 1686SOL     OW16693   1.003   3.594   6.254  0.8291  0.2836 -0.0635
 1686SOL    HW116694   1.089   3.554   6.267  0.8126  0.4893  0.6780
 1686SOL    HW216695   1.028   3.665   6.196 -0.6803 -0.2668 -1.3800
 1687SOL     OW16696   2.021   1.918   5.357 -0.8847  0.9513 -0.0754
 1687SOL    HW116697   2.052   1.900   5.446  1.5773  0.9582 -0.9095
 1687SOL    HW216698   1.928   1.920   5.377 -0.5142  1.4287  1.5814
 1688SOL     OW16699   0.231   2.416  11.092  0.1712 -0.3614  0.1108
 1688SOL    HW116700   0.175   2.420  11.015 -2.1943 -1.9153  1.7492
 1688SOL    HW216701   0.304   2.469  11.061  0.2687 -0.4030  0.2689
 1689SOL     OW16702   3.138   4.048   7.626 -0.4124  0.3102  0.0428
 1689SOL    HW116703   3.135   3.953   7.624  0.1488  0.2745  0.9534
 1689SOL    HW216704   3.139   4.067   7.532  1.6576  2.1742  0.4456
 1690SOL     OW16705   4.482   3.545   2.741 -0.2104 -0.3394 -0.7098
 1690SOL    HW116706   4.445   3.527   2.655 -1.8668  0.2737 -0.1197
 1690SOL    HW216707   4.401   3.582   2.777  0.5183  0.3070  0.2675
 1691SOL     OW16708   4.110   4.363  15.018 -0.6127 -0.0900 -0.3739
 1691SOL    HW116709   4.140   4.313  14.942  0.0670  0.4694 -0.4691
 1691SOL    HW216710   4.051   4.426  14.976  0.6204  3.3379  3.0391
 1692SOL     OW16711   1.814   1.747   9.618 -0.3236 -0.3518 -0.0028
 1692SOL    HW116712   1.869   1.766   9.695  0.7985 -1.9527 -0.4073
 1692SOL    HW216713   1.779   1.833   9.595  1.2660  0.6640  1.3407
 1693SOL     OW16714   2.067   0.302   5.369  0.1893  0.1592 -0.5804
 1693SOL    HW116715   2.080   0.363   5.297  2.5806 -0.5116 -0.7087
 1693SOL    HW216716   2.147   0.317   5.420 -0.2344  0.3202  0.0322
 1694SOL     OW16717   4.216   2.389  14.293  0.1473 -0.4597  0.3123
 1694SOL    HW116718   4.123   2.376  14.309  0.1351  0.1326  0.7399
 1694SOL    HW216719   4.232   2.483  14.281  0.6186 -0.4912  0.7037
 1695SOL     OW16720   1.613   1.099  15.163 -0.2052 -0.8476 -0.7189
 1695SOL    HW116721   1.569   1.134  15.240  1.8475 -1.1262  0.5654
 1695SOL    HW216722   1.576   1.011  15.169  0.4978 -1.1033 -0.2105
 1696SOL     OW16723   3.410   2.328   6.482 -0.3177  0.0244 -0.1746
 1696SOL    HW116724   3.402   2.372   6.567 -2.1486 -0.2493 -0.1914
 1696SOL    HW216725   3.449   2.244   6.507  2.2080  1.4244  0.5712
 1697SOL     OW16726   0.386   0.127   6.459  0.0207  0.7699 -0.0837
 1697SOL    HW116727   0.352   0.118   6.548 -1.6386 -0.7959 -0.8743
 1697SOL    HW216728   0.475   0.161   6.474  0.8832 -0.1352 -3.0203
 1698SOL     OW16729   4.663   3.241   2.484 -0.7428 -0.0934 -0.1721
 1698SOL    HW116730   4.569   3.259   2.486 -0.6440  0.5657 -1.3376
 1698SOL    HW216731   4.694   3.331   2.496  1.9527 -1.0722  0.2053
 1699SOL     OW16732   3.906   2.855   3.382 -0.7682 -0.0131  0.2188
 1699SOL    HW116733   3.963   2.867   3.306 -0.2707 -0.9435  0.4484
 1699SOL    HW216734   3.925   2.935   3.430  1.6999 -0.7183  0.4051
 1700SOL     OW16735   3.826   3.307   0.538 -0.4492  0.0094 -0.3640
 1700SOL    HW116736   3.823   3.397   0.505 -0.0497  0.8487  1.8695
 1700SOL    HW216737   3.859   3.324   0.626 -0.2724 -1.4446 -0.1443
 1701SOL     OW16738   3.692   3.039  12.714 -0.4196  0.0972  0.0599
 1701SOL    HW116739   3.723   2.980  12.782  0.8939  1.8742  0.9902
 1701SOL    HW216740   3.721   2.985  12.641 -0.2289 -1.3867  1.2369
 1702SOL     OW16741   1.374   0.365   9.126  0.4028 -0.1427 -0.1957
 1702SOL    HW116742   1.310   0.307   9.086 -0.4588  0.7426 -0.1007
 1702SOL    HW216743   1.387   0.322   9.210 -0.3530 -1.0478 -0.5414
 1703SOL     OW16744   0.072   1.603   8.273  0.2934 -0.7134 -0.2909
 1703SOL    HW116745   0.063   1.514   8.306 -1.9199 -0.2382  0.4196
 1703SOL    HW216746   0.164   1.618   8.291  0.1554  0.8449 -0.8833
 1704SOL     OW16747   1.490   1.451  14.515 -0.2130 -0.2112  0.3815
 1704SOL    HW116748   1.536   1.373  14.545 -0.9998 -0.2181  1.5682
 1704SOL    HW216749   1.430   1.470  14.587 -0.7878  0.4006 -0.2534
 1705SOL     OW16750   4.360   4.411  12.743 -1.0242 -0.0163 -0.0321
 1705SOL    HW116751   4.294   4.408  12.675  1.2894 -0.6000 -2.2606
 1705SOL    HW216752   4.327   4.474  12.808 -0.8543  0.2533 -0.2069
 1706SOL     OW16753   0.751   0.951   3.002 -0.4932  0.5237  0.0798
 1706SOL    HW116754   0.680   0.888   2.995 -0.0222 -0.1058  0.9901
 1706SOL    HW216755   0.711   1.037   2.990  0.2467  0.6771 -1.2408
 1707SOL     OW16756   2.473   3.924  15.341 -0.0399 -0.2662 -0.0157
 1707SOL    HW116757   2.426   3.899  15.421 -2.2603  0.5563 -1.0580
 1707SOL    HW216758   2.411   3.983  15.298  0.0778 -2.6848 -3.4234
 1708SOL     OW16759   2.642   3.006   7.056  0.4370  0.3229 -0.0299
 1708SOL    HW116760   2.594   3.056   7.122  1.0872  2.1103 -0.9082
 1708SOL    HW216761   2.623   2.916   7.082  0.7040  1.0834  2.7286
 1709SOL     OW16762   2.328   2.309  10.565 -0.2385 -0.9031  0.2525
 1709SOL    HW116763   2.250   2.308  10.510  0.0470 -1.0741 -0.1468
 1709SOL    HW216764   2.390   2.344  10.501 -0.5711  1.3550  1.1747
 1710SOL     OW16765   0.462   4.001  15.855 -0.6420 -0.5308 -0.3533
 1710SOL    HW116766   0.472   3.960  15.770  0.4872 -2.3352  0.6590
 1710SOL    HW216767   0.495   3.936  15.916  1.7578 -1.0680 -2.2458
 1711SOL     OW16768   0.511   4.160   6.275  0.2873  0.3888 -0.2374
 1711SOL    HW116769   0.440   4.204   6.230 -0.5337 -0.0306  0.6463
 1711SOL    HW216770   0.517   4.086   6.215 -2.1277  0.9551 -1.1596
 1712SOL     OW16771   0.414   0.337   7.912 -0.3444 -0.4290  0.0149
 1712SOL    HW116772   0.498   0.368   7.880  0.6831 -2.1762  0.9884
 1712SOL    HW216773   0.443   0.251   7.943 -0.6308 -0.3117  0.6146
 1713SOL     OW16774   3.339   0.591   1.353 -0.3691 -0.1864  0.1861
 1713SOL    HW116775   3.365   0.501   1.334 -0.3564 -0.0093 -0.6451
 1713SOL    HW216776   3.399   0.606   1.426 -1.1181 -0.6609  0.8948
 1714SOL     OW16777   3.857   0.505   5.395  0.3003  0.3874  0.1778
 1714SOL    HW116778   3.875   0.464   5.310 -0.1760  1.2953 -0.3681
 1714SOL    HW216779   3.783   0.449   5.419  1.7155 -0.9168  1.4775
 1715SOL     OW16780   1.207   0.520   4.409 -0.3670  0.2063  0.0549
 1715SOL    HW116781   1.291   0.513   4.454 -0.8612 -0.2961  0.9122
 1715SOL    HW216782   1.224   0.572   4.331  0.3346 -0.1866 -0.0470
 1716SOL     OW16783   2.778   1.229   7.612 -0.2099 -0.4573  0.4896
 1716SOL    HW116784   2.693   1.269   7.627  0.3110  1.2736 -1.2030
 1716SOL    HW216785   2.784   1.218   7.517  0.4444 -2.5877  0.7653
 1717SOL     OW16786   0.606   2.028  11.179  0.6531 -0.3532  0.1532
 1717SOL    HW116787   0.624   1.934  11.172  2.7427 -0.0240  0.9464
 1717SOL    HW216788   0.700   2.045  11.167  0.0270  0.3508 -3.7725
 1718SOL     OW16789   4.265   3.081   2.975  0.2466  0.3789  0.4891
 1718SOL    HW116790   4.339   3.053   2.920  0.1196 -1.6058  1.3386
 1718SOL    HW216791   4.241   3.005   3.029  2.6342  0.7979  2.1666
 1719SOL     OW16792   3.529   4.506   3.683  0.0890 -0.2372 -0.3442
 1719SOL    HW116793   3.458   4.534   3.741 -0.2147 -0.8952 -0.3981
 1719SOL    HW216794   3.569   4.593   3.677 -0.7132  0.0577 -1.2988
 1720SOL     OW16795   1.307   1.085   5.244 -0.1131 -0.1003 -0.3563
 1720SOL    HW116796   1.369   1.150   5.277 -0.7787 -0.6208  1.8841
 1720SOL    HW216797   1.255   1.136   5.182  0.3079  1.2026  0.3497
 1721SOL     OW16798   2.354   2.120   8.840  0.0476  0.3949 -0.2134
 1721SOL    HW116799   2.448   2.120   8.860 -0.1356  1.9404  0.6648
 1721SOL    HW216800   2.320   2.164   8.918  0.6320 -0.9786  0.8267
 1722SOL     OW16801   2.912   1.514   9.131  0.3883  0.5064 -0.0202
 1722SOL    HW116802   2.945   1.425   9.140 -1.1923 -0.0548  0.2327
 1722SOL    HW216803   2.851   1.500   9.058  1.2729 -0.4112 -0.5726
 1723SOL     OW16804   1.678   2.445   5.397  0.5802 -0.0830  0.1952
 1723SOL    HW116805   1.608   2.480   5.452  0.1031 -1.1788  0.2859
 1723SOL    HW216806   1.756   2.465   5.449  0.1859  0.2303  0.6714
 1724SOL     OW16807   0.266   3.535  16.315  0.1341  0.6171  1.3882
 1724SOL    HW116808   0.200   3.485  16.363  0.9037 -0.2561  1.5574
 1724SOL    HW216809   0.336   3.473  16.294  0.9904  1.3583  2.0524
 1725SOL     OW16810   3.587   2.152   2.039 -0.5453 -0.3181  0.3863
 1725SOL    HW116811   3.515   2.184   1.984  0.2707  0.8134 -0.0342
 1725SOL    HW216812   3.653   2.155   1.969  0.3298 -1.9467  1.1464
 1726SOL     OW16813   0.395   4.597   2.625  0.0242  0.4486  0.3269
 1726SOL    HW116814   0.372   4.643   2.705 -3.2954 -1.2762  0.3616
 1726SOL    HW216815   0.481   4.556   2.635  0.5089  1.5066  0.4684
 1727SOL     OW16816   4.222   3.375  10.917  0.1683 -0.4754  0.1905
 1727SOL    HW116817   4.272   3.353  10.995  1.1307  0.4536 -0.1554
 1727SOL    HW216818   4.136   3.411  10.942  0.9221  1.4792 -0.0355
 1728SOL     OW16819   2.701   3.851   1.522  0.3433 -0.2578 -0.5605
 1728SOL    HW116820   2.611   3.861   1.492 -0.0678  3.3730  1.8097
 1728SOL    HW216821   2.698   3.825   1.614 -0.5463 -0.6969 -0.7123
 1729SOL     OW16822   3.595   3.255  15.447 -0.4680  0.2606  0.1458
 1729SOL    HW116823   3.552   3.341  15.453 -0.5905  0.3621 -2.0075
 1729SOL    HW216824   3.600   3.229  15.355  1.1001 -0.1599  0.3402
 1730SOL     OW16825   3.202   0.466   7.634  0.0771  0.0727 -0.3660
 1730SOL    HW116826   3.181   0.470   7.728  1.5687  1.5816 -0.0986
 1730SOL    HW216827   3.219   0.372   7.630 -2.2281 -0.3198 -1.1611
 1731SOL     OW16828   2.243   3.298   5.994  0.1556  0.2177 -0.3040
 1731SOL    HW116829   2.172   3.349   6.033  1.9918  0.1914  3.0281
 1731SOL    HW216830   2.314   3.336   6.044 -2.3672  1.9654  1.9720
 1732SOL     OW16831   0.249   3.560   2.115 -0.2433 -0.1813 -0.6044
 1732SOL    HW116832   0.321   3.549   2.054 -0.7387 -2.1349 -0.8339
 1732SOL    HW216833   0.186   3.620   2.074 -1.1450 -0.7804 -0.1082
 1733SOL     OW16834   2.733   0.448   9.058 -0.1039 -0.3309  0.0594
 1733SOL    HW116835   2.775   0.519   9.107  1.2446 -1.2731  0.2919
 1733SOL    HW216836   2.771   0.371   9.101 -1.0240 -0.8225 -0.0209
 1734SOL     OW16837   2.671   0.802   2.005  0.1231 -0.1352 -0.0517
 1734SOL    HW116838   2.655   0.709   2.023  1.6608  0.0405  2.1514
 1734SOL    HW216839   2.751   0.813   1.953 -0.6492 -0.3283 -1.3025
 1735SOL     OW16840   3.511   1.683   5.788  0.0854  0.7036  0.4248
 1735SOL    HW116841   3.538   1.774   5.775 -1.3583  1.0458 -0.2669
 1735SOL    HW216842   3.427   1.676   5.742  0.5731 -0.6207 -0.2591
 1736SOL     OW16843   2.757   2.792   8.780 -0.1856  0.0977  0.8186
 1736SOL    HW116844   2.671   2.808   8.819 -0.6036 -1.0778  0.3873
 1736SOL    HW216845   2.760   2.875   8.732 -0.5839 -0.1451  0.3797
 1737SOL     OW16846   1.153   2.051   4.570 -0.0274 -0.0104 -0.1297
 1737SOL    HW116847   1.122   1.962   4.588  1.3107 -0.1964  1.2515
 1737SOL    HW216848   1.104   2.070   4.490 -0.8105 -0.1367  0.3121
 1738SOL     OW16849   2.723   3.057   8.431 -0.5933  0.7005  0.1979
 1738SOL    HW116850   2.731   3.120   8.360 -1.2051  2.0253  1.2989
 1738SOL    HW216851   2.726   3.111   8.510 -1.5101 -0.2567  0.8839
 1739SOL     OW16852   2.355   2.651   1.988 -0.7503 -0.6418 -0.1208
 1739SOL    HW116853   2.281   2.595   1.963 -0.9141 -1.6471  2.7156
 1739SOL    HW216854   2.387   2.595   2.059  0.6105  0.6251  0.2501
 1740SOL     OW16855   1.424   4.715   4.713 -0.4884  0.3541 -0.0701
 1740SOL    HW116856   1.438   4.649   4.781 -0.9833  0.6464  0.3173
 1740SOL    HW216857   1.479   0.047   4.746 -2.1932  1.3431  0.6508
 1741SOL     OW16858   4.382   0.597   4.431  0.0418 -0.6917 -0.4254
 1741SOL    HW116859   4.327   0.520   4.444 -0.6513 -0.1483 -0.1525
 1741SOL    HW216860   4.349   0.646   4.356  2.4509  2.3556  0.4952
 1742SOL     OW16861   1.355   1.714   2.602 -0.1516  0.0578 -0.1068
 1742SOL    HW116862   1.365   1.761   2.685 -0.3924  0.1081 -0.1068
 1742SOL    HW216863   1.437   1.726   2.554  0.6084 -0.0852  1.1305
 1743SOL     OW16864   2.266   0.952   3.742 -0.1510 -0.0017 -0.2156
 1743SOL    HW116865   2.191   1.002   3.712 -0.5871 -0.6061 -0.1390
 1743SOL    HW216866   2.292   1.001   3.820  2.5088  1.6804 -2.1730
 1744SOL     OW16867   1.838   0.068   7.911  0.5914  0.2391  0.3468
 1744SOL    HW116868   1.802   0.022   7.987  2.7352 -1.9509  0.0358
 1744SOL    HW216869   1.924   0.027   7.906 -0.2263 -1.6059  1.5243
 1745SOL     OW16870   2.189   1.878   7.378 -0.4586 -0.1693  0.1500
 1745SOL    HW116871   2.200   1.963   7.334 -1.0788  0.4713  1.2512
 1745SOL    HW216872   2.115   1.884   7.438 -0.2811 -0.5125  0.3993
 1746SOL     OW16873   0.971   1.627   7.002  0.2431 -0.0703  0.2877
 1746SOL    HW116874   1.010   1.710   6.973 -3.3587  1.2535 -0.7262
 1746SOL    HW216875   0.916   1.602   6.928 -1.5636 -1.7290  2.2001
 1747SOL     OW16876   3.719   3.648   2.985 -0.2481 -0.2307  0.5837
 1747SOL    HW116877   3.774   3.637   2.908  0.9482 -1.5063  1.6026
 1747SOL    HW216878   3.632   3.664   2.949 -0.3255  0.4123  1.0630
 1748SOL     OW16879   4.062   0.245   7.770  0.5622  0.1615 -0.1650
 1748SOL    HW116880   4.055   0.150   7.757 -0.6631  0.3809 -1.0205
 1748SOL    HW216881   4.009   0.252   7.850 -1.6668  0.8068 -1.7265
 1749SOL     OW16882   1.857   4.114   3.423 -0.0637 -0.6158  0.3357
 1749SOL    HW116883   1.768   4.080   3.431  0.4835 -1.8745  1.1569
 1749SOL    HW216884   1.892   4.045   3.368  0.5608  1.9655 -2.4774
 1750SOL     OW16885   3.781   1.459   3.284 -0.3689  0.0669 -0.2279
 1750SOL    HW116886   3.704   1.404   3.269 -0.8581  0.0416  2.3645
 1750SOL    HW216887   3.812   1.428   3.369  1.4139 -1.4421 -1.4407
 1751SOL     OW16888   4.458   1.163   5.871 -0.4550  0.3660  0.3218
 1751SOL    HW116889   4.497   1.188   5.787 -1.9277  1.5295 -0.0206
 1751SOL    HW216890   4.386   1.103   5.848  0.0264 -0.3614  0.6993
 1752SOL     OW16891   3.556   0.125   5.645  0.3157  0.4493 -0.1135
 1752SOL    HW116892   3.599   0.059   5.699 -1.8488 -1.0107 -0.2090
 1752SOL    HW216893   3.623   0.144   5.579  0.3670  1.5431  0.2518
 1753SOL     OW16894   0.517   3.541   1.249 -0.1687 -0.0686 -0.7525
 1753SOL    HW116895   0.462   3.619   1.241  2.2354  1.7053  0.2881
 1753SOL    HW216896   0.599   3.587   1.265 -0.2629 -0.7404  1.6647
 1754SOL     OW16897   3.636   3.065  11.228  0.6080 -0.4760 -0.6436
 1754SOL    HW116898   3.649   2.989  11.285 -2.4348  0.7974  1.7511
 1754SOL    HW216899   3.689   3.130  11.275  0.5163  0.5512 -1.9794
 1755SOL     OW16900   1.827   1.100   2.500  0.1027 -0.2050  0.2182
 1755SOL    HW116901   1.784   1.184   2.481 -1.2548 -1.4604 -2.2122
 1755SOL    HW216902   1.755   1.051   2.541  0.2938 -1.2802 -0.7483
 1756SOL     OW16903   0.637   1.235   5.037 -0.6387 -0.3218  0.1431
 1756SOL    HW116904   0.704   1.292   5.000  2.3298 -3.3423  0.7625
 1756SOL    HW216905   0.603   1.292   5.106  1.2740  2.4747 -1.2574
 1757SOL     OW16906   2.231   0.318  12.829  0.1260  0.8373  0.0904
 1757SOL    HW116907   2.241   0.256  12.901 -0.8175 -2.6761 -2.7967
 1757SOL    HW216908   2.203   0.261  12.757  0.6549 -0.2481  0.7403
 1758SOL     OW16909   0.899   1.213  13.814  0.3124  0.1973 -0.2696
 1758SOL    HW116910   0.808   1.243  13.814  0.1725 -0.2296 -0.3767
 1758SOL    HW216911   0.905   1.145  13.748 -0.3804 -0.6077  0.4903
 1759SOL     OW16912   0.206   1.030   2.166 -0.3016 -0.2334  0.0113
 1759SOL    HW116913   0.117   1.003   2.185 -0.7674 -0.6330 -2.7308
 1759SOL    HW216914   0.228   0.964   2.101 -1.6437  1.3053 -2.0260
 1760SOL     OW16915   1.402   4.236   2.202 -0.2499  0.4145  0.4129
 1760SOL    HW116916   1.432   4.307   2.259  0.1590  0.6451 -0.0879
 1760SOL    HW216917   1.340   4.189   2.258 -1.0454  0.9567 -0.0194
 1761SOL     OW16918   0.055   0.409   5.497  0.4423  0.0527 -0.0935
 1761SOL    HW116919   0.149   0.426   5.492  0.0592  1.7732 -1.5322
 1761SOL    HW216920   0.028   0.442   5.583 -0.5962 -0.6698 -0.1395
 1762SOL     OW16921   2.490   0.123  10.018  0.4510 -0.3561  0.2003
 1762SOL    HW116922   2.412   0.069  10.004  0.5083 -0.0760 -1.1354
 1762SOL    HW216923   2.490   0.167   9.934 -0.9897 -2.7211 -1.0321
 1763SOL     OW16924   1.479   0.714   7.160  0.7491  0.0983 -0.1473
 1763SOL    HW116925   1.403   0.773   7.163  2.2950  2.0467  1.0116
 1763SOL    HW216926   1.494   0.684   7.071  0.1961 -1.0015  0.1274
 1764SOL     OW16927   4.245   2.146   9.484  0.4748  0.1194  0.6768
 1764SOL    HW116928   4.232   2.054   9.464 -1.3812  0.3501  0.8149
 1764SOL    HW216929   4.167   2.158   9.538 -0.6078  0.4476 -0.9560
 1765SOL     OW16930   0.693   4.433   8.782 -0.5182  0.1057 -0.3119
 1765SOL    HW116931   0.700   4.355   8.726  0.9711 -0.5057  0.7222
 1765SOL    HW216932   0.667   4.501   8.720 -0.0395  1.0775  0.5612
 1766SOL     OW16933   1.964   1.575   0.375 -0.1232  0.0504 -0.4446
 1766SOL    HW116934   1.914   1.640   0.424  0.3895  0.1434 -0.0518
 1766SOL    HW216935   1.901   1.511   0.342  1.8490 -0.7119 -2.7626
 1767SOL     OW16936   1.675   3.460  14.901  0.1523 -0.7947  0.7723
 1767SOL    HW116937   1.756   3.497  14.936 -1.8242  2.0034  2.2963
 1767SOL    HW216938   1.616   3.532  14.918  0.3384 -0.0277 -1.7857
 1768SOL     OW16939   3.834   1.630   6.618  0.0873  0.4853 -0.3896
 1768SOL    HW116940   3.845   1.538   6.642 -0.5344  0.4389 -0.2846
 1768SOL    HW216941   3.828   1.669   6.705  0.2677  0.1634 -0.2363
 1769SOL     OW16942   3.286   1.839   8.204  0.1224 -0.0540  0.2814
 1769SOL    HW116943   3.295   1.863   8.111  2.3277 -0.0401  0.5004
 1769SOL    HW216944   3.311   1.747   8.206 -0.1573 -0.1400 -0.1080
 1770SOL     OW16945   0.720   0.359   3.248  0.2478 -0.5047 -0.2809
 1770SOL    HW116946   0.797   0.416   3.258  1.2058 -1.9765  0.7568
 1770SOL    HW216947   0.723   0.334   3.156 -0.7416  1.4113 -0.8373
 1771SOL     OW16948   4.499   3.529   2.082 -0.6260 -0.3665 -0.0492
 1771SOL    HW116949   4.570   3.466   2.071 -1.0464 -0.9778  0.7174
 1771SOL    HW216950   4.475   3.542   1.990 -0.5768 -0.3521 -0.0597
 1772SOL     OW16951   3.470   1.152  11.128  0.7184  0.3319  0.3032
 1772SOL    HW116952   3.411   1.076  11.122  0.9876  0.3823 -2.8870
 1772SOL    HW216953   3.556   1.119  11.104  0.8376  0.7811  0.1231
 1773SOL     OW16954   3.276   1.297   7.440  0.4841  0.2913 -0.1265
 1773SOL    HW116955   3.330   1.236   7.390 -1.6111 -1.6700 -0.0298
 1773SOL    HW216956   3.194   1.301   7.390  0.1806 -0.4413  0.3126
 1774SOL     OW16957   2.708   1.548   6.715 -0.1013 -0.3456 -0.0699
 1774SOL    HW116958   2.662   1.630   6.696 -1.4177 -0.9019  0.7110
 1774SOL    HW216959   2.797   1.579   6.734  0.1819  0.1170 -2.1556
 1775SOL     OW16960   4.227   1.874   9.567  0.0727 -0.5295 -0.5515
 1775SOL    HW116961   4.321   1.859   9.577  0.0634 -0.1455  0.1246
 1775SOL    HW216962   4.198   1.863   9.658 -0.8784  0.1329 -0.7715
 1776SOL     OW16963   3.317   1.356  10.311  0.0396 -0.2949  0.7303
 1776SOL    HW116964   3.377   1.286  10.284 -0.9009 -0.4858 -0.8176
 1776SOL    HW216965   3.386   1.410  10.351  2.0912  0.3829 -3.7752
 1777SOL     OW16966   3.856   4.674   4.468  0.6021 -0.8400  0.0348
 1777SOL    HW116967   3.907   4.661   4.548  0.3971 -0.1343  0.2760
 1777SOL    HW216968   3.801   0.012   4.481  1.9349  0.1001  0.0260
 1778SOL     OW16969   4.574   0.420  13.202 -0.4222  0.3784 -0.4230
 1778SOL    HW116970   4.544   0.509  13.185  2.7695  1.1897 -1.8001
 1778SOL    HW216971   4.662   0.424  13.240 -1.0076 -0.8764  1.1219
 1779SOL     OW16972   1.402   3.937  11.407 -0.8857 -0.6242  0.3296
 1779SOL    HW116973   1.482   3.886  11.422  0.9545  1.7906 -1.1642
 1779SOL    HW216974   1.354   3.880  11.347 -1.0430  0.1878 -0.3149
 1780SOL     OW16975   0.929   1.383   0.080 -0.2723  0.0356 -0.3419
 1780SOL    HW116976   1.007   1.352   0.127 -0.7731  1.3478  1.3626
 1780SOL    HW216977   0.911   1.461   0.132  0.3646  0.8412 -1.3452
 1781SOL     OW16978   3.233   3.311   3.449  0.3417  0.2075  0.6477
 1781SOL    HW116979   3.162   3.249   3.430  0.7172 -0.1771  0.4919
 1781SOL    HW216980   3.306   3.257   3.478  1.1993  0.0295 -1.8974
 1782SOL     OW16981   3.712   2.684   7.561 -0.2539 -0.4350 -0.5401
 1782SOL    HW116982   3.746   2.772   7.545 -0.7274  0.2559  2.3932
 1782SOL    HW216983   3.790   2.628   7.559 -0.6152 -0.8701 -2.1379
 1783SOL     OW16984   2.293   2.766  10.538 -0.3455 -1.0537  0.9447
 1783SOL    HW116985   2.217   2.823  10.538 -0.6806 -1.5023  1.4086
 1783SOL    HW216986   2.321   2.778  10.629 -1.1565  0.7250  0.9648
 1784SOL     OW16987   4.698   4.669   7.242  0.0349 -0.3009 -0.1760
 1784SOL    HW116988   0.002   4.729   7.181 -3.0582  2.0216 -0.0684
 1784SOL    HW216989   4.611   4.675   7.203  0.4913 -1.1861 -1.3249
 1785SOL     OW16990   1.924   1.623  16.535 -0.2519  0.1692  0.3759
 1785SOL    HW116991   2.012   1.603  16.504 -0.0351 -0.1743  1.2193
 1785SOL    HW216992   1.898   1.688  16.469  2.7103  0.6745 -0.3146
 1786SOL     OW16993   4.654   0.126   2.113  0.1034 -0.2062 -0.2127
 1786SOL    HW116994   4.662   0.031   2.119  0.1997 -0.0127  3.0170
 1786SOL    HW216995   4.643   0.145   2.207 -1.4815  0.7732 -0.5905
 1787SOL     OW16996   0.974   3.988  16.845  0.6044 -0.3792 -0.0232
 1787SOL    HW116997   0.949   4.026  16.930 -2.5924 -0.7787 -0.7942
 1787SOL    HW216998   1.054   4.038  16.830  0.0020  0.0030 -1.9075
 1788SOL     OW16999   3.936   3.489  10.400 -0.4995  0.7058 -0.3273
 1788SOL    HW117000   3.989   3.555  10.444  0.1813 -0.9657  1.3558
 1788SOL    HW217001   3.856   3.473  10.450  1.5198  2.0023  3.2982
 1789SOL     OW17002   2.464   0.354   2.335  0.4532  0.4316 -0.2982
 1789SOL    HW117003   2.459   0.331   2.242 -1.2204 -1.2950  0.2135
 1789SOL    HW217004   2.394   0.419   2.335  1.3447  1.4008 -0.4721
 1790SOL     OW17005   2.041   0.848   6.806  0.6152  0.0299 -0.4209
 1790SOL    HW117006   2.027   0.921   6.744 -1.5917 -1.0624 -1.2163
 1790SOL    HW217007   1.978   0.783   6.775  1.1451 -0.1555 -1.0999
 1791SOL     OW17008   0.583   0.557   6.689 -0.2828  0.3187 -0.0133
 1791SOL    HW117009   0.523   0.567   6.614 -0.2661  0.2467 -0.0359
 1791SOL    HW217010   0.529   0.526   6.762  0.5263 -0.1920  0.3617
 1792SOL     OW17011   1.944   1.416   6.002  0.2210 -0.2510  0.0967
 1792SOL    HW117012   1.995   1.446   6.077 -1.2544  1.3691  0.4413
 1792SOL    HW217013   1.851   1.423   6.026  0.6259 -0.7696  1.7938
 1793SOL     OW17014   0.264   1.296   7.194 -0.4491 -0.0058  0.0732
 1793SOL    HW117015   0.255   1.216   7.245 -0.2929  0.3791  0.7046
 1793SOL    HW217016   0.180   1.296   7.146 -0.3053  0.0148 -0.1780
 1794SOL     OW17017   4.383   2.500  10.802 -0.0190 -0.2252 -0.2828
 1794SOL    HW117018   4.434   2.492  10.722  2.1375  0.2867  1.0443
 1794SOL    HW217019   4.423   2.442  10.868  1.9008 -0.8930 -2.0346
 1795SOL     OW17020   3.044   0.791   6.547 -0.5960 -0.5004  0.0499
 1795SOL    HW117021   2.950   0.801   6.561 -0.8452 -1.1117 -1.2131
 1795SOL    HW217022   3.040   0.788   6.452  1.6106  1.9285 -0.1236
 1796SOL     OW17023   1.195   4.045  11.230  0.2708  0.0072 -0.6561
 1796SOL    HW117024   1.201   4.071  11.138  1.4891 -0.4566 -0.7111
 1796SOL    HW217025   1.111   4.000  11.229 -1.4759  3.2327 -1.6622
 1797SOL     OW17026   0.274   1.297   4.885  0.1503 -0.3029 -0.1203
 1797SOL    HW117027   0.321   1.219   4.857  0.5878 -0.3626  0.7663
 1797SOL    HW217028   0.203   1.254   4.933 -0.0808 -0.9683 -1.0697
 1798SOL     OW17029   3.781   2.706   3.739  0.5363 -0.6770  0.5770
 1798SOL    HW117030   3.744   2.652   3.809  0.7195  0.4153  1.5402
 1798SOL    HW217031   3.738   2.789   3.763  0.3741 -0.6898  0.3319
 1799SOL     OW17032   1.207   1.325  13.405 -0.0487 -0.1843  0.1482
 1799SOL    HW117033   1.194   1.282  13.490 -3.6832 -1.2388 -0.9470
 1799SOL    HW217034   1.250   1.262  13.348 -1.3302  2.2195 -3.4277
 1800SOL     OW17035   4.488   3.594  14.273 -0.3551  0.2896  0.3341
 1800SOL    HW117036   4.399   3.562  14.261  0.4625 -1.2133 -1.6989
 1800SOL    HW217037   4.476   3.658  14.343  0.1826 -0.5130  1.1516
 1801SOL     OW17038   3.189   4.301   2.286 -0.0663 -0.8009  0.2155
 1801SOL    HW117039   3.258   4.331   2.227  2.1502 -3.5222  1.4320
 1801SOL    HW217040   3.215   4.209   2.290 -0.1697 -0.7902  1.1011
 1802SOL     OW17041   1.874   2.558   0.530 -0.4065 -1.0463 -0.5294
 1802SOL    HW117042   1.890   2.486   0.591 -0.3391 -0.3697  0.2630
 1802SOL    HW217043   1.927   2.631   0.563 -2.8624  2.1355 -3.6996
 1803SOL     OW17044   1.153   2.218   6.870  0.6392  0.1225 -0.3132
 1803SOL    HW117045   1.178   2.185   6.957  2.8607  0.7043 -0.7184
 1803SOL    HW217046   1.243   2.233   6.840  0.6943 -0.2056 -0.3174
 1804SOL     OW17047   3.674   1.365   8.459 -0.5365  0.0695  0.5059
 1804SOL    HW117048   3.641   1.380   8.371 -1.0604 -2.8756  0.2147
 1804SOL    HW217049   3.662   1.451   8.501  2.8207  1.7043 -1.9309
 1805SOL     OW17050   1.593   0.458   8.663  0.6195 -0.1109 -0.1356
 1805SOL    HW117051   1.577   0.477   8.756  2.4941  1.3297 -0.1172
 1805SOL    HW217052   1.681   0.493   8.651  1.1205 -0.5593  2.2402
 1806SOL     OW17053   3.742   2.151   2.826 -0.2691  0.1455 -0.4078
 1806SOL    HW117054   3.704   2.063   2.834 -1.6161  0.7495 -0.2447
 1806SOL    HW217055   3.759   2.158   2.920  2.8256 -0.4960 -0.9083
 1807SOL     OW17056   0.553   3.666  13.580  1.1155  0.4433 -0.2643
 1807SOL    HW117057   0.601   3.590  13.547 -0.6921 -1.7487  2.1364
 1807SOL    HW217058   0.628   3.708  13.621  1.5401 -3.2495  2.7222
 1808SOL     OW17059   1.919   3.337   4.733  0.5368  0.1680 -0.2999
 1808SOL    HW117060   1.980   3.318   4.803 -0.1817 -0.5363  0.1363
 1808SOL    HW217061   1.910   3.433   4.734 -1.5278 -0.0656  1.3672
 1809SOL     OW17062   4.289   2.728   6.409 -0.5416  0.5047  0.2547
 1809SOL    HW117063   4.199   2.759   6.408 -0.3447  1.1095  1.2012
 1809SOL    HW217064   4.299   2.708   6.503 -2.9870 -1.6428  0.0358
 1810SOL     OW17065   0.266   0.765   8.870 -0.5635 -0.3926 -0.2548
 1810SOL    HW117066   0.271   0.831   8.939 -0.7597 -0.1849 -0.4421
 1810SOL    HW217067   0.174   0.742   8.879 -0.9319  0.8010 -0.9590
 1811SOL     OW17068   4.228   3.809   3.420  0.3286  0.6349  0.4432
 1811SOL    HW117069   4.212   3.718   3.445  1.8724  0.4240  0.6757
 1811SOL    HW217070   4.317   3.806   3.455  0.2959  0.4867  0.5133
 1812SOL     OW17071   0.023   3.603   4.110 -0.0705 -0.3414  0.3059
 1812SOL    HW117072   0.095   3.662   4.131  0.2895 -0.9850  0.9055
 1812SOL    HW217073   4.690   3.656   4.143 -1.1444 -1.8432  0.3439
 1813SOL     OW17074   4.035   2.810   6.450  0.1991 -0.3820  0.1614
 1813SOL    HW117075   3.974   2.794   6.378  0.5214  3.5908 -1.0165
 1813SOL    HW217076   3.979   2.784   6.523  2.9504  2.5760  3.3201
 1814SOL     OW17077   0.516   1.868  10.375  0.6695 -0.7263  0.5209
 1814SOL    HW117078   0.438   1.813  10.385 -0.0678  0.1087 -0.6919
 1814SOL    HW217079   0.582   1.803  10.349 -1.6291 -1.8300 -2.5454
 1815SOL     OW17080   3.606   4.440  13.740  0.1249 -0.3328 -0.2264
 1815SOL    HW117081   3.526   4.411  13.696  0.9026 -0.7228 -1.3967
 1815SOL    HW217082   3.647   4.486  13.666 -0.0534  1.3566  0.7057
 1816SOL     OW17083   1.570   3.126   1.697 -0.0696  0.0288 -0.0590
 1816SOL    HW117084   1.651   3.138   1.745 -0.0624  0.6083 -0.2169
 1816SOL    HW217085   1.505   3.110   1.766  0.9873  0.3196  0.9914
 1817SOL     OW17086   0.531   4.242   0.622  0.5622 -0.0148 -0.1575
 1817SOL    HW117087   0.516   4.327   0.663  0.9572  0.2140 -0.4722
 1817SOL    HW217088   0.495   4.176   0.680 -1.2405 -0.2271 -1.5310
 1818SOL     OW17089   0.254   1.938   7.166 -0.2265 -0.0350  0.4258
 1818SOL    HW117090   0.241   2.022   7.121  1.7745 -0.7286 -1.4044
 1818SOL    HW217091   0.305   1.907   7.091 -1.9223  1.2945 -1.2621
 1819SOL     OW17092   3.713   1.642   2.319 -0.1693  0.0132  0.1370
 1819SOL    HW117093   3.682   1.729   2.347 -1.5953 -0.1811 -0.8300
 1819SOL    HW217094   3.797   1.626   2.363  0.1894  1.8513  0.1382
 1820SOL     OW17095   3.716   3.780   3.234 -0.0021 -0.2308  0.1232
 1820SOL    HW117096   3.729   3.751   3.144 -1.1742  0.1366 -0.1718
 1820SOL    HW217097   3.621   3.793   3.228 -0.2435 -2.2421 -0.4835
 1821SOL     OW17098   0.452   0.068  10.209  0.8041  0.2253  0.3716
 1821SOL    HW117099   0.468   4.734  10.268 -3.4936 -1.6967 -0.8237
 1821SOL    HW217100   0.416   0.133  10.270  0.2818 -0.5518  0.8883
 1822SOL     OW17101   4.313   2.902   5.116  0.0481 -0.2258  0.4625
 1822SOL    HW117102   4.409   2.907   5.121  0.2723 -3.0464 -0.5915
 1822SOL    HW217103   4.292   2.995   5.121  1.2450 -0.0949  2.7799
 1823SOL     OW17104   1.394   4.088   4.424  0.4693  0.1741  0.2142
 1823SOL    HW117105   1.443   4.070   4.344 -1.3234 -2.0578 -0.3466
 1823SOL    HW217106   1.409   4.183   4.431 -0.1659  0.3421 -0.8006
 1824SOL     OW17107   2.469   2.398   6.753  0.0354 -0.1497  0.5133
 1824SOL    HW117108   2.502   2.315   6.719 -0.6758 -0.2039 -0.0452
 1824SOL    HW217109   2.431   2.434   6.673  0.1234 -1.0207  0.0735
 1825SOL     OW17110   3.689   3.068   6.268  0.1003 -0.6656  0.1812
 1825SOL    HW117111   3.681   3.029   6.355 -0.1498 -0.7501  0.1217
 1825SOL    HW217112   3.778   3.102   6.274  0.0788 -0.7244  0.8131
 1826SOL     OW17113   4.144   3.911  14.015 -0.0379 -0.2958  0.1208
 1826SOL    HW117114   4.206   3.969  14.058  1.6760 -1.5257 -0.7082
 1826SOL    HW217115   4.074   3.968  13.983 -1.7204 -1.6724  1.3273
 1827SOL     OW17116   1.485   2.305   2.850  0.3381 -0.3335 -0.4162
 1827SOL    HW117117   1.546   2.239   2.883  0.5850 -0.0721 -0.3532
 1827SOL    HW217118   1.414   2.258   2.805  0.5379 -0.9230 -0.1114
 1828SOL     OW17119   4.429   2.491   4.286  0.0550  0.6475  0.0332
 1828SOL    HW117120   4.482   2.512   4.209 -0.6569  1.5314 -0.1987
 1828SOL    HW217121   4.504   2.461   4.339  2.0541  1.9461 -2.0558
 1829SOL     OW17122   3.384   3.408   7.904  0.0740  1.0296  0.0050
 1829SOL    HW117123   3.439   3.338   7.869  0.7854  1.5297  0.1061
 1829SOL    HW217124   3.344   3.359   7.976 -1.1618  1.0559 -0.6678
 1830SOL     OW17125   1.770   3.650   8.471  0.0105  0.1789 -0.3094
 1830SOL    HW117126   1.813   3.735   8.466  0.7900 -0.0048  3.0785
 1830SOL    HW217127   1.725   3.649   8.387  2.2224 -2.7945 -1.4566
 1831SOL     OW17128   0.091   0.114   3.026 -0.0481 -0.0037 -0.9008
 1831SOL    HW117129   0.105   0.209   3.020  0.0943  0.2176  2.9048
 1831SOL    HW217130   0.012   0.095   2.976  0.6187 -1.7479 -1.2836
 1832SOL     OW17131   3.195   3.130   5.178 -0.1214  0.4401 -0.6440
 1832SOL    HW117132   3.139   3.139   5.101  1.1688  2.4924 -1.3362
 1832SOL    HW217133   3.173   3.213   5.222  1.4917  0.7068 -0.3367
 1833SOL     OW17134   4.434   3.049   7.973  0.1767  0.1233 -0.2028
 1833SOL    HW117135   4.401   3.103   7.902 -3.6882  1.3740  2.5452
 1833SOL    HW217136   4.411   3.091   8.056 -2.0186 -0.7293 -0.3835
 1834SOL     OW17137   1.810   3.710   9.858  0.0514  0.3771  0.3411
 1834SOL    HW117138   1.790   3.775   9.791  0.6344 -1.6554 -1.8155
 1834SOL    HW217139   1.821   3.779   9.923  0.8610 -1.3783  2.0698
 1835SOL     OW17140   2.235   1.132  10.259 -0.5632  0.6401 -0.0137
 1835SOL    HW117141   2.250   1.160  10.349 -1.8138  0.0338  0.3745
 1835SOL    HW217142   2.278   1.048  10.247  0.1656  1.1819 -1.1949
 1836SOL     OW17143   0.013   3.623   8.713 -0.6339 -0.4211  0.2186
 1836SOL    HW117144   4.717   3.553   8.656 -1.4296  0.2148 -0.0764
 1836SOL    HW217145   0.005   3.576   8.796 -0.3969 -0.7726  0.0436
 1837SOL     OW17146   2.455   3.423  14.798  0.3499  0.4647 -0.0302
 1837SOL    HW117147   2.485   3.443  14.887  3.3747  1.5232 -1.2648
 1837SOL    HW217148   2.437   3.329  14.802  0.3457  0.4901  0.5819
 1838SOL     OW17149   3.560   1.289   8.182  0.4234 -0.9757  0.5148
 1838SOL    HW117150   3.524   1.207   8.217 -0.1188 -0.7332  0.5209
 1838SOL    HW217151   3.642   1.245   8.161  1.0668  0.4846 -0.0407
 1839SOL     OW17152   4.101   2.132   4.194  0.4243 -0.6764 -0.2408
 1839SOL    HW117153   4.141   2.201   4.247 -0.1646 -0.6221  0.1319
 1839SOL    HW217154   4.043   2.180   4.135 -0.9593  1.5197  2.9279
 1840SOL     OW17155   1.642   3.503  12.063 -0.4826  0.1976  0.2379
 1840SOL    HW117156   1.616   3.575  12.006  0.4419 -0.0898 -0.5513
 1840SOL    HW217157   1.696   3.534  12.135 -0.4115 -0.1408  0.3324
 1841SOL     OW17158   4.127   0.456   5.267 -0.0205  0.4418 -0.4173
 1841SOL    HW117159   4.050   0.399   5.259 -1.5749  2.3807  1.0020
 1841SOL    HW217160   4.162   0.462   5.178  1.2226 -3.3064 -0.2063
 1842SOL     OW17161   2.005   3.994  15.082  0.4820 -0.4502 -0.7131
 1842SOL    HW117162   2.084   4.034  15.048  0.2682  1.3235  0.9388
 1842SOL    HW217163   2.051   3.937  15.143 -1.0593 -1.9308 -0.9264
 1843SOL     OW17164   2.170   4.668   1.836  0.3746  0.3466  0.6747
 1843SOL    HW117165   2.247   4.627   1.797 -0.1771 -0.0722  0.0363
 1843SOL    HW217166   2.170   0.005   1.779  0.7477  0.8012  1.2821
 1844SOL     OW17167   3.439   4.571   3.085  0.2503  0.3169  0.1047
 1844SOL    HW117168   3.480   4.485   3.072  0.7452  0.7575 -1.1546
 1844SOL    HW217169   3.510   4.627   3.056  1.5650 -1.6185 -0.4404
 1845SOL     OW17170   4.554   2.833  16.067  0.2888 -0.2882 -0.3717
 1845SOL    HW117171   4.573   2.856  16.158  0.5931 -0.5436 -0.3724
 1845SOL    HW217172   4.623   2.771  16.043 -0.1351 -0.9238  0.0704
 1846SOL     OW17173   0.951   4.081   7.627  0.0923  0.6215 -0.3805
 1846SOL    HW117174   0.999   4.042   7.554  2.5476  0.1521  1.4945
 1846SOL    HW217175   0.876   4.021   7.632  1.4570 -0.8169  2.8531
 1847SOL     OW17176   3.495   0.570   0.755  0.8132 -0.0792  0.6246
 1847SOL    HW117177   3.557   0.642   0.770  0.8537  0.6123 -2.7375
 1847SOL    HW217178   3.440   0.602   0.684 -0.5149 -0.9629  1.2639
 1848SOL     OW17179   1.276   4.608   2.022  0.5938  0.3288 -0.8547
 1848SOL    HW117180   1.357   4.566   1.992  1.6506  1.3364  0.6103
 1848SOL    HW217181   1.216   4.539   2.050 -0.0282  0.7576 -1.1349
 1849SOL     OW17182   0.021   0.127   5.488  0.1493 -0.3183  0.2851
 1849SOL    HW117183   0.096   0.107   5.543  0.0253  0.6917  0.8092
 1849SOL    HW217184   0.002   0.217   5.514 -1.0306 -0.8823  1.3949
 1850SOL     OW17185   1.438   1.797  11.274 -0.0058  0.1838  0.3938
 1850SOL    HW117186   1.510   1.841  11.321  0.7743 -0.6023 -0.0633
 1850SOL    HW217187   1.365   1.794  11.336 -0.3396 -2.0990 -0.1239
 1851SOL     OW17188   1.670   1.532   5.861 -0.1159  0.5660 -0.2820
 1851SOL    HW117189   1.671   1.496   5.950  0.3172 -1.9981 -1.3207
 1851SOL    HW217190   1.574   1.524   5.856 -0.0526 -0.4945  0.1967
 1852SOL     OW17191   0.240   0.434   5.840 -0.5985 -0.3012 -0.2144
 1852SOL    HW117192   0.251   0.499   5.770 -1.0672  0.7925  0.7346
 1852SOL    HW217193   0.262   0.493   5.912  2.7280 -1.9131  0.0626
 1853SOL     OW17194   2.314   0.141  13.026  0.1473 -0.1833 -0.1746
 1853SOL    HW117195   2.288   0.066  13.079  1.7127 -0.6409 -0.0449
 1853SOL    HW217196   2.363   0.191  13.092 -0.8794  0.8422 -0.1925
 1854SOL     OW17197   3.429   0.415   1.835 -0.0743  0.0424  0.2437
 1854SOL    HW117198   3.371   0.400   1.909 -1.1402  0.1102 -0.5837
 1854SOL    HW217199   3.513   0.420   1.881  0.2275 -0.0416 -0.2933
 1855SOL     OW17200   3.227   2.178   2.209 -0.9109  0.0321  0.0246
 1855SOL    HW117201   3.257   2.195   2.120  1.6479 -0.3971  0.7999
 1855SOL    HW217202   3.135   2.200   2.218 -0.9426 -0.0257 -0.1708
 1856SOL     OW17203   2.740   3.479   4.378 -0.3150  0.0363 -0.2945
 1856SOL    HW117204   2.778   3.393   4.388 -1.3494 -0.0511  2.7585
 1856SOL    HW217205   2.661   3.453   4.330 -1.5602 -0.7436  2.2234
 1857SOL     OW17206   2.619   1.284   1.352 -0.0909 -0.0663 -0.0284
 1857SOL    HW117207   2.540   1.273   1.405  2.3920 -0.0326  3.7591
 1857SOL    HW217208   2.623   1.374   1.322  1.3233 -0.2517 -0.3753
 1858SOL     OW17209   1.569   3.332  11.177  0.1635  0.6091 -0.4944
 1858SOL    HW117210   1.542   3.422  11.196  0.3954  0.7227 -0.7050
 1858SOL    HW217211   1.505   3.319  11.107 -1.5197  1.9697  0.7676
 1859SOL     OW17212   2.616   1.330   2.886  0.0879  0.2332 -0.1217
 1859SOL    HW117213   2.690   1.307   2.831 -0.9538 -3.9482  0.2473
 1859SOL    HW217214   2.570   1.246   2.890  3.0967 -1.4032 -0.3260
 1860SOL     OW17215   3.958   3.629  14.837  0.0022  0.0555  0.3930
 1860SOL    HW117216   3.964   3.546  14.790  0.0157  1.1238 -1.4860
 1860SOL    HW217217   3.901   3.680  14.780 -0.9729 -2.1920 -0.6609
 1861SOL     OW17218   2.774   0.994  10.581 -0.0397 -0.0829 -0.4994
 1861SOL    HW117219   2.867   0.980  10.562  0.0331 -0.0128 -0.2083
 1861SOL    HW217220   2.765   0.975  10.675  0.3664 -0.0419 -0.4499
 1862SOL     OW17221   0.229   0.129   4.757  0.4374  0.3894  0.2208
 1862SOL    HW117222   0.310   0.133   4.706  1.0178  0.6832  1.1850
 1862SOL    HW217223   0.251   0.181   4.834  0.4158 -0.3748  0.7349
 1863SOL     OW17224   2.007   1.557  11.093 -0.7216  0.1367  0.8099
 1863SOL    HW117225   2.015   1.544  11.187 -1.1819  3.3037  1.2782
 1863SOL    HW217226   2.079   1.621  11.089 -0.7371  0.1004 -0.0586
 1864SOL     OW17227   0.502   2.901   9.930 -0.7090 -0.2141  0.1651
 1864SOL    HW117228   0.439   2.842   9.888  0.1072 -0.1535 -1.1374
 1864SOL    HW217229   0.537   2.937   9.848 -2.1687  0.8375 -0.0052
 1865SOL     OW17230   2.927   4.645   0.858 -0.2926 -0.5694 -0.3105
 1865SOL    HW117231   2.984   4.576   0.824  0.6534 -0.8641  1.9176
 1865SOL    HW217232   2.941   4.634   0.952  1.1811 -1.3071 -0.6120
 1866SOL     OW17233   3.193   3.920   0.546 -0.4702 -0.1114 -0.3217
 1866SOL    HW117234   3.273   3.909   0.595 -0.0224 -0.2028 -1.0717
 1866SOL    HW217235   3.223   3.922   0.455 -1.3884 -1.7170 -0.6613
 1867SOL     OW17236   3.835   1.409   7.801  0.0555  0.0892 -0.2383
 1867SOL    HW117237   3.756   1.463   7.796  1.4782  2.2696  0.8051
 1867SOL    HW217238   3.858   1.427   7.710  0.6098  0.6980  0.0216
 1868SOL     OW17239   1.731   2.794   3.067 -0.8235 -0.2620  0.3203
 1868SOL    HW117240   1.642   2.825   3.084 -0.9235 -0.2162 -0.2818
 1868SOL    HW217241   1.782   2.818   3.144 -1.8433 -0.4645  1.0600
 1869SOL     OW17242   1.591   2.483   2.032 -1.1986  0.0780 -0.2360
 1869SOL    HW117243   1.610   2.576   2.024 -0.1708 -0.2310 -1.4892
 1869SOL    HW217244   1.495   2.482   2.032 -1.1970  0.6939  0.3269
 1870SOL     OW17245   0.693   2.503   8.483  0.1143  0.0060  0.1476
 1870SOL    HW117246   0.708   2.566   8.413 -0.1630  2.7452  2.6001
 1870SOL    HW217247   0.768   2.445   8.473 -0.5312 -0.9250  0.6548
 1871SOL     OW17248   1.961   2.887   2.929 -0.0342  0.4915 -0.5575
 1871SOL    HW117249   1.876   2.847   2.947  0.0577  0.7921  0.5516
 1871SOL    HW217250   1.961   2.876   2.834 -2.9291 -0.4534 -0.4621
 1872SOL     OW17251   1.532   3.442   6.012  0.2093  0.6360 -0.1764
 1872SOL    HW117252   1.561   3.360   5.971 -0.9843  0.6932 -1.1536
 1872SOL    HW217253   1.445   3.419   6.047  0.2630 -0.3821 -0.7032
 1873SOL     OW17254   0.763   3.100   6.041 -0.0921  0.0999 -0.1122
 1873SOL    HW117255   0.678   3.141   6.022 -0.3966 -0.2945  0.4009
 1873SOL    HW217256   0.821   3.164   6.083 -0.2283  1.0740 -1.4010
 1874SOL     OW17257   3.310   0.348   1.266  0.3812 -0.4047 -0.5287
 1874SOL    HW117258   3.338   0.258   1.281  0.0984 -0.4775 -0.4406
 1874SOL    HW217259   3.220   0.335   1.234  0.0805  1.1460 -0.3263
 1875SOL     OW17260   3.550   0.734   7.414  0.1884  0.3832  0.0464
 1875SOL    HW117261   3.481   0.668   7.414  0.9141 -0.3694  0.2851
 1875SOL    HW217262   3.625   0.677   7.400 -0.2554 -0.7171  2.2051
 1876SOL     OW17263   4.535   0.029   8.790  0.2480  0.1289 -0.6455
 1876SOL    HW117264   4.527   0.030   8.885  0.4366 -0.6646 -0.6273
 1876SOL    HW217265   4.452   0.065   8.757 -0.5034 -0.3117  0.7860
 1877SOL     OW17266   1.843   2.140   5.454 -0.3484  0.5055 -1.0125
 1877SOL    HW117267   1.765   2.165   5.503 -1.0261 -2.7161 -0.4314
 1877SOL    HW217268   1.835   2.170   5.363 -1.2018  3.8412  0.1686
 1878SOL     OW17269   0.030   3.219  14.132  0.5847 -0.3099 -0.2595
 1878SOL    HW117270   4.723   3.257  14.057 -0.1049 -0.0804  0.2810
 1878SOL    HW217271   4.718   3.251  14.207  1.0149  0.8721 -0.4800
 1879SOL     OW17272   1.881   4.433  17.490  0.3936 -0.0515 -0.1115
 1879SOL    HW117273   1.802   4.382  17.474 -0.5281  1.6271 -0.7729
 1879SOL    HW217274   1.855   4.524  17.480  1.1417  0.2690  0.7804
 1880SOL     OW17275   3.602   0.643  11.373  0.3583  0.0640  0.4002
 1880SOL    HW117276   3.543   0.574  11.342 -1.0951  1.2234  0.5817
 1880SOL    HW217277   3.585   0.646  11.467 -0.5052  1.3569  0.1977
 1881SOL     OW17278   4.466   1.022   6.633 -0.3879  0.0799  0.1798
 1881SOL    HW117279   4.431   1.093   6.578  0.1591  1.4483  1.5967
 1881SOL    HW217280   4.409   1.027   6.710 -0.6317 -3.2084  0.2050
 1882SOL     OW17281   4.020   0.206   5.920  0.8880 -0.0187  0.1303
 1882SOL    HW117282   3.967   0.242   5.848  0.3847 -0.7871  0.1219
 1882SOL    HW217283   4.064   0.132   5.879  2.7826  0.6638  0.9652
 1883SOL     OW17284   3.001   0.284  17.324 -0.1145 -0.3940 -0.2634
 1883SOL    HW117285   2.951   0.338  17.385  1.7999  2.2122 -0.9497
 1883SOL    HW217286   2.981   0.193  17.342 -0.7312 -0.7861 -2.9023
 1884SOL     OW17287   4.620   3.540   9.916 -0.2373  0.0803  0.4950
 1884SOL    HW117288   4.555   3.592   9.869  0.7047  1.2864  0.5338
 1884SOL    HW217289   4.612   3.465   9.857  0.9052  0.8595 -0.6161
 1885SOL     OW17290   4.419   0.068  16.482  0.2474  0.1400  0.6510
 1885SOL    HW117291   4.350   0.029  16.535  0.8036 -2.1395 -0.3129
 1885SOL    HW217292   4.429   0.154  16.524 -2.1757  0.6604  0.1420
 1886SOL     OW17293   0.626   1.390   7.532  0.2570 -0.2814 -0.0966
 1886SOL    HW117294   0.561   1.449   7.569  1.3693  0.0938  1.2814
 1886SOL    HW217295   0.705   1.441   7.552 -0.2801  0.5506 -0.0890
 1887SOL     OW17296   4.334   4.402  14.709 -0.1983 -0.2546  0.3207
 1887SOL    HW117297   4.352   4.492  14.737 -1.8218 -0.2230  1.2975
 1887SOL    HW217298   4.269   4.413  14.640 -1.9032  0.1941  1.9788
 1888SOL     OW17299   1.931   2.180   5.933  0.0408  0.6763 -0.3148
 1888SOL    HW117300   1.999   2.147   5.991  0.5295  0.1255 -1.1910
 1888SOL    HW217301   1.920   2.104   5.877  0.7956  1.1567 -1.1205
 1889SOL     OW17302   1.115   1.988   1.595  0.2318 -0.2973 -0.8210
 1889SOL    HW117303   1.171   2.002   1.671  0.2125  0.1412 -0.8864
 1889SOL    HW217304   1.107   1.894   1.582  0.2407 -0.5388  1.0025
 1890SOL     OW17305   2.952   1.347   3.430  0.5522 -0.0300  0.2318
 1890SOL    HW117306   2.937   1.440   3.446  1.0721 -0.2939  2.2459
 1890SOL    HW217307   2.880   1.322   3.373  1.2539 -0.1477 -0.6108
 1891SOL     OW17308   3.341   2.204   6.795  0.7757 -0.0850  0.2500
 1891SOL    HW117309   3.381   2.222   6.881 -0.4376 -1.1818  1.0420
 1891SOL    HW217310   3.320   2.287   6.752  0.2341 -0.0459  0.5952
 1892SOL     OW17311   0.793   1.149  10.986  0.0665  0.6951  0.2895
 1892SOL    HW117312   0.789   1.239  10.953 -2.7219 -0.5468 -2.7382
 1892SOL    HW217313   0.812   1.167  11.078 -1.2365  1.5887  0.3842
 1893SOL     OW17314   3.511   2.998  10.962  0.4839 -0.0498  0.4938
 1893SOL    HW117315   3.520   2.913  11.006 -0.1647 -0.4530 -0.1444
 1893SOL    HW217316   3.549   3.056  11.028 -2.4980 -0.2936  2.4351
 1894SOL     OW17317   2.447   3.236  13.586  0.2155 -0.5157  0.9740
 1894SOL    HW117318   2.532   3.279  13.581  0.3580 -0.9352 -0.0902
 1894SOL    HW217319   2.379   3.304  13.588  1.2454  0.5310  0.6245
 1895SOL     OW17320   4.615   1.009   0.856 -0.5505 -0.0358  0.3489
 1895SOL    HW117321   4.668   0.977   0.784  0.3655  0.2268  0.8931
 1895SOL    HW217322   4.524   1.008   0.827  0.0152  0.0045 -1.4179
 1896SOL     OW17323   3.609   2.102  14.791 -0.2849  0.6270 -0.5590
 1896SOL    HW117324   3.642   2.186  14.760  1.0182  0.3341  0.0106
 1896SOL    HW217325   3.649   2.040  14.730  1.9534 -1.1564  2.7256
 1897SOL     OW17326   4.083   3.593   8.810  0.2730 -0.4813 -0.4674
 1897SOL    HW117327   4.002   3.542   8.811  0.7545 -1.2386  0.4551
 1897SOL    HW217328   4.060   3.671   8.761  1.5618  1.2974  1.7447
 1898SOL     OW17329   1.805   3.726  12.140 -0.2194 -0.7060 -0.7736
 1898SOL    HW117330   1.873   3.794  12.139  0.4769 -1.4281 -2.4456
 1898SOL    HW217331   1.774   3.732  12.230  1.4359 -0.2391 -0.2407
 1899SOL     OW17332   1.796   3.838  16.369 -0.0788 -0.5829  0.4659
 1899SOL    HW117333   1.773   3.750  16.396  3.1509 -1.7392 -0.5580
 1899SOL    HW217334   1.807   3.879  16.455 -1.1334 -0.8759  0.7391
 1900SOL     OW17335   2.463   4.726   8.619  0.3114 -0.3635 -0.4262
 1900SOL    HW117336   2.443   0.079   8.600  0.3982 -0.5297 -1.3532
 1900SOL    HW217337   2.532   4.706   8.555 -0.8114  0.9938 -2.0785
 1901SOL     OW17338   1.799   4.156   1.027 -0.0105  0.2651  0.3048
 1901SOL    HW117339   1.811   4.183   1.118  2.4903 -1.2533  0.4239
 1901SOL    HW217340   1.764   4.067   1.033  2.5228 -0.6877  0.9464
 1902SOL     OW17341   3.668   0.653   1.900 -0.2696 -0.4916  0.2945
 1902SOL    HW117342   3.598   0.614   1.953 -0.4491 -2.4112 -1.3541
 1902SOL    HW217343   3.701   0.718   1.962  0.8376  0.3791 -1.2232
 1903SOL     OW17344   1.868   2.203   6.575 -0.4229 -0.9013  0.0251
 1903SOL    HW117345   1.927   2.273   6.603  0.0627 -0.8305 -1.2162
 1903SOL    HW217346   1.892   2.180   6.486 -1.3988 -1.8570  0.0100
 1904SOL     OW17347   3.623   3.546  11.763  0.1433  0.3196  0.0608
 1904SOL    HW117348   3.615   3.510  11.674 -0.8026  0.8230 -0.0503
 1904SOL    HW217349   3.562   3.619  11.757 -2.1769 -1.4513  1.8937
 1905SOL     OW17350   1.781   2.537  12.184 -0.3029 -0.0532  0.2855
 1905SOL    HW117351   1.788   2.606  12.117  1.3269  0.1184  0.6278
 1905SOL    HW217352   1.690   2.557  12.208 -0.3446 -1.2495  1.0789
 1906SOL     OW17353   4.726   1.958   8.202 -0.0988  0.3943 -0.1706
 1906SOL    HW117354   0.005   1.942   8.294 -1.6127  2.0727  0.4219
 1906SOL    HW217355   4.678   1.876   8.187  0.8249 -0.4374  1.5235
 1907SOL     OW17356   0.662   2.499  11.101  0.5211  0.5242  0.8158
 1907SOL    HW117357   0.582   2.550  11.089 -0.7588 -1.3984  1.1063
 1907SOL    HW217358   0.664   2.478  11.195 -0.7049 -1.7060  0.3602
 1908SOL     OW17359   1.537   1.799  14.782  0.0052 -0.1036 -0.4877
 1908SOL    HW117360   1.607   1.740  14.753 -0.4678 -1.0281  0.2857
 1908SOL    HW217361   1.558   1.838  14.867  1.7805 -0.9475 -0.5458
 1909SOL     OW17362   3.878   3.951   2.785  0.4249 -0.0347  0.1908
 1909SOL    HW117363   3.950   3.891   2.803  0.0014 -0.6892 -0.3310
 1909SOL    HW217364   3.906   3.999   2.707 -2.2909  0.8998 -0.2228
 1910SOL     OW17365   0.138   2.619   7.897  0.0896  0.3327 -0.0976
 1910SOL    HW117366   0.179   2.651   7.977 -0.1810 -3.3401  1.5212
 1910SOL    HW217367   0.063   2.678   7.892  0.5508  1.1372  2.7319
 1911SOL     OW17368   4.449   3.144   3.361  0.2647 -0.2672 -0.1910
 1911SOL    HW117369   4.445   3.082   3.288  2.1011 -1.3031  0.5972
 1911SOL    HW217370   4.535   3.126   3.398 -0.0021 -1.3363 -0.0913
 1912SOL     OW17371   0.138   1.666   5.390 -0.3870  0.0401 -0.0841
 1912SOL    HW117372   0.168   1.729   5.325  3.0886 -2.8395 -1.2165
 1912SOL    HW217373   0.075   1.621   5.333 -0.6475 -1.0359  1.0423
 1913SOL     OW17374   1.979   0.329   2.855  0.0347 -0.1265  0.0191
 1913SOL    HW117375   2.042   0.316   2.925  2.0280  1.1052 -1.5473
 1913SOL    HW217376   1.893   0.331   2.897 -0.4464  0.0631 -0.9584
 1914SOL     OW17377   0.577   2.664   3.348  0.2996  0.1747  0.1903
 1914SOL    HW117378   0.563   2.571   3.331  1.8756  0.0152 -0.2898
 1914SOL    HW217379   0.592   2.674   3.442  1.7283  0.8503 -0.1113
 1915SOL     OW17380   3.177   4.162  14.524  0.1524 -0.2129  0.0897
 1915SOL    HW117381   3.127   4.101  14.470  1.3642  0.0550 -1.2954
 1915SOL    HW217382   3.216   4.098  14.584 -0.9791 -1.3621 -0.4103
 1916SOL     OW17383   0.290   0.215   1.608 -0.1090  0.2578  0.2109
 1916SOL    HW117384   0.219   0.278   1.623 -0.0221  1.0033 -2.5234
 1916SOL    HW217385   0.312   0.187   1.697 -0.9795  1.2823  0.7477
 1917SOL     OW17386   3.788   4.404  15.701  0.2957 -0.4341  0.8078
 1917SOL    HW117387   3.756   4.488  15.737  0.8624 -0.2346  0.8411
 1917SOL    HW217388   3.850   4.423  15.631  0.7010  1.4865  1.6667
 1918SOL     OW17389   1.177   0.562   3.369  0.5727 -0.3915 -0.3397
 1918SOL    HW117390   1.089   0.565   3.331  0.5245 -1.1477 -0.2771
 1918SOL    HW217391   1.214   0.632   3.314  0.0115  0.0371 -0.1763
 1919SOL     OW17392   2.611   2.922   5.561  0.0225 -0.2461  0.1921
 1919SOL    HW117393   2.680   2.982   5.589 -0.9853  1.1097 -0.2556
 1919SOL    HW217394   2.605   2.956   5.471  0.9934 -1.1913 -0.2241
 1920SOL     OW17395   2.609   2.665  15.644 -0.2003 -0.3138  0.0171
 1920SOL    HW117396   2.631   2.583  15.688 -1.4165 -0.8558 -0.3790
 1920SOL    HW217397   2.650   2.733  15.698  0.5288 -0.1287 -0.7676
 1921SOL     OW17398   0.306   3.513   0.300  0.2978 -0.6546 -0.2889
 1921SOL    HW117399   0.251   3.548   0.230  0.7697  1.2070  0.2616
 1921SOL    HW217400   0.381   3.478   0.253  0.3035 -1.7071  0.5033
 1922SOL     OW17401   1.033   2.103   7.801 -0.0018 -0.5975  0.2078
 1922SOL    HW117402   0.944   2.070   7.809 -1.2381  2.7449  0.2868
 1922SOL    HW217403   1.062   2.076   7.713  1.8106 -1.3859  1.0355
 1923SOL     OW17404   1.278   2.781   2.704 -0.2454  0.3323  0.4956
 1923SOL    HW117405   1.363   2.751   2.672 -1.1997 -1.9164  0.0955
 1923SOL    HW217406   1.228   2.704   2.679 -0.9501  1.4487 -1.5286
 1924SOL     OW17407   1.762   2.875   1.158 -0.1621 -0.2962  0.3773
 1924SOL    HW117408   1.762   2.929   1.079  0.4555 -1.7282 -0.6050
 1924SOL    HW217409   1.711   2.930   1.218 -0.1633 -0.9663  0.9905
 1925SOL     OW17410   0.200   2.384   4.318  0.3422  0.6977  1.1325
 1925SOL    HW117411   0.247   2.321   4.372  0.3221  1.3774  1.9436
 1925SOL    HW217412   0.265   2.383   4.248  0.2431 -0.2533  1.0577
 1926SOL     OW17413   0.455   1.006   9.402  1.0146  0.7984  0.0005
 1926SOL    HW117414   0.487   1.036   9.488  0.1190  0.8931  0.2981
 1926SOL    HW217415   0.369   0.976   9.430  0.9070  2.4345  1.4218
 1927SOL     OW17416   0.555   3.310   6.495  0.5587 -0.4829 -0.0175
 1927SOL    HW117417   0.563   3.248   6.421  1.6777 -0.3435 -0.0164
 1927SOL    HW217418   0.548   3.390   6.443  1.0876 -0.2750  0.2270
 1928SOL     OW17419   2.946   4.431   7.704 -0.1223  0.4393 -0.2465
 1928SOL    HW117420   2.961   4.480   7.623 -2.1482  3.0032  0.9110
 1928SOL    HW217421   2.952   4.503   7.767  0.7635 -0.3529  0.5613
 1929SOL     OW17422   1.794   4.319   3.600  0.7201  0.3273  0.1976
 1929SOL    HW117423   1.847   4.265   3.542 -1.2047  0.2356 -1.4636
 1929SOL    HW217424   1.717   4.335   3.545  1.4579  1.5977 -0.4586
 1930SOL     OW17425   4.281   0.938   5.836 -0.1569  0.5162  0.1439
 1930SOL    HW117426   4.310   0.865   5.890 -2.1422 -0.1743  0.2582
 1930SOL    HW217427   4.321   0.928   5.749 -0.9719 -0.3374 -0.1266
 1931SOL     OW17428   2.484   2.015   2.753 -0.3199 -0.3516  0.0308
 1931SOL    HW117429   2.571   2.025   2.714  0.5831  1.8603  2.6395
 1931SOL    HW217430   2.494   1.930   2.795 -0.8885 -0.2761  0.3245
 1932SOL     OW17431   0.150   2.250   8.517 -0.3240  0.1314  0.0832
 1932SOL    HW117432   0.106   2.268   8.434 -1.4945  0.9014  0.8702
 1932SOL    HW217433   0.132   2.156   8.524 -1.3336  0.1277 -2.5188
 1933SOL     OW17434   3.935   1.986   9.880  0.3312  0.6728 -0.2144
 1933SOL    HW117435   3.897   2.003   9.793  0.3964  0.9546 -0.1883
 1933SOL    HW217436   3.862   1.965   9.937  0.3719 -1.7109 -1.0665
 1934SOL     OW17437   1.592   3.606  11.803 -0.1742  0.3272 -0.4601
 1934SOL    HW117438   1.608   3.696  11.774  0.0136  0.4722  0.0961
 1934SOL    HW217439   1.670   3.553  11.790  0.3563  0.7889  0.9043
 1935SOL     OW17440   0.457   3.450   3.320  0.0920  0.1221  0.5064
 1935SOL    HW117441   0.447   3.487   3.408 -3.3908  1.3886 -0.4424
 1935SOL    HW217442   0.548   3.470   3.296  0.3690  1.0087  2.2960
 1936SOL     OW17443   2.330   0.733  17.233  0.6390  0.1631  0.1885
 1936SOL    HW117444   2.413   0.778  17.217 -0.7663  2.3889 -0.9603
 1936SOL    HW217445   2.316   0.685  17.152  2.6671 -1.3416  0.7396
 1937SOL     OW17446   2.897   4.739  11.033 -0.1571  0.4465 -0.4159
 1937SOL    HW117447   2.941   0.084  11.032  0.2668  0.2180 -0.9346
 1937SOL    HW217448   2.956   4.690  10.976  1.0662 -0.6414  1.7776
 1938SOL     OW17449   2.172   0.329   0.575  0.0081  0.0404  0.5930
 1938SOL    HW117450   2.261   0.355   0.599 -0.2576 -0.4468  2.1162
 1938SOL    HW217451   2.140   0.409   0.534  3.0526  0.8506 -0.1899
 1939SOL     OW17452   4.309   0.624   6.622  0.1697 -0.9308 -0.8354
 1939SOL    HW117453   4.257   0.559   6.575 -2.3878  0.4370  0.1138
 1939SOL    HW217454   4.343   0.680   6.551  1.6167 -0.7495 -0.0145
 1940SOL     OW17455   1.362   2.530   3.395  0.2830 -0.4019 -0.0263
 1940SOL    HW117456   1.357   2.435   3.380 -1.4087 -0.6233  1.9475
 1940SOL    HW217457   1.309   2.547   3.472 -2.9008  0.0853 -2.3520
 1941SOL     OW17458   1.100   4.221  15.931 -0.0154  0.0706  0.4519
 1941SOL    HW117459   1.103   4.125  15.930  2.3676  0.1392  0.5844
 1941SOL    HW217460   1.188   4.234  15.965  0.0872  1.6844 -0.4598
 1942SOL     OW17461   1.923   1.658   6.530  0.3315  0.1129  0.8641
 1942SOL    HW117462   1.879   1.613   6.602 -1.5666 -2.2708 -1.8175
 1942SOL    HW217463   1.881   1.744   6.536 -1.3269 -0.7496  1.6263
 1943SOL     OW17464   2.285   1.569   8.679 -0.2932 -0.3066 -0.3567
 1943SOL    HW117465   2.250   1.657   8.692 -1.8521 -1.1366  1.0865
 1943SOL    HW217466   2.224   1.519   8.734 -0.0103  0.6909  0.8602
 1944SOL     OW17467   0.341   0.253   5.003 -0.1104 -0.2641 -0.1994
 1944SOL    HW117468   0.406   0.198   5.047  2.3199  3.4945  0.9322
 1944SOL    HW217469   0.361   0.344   5.025 -0.8748  0.0853 -0.9455
 1945SOL     OW17470   4.111   3.376  12.255  0.1802 -0.0464  0.1881
 1945SOL    HW117471   4.155   3.324  12.322 -0.2804 -0.8015 -0.1015
 1945SOL    HW217472   4.172   3.449  12.246  0.6928 -0.1904  2.4273
 1946SOL     OW17473   3.308   2.486   8.896  0.0309  0.0530 -0.0059
 1946SOL    HW117474   3.358   2.454   8.971  2.4517  2.0188 -0.7990
 1946SOL    HW217475   3.317   2.416   8.831 -0.5923  0.7651 -0.8525
 1947SOL     OW17476   0.040   4.136   1.942 -0.3071  0.4814 -0.1747
 1947SOL    HW117477   4.737   4.178   2.016 -0.6884 -2.7853  1.4209
 1947SOL    HW217478   0.083   4.063   1.987  2.0733  1.4621 -0.8053
 1948SOL     OW17479   4.179   0.340   6.138  0.2172 -0.6628  0.1677
 1948SOL    HW117480   4.089   0.336   6.170  0.0002 -2.4721 -0.6550
 1948SOL    HW217481   4.158   0.279   6.067 -2.3445 -1.3847  1.5435
 1949SOL     OW17482   1.152   3.002  11.368  0.0014 -0.2415 -0.0994
 1949SOL    HW117483   1.163   2.986  11.274  2.1868 -0.3813  0.1931
 1949SOL    HW217484   1.233   2.967  11.403  0.3632 -1.9013 -2.5295
 1950SOL     OW17485   2.717   1.823  14.878  0.6344  0.5158 -0.5994
 1950SOL    HW117486   2.698   1.912  14.849 -2.1579  0.5644  1.3585
 1950SOL    HW217487   2.771   1.844  14.955  1.6373 -0.2471 -1.0943
 1951SOL     OW17488   2.177   3.315   3.730 -0.1227  0.1531 -0.1123
 1951SOL    HW117489   2.199   3.226   3.705 -1.9559 -0.2294 -0.3576
 1951SOL    HW217490   2.081   3.313   3.724 -0.0704 -1.0251 -0.4868
 1952SOL     OW17491   3.264   3.960   1.378 -0.4197 -0.5905  0.2854
 1952SOL    HW117492   3.194   3.995   1.433 -1.2448 -1.0923 -0.4587
 1952SOL    HW217493   3.302   4.047   1.361  1.2365 -1.0395  1.7168
 1953SOL     OW17494   1.962   2.055   4.268  0.4257  0.2188  0.1624
 1953SOL    HW117495   2.039   2.096   4.229  0.0515 -0.6927 -1.5657
 1953SOL    HW217496   1.915   2.134   4.294  0.2110  0.8595 -2.1221
 1954SOL     OW17497   1.933   0.343  16.004  0.0784 -0.4188  0.3041
 1954SOL    HW117498   1.978   0.394  15.937 -0.6599  1.9006  1.5862
 1954SOL    HW217499   1.996   0.351  16.077 -0.1085 -0.9156  0.5234
 1955SOL     OW17500   4.678   2.151   6.186  0.7295  1.0520  0.6458
 1955SOL    HW117501   4.598   2.128   6.234 -0.0242  0.4173 -0.9411
 1955SOL    HW217502   4.685   2.244   6.205  0.0385  1.6349 -2.1078
 1956SOL     OW17503   0.453   3.301   7.548 -0.5397  0.3853  0.2226
 1956SOL    HW117504   0.459   3.221   7.601  3.2254 -0.8048 -1.9722
 1956SOL    HW217505   0.542   3.337   7.546 -0.6305  0.6164  0.3811
 1957SOL     OW17506   2.183   1.605   6.110 -0.1870  0.0731 -0.4940
 1957SOL    HW117507   2.124   1.587   6.183 -0.0964 -4.5666 -1.5632
 1957SOL    HW217508   2.259   1.644   6.153  0.7270 -0.8755 -1.2559
 1958SOL     OW17509   3.059   3.159   4.940 -0.4365 -0.0684 -0.2688
 1958SOL    HW117510   3.123   3.134   4.873 -1.7333  0.2743 -1.6285
 1958SOL    HW217511   3.023   3.242   4.908 -1.4572  0.3555  2.0043
 1959SOL     OW17512   3.144   0.925   5.715 -0.2350  0.9527 -0.2354
 1959SOL    HW117513   3.240   0.924   5.712 -0.3287  0.7774 -3.2946
 1959SOL    HW217514   3.123   0.831   5.718  0.0553  0.8331 -1.8826
 1960SOL     OW17515   1.939   1.358  10.600  0.4694  0.0784  0.1953
 1960SOL    HW117516   1.950   1.355  10.695  0.1904  0.1383  0.2298
 1960SOL    HW217517   1.902   1.445  10.587  0.6258  0.4846  2.4328
 1961SOL     OW17518   0.874   1.057   6.580  0.2495  0.3923  0.2713
 1961SOL    HW117519   0.918   1.070   6.496  2.3535  3.2297  1.7999
 1961SOL    HW217520   0.805   1.005   6.540  0.1004  1.1701 -0.4717
 1962SOL     OW17521   1.839   2.318   2.003 -0.2580 -0.5993 -0.1462
 1962SOL    HW117522   1.754   2.360   1.989 -0.0481 -1.0473 -2.7243
 1962SOL    HW217523   1.878   2.390   2.053 -2.3582  1.8772 -2.0642
 1963SOL     OW17524   1.325   4.163   8.366 -0.1800  0.2095 -0.9564
 1963SOL    HW117525   1.255   4.184   8.304 -0.1915  0.0941 -0.9824
 1963SOL    HW217526   1.304   4.077   8.402  1.2032  0.6294  0.8844
 1964SOL     OW17527   3.760   0.170   0.693 -0.4267 -0.1813  0.2165
 1964SOL    HW117528   3.758   0.238   0.625  0.9089 -1.9582 -1.6239
 1964SOL    HW217529   3.667   0.147   0.694 -1.0976  2.4373 -1.3965
 1965SOL     OW17530   4.727   3.502  14.538 -0.4187  0.1483  0.5286
 1965SOL    HW117531   0.004   3.588  14.577  2.3949 -0.4107  0.6190
 1965SOL    HW217532   0.033   3.443  14.599 -0.0611 -1.9246 -1.7345
 1966SOL     OW17533   2.597   1.941   7.787 -0.3782 -0.4988  0.1774
 1966SOL    HW117534   2.653   1.942   7.710 -1.1559  2.4155 -0.3643
 1966SOL    HW217535   2.545   2.021   7.782  0.1596 -0.1382  0.3721
 1967SOL     OW17536   3.377   0.816  15.559  0.2604  0.2673 -0.3700
 1967SOL    HW117537   3.469   0.790  15.557  0.4451  0.8369  0.6509
 1967SOL    HW217538   3.373   0.880  15.488  0.3547 -0.3687 -0.9459
 1968SOL     OW17539   3.380   2.358   7.977  0.0425 -0.0875  0.3644
 1968SOL    HW117540   3.426   2.302   7.914  0.8156  0.7770  0.1513
 1968SOL    HW217541   3.297   2.311   7.981 -1.3697  2.5670  2.3323
 1969SOL     OW17542   0.674   2.565   8.988  0.0565 -0.1070 -0.1052
 1969SOL    HW117543   0.702   2.519   8.909 -1.3221 -1.8271  0.4004
 1969SOL    HW217544   0.759   2.606   9.002 -0.0722 -0.0425  0.5009
 1970SOL     OW17545   0.985   2.636  14.204  0.0635  0.0979 -0.3168
 1970SOL    HW117546   0.893   2.623  14.182 -0.0673  1.8898 -0.8866
 1970SOL    HW217547   0.993   2.729  14.179  1.4734 -0.3395 -1.5110
 1971SOL     OW17548   2.439   2.036  12.135 -0.1008  0.4337 -0.3095
 1971SOL    HW117549   2.481   1.969  12.189 -0.9450 -0.0507 -0.2528
 1971SOL    HW217550   2.387   1.977  12.081  1.8985  1.1361 -2.9548
 1972SOL     OW17551   1.700   0.301   6.301 -0.8714 -0.4446  0.4605
 1972SOL    HW117552   1.724   0.256   6.382  2.2539 -0.3935 -0.4169
 1972SOL    HW217553   1.779   0.297   6.246 -2.0354 -0.7868 -1.1734
 1973SOL     OW17554   3.687   0.892  15.858  0.0971  0.3128 -0.1831
 1973SOL    HW117555   3.704   0.943  15.937 -0.0664 -0.8064  0.5760
 1973SOL    HW217556   3.651   0.968  15.813  0.1931 -0.7049 -1.9675
 1974SOL     OW17557   4.542   4.215   7.229  0.4172 -0.2812 -0.8783
 1974SOL    HW117558   4.596   4.195   7.153  2.7747  0.5457  0.6016
 1974SOL    HW217559   4.510   4.127   7.251  1.6403 -0.1480  1.4433
 1975SOL     OW17560   0.083   4.320  14.568  0.2347  0.2365  0.2620
 1975SOL    HW117561   0.139   4.259  14.520  0.3311  0.8035 -0.3338
 1975SOL    HW217562   0.035   4.259  14.624 -0.0014 -0.8540 -1.1355
 1976SOL     OW17563   1.235   1.024   0.828 -0.5820 -0.0478 -0.4508
 1976SOL    HW117564   1.222   1.093   0.894  1.9184  0.3972 -0.4450
 1976SOL    HW217565   1.330   1.023   0.815 -0.5830 -4.0618 -0.1781
 1977SOL     OW17566   4.201   2.967   9.270 -0.1605 -0.1546  0.4986
 1977SOL    HW117567   4.132   2.902   9.262  1.3004 -1.5750 -0.4610
 1977SOL    HW217568   4.210   3.002   9.181  0.1938 -1.7116 -0.0783
 1978SOL     OW17569   0.905   3.938   5.092  0.1028  0.3468 -0.7170
 1978SOL    HW117570   0.968   4.009   5.078 -0.0809  0.8051  0.7153
 1978SOL    HW217571   0.903   3.906   5.002 -0.2318  1.5606 -1.1402
 1979SOL     OW17572   1.293   2.362  10.159 -0.6880  0.6027 -0.1803
 1979SOL    HW117573   1.259   2.347  10.071 -1.9524 -0.4029  0.4810
 1979SOL    HW217574   1.342   2.443  10.146  0.1949  0.1990  0.6752
 1980SOL     OW17575   4.067   2.337   0.172  0.1047 -0.2155 -1.0681
 1980SOL    HW117576   4.141   2.284   0.143 -0.1079 -1.0149 -0.1570
 1980SOL    HW217577   4.112   2.410   0.215  0.7941 -1.2106 -0.1183
 1981SOL     OW17578   2.744   1.726   3.242  0.3145  0.3665  0.3235
 1981SOL    HW117579   2.728   1.640   3.204 -1.3131  0.3973  0.9850
 1981SOL    HW217580   2.652   1.751   3.234 -0.1208 -1.6272 -0.7427
 1982SOL     OW17581   4.114   4.393   0.491  0.1273  0.0918 -0.0024
 1982SOL    HW117582   4.167   4.336   0.546  1.4885  1.3268 -0.0279
 1982SOL    HW217583   4.162   4.366   0.412  0.9445 -0.5987  0.7385
 1983SOL     OW17584   0.826   4.135   4.834  0.3347 -0.7220 -0.8151
 1983SOL    HW117585   0.780   4.083   4.768 -0.6608 -1.1407  0.2047
 1983SOL    HW217586   0.809   4.227   4.812  2.2101  0.2192  1.6692
 1984SOL     OW17587   3.700   4.283  10.564 -0.1925  0.9568 -0.1233
 1984SOL    HW117588   3.694   4.357  10.625 -0.1415 -0.4349  1.5689
 1984SOL    HW217589   3.608   4.274  10.540 -0.1013  1.4511 -0.6604
 1985SOL     OW17590   1.936   1.141   9.547 -0.3751  0.7453  0.2042
 1985SOL    HW117591   1.902   1.059   9.584  0.7031  0.2236  0.0570
 1985SOL    HW217592   1.983   1.190   9.615 -0.8340  0.7968  0.4838
 1986SOL     OW17593   2.546   1.931   3.765  0.4429  0.4869  0.5938
 1986SOL    HW117594   2.541   1.990   3.690  0.8348  0.7237  0.7568
 1986SOL    HW217595   2.557   1.998   3.832 -1.4460  0.0157  1.3746
 1987SOL     OW17596   2.490   2.241   1.704  0.0691  0.0047  0.0503
 1987SOL    HW117597   2.515   2.313   1.647  0.6900 -1.7912 -1.9461
 1987SOL    HW217598   2.395   2.254   1.708  0.3407  2.3701 -1.3432
 1988SOL     OW17599   1.196   3.480  11.136 -0.3255  0.0060 -0.0263
 1988SOL    HW117600   1.206   3.410  11.201 -1.1126  0.7915  0.9420
 1988SOL    HW217601   1.172   3.544  11.203 -3.6975 -0.7450 -0.5228
 1989SOL     OW17602   1.694   0.700   2.380 -0.0750 -0.4029 -0.7558
 1989SOL    HW117603   1.632   0.720   2.310  2.3990  0.1432 -2.7899
 1989SOL    HW217604   1.681   0.606   2.378 -1.0449 -0.2807  0.1255
 1990SOL     OW17605   4.413   3.518   1.831  0.3102 -0.0244  0.2647
 1990SOL    HW117606   4.476   3.473   1.776  0.3326  2.0489 -1.4214
 1990SOL    HW217607   4.331   3.478   1.801  0.4757 -1.3480  1.5737
 1991SOL     OW17608   4.549   2.683   8.247 -0.5067 -0.0887  0.2142
 1991SOL    HW117609   4.514   2.651   8.164 -0.4780  0.2609  0.0656
 1991SOL    HW217610   4.641   2.666   8.228 -0.4408  1.0248 -0.4919
 1992SOL     OW17611   0.310   2.481  16.801  0.6107  0.1851 -0.2497
 1992SOL    HW117612   0.337   2.568  16.829  0.9564 -0.3933  1.2486
 1992SOL    HW217613   0.386   2.430  16.830  1.3141  0.5961 -1.3647
 1993SOL     OW17614   1.042   1.758   5.567 -0.1410  0.2245  0.3507
 1993SOL    HW117615   1.133   1.763   5.538 -1.1573  1.0749 -2.7660
 1993SOL    HW217616   1.047   1.675   5.615  1.7193  0.2179  0.1579
 1994SOL     OW17617   4.570   2.704   8.996  0.1541 -0.5019  0.5563
 1994SOL    HW117618   4.584   2.771   9.063  0.0991  0.7623 -0.6861
 1994SOL    HW217619   4.530   2.763   8.931 -0.5750 -2.0050 -0.3634
 1995SOL     OW17620   4.064   0.814   8.183 -0.3393  0.1237  0.1062
 1995SOL    HW117621   4.153   0.794   8.212  0.0926  0.9080 -0.6594
 1995SOL    HW217622   4.027   0.726   8.175  0.7241 -0.2191 -1.1489
 1996SOL     OW17623   3.151   4.021   6.716 -0.6250 -0.4769  0.7119
 1996SOL    HW117624   3.151   3.940   6.665  0.9956 -1.9416  3.0402
 1996SOL    HW217625   3.107   3.989   6.794  0.2776 -0.6783  1.1458
 1997SOL     OW17626   4.517   3.980   2.433  0.1090 -0.3416 -0.3586
 1997SOL    HW117627   4.473   4.031   2.364 -3.2972 -3.4040 -0.4822
 1997SOL    HW217628   4.493   3.890   2.411 -2.1522  0.4865 -1.3082
 1998SOL     OW17629   2.072   4.452   9.557 -1.1677  0.7310 -0.0510
 1998SOL    HW117630   2.122   4.530   9.580 -0.1671 -0.3041  1.2646
 1998SOL    HW217631   2.130   4.385   9.593 -0.3390  1.4578 -0.0470
 1999SOL     OW17632   4.259   1.899   4.572 -0.1021  0.7928 -0.0754
 1999SOL    HW117633   4.309   1.976   4.544  1.0082  0.1173  0.0939
 1999SOL    HW217634   4.294   1.886   4.660 -0.2583 -1.3206 -0.3337
 2000SOL     OW17635   1.303   2.955   4.383 -0.3256  0.6650 -0.5520
 2000SOL    HW117636   1.376   3.015   4.399 -0.4178  0.7916 -0.6162
 2000SOL    HW217637   1.304   2.910   4.468  3.9759  1.9600  0.1149
 2001SOL     OW17638   3.319   2.436   7.120 -0.0415  0.4497  0.6520
 2001SOL    HW117639   3.241   2.492   7.123  0.1530  0.7884 -0.8372
 2001SOL    HW217640   3.356   2.453   7.207 -0.0463 -0.0494  0.7511
 2002SOL     OW17641   4.709   0.472   6.056  0.1558  0.3429  0.1985
 2002SOL    HW117642   4.734   0.555   6.097  0.9988 -0.6933  1.7932
 2002SOL    HW217643   4.614   0.481   6.054 -0.0181 -1.9659 -2.1376
 2003SOL     OW17644   2.468   3.937   1.786 -0.0130  0.4758  0.6134
 2003SOL    HW117645   2.391   3.921   1.841 -0.4148  0.6392  0.1033
 2003SOL    HW217646   2.422   3.998   1.728 -0.8560  0.3180  1.1177
 2004SOL     OW17647   2.571   4.161   4.830 -0.0618 -0.3405 -0.2837
 2004SOL    HW117648   2.651   4.169   4.779  1.0419  0.6911  1.6220
 2004SOL    HW217649   2.517   4.111   4.769 -0.9214 -0.9019  0.9377
 2005SOL     OW17650   1.176   3.864  11.790  0.5064  0.2309  0.3945
 2005SOL    HW117651   1.216   3.939  11.747  0.9667 -0.1907  0.0909
 2005SOL    HW217652   1.164   3.908  11.874 -0.3676 -2.4320  1.6745
 2006SOL     OW17653   3.087   1.976   6.117  1.0168  0.4306  0.2243
 2006SOL    HW117654   3.125   2.039   6.179 -1.2920  0.5422  1.5244
 2006SOL    HW217655   3.141   1.901   6.141  0.7756  0.3430  0.4929
 2007SOL     OW17656   0.502   1.159   6.696 -0.0092  0.1410 -0.1522
 2007SOL    HW117657   0.419   1.117   6.674  0.0120 -0.7015  1.3922
 2007SOL    HW217658   0.488   1.174   6.790 -3.4070  2.4349 -0.9919
 2008SOL     OW17659   3.034   3.644   8.496 -0.1658 -0.3202 -0.5904
 2008SOL    HW117660   3.012   3.579   8.429 -1.8491  1.0421 -1.3633
 2008SOL    HW217661   3.128   3.629   8.484 -0.3289 -2.6329  0.9365
 2009SOL     OW17662   2.278   1.549   5.286  0.1590 -0.3919  0.1446
 2009SOL    HW117663   2.328   1.566   5.207 -0.0621 -1.0859 -0.1423
 2009SOL    HW217664   2.331   1.485   5.333 -0.8010 -0.1861  1.5045
 2010SOL     OW17665   4.025   0.974   7.182 -0.3806  0.1538  0.6689
 2010SOL    HW117666   4.106   1.024   7.193 -0.0890 -0.2127  0.1778
 2010SOL    HW217667   4.009   0.972   7.088  2.7374 -0.2283  0.1492
 2011SOL     OW17668   1.302   0.469  15.951  0.3354  0.3958  0.2092
 2011SOL    HW117669   1.295   0.383  15.991 -0.2933  0.3749  0.0610
 2011SOL    HW217670   1.242   0.520  16.007 -0.1842 -1.6286  1.4948
 2012SOL     OW17671   3.839   1.237   6.185 -0.3778 -0.2063  0.7972
 2012SOL    HW117672   3.921   1.253   6.232  0.9815 -1.5870 -1.1063
 2012SOL    HW217673   3.876   1.273   6.104 -1.4883 -0.8488  0.0097
 2013SOL     OW17674   0.511   1.425   6.262 -0.2555 -0.2156 -0.0529
 2013SOL    HW117675   0.444   1.492   6.279  3.1770  2.8090  1.5282
 2013SOL    HW217676   0.488   1.393   6.175 -1.9879 -1.4277  0.8546
 2014SOL     OW17677   4.114   4.452  13.919  0.4857 -0.2333 -0.3151
 2014SOL    HW117678   4.180   4.479  13.855 -0.1423  0.1926 -0.7796
 2014SOL    HW217679   4.063   4.385  13.874 -0.6074  0.7069 -0.4706
 2015SOL     OW17680   0.945   1.031   5.817  0.5150  0.1144 -0.4031
 2015SOL    HW117681   0.973   0.950   5.774  1.4358 -0.7723  1.8390
 2015SOL    HW217682   0.954   1.003   5.908 -0.4130  1.6790  0.1707
 2016SOL     OW17683   0.285   2.296   5.077  0.0357  0.6849 -0.4061
 2016SOL    HW117684   0.254   2.269   4.990 -0.3518 -0.2392  0.0208
 2016SOL    HW217685   0.372   2.335   5.063  0.1545  0.2971 -0.7473
 2017SOL     OW17686   2.946   2.699   4.253 -0.2430 -0.4451  0.3942
 2017SOL    HW117687   2.988   2.630   4.303 -3.0289 -1.3381  1.5238
 2017SOL    HW217688   2.935   2.655   4.169 -0.6742 -1.7966  1.1579
 2018SOL     OW17689   0.431   0.385  12.991 -0.1105  0.5485 -0.8353
 2018SOL    HW117690   0.492   0.312  12.984  0.9484  1.2850  0.7336
 2018SOL    HW217691   0.357   0.326  13.006  0.5554 -0.2260 -0.6225
 2019SOL     OW17692   3.502   2.986   3.552  0.0906  0.3129 -0.1447
 2019SOL    HW117693   3.561   2.963   3.480 -0.2793  1.1496 -0.7123
 2019SOL    HW217694   3.499   3.081   3.545  1.5814  0.3723 -0.1475
 2020SOL     OW17695   3.649   0.867   6.350 -0.2829 -0.0988 -0.1880
 2020SOL    HW117696   3.729   0.898   6.391 -1.2586  1.4109  0.5532
 2020SOL    HW217697   3.595   0.841   6.425 -0.6258  0.5547 -0.2113
 2021SOL     OW17698   4.019   4.694   4.247 -0.3268 -0.0075  0.2146
 2021SOL    HW117699   3.955   4.662   4.183 -0.0542  0.3050 -0.2114
 2021SOL    HW217700   3.969   4.670   4.326 -1.0353 -0.3354 -0.3301
 2022SOL     OW17701   4.052   1.786  16.845 -0.1836 -0.1709 -0.2577
 2022SOL    HW117702   4.009   1.802  16.929 -0.2164  0.6082 -0.4202
 2022SOL    HW217703   4.081   1.695  16.853  0.2899 -0.0075 -0.0511
 2023SOL     OW17704   3.890   3.352   4.779 -0.8360  0.5743  0.2026
 2023SOL    HW117705   3.925   3.420   4.721 -1.4413  0.9869  0.3213
 2023SOL    HW217706   3.820   3.402   4.823 -0.2234  0.9073  0.8023
 2024SOL     OW17707   3.626   2.293  16.912  0.2197 -0.6962 -0.2646
 2024SOL    HW117708   3.637   2.210  16.957  3.8426 -0.9987 -1.6627
 2024SOL    HW217709   3.570   2.257  16.844 -0.7256 -0.2392  0.2728
 2025SOL     OW17710   2.971   0.848   3.124  0.3793 -0.1199  0.0381
 2025SOL    HW117711   2.877   0.863   3.135  0.3323  1.8187 -2.8819
 2025SOL    HW217712   2.972   0.795   3.043  0.0751 -2.2622  1.4217
 2026SOL     OW17713   0.484   4.468  10.622 -0.5812 -0.1016 -0.1077
 2026SOL    HW117714   0.400   4.484  10.665 -1.1323 -1.2538 -0.7507
 2026SOL    HW217715   0.506   4.383  10.662  0.2382  0.9768  1.7818
 2027SOL     OW17716   0.172   0.559  16.837  0.1827 -0.4684 -0.1041
 2027SOL    HW117717   0.265   0.555  16.860 -0.0485 -2.6565  0.4382
 2027SOL    HW217718   0.179   0.541  16.743  0.1937  1.7725 -0.5549
 2028SOL     OW17719   1.153   0.332   9.890 -0.9580 -0.1870 -0.5694
 2028SOL    HW117720   1.115   0.313   9.804 -1.5570  0.5757 -0.4701
 2028SOL    HW217721   1.122   0.263   9.948 -0.0964 -1.3498 -1.4655
 2029SOL     OW17722   4.624   3.200   1.121 -0.2190  0.3345 -0.2388
 2029SOL    HW117723   4.703   3.193   1.174  0.2758 -1.3482 -1.1906
 2029SOL    HW217724   4.620   3.295   1.126  2.0726  0.3928  0.2385
 2030SOL     OW17725   2.125   2.946   6.500 -0.1209  0.1814 -0.4984
 2030SOL    HW117726   2.120   3.002   6.423  1.9596 -0.2120 -0.9241
 2030SOL    HW217727   2.040   2.902   6.500 -0.2561  0.4248  0.7509
 2031SOL     OW17728   1.600   3.428   1.787 -0.0811  0.3142  0.0675
 2031SOL    HW117729   1.558   3.380   1.716  0.6359 -1.4861  0.8799
 2031SOL    HW217730   1.515   3.429   1.831 -0.8827  2.0336 -1.5037
 2032SOL     OW17731   3.892   3.730  14.234  0.0193  0.3739  0.0590
 2032SOL    HW117732   3.983   3.745  14.262  1.0291 -4.0806 -0.7634
 2032SOL    HW217733   3.899   3.660  14.168 -0.2467 -2.1882  2.7193
 2033SOL     OW17734   4.388   3.591   7.619 -0.2637  0.1797 -0.4114
 2033SOL    HW117735   4.317   3.641   7.658 -0.0881 -0.4298  0.6760
 2033SOL    HW217736   4.345   3.580   7.534  0.9985 -0.9932 -0.8913
 2034SOL     OW17737   3.597   0.157   2.052 -0.2063  0.1018  0.1186
 2034SOL    HW117738   3.637   0.078   2.089 -2.0509 -1.5976 -1.5179
 2034SOL    HW217739   3.542   0.190   2.123 -1.0551  0.9364 -0.9108
 2035SOL     OW17740   2.500   3.238  11.120 -0.0148 -0.5073  0.6603
 2035SOL    HW117741   2.437   3.239  11.047  0.4458 -0.8398  0.2511
 2035SOL    HW217742   2.467   3.162  11.168  0.4341  0.0354  1.8168
 2036SOL     OW17743   2.277   2.788   7.153 -0.3979  0.5167 -0.1859
 2036SOL    HW117744   2.229   2.809   7.073  0.7259  1.5349 -0.6019
 2036SOL    HW217745   2.307   2.873   7.185  1.8586 -0.3840  0.1256
 2037SOL     OW17746   2.943   4.503  11.623  0.2556 -0.2262  0.1128
 2037SOL    HW117747   2.858   4.476  11.588  1.2195  0.0940 -2.4270
 2037SOL    HW217748   2.965   4.582  11.574  0.7809  0.2294  1.0743
 2038SOL     OW17749   1.927   2.817   1.832  0.0756 -1.0583 -0.0958
 2038SOL    HW117750   2.017   2.797   1.809 -0.4611 -2.0750 -1.3075
 2038SOL    HW217751   1.899   2.862   1.753 -0.1721 -1.5469 -0.2863
 2039SOL     OW17752   1.874   3.804   2.048 -0.1979  0.2048 -0.0543
 2039SOL    HW117753   1.840   3.844   2.128 -0.9148  0.7286 -0.6253
 2039SOL    HW217754   1.805   3.739   2.037 -0.7520  1.0733 -1.6485
 2040SOL     OW17755   2.393   2.357  14.253 -0.1521  0.1319 -0.3498
 2040SOL    HW117756   2.389   2.270  14.215 -0.3513  0.3922 -0.9276
 2040SOL    HW217757   2.485   2.374  14.233 -0.8616  1.3292 -2.6014
 2041SOL     OW17758   0.169   3.666  17.191  0.1539 -0.2520  0.7028
 2041SOL    HW117759   0.256   3.670  17.152 -0.0572 -0.7886  0.1792
 2041SOL    HW217760   0.144   3.757  17.178 -0.8880 -0.6495 -0.0817
 2042SOL     OW17761   3.063   0.449   9.416 -0.0732  0.3576  0.0300
 2042SOL    HW117762   3.069   0.540   9.442 -1.9663 -0.0240  1.8413
 2042SOL    HW217763   3.155   0.423   9.422 -0.2532 -0.5282 -0.9453
 2043SOL     OW17764   4.273   2.852  14.675  0.0688 -0.5527  1.2666
 2043SOL    HW117765   4.202   2.819  14.621 -1.2831  1.9166  1.5451
 2043SOL    HW217766   4.346   2.860  14.613  1.0937  1.0189  2.6644
 2044SOL     OW17767   2.253   2.309   5.411 -0.5577  0.3943  0.1780
 2044SOL    HW117768   2.260   2.244   5.480 -0.1518 -0.6768 -0.8792
 2044SOL    HW217769   2.330   2.281   5.362 -0.1628 -0.5886  1.3538
 2045SOL     OW17770   1.068   2.617   9.388 -0.0144 -0.7628  0.1748
 2045SOL    HW117771   1.001   2.626   9.457 -1.2722 -0.5559 -1.0679
 2045SOL    HW217772   1.127   2.684   9.423 -0.8913 -0.5700  1.2871
 2046SOL     OW17773   1.501   1.551   8.521 -0.4814  0.6086  0.5886
 2046SOL    HW117774   1.569   1.495   8.483 -2.5675 -0.6824 -1.2215
 2046SOL    HW217775   1.459   1.494   8.586 -0.4442  0.6503  0.6496
 2047SOL     OW17776   3.952   2.656   4.088 -0.6209  0.6490 -0.0743
 2047SOL    HW117777   3.951   2.717   4.015 -2.4330  0.0273 -0.5673
 2047SOL    HW217778   3.898   2.713   4.143 -2.2718 -1.3958  0.4223
 2048SOL     OW17779   2.339   0.753  17.508  0.2901  0.0600 -0.3173
 2048SOL    HW117780   2.337   0.847  17.523  1.4063  0.0451 -0.0881
 2048SOL    HW217781   2.332   0.752  17.412 -1.6263 -1.6607 -0.1504
 2049SOL     OW17782   0.520   3.988  16.352 -0.4395 -0.0556 -0.3746
 2049SOL    HW117783   0.523   3.893  16.335  2.6169  0.1510 -0.8515
 2049SOL    HW217784   0.596   4.016  16.301 -1.6636 -0.3233 -2.3644
 2050SOL     OW17785   4.395   3.129  16.327  0.9411  0.1198  1.0596
 2050SOL    HW117786   4.445   3.048  16.313 -0.1713 -0.1414 -1.3304
 2050SOL    HW217787   4.421   3.134  16.419 -0.7486  0.6484  1.5067
 2051SOL     OW17788   1.844   1.362   2.379  0.3890 -0.4596  0.3491
 2051SOL    HW117789   1.803   1.444   2.353  1.7077 -0.0621 -0.5065
 2051SOL    HW217790   1.928   1.373   2.333 -0.0305 -0.2685 -0.3737
 2052SOL     OW17791   2.193   1.000   5.273  0.0337  0.4728 -0.0983
 2052SOL    HW117792   2.185   0.925   5.214 -1.8026  0.6494 -0.0801
 2052SOL    HW217793   2.221   0.951   5.350  0.2885 -1.4075 -1.3940
 2053SOL     OW17794   1.923   3.385   1.520 -0.0098  0.0209 -0.6535
 2053SOL    HW117795   1.983   3.425   1.457  0.8473 -1.5845 -0.8547
 2053SOL    HW217796   1.880   3.314   1.472 -0.3114 -0.5725  0.4679
 2054SOL     OW17797   0.451   2.333   9.073 -0.5972  0.0585 -0.3477
 2054SOL    HW117798   0.456   2.308   9.165  1.2095 -1.7754 -0.9167
 2054SOL    HW217799   0.531   2.384   9.060  0.5928 -1.4551  0.9774
 2055SOL     OW17800   0.780   2.678   5.828 -0.2161 -0.1714 -0.1979
 2055SOL    HW117801   0.798   2.693   5.921 -0.9701 -1.0012  0.0807
 2055SOL    HW217802   0.740   2.591   5.822  0.3541 -0.2406 -2.8768
 2056SOL     OW17803   4.448   1.272  16.167  0.3528 -0.1926 -0.0085
 2056SOL    HW117804   4.415   1.348  16.118  0.2532 -1.0575 -1.2898
 2056SOL    HW217805   4.366   1.222  16.170 -0.2314  0.8162  0.6285
 2057SOL     OW17806   3.562   4.175   3.342 -0.0817  0.0530 -0.1901
 2057SOL    HW117807   3.587   4.253   3.392 -0.4866 -0.3255  0.6145
 2057SOL    HW217808   3.648   4.134   3.330 -0.1160 -0.0346 -0.1386
 2058SOL     OW17809   4.355   4.039   5.214 -0.2516  0.1122 -0.4465
 2058SOL    HW117810   4.306   4.020   5.294  0.9797  1.4494  0.6083
 2058SOL    HW217811   4.292   4.090   5.163  0.1474  1.1700  0.1136
 2059SOL     OW17812   0.265   1.107   3.069 -0.5545  0.4788  0.0032
 2059SOL    HW117813   0.201   1.120   3.139  0.8094 -0.4969  1.4133
 2059SOL    HW217814   0.228   1.170   3.007  2.5245  1.5747 -0.7255
 2060SOL     OW17815   0.345   3.297   5.038 -0.7975 -0.1949 -0.2938
 2060SOL    HW117816   0.410   3.266   5.102 -0.4864  1.9475  0.4090
 2060SOL    HW217817   0.296   3.217   5.017  1.5941 -1.9384  0.6858
 2061SOL     OW17818   4.666   2.182  13.722 -0.0228 -0.3427  0.2476
 2061SOL    HW117819   4.663   2.203  13.815  1.5095 -0.2748  0.2790
 2061SOL    HW217820   4.624   2.263  13.695  0.7090 -0.3452 -0.8880
 2062SOL     OW17821   4.301   2.758   9.596 -0.4317  0.5087 -0.0881
 2062SOL    HW117822   4.274   2.673   9.629  1.2483  0.3146  0.8036
 2062SOL    HW217823   4.388   2.765   9.635 -0.1702 -1.9065 -0.2499
 2063SOL     OW17824   1.827   1.933  17.570  0.1267 -0.2077 -0.2726
 2063SOL    HW117825   1.867   1.848  17.552 -1.4396 -1.2353  1.1009
 2063SOL    HW217826   1.908   1.983  17.563  0.0690 -0.2009 -0.8587
 2064SOL     OW17827   3.151   4.568   3.517  0.5305 -0.2973  0.2058
 2064SOL    HW117828   3.155   4.565   3.421 -0.0597  2.4951  0.0713
 2064SOL    HW217829   3.215   4.639   3.524  0.6981 -0.1706 -2.3747
 2065SOL     OW17830   0.342   3.378   9.116  0.0059 -0.0228  0.3248
 2065SOL    HW117831   0.310   3.310   9.057 -3.0116  2.7228 -1.2085
 2065SOL    HW217832   0.397   3.325   9.174  0.8548  1.9232  1.3097
 2066SOL     OW17833   2.403   3.224   9.423  0.4581 -0.0637 -0.0505
 2066SOL    HW117834   2.492   3.204   9.394  0.8351  0.3517  0.8214
 2066SOL    HW217835   2.405   3.318   9.404  0.2347  0.0726  0.5793
 2067SOL     OW17836   0.230   3.163   7.390  0.1304  0.2290 -0.1609
 2067SOL    HW117837   0.304   3.133   7.338  1.2068  1.2049  0.8045
 2067SOL    HW217838   0.254   3.250   7.422 -1.3222  0.1530  1.1879
 2068SOL     OW17839   2.541   2.692   7.149  0.2750 -0.2148 -0.4974
 2068SOL    HW117840   2.546   2.691   7.245  0.0154 -1.2779 -0.4914
 2068SOL    HW217841   2.448   2.715   7.138  0.1787 -0.3511  0.0306
 2069SOL     OW17842   0.765   2.312  13.584 -0.0974  0.2442 -0.2336
 2069SOL    HW117843   0.759   2.269  13.499  1.2621  0.8004 -0.6186
 2069SOL    HW217844   0.817   2.390  13.562  1.4365 -0.5784  0.4720
 2070SOL     OW17845   2.297   1.472   2.730 -0.3778 -0.9546 -0.1706
 2070SOL    HW117846   2.355   1.526   2.675 -1.8047 -0.0765 -0.8028
 2070SOL    HW217847   2.279   1.399   2.671  0.7782 -1.8343  0.5590
 2071SOL     OW17848   1.963   4.430   2.260  0.3831  0.1349 -0.2275
 2071SOL    HW117849   1.972   4.396   2.171  1.1182  0.1873 -0.1728
 2071SOL    HW217850   1.953   4.523   2.240 -1.1204 -0.0687 -0.4305
 2072SOL     OW17851   2.358   0.519   2.584  0.4925  0.2858  0.4648
 2072SOL    HW117852   2.293   0.480   2.643  2.6408 -0.3665  2.4077
 2072SOL    HW217853   2.418   0.448   2.565  0.3158  0.0017  0.9601
 2073SOL     OW17854   0.859   0.625   4.948  0.0321 -0.6999 -0.5323
 2073SOL    HW117855   0.882   0.710   4.910  0.1952 -0.6158 -0.2532
 2073SOL    HW217856   0.916   0.572   4.892  1.9140 -1.3789  1.9948
 2074SOL     OW17857   3.257   3.434   5.553  0.0738 -0.0542  0.5565
 2074SOL    HW117858   3.291   3.519   5.581 -0.6901  0.2499  0.5537
 2074SOL    HW217859   3.338   3.382   5.554  0.6302  0.7997 -0.3557
 2075SOL     OW17860   3.641   3.540   7.696 -0.2558  0.0172 -0.3984
 2075SOL    HW117861   3.559   3.491   7.686  0.2449 -1.3869  2.6197
 2075SOL    HW217862   3.624   3.619   7.645 -1.3755 -0.6278 -1.0197
 2076SOL     OW17863   3.619   1.992   7.658 -0.1581 -0.2618 -0.5566
 2076SOL    HW117864   3.602   2.019   7.568 -0.9661  1.4514  0.1160
 2076SOL    HW217865   3.596   1.899   7.651 -0.4657 -0.1866 -0.5697
 2077SOL     OW17866   3.130   4.585   5.316 -0.0720 -0.2431 -0.1385
 2077SOL    HW117867   3.077   4.506   5.307  2.8690 -2.3225  0.5375
 2077SOL    HW217868   3.193   4.578   5.243 -0.0695  2.4520 -0.3823
 2078SOL     OW17869   2.684   0.972   4.548 -0.2020 -0.6761  0.0109
 2078SOL    HW117870   2.595   0.950   4.519  1.1880 -3.0139 -2.4494
 2078SOL    HW217871   2.744   0.946   4.478  0.3877 -0.0005  0.2737
 2079SOL     OW17872   0.881   1.443   3.368 -1.0155  0.6440 -0.2646
 2079SOL    HW117873   0.930   1.505   3.422  0.9643 -1.6785  0.5926
 2079SOL    HW217874   0.893   1.357   3.410 -0.3883  0.4014 -0.9601
 2080SOL     OW17875   3.175   1.559   5.288 -0.6699 -0.4498  0.1671
 2080SOL    HW117876   3.263   1.574   5.254  0.1458 -0.6360  2.2383
 2080SOL    HW217877   3.152   1.634   5.342  0.5446 -0.5925  0.8592
 2081SOL     OW17878   2.676   1.701   4.474 -0.4966  0.3320 -0.2509
 2081SOL    HW117879   2.582   1.718   4.483 -0.6741 -1.6006  1.4835
 2081SOL    HW217880   2.678   1.606   4.470  1.6630  0.2803  1.6110
 2082SOL     OW17881   0.904   1.492   2.089  0.7893 -0.0888 -0.0151
 2082SOL    HW117882   0.992   1.459   2.071  1.0938 -0.0093  1.3402
 2082SOL    HW217883   0.857   1.431   2.033  0.2284 -1.3634  1.8604
 2083SOL     OW17884   2.514   4.144   8.378 -0.2182 -0.0466 -0.0223
 2083SOL    HW117885   2.539   4.166   8.288  0.6366 -0.4133  0.1285
 2083SOL    HW217886   2.429   4.189   8.386  0.5561  1.2497  0.9179
 2084SOL     OW17887   1.952   3.417  10.541  0.4799  0.4663 -0.5762
 2084SOL    HW117888   1.993   3.334  10.565  1.8433  1.0184 -1.0096
 2084SOL    HW217889   1.861   3.386  10.532  0.6452  0.5270 -2.4230
 2085SOL     OW17890   1.998   2.780  14.071  0.3816 -0.2341 -0.9476
 2085SOL    HW117891   1.919   2.831  14.054  1.0049  1.6513  1.9563
 2085SOL    HW217892   2.018   2.757  13.980 -1.5736 -0.1126 -1.3996
 2086SOL     OW17893   2.485   4.400   7.103  0.1670  0.1678  0.1357
 2086SOL    HW117894   2.390   4.402   7.113  0.2125 -0.8198  0.7947
 2086SOL    HW217895   2.529   4.394   7.188  0.8660 -1.9278 -0.3618
 2087SOL     OW17896   2.738   4.377   2.060  0.6348 -0.2556  0.4727
 2087SOL    HW117897   2.807   4.346   2.119  1.0586 -1.8759 -0.8511
 2087SOL    HW217898   2.734   4.310   1.991 -1.9315 -0.3002  0.6833
 2088SOL     OW17899   0.253   1.830   3.279 -0.6597 -0.2789  0.6608
 2088SOL    HW117900   0.243   1.892   3.207 -1.8216  0.2003  1.2365
 2088SOL    HW217901   0.311   1.875   3.341 -0.9389 -0.3003  0.9338
 2089SOL     OW17902   1.493   1.787   8.950  0.7233  0.0463 -0.4889
 2089SOL    HW117903   1.502   1.698   8.985  3.6799  0.6447  0.2741
 2089SOL    HW217904   1.423   1.770   8.888 -2.6260 -0.0617  3.3417
 2090SOL     OW17905   2.403   1.022   5.948  0.3278  0.0869 -0.1616
 2090SOL    HW117906   2.456   1.062   6.017  0.5837  1.5328 -1.1961
 2090SOL    HW217907   2.388   0.935   5.986 -1.2595 -0.0689 -1.1416
 2091SOL     OW17908   4.300   3.532   7.354 -0.1170 -0.3467 -0.1547
 2091SOL    HW117909   4.349   3.452   7.333  2.4689  1.2846 -0.3228
 2091SOL    HW217910   4.210   3.503   7.370  0.4148 -2.7103 -1.4394
 2092SOL     OW17911   4.659   0.989  17.089 -0.6016  0.0042 -0.7648
 2092SOL    HW117912   4.569   0.958  17.097  0.0712 -0.9072  2.8852
 2092SOL    HW217913   4.692   0.959  17.173 -0.5163  1.3598 -0.3245
 2093SOL     OW17914   3.760   1.063   5.398  0.0176 -0.0454  0.0220
 2093SOL    HW117915   3.686   1.109   5.438  2.5165  2.7173  1.4660
 2093SOL    HW217916   3.741   0.970   5.413 -2.1149  0.1192 -1.5962
 2094SOL     OW17917   1.818   4.434  14.209  0.2642 -0.0430  0.8650
 2094SOL    HW117918   1.811   4.489  14.286 -3.4078  0.5399  0.1045
 2094SOL    HW217919   1.905   4.454  14.173  0.6200 -1.3673  0.9814
 2095SOL     OW17920   3.331   0.698  17.189 -0.1189 -0.0690 -0.5255
 2095SOL    HW117921   3.311   0.607  17.207 -2.3644  0.5997  0.3140
 2095SOL    HW217922   3.365   0.720  17.276 -1.6310 -3.0483  0.8295
 2096SOL     OW17923   3.462   1.890  16.501 -0.2203  0.1899  0.3563
 2096SOL    HW117924   3.450   1.969  16.449 -0.8779 -1.2124 -1.6368
 2096SOL    HW217925   3.473   1.831  16.426 -0.9474 -0.2437  0.5925
 2097SOL     OW17926   1.226   3.648  11.940 -0.5419 -0.5859 -0.3968
 2097SOL    HW117927   1.217   3.720  11.878 -0.6468 -0.1165  0.1652
 2097SOL    HW217928   1.268   3.580  11.888 -0.1400 -0.1655 -0.6217
 2098SOL     OW17929   0.534   2.124   4.349  0.0757 -0.4048 -0.4112
 2098SOL    HW117930   0.447   2.115   4.312  0.1099  0.0427 -0.6077
 2098SOL    HW217931   0.516   2.149   4.439  1.3871  1.3395 -0.6262
 2099SOL     OW17932   4.336   4.062   2.235 -0.1021 -0.2013 -0.7597
 2099SOL    HW117933   4.381   4.021   2.162 -0.3589 -1.6618 -0.0909
 2099SOL    HW217934   4.283   4.133   2.200  2.1365  0.4711 -2.7352
 2100SOL     OW17935   2.324   1.453   0.551  0.1888 -0.0592  0.2706
 2100SOL    HW117936   2.289   1.373   0.511  2.6927 -1.2452  0.3818
 2100SOL    HW217937   2.414   1.423   0.566  0.1461  0.5594  1.7604
 2101SOL     OW17938   3.245   0.549   4.818  0.2134  0.1185 -0.6445
 2101SOL    HW117939   3.247   0.467   4.769 -2.0096 -0.9318  1.0487
 2101SOL    HW217940   3.241   0.516   4.908  2.0915  1.1357 -0.1860
 2102SOL     OW17941   3.821   0.354   6.699 -0.2793  0.3020 -0.2235
 2102SOL    HW117942   3.856   0.307   6.775 -0.9607  2.4641  1.4089
 2102SOL    HW217943   3.794   0.290   6.633 -0.1974  1.5736 -1.4609
 2103SOL     OW17944   2.512   1.057   5.322 -0.2767 -0.1214 -0.1658
 2103SOL    HW117945   2.564   0.978   5.329 -1.4142 -0.7251  1.6270
 2103SOL    HW217946   2.435   1.028   5.273 -0.3569  0.2177 -0.2430
 2104SOL     OW17947   3.701   2.656   3.465  0.8363  0.2828 -0.0567
 2104SOL    HW117948   3.757   2.727   3.434 -1.5078  2.5831  1.0198
 2104SOL    HW217949   3.721   2.645   3.557 -0.0450 -0.2495  0.0777
 2105SOL     OW17950   1.713   1.798   5.175  0.4613  0.0480 -0.2955
 2105SOL    HW117951   1.796   1.828   5.138 -1.1196  0.8375 -3.2419
 2105SOL    HW217952   1.652   1.854   5.127  0.4372  1.3732  1.3157
 2106SOL     OW17953   4.108   3.759   6.804  0.6339  0.4191  0.3120
 2106SOL    HW117954   4.075   3.849   6.804 -0.4326  0.0294  0.7930
 2106SOL    HW217955   4.034   3.707   6.836 -0.6895  2.9853  1.3825
 2107SOL     OW17956   4.639   2.925   2.118 -0.1281 -0.5250 -0.2167
 2107SOL    HW117957   4.574   2.870   2.161 -2.0628  1.8771 -0.1225
 2107SOL    HW217958   4.641   2.889   2.029  0.6126  2.2054 -1.2899
 2108SOL     OW17959   4.435   3.126   5.394  0.0667 -0.6782 -0.1233
 2108SOL    HW117960   4.508   3.173   5.354  1.1430 -2.5080 -0.3278
 2108SOL    HW217961   4.374   3.149   5.325 -1.7483  0.9045  2.0438
 2109SOL     OW17962   0.210   0.356  10.148  0.1611 -0.3878  0.3028
 2109SOL    HW117963   0.221   0.326  10.238 -2.3955 -1.0480  0.4100
 2109SOL    HW217964   0.301   0.347  10.120 -0.2393  1.5504 -1.6349
 2110SOL     OW17965   1.952   2.596  14.267 -0.4678 -0.0012  0.1674
 2110SOL    HW117966   1.902   2.649  14.328  2.3636  2.8502 -0.0068
 2110SOL    HW217967   1.969   2.662  14.200  0.9026 -0.7072 -0.1788
 2111SOL     OW17968   2.651   4.416   8.032  0.4480 -0.1707  0.0748
 2111SOL    HW117969   2.656   4.512   8.035 -0.5149 -0.1492  1.0432
 2111SOL    HW217970   2.652   4.392   7.940 -2.9169 -2.7692  0.7473
 2112SOL     OW17971   2.366   0.398   0.861  0.5260  0.6465 -0.3254
 2112SOL    HW117972   2.433   0.368   0.923  1.0100  0.8434 -0.7545
 2112SOL    HW217973   2.408   0.384   0.777  0.6579 -0.3182 -0.0912
 2113SOL     OW17974   2.328   1.469   2.153  0.6739 -0.0638  0.5023
 2113SOL    HW117975   2.374   1.548   2.179  1.2293  0.1478 -1.1347
 2113SOL    HW217976   2.358   1.455   2.063  0.1597  0.2410  0.2818
 2114SOL     OW17977   2.826   0.385   3.689  0.0375  0.1489  0.0977
 2114SOL    HW117978   2.820   0.464   3.743  1.4910  1.9093 -2.2707
 2114SOL    HW217979   2.822   0.421   3.600  0.1856 -1.4039 -0.5375
 2115SOL     OW17980   4.647   3.427   5.464  0.1565  0.3669 -0.5237
 2115SOL    HW117981   4.683   3.365   5.528 -0.9063 -0.5167 -0.7782
 2115SOL    HW217982   4.717   3.489   5.444  1.0299 -0.4568 -0.0630
 2116SOL     OW17983   1.275   2.769  11.683  0.2802 -0.0058  0.1387
 2116SOL    HW117984   1.283   2.689  11.631  0.9573  1.5496 -2.1421
 2116SOL    HW217985   1.185   2.798  11.668 -0.1618 -0.8762  1.0362
 2117SOL     OW17986   0.645   1.437   3.596  0.2793 -0.3868 -0.7191
 2117SOL    HW117987   0.651   1.382   3.518 -1.3621 -0.6281 -0.6702
 2117SOL    HW217988   0.552   1.424   3.615  0.3044 -0.2470 -0.5071
 2118SOL     OW17989   0.380   2.568  11.864  0.0307  0.0426  0.1919
 2118SOL    HW117990   0.327   2.522  11.928 -3.2728 -0.4874 -2.9511
 2118SOL    HW217991   0.419   2.491  11.822 -0.7242 -0.8317  1.0877
 2119SOL     OW17992   1.550   2.368   7.595 -0.2495 -0.3487  0.0921
 2119SOL    HW117993   1.562   2.290   7.540  0.3714  1.5671 -2.4792
 2119SOL    HW217994   1.632   2.360   7.644  0.4079 -0.5957 -1.0507
 2120SOL     OW17995   2.812   4.524   5.497  0.0519 -0.3069 -0.1049
 2120SOL    HW117996   2.751   4.534   5.570 -1.6383  0.9509 -1.6898
 2120SOL    HW217997   2.760   4.484   5.427  1.0236 -1.9132  0.0934
 2121SOL     OW17998   1.813   1.360   4.276  0.0369 -0.3639  0.4486
 2121SOL    HW117999   1.800   1.265   4.282 -0.6547 -0.2549  0.6059
 2121SOL    HW218000   1.905   1.370   4.248  0.1922  0.2506  1.1987
 2122SOL     OW18001   1.204   4.147   0.909 -0.6371 -0.0406 -0.0382
 2122SOL    HW118002   1.179   4.058   0.882 -0.4802 -0.0079 -0.2833
 2122SOL    HW218003   1.130   4.174   0.964 -0.2446  0.7311  0.1078
 2123SOL     OW18004   0.324   2.087   5.247 -0.2821 -0.2751 -0.0633
 2123SOL    HW118005   0.304   2.151   5.178 -0.2719  1.8037  1.8614
 2123SOL    HW218006   0.370   2.147   5.305 -0.5336 -0.0606 -0.0817
 2124SOL     OW18007   4.567   3.911  14.718 -0.1420 -0.0253 -0.2270
 2124SOL    HW118008   4.553   4.005  14.718 -2.4893 -0.3738  2.2101
 2124SOL    HW218009   4.487   3.866  14.746  1.6612 -1.3552  2.7684
 2125SOL     OW18010   2.466   0.968   4.075  0.6376  0.3158 -0.1762
 2125SOL    HW118011   2.497   0.883   4.044  1.2817  0.4708  0.0509
 2125SOL    HW218012   2.534   1.031   4.053 -2.0331  3.2720 -0.0971
 2126SOL     OW18013   3.125   0.111  16.964  0.3941 -0.6813 -0.2978
 2126SOL    HW118014   3.119   0.069  16.878  3.5846 -0.7111 -0.4997
 2126SOL    HW218015   3.085   0.198  16.956  1.3607 -0.3609 -1.5109
 2127SOL     OW18016   3.156   2.866   4.225  0.7466  0.5547  0.3084
 2127SOL    HW118017   3.090   2.798   4.211  1.7484 -0.2938 -0.3323
 2127SOL    HW218018   3.146   2.898   4.315 -0.4487  1.3025 -0.0990
 2128SOL     OW18019   1.251   0.598  10.275 -0.0812 -0.3668  0.5450
 2128SOL    HW118020   1.222   0.618  10.185 -1.5392  1.0571  1.3216
 2128SOL    HW218021   1.339   0.634  10.263 -1.7508  3.1971 -1.1585
 2129SOL     OW18022   4.007   0.199   4.428  0.1903  0.5346 -0.5429
 2129SOL    HW118023   4.017   0.103   4.431  2.7451  0.8500  0.9704
 2129SOL    HW218024   3.913   0.202   4.445 -0.0332 -1.8448 -1.3455
 2130SOL     OW18025   1.169   2.842  15.842 -0.0297 -0.0625 -0.1604
 2130SOL    HW118026   1.101   2.780  15.817 -0.9243  1.3184 -1.1520
 2130SOL    HW218027   1.217   2.787  15.905  0.6020  2.4282  1.5556
 2131SOL     OW18028   4.061   3.954   5.651  0.8494  0.1816  0.4086
 2131SOL    HW118029   4.039   4.046   5.638 -0.7280  0.0513  2.2020
 2131SOL    HW218030   4.014   3.940   5.733  0.1033  2.3820  0.3765
 2132SOL     OW18031   0.075   4.279  17.219  0.2717  0.4758 -0.8760
 2132SOL    HW118032   0.011   4.349  17.207  2.5937  2.6298 -0.6187
 2132SOL    HW218033   0.032   4.205  17.175 -1.7051  1.6918 -1.0249
 2133SOL     OW18034   3.438   3.541   8.755  0.4432  0.4217  0.2361
 2133SOL    HW118035   3.352   3.501   8.765  0.8769 -0.6283 -0.2134
 2133SOL    HW218036   3.484   3.488   8.820  1.1043  2.9080  1.8154
 2134SOL     OW18037   0.004   2.127   9.929  0.6026  0.0555 -0.3126
 2134SOL    HW118038   0.075   2.132   9.994  0.6225  1.2337 -0.4328
 2134SOL    HW218039   4.703   2.041   9.942 -3.2446  1.8911 -0.2928
 2135SOL     OW18040   0.344   1.222   3.441 -0.5000 -0.1475 -0.0146
 2135SOL    HW118041   0.363   1.280   3.515 -0.0244  1.5933 -1.4817
 2135SOL    HW218042   0.257   1.259   3.431  1.6364  5.0313  0.4537
 2136SOL     OW18043   3.246   3.681   8.161 -0.4294 -0.2403 -0.1880
 2136SOL    HW118044   3.273   3.589   8.150 -1.7027 -0.4040 -2.0298
 2136SOL    HW218045   3.263   3.694   8.254 -3.4912 -0.2377  0.3756
 2137SOL     OW18046   3.819   0.101   4.135  0.2089  0.2698  0.2674
 2137SOL    HW118047   3.839   0.162   4.207  0.4540  0.2534  0.2118
 2137SOL    HW218048   3.723   0.099   4.129  0.2474  0.5865 -0.4833
 2138SOL     OW18049   1.889   2.634   7.781 -0.0193  0.3719 -0.6016
 2138SOL    HW118050   1.834   2.617   7.704  0.5759 -1.1712 -0.6773
 2138SOL    HW218051   1.808   2.650   7.830 -0.3378  0.7411 -1.2439
 2139SOL     OW18052   4.371   3.261   7.341  0.3839 -0.0280  0.1184
 2139SOL    HW118053   4.406   3.266   7.430 -0.8240  0.1445  0.5951
 2139SOL    HW218054   4.291   3.211   7.360  2.2295 -2.6527  0.8645
 2140SOL     OW18055   3.477   3.263   5.576 -0.1998 -0.2261 -0.0591
 2140SOL    HW118056   3.548   3.316   5.612  1.1100 -1.7911 -0.2885
 2140SOL    HW218057   3.529   3.207   5.517  2.2132  1.6347  0.3198
 2141SOL     OW18058   4.701   4.570  14.521  0.2301  0.1862  0.5751
 2141SOL    HW118059   0.014   4.490  14.524  1.6770  1.0774 -0.6495
 2141SOL    HW218060   4.666   4.568  14.610  0.0869  0.8339  0.5349
 2142SOL     OW18061   4.534   2.892   6.793  0.1602  0.3398 -0.2066
 2142SOL    HW118062   4.613   2.916   6.840  0.3838 -2.8622  0.9883
 2142SOL    HW218063   4.550   2.936   6.709 -1.4835  0.8064 -0.2809
 2143SOL     OW18064   1.089   2.531  10.670  0.1882 -0.0410 -0.0345
 2143SOL    HW118065   1.017   2.573  10.624  0.3052  1.2645  0.9879
 2143SOL    HW218066   1.137   2.605  10.707  1.3050 -1.5426  1.5755
 2144SOL     OW18067   4.180   0.514  12.321 -0.5152  0.5573 -0.1062
 2144SOL    HW118068   4.162   0.518  12.227 -0.6386 -4.5281 -0.3223
 2144SOL    HW218069   4.111   0.577  12.343 -1.6484 -0.6197 -0.2625
 2145SOL     OW18070   0.071   1.507   3.641  0.3152 -0.0453 -0.2156
 2145SOL    HW118071   0.161   1.529   3.665 -0.1623  0.6797  0.8936
 2145SOL    HW218072   0.042   1.584   3.590  0.0459 -0.1350 -0.1997
 2146SOL     OW18073   1.914   1.738   7.383 -0.1887  0.1364  0.4392
 2146SOL    HW118074   1.829   1.698   7.402 -0.4830 -0.5107 -2.2090
 2146SOL    HW218075   1.934   1.770   7.471 -1.2419  0.2592  0.6316
 2147SOL     OW18076   1.733   1.389   8.483 -0.3559  0.1196 -0.3889
 2147SOL    HW118077   1.777   1.367   8.565 -0.0888  0.1335 -0.5260
 2147SOL    HW218078   1.712   1.302   8.450  3.3637 -1.6864  1.9983
 2148SOL     OW18079   1.510   1.309   8.199  0.0556 -0.1812  0.0900
 2148SOL    HW118080   1.440   1.316   8.264  1.2150 -1.4718  1.4777
 2148SOL    HW218081   1.566   1.243   8.241 -2.2238 -1.3898  1.2406
 2149SOL     OW18082   3.216   1.357   1.325 -0.0280  0.1817 -0.1819
 2149SOL    HW118083   3.233   1.356   1.420 -0.3665 -3.7640 -0.1655
 2149SOL    HW218084   3.240   1.267   1.307 -2.9720 -1.1434  2.4976
 2150SOL     OW18085   0.332   3.409   7.306  0.1610 -0.3001 -0.5532
 2150SOL    HW118086   0.394   3.394   7.378 -0.2500 -0.1799 -0.1744
 2150SOL    HW218087   0.378   3.360   7.238  0.0072  1.5657 -1.9685
 2151SOL     OW18088   2.892   0.688  12.465  0.3901  0.2525  0.0431
 2151SOL    HW118089   2.930   0.627  12.528  0.1883  0.3309  0.2405
 2151SOL    HW218090   2.878   0.757  12.529  1.0104 -0.1976  0.6615
 2152SOL     OW18091   4.265   3.734   2.662 -0.4533 -0.3485 -0.1838
 2152SOL    HW118092   4.282   3.682   2.584 -1.0909  0.0620 -0.5939
 2152SOL    HW218093   4.329   3.806   2.657 -0.1476 -0.5898  0.2212
 2153SOL     OW18094   3.159   0.454   7.275 -0.1164  0.3702  0.6922
 2153SOL    HW118095   3.081   0.479   7.324 -0.5155  2.7133 -1.1220
 2153SOL    HW218096   3.149   0.362   7.251 -1.1105  0.5629  0.3728
 2154SOL     OW18097   0.580   2.208   8.465  0.4775  0.0757  0.3315
 2154SOL    HW118098   0.594   2.258   8.385  3.3897 -0.5660  0.4450
 2154SOL    HW218099   0.625   2.128   8.437  0.6664 -0.1201  1.1990
 2155SOL     OW18100   3.926   3.419   8.393 -0.3433 -0.2536  0.2584
 2155SOL    HW118101   3.867   3.492   8.375  2.3916  2.4064  2.1884
 2155SOL    HW218102   3.934   3.384   8.304 -0.6273  1.2494 -0.3631
 2156SOL     OW18103   1.301   0.921   3.830 -0.0120  0.0075  0.2617
 2156SOL    HW118104   1.331   0.854   3.768  1.3414  1.0264 -0.1623
 2156SOL    HW218105   1.385   0.951   3.864 -1.5227  1.6924  2.4669
 2157SOL     OW18106   3.909   1.640   7.547  0.0364 -0.4520 -0.2367
 2157SOL    HW118107   3.835   1.683   7.505 -0.3114 -0.8540 -0.0390
 2157SOL    HW218108   3.910   1.686   7.631  1.1301 -0.5168 -0.2143
 2158SOL     OW18109   1.256   2.871   6.379 -0.2487 -0.0937  0.0468
 2158SOL    HW118110   1.259   2.842   6.288  2.1928 -0.7498  0.3581
 2158SOL    HW218111   1.166   2.905   6.371  0.0093 -0.1037 -2.6121
 2159SOL     OW18112   4.218   2.784   8.659 -0.9481 -0.0134  0.5545
 2159SOL    HW118113   4.294   2.824   8.701 -0.2195 -0.3179 -0.4632
 2159SOL    HW218114   4.248   2.694   8.643 -3.2340 -0.8333  0.9867
 2160SOL     OW18115   2.851   0.404   0.225 -0.2345  0.0289  0.2485
 2160SOL    HW118116   2.785   0.352   0.180 -0.3489  0.2682  0.1360
 2160SOL    HW218117   2.859   0.359   0.309 -0.1477 -2.0009 -0.8625
 2161SOL     OW18118   3.238   1.362  13.455  0.4071  0.4062 -0.3265
 2161SOL    HW118119   3.207   1.286  13.406 -1.9786  0.0935  1.7141
 2161SOL    HW218120   3.292   1.402  13.387  0.8604  0.5198  0.0921
 2162SOL     OW18121   0.593   0.949   2.244  0.2284 -0.0983  0.2526
 2162SOL    HW118122   0.557   0.860   2.245  0.4817 -0.2118 -0.3557
 2162SOL    HW218123   0.636   0.954   2.159 -0.2473  0.0829  0.0210
 2163SOL     OW18124   0.149   1.980   6.123  0.2406  0.3637 -0.5623
 2163SOL    HW118125   0.210   2.004   6.193 -0.8152 -1.1393  0.8800
 2163SOL    HW218126   0.081   2.048   6.123  1.5252  1.6359 -2.5483
 2164SOL     OW18127   2.713   1.889   4.136 -0.0130 -0.0934 -0.2433
 2164SOL    HW118128   2.718   1.820   4.069 -0.2667  0.6262 -0.9987
 2164SOL    HW218129   2.783   1.947   4.108  0.5658 -1.0768 -0.8619
 2165SOL     OW18130   3.056   2.746   4.839  0.3748 -0.4007  0.1020
 2165SOL    HW118131   2.977   2.712   4.797 -0.0320 -1.1943  1.5183
 2165SOL    HW218132   3.111   2.732   4.762 -0.1266  0.2391 -0.3724
 2166SOL     OW18133   1.278   4.241   3.015 -0.1218  0.4332 -0.4220
 2166SOL    HW118134   1.241   4.214   3.099  1.7672 -0.0579  0.2478
 2166SOL    HW218135   1.315   4.157   2.989  0.1329  0.0328  1.2386
 2167SOL     OW18136   1.281   2.009   3.650 -0.1399 -0.1769 -0.1215
 2167SOL    HW118137   1.371   2.041   3.661  0.2636 -1.6706  1.0088
 2167SOL    HW218138   1.297   1.917   3.627 -0.6218 -0.1863 -0.4092
 2168SOL     OW18139   4.260   3.807  17.298  0.1925  0.3906  0.3951
 2168SOL    HW118140   4.197   3.736  17.310  0.9167 -0.5420 -1.4114
 2168SOL    HW218141   4.224   3.834  17.214  0.5083 -1.2989 -0.2811
 2169SOL     OW18142   3.629   4.121   3.982  0.1239 -0.2020  0.8133
 2169SOL    HW118143   3.673   4.147   3.901  0.9945  1.3548  1.7932
 2169SOL    HW218144   3.607   4.209   4.013 -0.3300  0.2093 -0.7072
 2170SOL     OW18145   4.198   2.198   6.777  0.2434  0.1762  0.0281
 2170SOL    HW118146   4.245   2.278   6.801  0.4458  0.4938 -1.4618
 2170SOL    HW218147   4.114   2.212   6.821 -0.1172  2.2608 -1.3002
 2171SOL     OW18148   0.973   4.534  12.559 -0.1012 -0.6344 -0.6507
 2171SOL    HW118149   1.018   4.468  12.612 -0.2586 -0.0385  0.2240
 2171SOL    HW218150   0.990   4.502  12.470 -1.4163  0.3350 -1.2560
 2172SOL     OW18151   3.793   3.048  16.523 -0.1968  0.0437 -0.7001
 2172SOL    HW118152   3.764   2.963  16.489 -1.2941 -0.0648  0.4949
 2172SOL    HW218153   3.752   3.105  16.458 -0.4687 -0.0231 -0.5842
 2173SOL     OW18154   1.313   1.763   5.556  0.5058  0.4840 -0.0317
 2173SOL    HW118155   1.299   1.692   5.619 -4.9070  1.2584 -0.3503
 2173SOL    HW218156   1.370   1.713   5.498  0.1642 -0.6178  0.5817
 2174SOL     OW18157   4.648   0.313   4.788  0.3715  0.5512 -0.0578
 2174SOL    HW118158   4.715   0.245   4.787 -0.4532 -0.2718  0.2793
 2174SOL    HW218159   4.605   0.313   4.702 -1.9747  2.6358  1.1146
 2175SOL     OW18160   3.720   1.322   8.892  0.0669 -0.2860 -0.7643
 2175SOL    HW118161   3.659   1.315   8.819 -0.6174 -2.3000 -0.0161
 2175SOL    HW218162   3.662   1.300   8.965  0.5173 -1.3967 -0.7319
 2176SOL     OW18163   3.037   3.193   0.142  0.7046 -0.4905  0.1058
 2176SOL    HW118164   3.037   3.147   0.058  1.1238 -0.5562  0.1412
 2176SOL    HW218165   2.957   3.164   0.186 -1.0487  1.1868 -1.9911
 2177SOL     OW18166   0.702   2.285   6.608 -0.3596  0.1015 -0.1697
 2177SOL    HW118167   0.608   2.294   6.595 -0.7095  0.4037  2.7802
 2177SOL    HW218168   0.716   2.349   6.677  1.0403 -0.8465  0.4374
 2178SOL     OW18169   1.314   0.189  16.981 -0.3710 -0.1361 -0.5698
 2178SOL    HW118170   1.392   0.245  16.986 -2.2214  2.5369 -2.1993
 2178SOL    HW218171   1.327   0.132  16.905 -0.0895 -1.6142  0.5666
 2179SOL     OW18172   3.476   4.146  11.092  0.2598 -0.1528  0.1287
 2179SOL    HW118173   3.516   4.219  11.140 -0.4538  0.5862 -0.4117
 2179SOL    HW218174   3.405   4.196  11.051  1.4322 -1.0629 -3.0156
 2180SOL     OW18175   4.623   2.061   6.684  0.5225 -0.0969  0.4209
 2180SOL    HW118176   4.694   2.042   6.623  0.8282  2.1685  0.0642
 2180SOL    HW218177   4.621   1.975   6.725 -0.8906 -0.5883 -0.6993
 2181SOL     OW18178   0.878   3.548   4.725 -0.3605 -0.1354 -0.1055
 2181SOL    HW118179   0.949   3.498   4.766  1.5903  0.9624 -2.0994
 2181SOL    HW218180   0.889   3.534   4.631 -0.2157  1.4657 -0.3230
 2182SOL     OW18181   2.627   1.755   9.368 -0.6003  0.4016 -0.0365
 2182SOL    HW118182   2.600   1.666   9.347  1.0350 -0.2274  0.5332
 2182SOL    HW218183   2.612   1.764   9.462  0.2722 -2.7205  0.4096
 2183SOL     OW18184   2.385   2.950   0.011  0.4387 -0.3592  0.4694
 2183SOL    HW118185   2.356   3.023   0.065 -1.8769  0.4408 -1.8674
 2183SOL    HW218186   2.431   2.995  17.695 -1.0686  2.5085  1.3252
 2184SOL     OW18187   1.326   2.547   4.573  0.3307 -0.3940  0.6161
 2184SOL    HW118188   1.264   2.557   4.645  0.0418 -1.6122  0.5359
 2184SOL    HW218189   1.341   2.639   4.551 -3.3153 -0.0865 -0.6430
 2185SOL     OW18190   4.545   1.895   3.843  0.9053  0.2303  0.7096
 2185SOL    HW118191   4.607   1.968   3.835 -0.4215  1.1038 -1.5820
 2185SOL    HW218192   4.497   1.906   3.761  2.9318  1.1900 -0.3598
 2186SOL     OW18193   0.784   2.548   4.743 -0.8600 -0.5791  0.0837
 2186SOL    HW118194   0.753   2.463   4.712 -0.2484 -0.5480 -0.6046
 2186SOL    HW218195   0.730   2.604   4.689 -0.7912 -0.8773 -0.2939
 2187SOL     OW18196   0.011   4.586   8.085  0.0440 -0.3319  0.6497
 2187SOL    HW118197   4.735   4.584   7.991  0.7594 -0.1231  0.5291
 2187SOL    HW218198   0.012   4.496   8.116 -3.7764 -1.1176 -1.5491
 2188SOL     OW18199   4.267   3.926   4.836  0.2139 -0.2996 -0.1039
 2188SOL    HW118200   4.320   3.970   4.770  0.9248 -0.9980  0.0049
 2188SOL    HW218201   4.186   3.976   4.836  0.2961 -0.1700  0.8778
 2189SOL     OW18202   0.464   2.498   6.819  0.2481 -0.1187  0.2546
 2189SOL    HW118203   0.427   2.544   6.895  0.4942 -2.9652  2.0837
 2189SOL    HW218204   0.528   2.566   6.797 -1.0892  1.2839  0.6727
 2190SOL     OW18205   2.163   2.767  16.478 -0.7705 -0.1689  0.2419
 2190SOL    HW118206   2.126   2.854  16.492  0.0194  0.4309 -1.4746
 2190SOL    HW218207   2.200   2.743  16.563  0.0720 -0.6301 -0.2508
 2191SOL     OW18208   0.415   1.588   1.097  0.1821  0.2190 -0.3995
 2191SOL    HW118209   0.385   1.636   1.019  1.0533  2.0653  0.3911
 2191SOL    HW218210   0.463   1.511   1.068  1.0212  1.5318 -2.4826
 2192SOL     OW18211   4.553   1.700   8.239 -0.4690 -0.0070  0.2660
 2192SOL    HW118212   4.634   1.650   8.245 -0.1633  0.4635  0.0024
 2192SOL    HW218213   4.483   1.635   8.253 -1.1414  0.7173  0.2850
 2193SOL     OW18214   3.383   1.297  11.895  0.1708 -0.2370 -0.5254
 2193SOL    HW118215   3.331   1.292  11.814 -1.8204  0.5699  0.6998
 2193SOL    HW218216   3.468   1.298  11.852 -0.4322 -4.2587 -1.7737
 2194SOL     OW18217   4.645   2.637  16.618 -0.0626  0.7125  0.0319
 2194SOL    HW118218   4.563   2.600  16.649 -0.4429  0.7777 -0.8998
 2194SOL    HW218219   4.617   2.662  16.530 -1.0422 -0.2548  0.0734
 2195SOL     OW18220   2.236   3.682  16.141  0.7729  0.1723  0.7071
 2195SOL    HW118221   2.173   3.746  16.174 -0.3231  0.0362 -1.1088
 2195SOL    HW218222   2.191   3.656  16.060  0.5120 -0.6905  1.1419
 2196SOL     OW18223   4.324   1.795   4.815  0.1678  0.2673  0.5842
 2196SOL    HW118224   4.380   1.836   4.880 -0.0339  1.4263  0.0305
 2196SOL    HW218225   4.243   1.843   4.832 -0.4304 -1.1811  1.8701
 2197SOL     OW18226   3.352   4.177   4.742 -0.0541 -0.1941 -0.2539
 2197SOL    HW118227   3.345   4.123   4.821 -0.4756  2.3013  1.4274
 2197SOL    HW218228   3.445   4.200   4.732 -0.0371 -0.5781 -0.9845
 2198SOL     OW18229   0.677   1.852   3.338 -0.0621  0.8258  0.0940
 2198SOL    HW118230   0.639   1.785   3.282  0.0248  0.4234  0.5231
 2198SOL    HW218231   0.727   1.908   3.278  0.1139 -2.0959 -2.5112
 2199SOL     OW18232   3.567   1.932   5.830 -0.2484  0.9391  0.0351
 2199SOL    HW118233   3.513   1.939   5.909  0.6082 -2.1110  0.8654
 2199SOL    HW218234   3.538   2.016   5.794  2.8367  1.4682 -1.1701
 2200SOL     OW18235   1.020   4.045   3.880 -0.5338 -0.0875 -0.4321
 2200SOL    HW118236   1.008   4.104   3.806  1.6300 -0.1818 -0.8448
 2200SOL    HW218237   0.943   4.066   3.934 -0.6513  0.3195 -0.7635
 2201SOL     OW18238   0.636   0.218   7.414  0.0767 -0.3905  0.8503
 2201SOL    HW118239   0.693   0.289   7.443  0.1721  0.1426 -0.6564
 2201SOL    HW218240   0.590   0.266   7.345  0.0968 -1.8496 -0.2034
 2202SOL     OW18241   0.003   2.575   9.745  0.6853  0.0736  0.3426
 2202SOL    HW118242   0.089   2.579   9.787 -0.2727  2.6660  2.0743
 2202SOL    HW218243   4.706   2.487   9.744 -2.8717  1.5209  1.1971
 2203SOL     OW18244   3.492   0.509   4.238 -0.4088 -0.5219 -0.2008
 2203SOL    HW118245   3.473   0.545   4.152  0.0448 -1.8278 -0.8407
 2203SOL    HW218246   3.406   0.522   4.278 -0.2367 -0.9582  0.3197
 2204SOL     OW18247   2.539   1.760  16.727 -0.3436 -0.0075 -0.3455
 2204SOL    HW118248   2.631   1.788  16.726  0.1644 -1.8619 -4.2598
 2204SOL    HW218249   2.515   1.828  16.790  2.7704  1.7475 -1.0197
 2205SOL     OW18250   3.657   2.756   2.918 -0.6625  0.1813  0.6054
 2205SOL    HW118251   3.667   2.808   2.998  2.6701  2.8509 -1.5251
 2205SOL    HW218252   3.654   2.668   2.954 -0.5897  0.8369  2.2332
 2206SOL     OW18253   3.752   0.419   0.542  0.2916  0.4437  0.1855
 2206SOL    HW118254   3.667   0.427   0.499  0.7904  0.5911 -0.7660
 2206SOL    HW218255   3.803   0.496   0.519  1.1120 -0.3977 -0.7964
 2207SOL     OW18256   0.228   4.464   2.243  0.4098 -0.3702 -0.3694
 2207SOL    HW118257   0.246   4.380   2.286  1.3960  0.7202  1.3703
 2207SOL    HW218258   0.298   4.513   2.286 -1.6899  1.8844  0.5153
 2208SOL     OW18259   0.762   2.728   1.596 -0.1247  0.5003 -0.3140
 2208SOL    HW118260   0.689   2.782   1.627 -0.2693 -0.0786  0.3606
 2208SOL    HW218261   0.717   2.667   1.537 -1.7330  3.2248 -1.8851
 2209SOL     OW18262   0.751   0.178   6.216 -0.0038  0.3240  0.2875
 2209SOL    HW118263   0.789   0.239   6.279 -1.0855  0.5603  0.6992
 2209SOL    HW218264   0.797   0.200   6.135  1.4929 -0.9190  0.8059
 2210SOL     OW18265   4.602   1.285   5.241 -0.3178  0.3712 -0.0292
 2210SOL    HW118266   4.519   1.259   5.281  0.2849  0.8035  1.4928
 2210SOL    HW218267   4.657   1.211   5.266 -0.0342  0.1831 -1.1993
 2211SOL     OW18268   4.061   0.710   1.815  0.1014 -0.0643  0.0990
 2211SOL    HW118269   4.098   0.677   1.733  0.9612  0.0894  0.4212
 2211SOL    HW218270   4.043   0.798   1.782 -1.7703  0.4719  2.5574
 2212SOL     OW18271   4.118   4.549  17.687 -0.0584  0.1948  0.3814
 2212SOL    HW118272   4.097   4.459  17.661 -1.4475  0.9050 -0.9387
 2212SOL    HW218273   4.030   4.585  17.702  0.0298  0.4368  0.3222
 2213SOL     OW18274   2.612   4.082  11.187  0.0204  0.5791 -0.1948
 2213SOL    HW118275   2.688   4.108  11.136 -1.0914  1.8648 -1.1817
 2213SOL    HW218276   2.637   4.061  11.278  1.8386  0.4128 -0.7280
 2214SOL     OW18277   4.474   0.606   5.823 -1.1166  0.0572  0.4566
 2214SOL    HW118278   4.387   0.629   5.789  0.1734 -0.7448 -3.3762
 2214SOL    HW218279   4.450   0.515   5.839 -2.1874  0.5063  1.4908
 2215SOL     OW18280   0.321   0.071   6.734  0.4857  0.2561  0.0333
 2215SOL    HW118281   0.350   0.159   6.759 -2.4961  0.7397  1.8052
 2215SOL    HW218282   0.362   0.023   6.806  0.7693  2.3013  1.2468
 2216SOL     OW18283   4.200   4.562   0.226  0.2400  0.2590 -0.4816
 2216SOL    HW118284   4.147   4.483   0.218  0.3298  0.2910 -1.3987
 2216SOL    HW218285   4.209   4.579   0.132 -1.9783 -0.7907 -0.8913
 2217SOL     OW18286   2.350   2.602   7.873 -0.0562  0.5154 -0.6910
 2217SOL    HW118287   2.360   2.512   7.844 -4.5789 -0.1513 -0.2542
 2217SOL    HW218288   2.419   2.603   7.940 -0.5611 -0.0105 -0.1598
 2218SOL     OW18289   2.073   1.480   2.236  0.3896  0.1355  0.3666
 2218SOL    HW118290   2.069   1.569   2.272  0.5128  0.1141  0.4314
 2218SOL    HW218291   2.155   1.483   2.186 -1.0058 -0.2123 -1.9498
 2219SOL     OW18292   3.659   0.130   8.949 -0.2642  0.5908  0.0912
 2219SOL    HW118293   3.613   0.071   8.890  0.4466  1.1046 -0.9844
 2219SOL    HW218294   3.681   0.060   9.010  2.8261 -0.4039 -2.1869
 2220SOL     OW18295   4.246   2.773   2.577 -0.3340 -0.2164  0.1923
 2220SOL    HW118296   4.214   2.773   2.486  1.5868  0.3566 -0.4836
 2220SOL    HW218297   4.161   2.753   2.616 -0.6597  0.5908 -0.0980
 2221SOL     OW18298   0.233   2.247   3.162  0.0257 -0.2909 -0.7585
 2221SOL    HW118299   0.218   2.283   3.075  1.3083 -0.3399 -1.0024
 2221SOL    HW218300   0.325   2.263   3.182  0.0187 -1.7333  0.4541
 2222SOL     OW18301   2.312   0.930   6.926 -0.4750  0.4147 -0.8483
 2222SOL    HW118302   2.339   0.918   6.835 -1.3140 -0.7057 -0.9570
 2222SOL    HW218303   2.218   0.913   6.916 -0.7692  1.8429 -0.3987
 2223SOL     OW18304   2.373   3.622  10.444 -0.9488 -0.3552 -0.6872
 2223SOL    HW118305   2.286   3.626  10.482 -0.8099 -2.6549 -0.1098
 2223SOL    HW218306   2.427   3.680  10.498  0.0520 -0.2118 -1.8297
 2224SOL     OW18307   0.692   1.158   5.873 -0.0447 -0.5452  0.1382
 2224SOL    HW118308   0.714   1.244   5.910  3.0101 -1.3999  0.3104
 2224SOL    HW218309   0.778   1.135   5.838  0.5759 -0.0410  1.3278
 2225SOL     OW18310   3.596   3.496   3.614  0.4531 -0.7194  0.4570
 2225SOL    HW118311   3.612   3.581   3.572 -1.0864 -1.2348 -1.1587
 2225SOL    HW218312   3.515   3.514   3.661  1.0972  0.1670  1.2270
 2226SOL     OW18313   0.686   3.107  14.180 -0.4490  0.5764  0.0321
 2226SOL    HW118314   0.591   3.099  14.177 -0.2577 -2.3617  1.4427
 2226SOL    HW218315   0.713   3.022  14.144 -0.7394  0.1646  0.7897
 2227SOL     OW18316   2.340   4.374   1.942 -0.1746  0.0204  0.3787
 2227SOL    HW118317   2.310   4.459   1.912  0.9358  0.3483  0.2204
 2227SOL    HW218318   2.292   4.313   1.885  2.4903 -2.2674  0.5779
 2228SOL     OW18319   1.838   3.998   7.674  0.6804  0.0978  0.4921
 2228SOL    HW118320   1.907   4.020   7.611 -1.9708  0.0626 -2.4005
 2228SOL    HW218321   1.870   3.917   7.712  0.1146 -0.4681 -0.2393
 2229SOL     OW18322   2.732   4.145   3.339 -0.7873 -0.4878  0.0859
 2229SOL    HW118323   2.682   4.191   3.406 -1.7032 -0.1430 -0.8559
 2229SOL    HW218324   2.773   4.086   3.403  0.0732  0.2354  0.1990
 2230SOL     OW18325   3.562   4.417   7.952 -0.0213 -0.2890 -0.4457
 2230SOL    HW118326   3.539   4.489   8.011 -0.2957  0.5740 -1.6073
 2230SOL    HW218327   3.601   4.352   8.011  1.6883 -0.2343 -1.5235
 2231SOL     OW18328   3.118   2.312  11.493  0.3207 -0.2858 -0.0581
 2231SOL    HW118329   3.185   2.375  11.520  1.1630 -0.7619 -1.0547
 2231SOL    HW218330   3.080   2.365  11.423  1.2948 -0.7260 -0.9154
 2232SOL     OW18331   2.539   3.027   1.264  0.4145  0.0626 -0.2626
 2232SOL    HW118332   2.584   3.112   1.266 -0.3145  0.4849 -1.2118
 2232SOL    HW218333   2.475   3.048   1.195  1.1883 -0.2688 -1.0901
 2233SOL     OW18334   4.482   1.233   8.146  0.0704  0.2683  0.4362
 2233SOL    HW118335   4.391   1.246   8.123  0.4661 -0.6210 -1.5418
 2233SOL    HW218336   4.518   1.319   8.123  0.2121 -0.3868 -1.7712
 2234SOL     OW18337   3.774   2.384   7.904  0.1364 -0.1142 -0.2675
 2234SOL    HW118338   3.699   2.424   7.860  0.0140  2.0670  1.9009
 2234SOL    HW218339   3.808   2.456   7.958 -1.3258 -1.0475  1.9016
 2235SOL     OW18340   2.364   2.748  11.809  0.3089  0.4106  0.1837
 2235SOL    HW118341   2.271   2.745  11.831 -0.3653 -0.2454 -2.7787
 2235SOL    HW218342   2.396   2.715  11.893 -0.7130 -1.2137 -0.0633
 2236SOL     OW18343   0.418   2.121   6.046  0.1565 -0.0945 -0.5725
 2236SOL    HW118344   0.447   2.045   6.098  2.8399  0.1662 -1.6946
 2236SOL    HW218345   0.392   2.084   5.962  1.2502 -2.0975 -0.0258
 2237SOL     OW18346   3.681   1.529   5.644  0.2258  0.1821 -0.3061
 2237SOL    HW118347   3.610   1.584   5.677  0.9545  1.3468 -0.6564
 2237SOL    HW218348   3.644   1.470   5.579 -2.1544 -0.3023  1.4744
 2238SOL     OW18349   0.207   3.015   5.892  0.1911  0.4007 -0.5643
 2238SOL    HW118350   0.156   2.959   5.950 -0.0334  1.4410  0.2167
 2238SOL    HW218351   0.147   3.089   5.886  0.4144  0.5534 -0.9356
 2239SOL     OW18352   2.199   0.168   8.339 -0.2077  0.2428  0.2873
 2239SOL    HW118353   2.164   0.096   8.287  1.9493 -0.0493 -0.7607
 2239SOL    HW218354   2.123   0.186   8.394 -0.8785  0.6928 -0.7900
 2240SOL     OW18355   2.795   4.257  17.218 -0.0071  0.9780  0.1040
 2240SOL    HW118356   2.725   4.320  17.201  0.1253  1.0643 -0.1205
 2240SOL    HW218357   2.812   4.262  17.313  0.9883  1.1568 -0.0800
 2241SOL     OW18358   4.542   2.953   2.439 -0.3996  0.7101  0.1900
 2241SOL    HW118359   4.497   2.870   2.457 -2.2946  1.3266 -1.7820
 2241SOL    HW218360   4.601   2.979   2.510  1.5904 -1.8570 -0.5285
 2242SOL     OW18361   4.656   0.838   9.341  0.4285  0.4290 -0.6085
 2242SOL    HW118362   4.605   0.838   9.260  0.7917  0.3645 -0.8330
 2242SOL    HW218363   4.625   0.763   9.391  0.0367  2.2441  1.8865
 2243SOL     OW18364   3.953   0.569   8.116 -0.4441  0.1621 -0.4642
 2243SOL    HW118365   3.861   0.570   8.142  0.1410 -2.5317  1.6984
 2243SOL    HW218366   3.935   0.545   8.025 -0.3090  2.1940 -1.0217
 2244SOL     OW18367   1.813   4.499   3.333 -0.3208 -0.2404 -0.2726
 2244SOL    HW118368   1.808   4.589   3.300 -0.8606  0.0475  0.5633
 2244SOL    HW218369   1.896   4.505   3.380 -1.6823  1.1001  2.0208
 2245SOL     OW18370   3.228   0.111  12.863 -0.0115 -0.1906  0.0717
 2245SOL    HW118371   3.233   0.015  12.867 -1.4259 -0.3035 -1.1125
 2245SOL    HW218372   3.283   0.144  12.934 -1.8271 -0.1911  1.4797
 2246SOL     OW18373   1.971   1.346   5.093  0.4154  0.1428  0.1578
 2246SOL    HW118374   1.991   1.420   5.036 -1.8946  0.7222  0.0934
 2246SOL    HW218375   2.060   1.316   5.110 -0.6926 -1.8958  2.4205
 2247SOL     OW18376   0.483   1.899   9.626  0.1188 -0.7288 -0.4532
 2247SOL    HW118377   0.428   1.917   9.703  0.6662 -1.9162  0.2194
 2247SOL    HW218378   0.525   1.984   9.614  0.9361 -0.9505  0.8775
 2248SOL     OW18379   0.299   1.053  15.000  0.0260 -0.0905 -0.1776
 2248SOL    HW118380   0.256   1.129  15.038  2.6501  1.9201 -1.2540
 2248SOL    HW218381   0.287   1.073  14.907  0.7498  1.3312  0.0327
 2249SOL     OW18382   1.767   1.927   2.588 -0.5667 -0.2341  0.0593
 2249SOL    HW118383   1.783   1.917   2.682  1.2314  1.6763 -0.0424
 2249SOL    HW218384   1.793   2.018   2.569  1.4357 -0.8696 -0.1818
 2250SOL     OW18385   1.553   4.298   8.046  0.3275  0.5974  0.2620
 2250SOL    HW118386   1.586   4.382   8.017  1.9069 -0.3896 -0.7984
 2250SOL    HW218387   1.596   4.246   7.978 -0.6937  0.2541 -0.1243
 2251SOL     OW18388   4.463   2.909   3.176  0.2712 -0.6762 -0.5123
 2251SOL    HW118389   4.508   2.912   3.092 -0.1275 -2.3157 -0.7956
 2251SOL    HW218390   4.484   2.823   3.212 -3.9739 -1.8615 -0.8988
 2252SOL     OW18391   1.181   4.454  17.033 -0.3743 -0.0074  0.3861
 2252SOL    HW118392   1.203   4.392  17.102 -1.7173 -0.2010  0.6447
 2252SOL    HW218393   1.085   4.461  17.026 -0.4279  2.1365  3.1429
 2253SOL     OW18394   3.044   2.010   8.181 -0.1522  0.0803 -0.2838
 2253SOL    HW118395   2.981   1.938   8.179  1.0130 -0.9388 -1.0907
 2253SOL    HW218396   3.120   1.954   8.200  0.8449  1.7773  0.7085
 2254SOL     OW18397   0.395   3.386   6.140  0.2989  0.2848 -0.3958
 2254SOL    HW118398   0.436   3.415   6.221  0.2431 -0.8019  0.0172
 2254SOL    HW218399   0.472   3.356   6.092  0.0460 -0.3401 -0.4103
 2255SOL     OW18400   3.438   3.129   6.168  0.5358 -0.4145  0.2723
 2255SOL    HW118401   3.515   3.103   6.217 -0.4424 -0.7728  1.6311
 2255SOL    HW218402   3.418   3.049   6.120 -0.3185  0.1276 -0.2744
 2256SOL     OW18403   4.016   3.164  16.615 -0.3652  0.4191 -0.2970
 2256SOL    HW118404   4.019   3.168  16.519  0.2151  0.7742 -0.2617
 2256SOL    HW218405   3.927   3.129  16.619  0.6434 -2.0840  0.5172
 2257SOL     OW18406   0.638   2.111  13.082  0.3272  0.5871 -0.5711
 2257SOL    HW118407   0.702   2.182  13.068 -0.5600  1.4677 -0.1858
 2257SOL    HW218408   0.618   2.130  13.173  0.1093 -0.8876 -0.3145
 2258SOL     OW18409   3.213   3.728   6.266 -0.0536 -0.3158  0.0950
 2258SOL    HW118410   3.194   3.818   6.239  2.8253  0.5955  1.1253
 2258SOL    HW218411   3.129   3.688   6.241 -0.4865  0.2033  0.7239
 2259SOL     OW18412   2.347   4.555   5.476  0.0619 -0.2771  0.0590
 2259SOL    HW118413   2.267   4.596   5.444  0.7711 -0.0731 -1.4623
 2259SOL    HW218414   2.306   4.498   5.542  2.6154 -1.8288  0.2997
 2260SOL     OW18415   1.181   0.590   5.103  0.3688 -0.0715 -0.5346
 2260SOL    HW118416   1.126   0.668   5.104  1.6741  0.8630 -1.1882
 2260SOL    HW218417   1.185   0.581   5.008  2.2070 -0.1632 -0.4641
 2261SOL     OW18418   4.228   1.824  12.483 -0.2435 -0.1838 -0.0458
 2261SOL    HW118419   4.169   1.752  12.504 -1.6344  0.8799 -0.2053
 2261SOL    HW218420   4.180   1.889  12.534  0.1820  0.7258 -0.7855
 2262SOL     OW18421   0.839   0.976   3.535 -0.1556  0.0727 -0.1368
 2262SOL    HW118422   0.859   1.065   3.561  0.5213 -0.5413  1.4434
 2262SOL    HW218423   0.831   0.994   3.441  0.5650 -0.2237 -0.2525
 2263SOL     OW18424   2.006   0.279   4.564  0.0052  0.5982  0.3278
 2263SOL    HW118425   1.958   0.207   4.525 -0.0583  0.0595  1.3919
 2263SOL    HW218426   2.090   0.240   4.589  1.2887  0.8656 -3.4868
 2264SOL     OW18427   2.930   0.473  12.652  0.0361 -0.5913 -0.1327
 2264SOL    HW118428   2.929   0.383  12.686 -0.2706 -0.3097  0.6103
 2264SOL    HW218429   2.877   0.523  12.714 -1.9660 -2.1928 -0.5551
 2265SOL     OW18430   4.169   4.128   3.693 -0.0803 -0.0715  0.3361
 2265SOL    HW118431   4.158   4.081   3.610  1.8474 -0.3732  0.2419
 2265SOL    HW218432   4.080   4.161   3.700  0.1927  1.4298 -3.1142
 2266SOL     OW18433   1.005   3.231  14.587 -0.2114 -0.2673  0.4302
 2266SOL    HW118434   1.025   3.161  14.525 -0.6044  1.0295 -1.1628
 2266SOL    HW218435   1.039   3.304  14.535  0.7919 -0.7723  0.3775
 2267SOL     OW18436   0.454   2.305  11.772  0.7617  0.5203 -0.5542
 2267SOL    HW118437   0.517   2.243  11.735 -0.4085 -1.1149  0.1785
 2267SOL    HW218438   0.389   2.308  11.702  0.3914  2.7575 -0.0918
 2268SOL     OW18439   4.472   3.673   2.436  0.1463 -0.0518 -0.0890
 2268SOL    HW118440   4.431   3.706   2.356 -1.3506 -0.6960  0.4117
 2268SOL    HW218441   4.550   3.628   2.405 -0.1334  0.5875 -1.7653
 2269SOL     OW18442   2.528   1.153   2.317  0.1176 -0.0585 -0.2417
 2269SOL    HW118443   2.559   1.153   2.408  0.4624  0.0940 -0.3605
 2269SOL    HW218444   2.566   1.235   2.286 -3.1152  1.9448  1.0583
 2270SOL     OW18445   1.192   0.507  17.077 -0.1153 -0.2017 -0.3014
 2270SOL    HW118446   1.162   0.528  16.989 -0.0933  1.1574  0.0148
 2270SOL    HW218447   1.171   0.587  17.126  0.2967  0.3476 -1.0183
 2271SOL     OW18448   3.689   1.879   2.866  0.0622 -0.0795  0.3741
 2271SOL    HW118449   3.597   1.904   2.874  0.5214  1.7882 -0.2018
 2271SOL    HW218450   3.693   1.790   2.833 -0.2196 -0.5151  1.5165
 2272SOL     OW18451   3.389   2.317   2.381  0.4769  0.4903 -0.4842
 2272SOL    HW118452   3.348   2.279   2.303  0.2323  0.3810 -0.2990
 2272SOL    HW218453   3.352   2.281   2.461 -0.8357  0.9667 -0.8886
 2273SOL     OW18454   2.520   2.315  11.670  0.1049  0.1781 -0.2007
 2273SOL    HW118455   2.458   2.386  11.650 -1.5573 -1.1754  0.2296
 2273SOL    HW218456   2.507   2.300  11.763 -0.3906  1.6139 -0.0316
 2274SOL     OW18457   4.478   0.322   2.913  0.2477  0.2759  0.1226
 2274SOL    HW118458   4.516   0.362   2.991 -0.5908  0.3603  0.4908
 2274SOL    HW218459   4.557   0.289   2.870  0.6464 -0.2630  1.2786
 2275SOL     OW18460   3.106   3.158   2.421 -0.6502 -0.0955 -0.5079
 2275SOL    HW118461   3.094   3.178   2.328 -0.7119 -1.6814 -0.8393
 2275SOL    HW218462   3.118   3.245   2.458  2.9482  1.2111 -4.6345
 2276SOL     OW18463   2.981   0.859   5.370 -0.3407  0.3453  0.5071
 2276SOL    HW118464   3.005   0.941   5.412 -0.3506  1.2053 -1.2052
 2276SOL    HW218465   3.038   0.795   5.414 -0.8535 -2.2273 -2.6300
 2277SOL     OW18466   0.918   2.650   0.678 -0.0314 -0.0668 -0.8687
 2277SOL    HW118467   0.971   2.583   0.634 -0.3529 -0.6538 -0.3647
 2277SOL    HW218468   0.839   2.637   0.627  0.4419  1.1115 -1.8947
 2278SOL     OW18469   3.430   1.199   7.767 -0.3600  0.0278  0.0807
 2278SOL    HW118470   3.396   1.263   7.705 -0.2205 -1.4735 -1.5375
 2278SOL    HW218471   3.524   1.192   7.749 -0.4346 -0.1362 -0.2427
 2279SOL     OW18472   2.580   4.341  10.462 -0.0492  0.4329 -0.4259
 2279SOL    HW118473   2.600   4.410  10.399 -0.2737 -1.0677 -2.1474
 2279SOL    HW218474   2.505   4.298  10.420 -2.5119  1.9224  2.4610
 2280SOL     OW18475   1.088   3.259  11.909 -0.5350 -0.0890  0.1286
 2280SOL    HW118476   1.058   3.169  11.924  0.9250 -0.8017 -1.3423
 2280SOL    HW218477   1.044   3.273  11.826  0.0509  0.8722 -0.0191
 2281SOL     OW18478   4.577   1.272   9.512  0.1272 -0.2936  0.1920
 2281SOL    HW118479   4.504   1.316   9.468  0.1768 -0.5856 -0.1790
 2281SOL    HW218480   4.631   1.241   9.440 -1.2027  0.1421 -0.9818
 2282SOL     OW18481   2.766   2.745   9.316  0.8012 -0.3368 -0.1807
 2282SOL    HW118482   2.806   2.748   9.230  2.5132 -1.5454  0.5636
 2282SOL    HW218483   2.798   2.658   9.343 -1.0829 -0.8012  0.5966
 2283SOL     OW18484   2.904   2.642   8.392  0.5344  0.0201 -0.5751
 2283SOL    HW118485   2.914   2.732   8.424  2.5118 -0.0613 -0.9697
 2283SOL    HW218486   2.918   2.606   8.479 -0.0505  1.6311  0.1929
 2284SOL     OW18487   4.657   2.720   5.823  0.2224  0.0350 -0.3517
 2284SOL    HW118488   4.616   2.776   5.757  0.8956 -2.1730 -2.6623
 2284SOL    HW218489   4.682   2.781   5.892 -1.0183  0.3190 -0.1562
 2285SOL     OW18490   0.021   0.899   8.124  0.6415 -0.4984 -0.1939
 2285SOL    HW118491   0.082   0.927   8.193 -0.1758 -0.8006  0.6469
 2285SOL    HW218492   0.064   0.818   8.099  0.9109 -0.0826 -1.0822
 2286SOL     OW18493   1.823   4.038   4.350 -0.4447 -0.4119 -0.2321
 2286SOL    HW118494   1.728   4.044   4.357 -0.3777 -0.1575  0.3961
 2286SOL    HW218495   1.851   4.129   4.340  0.4620 -0.8798 -2.0099
 2287SOL     OW18496   2.800   1.326   2.456 -0.4553  0.0875  0.1830
 2287SOL    HW118497   2.881   1.370   2.430 -0.7160  0.7263  0.4557
 2287SOL    HW218498   2.747   1.347   2.379 -1.7318  0.8662  1.2872
 2288SOL     OW18499   4.390   1.315   6.872 -0.2451 -0.3857 -0.1715
 2288SOL    HW118500   4.345   1.392   6.907 -0.6150 -0.6168 -0.1449
 2288SOL    HW218501   4.353   1.242   6.922 -0.5609  0.1563  0.3949
 2289SOL     OW18502   3.653   2.832   8.308 -0.3987  0.1858 -0.2002
 2289SOL    HW118503   3.647   2.829   8.404  1.4893  3.2008  0.0059
 2289SOL    HW218504   3.670   2.739   8.296  0.2221  0.2760  0.0147
 2290SOL     OW18505   2.975   2.623   4.011  0.5051 -0.2168 -0.3206
 2290SOL    HW118506   2.922   2.552   3.974 -0.4647  0.5441 -0.3964
 2290SOL    HW218507   2.952   2.689   3.946 -0.6650 -2.0686 -1.7929
 2291SOL     OW18508   2.174   4.658   9.722  0.3947 -0.0413 -0.2505
 2291SOL    HW118509   2.123   4.590   9.764  0.0230  0.2280 -0.2592
 2291SOL    HW218510   2.250   4.665   9.779  2.1353  0.1408 -2.5608
 2292SOL     OW18511   0.354   1.853  15.893  0.2805 -0.2777  0.1862
 2292SOL    HW118512   0.428   1.804  15.858 -0.4585 -0.6344 -0.8522
 2292SOL    HW218513   0.392   1.911  15.960 -1.2462  1.3113 -0.3279
 2293SOL     OW18514   1.518   1.509   8.011  0.2051 -0.1944 -0.0486
 2293SOL    HW118515   1.501   1.463   8.093  1.2177  0.1627  0.3674
 2293SOL    HW218516   1.556   1.590   8.045 -1.0076  0.6705 -0.7796
 2294SOL     OW18517   1.613   4.118   5.298  0.0433 -0.1156 -0.1731
 2294SOL    HW118518   1.528   4.155   5.321  1.0386  1.7682  0.5154
 2294SOL    HW218519   1.590   4.058   5.227 -3.3116  1.9762 -0.8697
 2295SOL     OW18520   1.882   2.474   6.735  0.4483 -0.2063  0.6202
 2295SOL    HW118521   1.830   2.491   6.656  1.6901 -3.0649 -0.8205
 2295SOL    HW218522   1.813   2.500   6.796  1.0431  0.3080  1.0676
 2296SOL     OW18523   4.110   2.162   5.266  0.4216  0.7527 -0.1670
 2296SOL    HW118524   4.085   2.147   5.357  1.8068  0.1546  0.1213
 2296SOL    HW218525   4.062   2.240   5.240  1.6909  1.7447  0.4257
 2297SOL     OW18526   3.568   0.095   8.550  0.3620 -0.3745  0.2779
 2297SOL    HW118527   3.517   0.057   8.622 -0.6070 -0.6385 -0.5440
 2297SOL    HW218528   3.580   0.022   8.490 -1.2117 -0.5057  0.1254
 2298SOL     OW18529   0.547   2.696   2.071 -0.3135  0.3321 -0.4301
 2298SOL    HW118530   0.633   2.707   2.111  0.2648 -1.0423 -1.2877
 2298SOL    HW218531   0.509   2.614   2.103  1.6145 -1.0233 -1.6132
 2299SOL     OW18532   3.109   0.482   0.120  0.0044 -0.2539  0.0899
 2299SOL    HW118533   3.101   0.505   0.028 -0.4481 -1.7415 -0.2480
 2299SOL    HW218534   3.031   0.427   0.128  1.3029 -2.5089 -2.9190
 2300SOL     OW18535   3.444   1.577   9.459  0.3718  0.4652 -0.3439
 2300SOL    HW118536   3.409   1.526   9.386 -3.7124  0.8119  1.3505
 2300SOL    HW218537   3.528   1.612   9.429  0.8556  0.3576  0.8727
 2301SOL     OW18538   4.119   0.321   9.040  0.1838 -0.7657 -0.5879
 2301SOL    HW118539   4.119   0.263   8.964  0.5578 -2.2877  0.5724
 2301SOL    HW218540   4.027   0.346   9.053  0.0636 -0.6391 -1.6689
 2302SOL     OW18541   4.234   2.202   5.942 -0.3677 -0.8278 -0.3116
 2302SOL    HW118542   4.232   2.239   6.030  2.0381 -1.7664  0.1375
 2302SOL    HW218543   4.143   2.212   5.915  0.0790 -0.3751 -1.6362
 2303SOL     OW18544   0.546   4.335   7.376 -0.1668  0.1095 -0.3236
 2303SOL    HW118545   0.640   4.334   7.358  0.4730  0.9498  2.9592
 2303SOL    HW218546   0.533   4.429   7.378 -1.7319 -0.1015 -1.1691
 2304SOL     OW18547   1.078   1.963  15.154 -0.1403 -0.0502 -0.3827
 2304SOL    HW118548   1.117   1.971  15.241 -0.9042  0.5184 -0.0903
 2304SOL    HW218549   1.120   2.036  15.109 -0.4156  0.8712  0.8488
 2305SOL     OW18550   0.013   1.297   3.474  0.7060  0.1148  0.3550
 2305SOL    HW118551   0.030   1.361   3.543  0.0809  0.1406  0.4860
 2305SOL    HW218552   0.011   1.215   3.524  2.4288  0.4480  0.9744
 2306SOL     OW18553   0.950   2.657  15.790 -0.2262  0.1436  0.0995
 2306SOL    HW118554   0.982   2.573  15.823 -1.1992  0.4508  1.8469
 2306SOL    HW218555   0.894   2.634  15.716  0.1706  2.3055 -0.8888
 2307SOL     OW18556   1.172   0.456  13.435  0.3903 -0.0277 -0.7934
 2307SOL    HW118557   1.108   0.473  13.366  1.1107  0.2986 -1.3860
 2307SOL    HW218558   1.125   0.402  13.499  0.4340  1.3785  0.4141
 2308SOL     OW18559   4.630   0.958   4.980  0.2597  0.4907 -0.2002
 2308SOL    HW118560   4.569   1.031   4.986 -1.9702 -1.1757 -2.6754
 2308SOL    HW218561   4.624   0.929   4.889  0.5532 -0.1825 -0.0012
 2309SOL     OW18562   3.126   2.319  14.311 -0.1344 -0.3912 -0.2864
 2309SOL    HW118563   3.063   2.252  14.339 -2.0806  1.8453  0.7281
 2309SOL    HW218564   3.085   2.383  14.370  0.3742 -2.1490  1.9923
 2310SOL     OW18565   3.588   2.270   3.919 -0.1152  0.2006  0.1730
 2310SOL    HW118566   3.559   2.203   3.857 -1.0818  0.9103 -0.1493
 2310SOL    HW218567   3.635   2.329   3.859 -0.1205  2.2627  2.1806
 2311SOL     OW18568   4.215   4.244   7.078  0.1675 -0.0378  0.2616
 2311SOL    HW118569   4.302   4.263   7.043 -0.0314  0.5361  0.0743
 2311SOL    HW218570   4.243   4.250   7.169  0.0676 -2.4451  0.4548
 2312SOL     OW18571   4.530   3.164   0.159 -0.7100 -0.3288  0.3429
 2312SOL    HW118572   4.528   3.093   0.095 -0.8594 -1.9474  2.1285
 2312SOL    HW218573   4.458   3.221   0.133 -0.2371 -0.6681 -1.6463
 2313SOL     OW18574   1.084   4.678   3.415  0.4318  0.0247 -0.8069
 2313SOL    HW118575   1.118   4.606   3.361  0.6103  0.1384 -0.8488
 2313SOL    HW218576   1.008   4.706   3.365  0.9623 -0.1517 -1.7162
 2314SOL     OW18577   2.924   0.086   4.323 -0.0664 -0.5484 -1.1872
 2314SOL    HW118578   2.930   4.736   4.291  1.3202 -1.5901  1.9895
 2314SOL    HW218579   3.011   0.123   4.311 -0.4034  0.1403 -1.5192
 2315SOL     OW18580   0.079   2.215   2.018 -0.2585 -0.3359 -0.1421
 2315SOL    HW118581   0.063   2.252   2.105  1.5408  1.9862 -0.8055
 2315SOL    HW218582   0.043   2.276   1.954  1.4278  1.7119  0.8419
 2316SOL     OW18583   4.391   4.009  17.068 -0.9174 -0.2381 -0.0118
 2316SOL    HW118584   4.327   3.980  17.003  0.6017 -0.4380 -1.4347
 2316SOL    HW218585   4.337   4.030  17.144 -0.6030 -0.0643  0.1640
 2317SOL     OW18586   2.712   1.467   8.600  0.4760 -0.0979  0.0636
 2317SOL    HW118587   2.647   1.408   8.638  1.9606 -0.3834  2.1409
 2317SOL    HW218588   2.758   1.403   8.545  1.6785  0.3875  0.5121
 2318SOL     OW18589   3.943   2.284   2.132  0.1705  0.0449  0.0750
 2318SOL    HW118590   3.989   2.288   2.049 -0.4632 -0.6527 -0.3084
 2318SOL    HW218591   3.935   2.375   2.161  2.8098  0.3398 -0.1553
 2319SOL     OW18592   2.223   0.589  15.240  0.2100 -0.2640 -0.2333
 2319SOL    HW118593   2.266   0.513  15.200 -1.8621 -1.1408 -0.8040
 2319SOL    HW218594   2.282   0.658  15.209 -1.6165 -0.1779 -3.4738
 2320SOL     OW18595   3.606   3.732   1.917  0.7478 -0.3183  0.7075
 2320SOL    HW118596   3.545   3.660   1.903 -1.3335  1.7315 -0.6819
 2320SOL    HW218597   3.560   3.811   1.890  0.2703 -0.9691 -0.3859
 2321SOL     OW18598   3.113   3.875   2.857  0.0677  0.0557 -0.1389
 2321SOL    HW118599   3.182   3.901   2.797  0.1065 -0.1968 -0.2008
 2321SOL    HW218600   3.064   3.958   2.861  0.4265  0.2314  0.7975
 2322SOL     OW18601   3.747   4.470  13.998 -0.4514 -0.0673  0.0592
 2322SOL    HW118602   3.689   4.466  13.922 -0.4355  2.1145 -0.0832
 2322SOL    HW218603   3.682   4.462  14.069  0.4272  1.2853  1.0166
 2323SOL     OW18604   2.838   1.677   7.713  0.7952  0.0036 -0.0931
 2323SOL    HW118605   2.791   1.641   7.788 -0.8888  0.7361 -0.7776
 2323SOL    HW218606   2.770   1.690   7.647 -0.0388 -1.6199  0.4490
 2324SOL     OW18607   4.065   3.132   5.571 -0.8748  0.2279  0.0037
 2324SOL    HW118608   4.156   3.135   5.599 -1.3019  2.4079  1.2472
 2324SOL    HW218609   4.037   3.043   5.594  1.0689  0.1092  1.9274
 2325SOL     OW18610   4.073   0.046   3.651  0.3017  0.2480  0.1019
 2325SOL    HW118611   4.110   0.110   3.712  1.7500 -0.1604 -0.3344
 2325SOL    HW218612   3.982   0.075   3.646  0.4386  0.3892 -1.5805
 2326SOL     OW18613   3.191   2.118   5.871 -0.3090 -0.6082 -0.5538
 2326SOL    HW118614   3.180   2.076   5.956  0.9334 -0.5831 -0.3787
 2326SOL    HW218615   3.244   2.054   5.823  0.4268  0.7784 -1.5947
 2327SOL     OW18616   2.074   1.306   1.520 -0.6534 -0.4432 -0.2965
 2327SOL    HW118617   1.983   1.298   1.491 -0.3086 -1.4961 -1.1057
 2327SOL    HW218618   2.088   1.215   1.549  1.0437  0.1498  0.7595
 2328SOL     OW18619   3.373   3.396  17.607 -0.1248  0.4840  0.3479
 2328SOL    HW118620   3.367   3.331  17.537 -0.7494  0.9328 -0.0059
 2328SOL    HW218621   3.313   3.465  17.580 -1.5281 -0.4799  0.9841
 2329SOL     OW18622   2.120   3.548   5.461 -0.1188 -0.1416  0.0359
 2329SOL    HW118623   2.028   3.523   5.467  0.0245 -0.5523  0.5097
 2329SOL    HW218624   2.114   3.636   5.499  0.0250 -0.0956 -0.0504
 2330SOL     OW18625   2.487   1.240   5.812  0.4452 -0.0510  0.1962
 2330SOL    HW118626   2.487   1.150   5.842  0.0742 -1.0190 -2.7235
 2330SOL    HW218627   2.578   1.256   5.838  0.7169  0.4836 -1.0611
 2331SOL     OW18628   2.248   0.150   3.131 -0.1628  0.2785 -0.2807
 2331SOL    HW118629   2.242   0.246   3.132  0.3151  0.3110 -0.8463
 2331SOL    HW218630   2.275   0.137   3.222  1.0725 -1.3969 -0.8961
 2332SOL     OW18631   2.397   1.088   2.877 -0.1665 -0.1747 -0.0832
 2332SOL    HW118632   2.319   1.110   2.826  2.2120  2.2152 -2.6582
 2332SOL    HW218633   2.414   1.003   2.836 -2.5192 -0.0927 -1.2623
 2333SOL     OW18634   0.572   2.625   2.976  0.2834  0.2593 -0.1585
 2333SOL    HW118635   0.625   2.557   3.017  2.1607  1.3910 -0.6829
 2333SOL    HW218636   0.581   2.698   3.037  1.0535  0.1554 -0.1406
 2334SOL     OW18637   2.687   2.501   7.759 -0.4526  0.3380 -0.0821
 2334SOL    HW118638   2.771   2.517   7.801  1.0053 -2.9998 -1.7387
 2334SOL    HW218639   2.626   2.472   7.826  0.2956  1.4495  1.0782
 2335SOL     OW18640   3.111   0.761  16.241 -0.4426 -0.4897 -0.1988
 2335SOL    HW118641   3.094   0.730  16.330  0.4612  1.0468  0.5073
 2335SOL    HW218642   3.097   0.680  16.192 -0.3802 -0.4438 -0.2924
 2336SOL     OW18643   4.189   4.435   7.622  0.4758 -0.3798 -0.3956
 2336SOL    HW118644   4.255   4.492   7.662 -2.0858 -0.3992  3.8729
 2336SOL    HW218645   4.195   4.362   7.684 -0.6809  1.1188  1.4668
 2337SOL     OW18646   3.277   0.235   3.639  0.2179 -0.2771 -0.1553
 2337SOL    HW118647   3.184   0.214   3.642 -0.2604  2.0381  1.5740
 2337SOL    HW218648   3.292   0.282   3.721 -0.1616 -0.9243  0.2876
 2338SOL     OW18649   3.571   1.725   1.575  0.2210 -0.3494  0.1798
 2338SOL    HW118650   3.607   1.757   1.658 -0.9402  2.1861 -0.2916
 2338SOL    HW218651   3.542   1.639   1.605  0.6065 -0.4385  0.3014
 2339SOL     OW18652   4.385   1.226   2.204 -0.5092 -0.1978 -0.1402
 2339SOL    HW118653   4.349   1.184   2.282  0.1150  1.9540  1.2899
 2339SOL    HW218654   4.453   1.286   2.234  0.9072 -1.6951 -0.3568
 2340SOL     OW18655   2.940   2.626   8.658  0.4924 -0.2477  0.0994
 2340SOL    HW118656   3.013   2.668   8.702  0.5447 -1.5794  1.2776
 2340SOL    HW218657   2.867   2.658   8.711 -0.3663 -0.2726 -1.0725
 2341SOL     OW18658   0.505   2.228   3.916  0.0711  0.4339 -0.1211
 2341SOL    HW118659   0.429   2.286   3.918  0.5488  1.0469  0.3623
 2341SOL    HW218660   0.458   2.154   3.954 -1.2128  0.7418 -1.1145
 2342SOL     OW18661   1.747   3.097   4.188 -0.7502 -0.0729 -0.5795
 2342SOL    HW118662   1.811   3.082   4.258 -0.8418 -0.5256 -0.5920
 2342SOL    HW218663   1.799   3.158   4.136  0.8439 -0.7592  0.1964
 2343SOL     OW18664   3.171   2.452   2.782  0.2566  0.4255  0.4057
 2343SOL    HW118665   3.078   2.462   2.800 -0.0215 -2.6192  0.7248
 2343SOL    HW218666   3.195   2.540   2.754 -1.0076  0.7893  0.4737
 2344SOL     OW18667   4.261   4.344   8.426 -0.9761 -0.2686  0.7160
 2344SOL    HW118668   4.297   4.291   8.498 -2.6367 -2.4334 -0.0558
 2344SOL    HW218669   4.343   4.383   8.396 -0.7942 -0.6995  0.6464
 2345SOL     OW18670   1.178   0.834  16.069  0.3671  0.2673 -0.2841
 2345SOL    HW118671   1.252   0.803  16.016 -0.6708 -2.3179 -0.2307
 2345SOL    HW218672   1.108   0.852  16.006  1.6535 -0.2243 -1.8876
 2346SOL     OW18673   1.222   1.858   2.242 -0.3039 -0.3928 -0.0730
 2346SOL    HW118674   1.257   1.947   2.251 -0.1207 -0.2284 -2.4122
 2346SOL    HW218675   1.290   1.807   2.200 -0.2810  1.0773 -1.7991
 2347SOL     OW18676   0.848   0.781  13.117 -0.0456  0.6791  0.1378
 2347SOL    HW118677   0.804   0.709  13.073  0.7199 -0.5052  1.3054
 2347SOL    HW218678   0.828   0.862  13.070  1.0694  0.3432 -0.9127
 2348SOL     OW18679   2.081   2.826  13.787  0.1552  0.0248  0.0043
 2348SOL    HW118680   2.071   2.921  13.793  0.1038 -0.0177  0.6481
 2348SOL    HW218681   1.997   2.805  13.747 -0.0488  1.0722 -0.1224
 2349SOL     OW18682   4.260   3.026   4.204  0.8312  0.2053 -0.3411
 2349SOL    HW118683   4.218   2.941   4.214 -0.8356  0.9266 -1.1092
 2349SOL    HW218684   4.346   3.001   4.169  1.3035  0.8680  0.3696
 2350SOL     OW18685   2.438   1.754  16.478  0.9751  0.0993 -0.3114
 2350SOL    HW118686   2.365   1.693  16.478  0.0053  1.2590 -1.2347
 2350SOL    HW218687   2.461   1.750  16.571 -1.4799 -0.3752  0.2634
 2351SOL     OW18688   3.647   2.536   2.178  0.1131 -0.2378 -0.3422
 2351SOL    HW118689   3.570   2.544   2.121  2.2415  0.1563 -3.1640
 2351SOL    HW218690   3.604   2.501   2.256 -1.8459 -2.0073 -2.2329
 2352SOL     OW18691   3.914   4.056   1.019 -0.0722 -0.0604  0.9202
 2352SOL    HW118692   3.940   4.128   0.961  3.5730 -0.0642  2.5662
 2352SOL    HW218693   3.975   3.998   0.973 -0.0037 -0.0899  1.0519
 2353SOL     OW18694   3.659   3.507  17.374 -0.2986  0.4288  0.6922
 2353SOL    HW118695   3.622   3.498  17.286 -2.9339 -2.0037  2.0276
 2353SOL    HW218696   3.721   3.435  17.362 -0.2322  0.2738  2.0175
 2354SOL     OW18697   2.488   1.903  13.098  0.4587  0.6786 -0.0615
 2354SOL    HW118698   2.472   1.849  13.021  1.1549 -0.9314  0.9101
 2354SOL    HW218699   2.540   1.973  13.059  0.6957  0.9309  0.7053
 2355SOL     OW18700   0.539   0.949  15.358  0.2808 -0.6624 -0.2442
 2355SOL    HW118701   0.451   0.928  15.326  0.4466 -0.5556 -0.7628
 2355SOL    HW218702   0.577   0.998  15.284  1.0423  1.0433  1.2663
 2356SOL     OW18703   2.890   2.081   4.719 -0.2780  0.3506 -0.2484
 2356SOL    HW118704   2.890   1.990   4.750 -0.1370 -0.1139 -1.6260
 2356SOL    HW218705   2.869   2.068   4.627 -1.5981 -3.1903  0.5342
 2357SOL     OW18706   0.404   0.561  14.669 -0.0648  0.7729  0.0805
 2357SOL    HW118707   0.423   0.649  14.636  1.1694  0.7168  0.6264
 2357SOL    HW218708   0.338   0.573  14.737  0.7729  1.3190  0.8105
 2358SOL     OW18709   3.346   1.287   6.204  0.0741 -0.0639  0.5801
 2358SOL    HW118710   3.378   1.375   6.183 -1.4172  0.1127 -0.9703
 2358SOL    HW218711   3.421   1.232   6.182 -0.5758 -0.6981 -0.0418
 2359SOL     OW18712   1.802   0.116   2.466  0.4862 -0.0791  0.0109
 2359SOL    HW118713   1.871   0.074   2.415  2.0821  1.4784  0.9012
 2359SOL    HW218714   1.845   0.198   2.487 -1.0079  0.4675  0.9783
 2360SOL     OW18715   3.581   0.302   3.925 -0.2680 -0.2604  0.2170
 2360SOL    HW118716   3.635   0.371   3.886 -3.1695  0.4076 -2.6374
 2360SOL    HW218717   3.634   0.298   4.005 -1.8590 -1.9003  1.1817
 2361SOL     OW18718   4.313   2.105  15.151  0.0633 -0.6591  0.3544
 2361SOL    HW118719   4.219   2.118  15.167  0.3230 -0.4714  1.7587
 2361SOL    HW218720   4.335   2.022  15.192 -0.1599 -0.1520  1.5082
 2362SOL     OW18721   4.550   3.620   8.337 -0.5150 -0.3149  0.2234
 2362SOL    HW118722   4.574   3.561   8.408  0.9370  0.2974  0.2440
 2362SOL    HW218723   4.590   3.700   8.371  1.9276 -1.7395  0.7527
 2363SOL     OW18724   0.412   1.996  14.886  0.3676  0.1225  0.2569
 2363SOL    HW118725   0.482   1.966  14.827  0.0177  0.0335 -0.1101
 2363SOL    HW218726   0.419   2.090  14.869 -0.1994  0.3282  1.1811
 2364SOL     OW18727   4.476   4.024   8.466 -0.0655  0.1300  0.0772
 2364SOL    HW118728   4.486   4.106   8.418  0.3859 -0.4433 -0.8045
 2364SOL    HW218729   4.384   4.001   8.469  0.2880 -1.5437 -2.7384
 2365SOL     OW18730   3.163   0.797   1.590  0.4361  0.8067  0.2128
 2365SOL    HW118731   3.234   0.850   1.626  0.9379 -0.5315  1.1912
 2365SOL    HW218732   3.113   0.871   1.556  0.3343  0.0720 -1.2182
 2366SOL     OW18733   3.153   2.672  10.650 -0.4412  0.0131  0.1500
 2366SOL    HW118734   3.087   2.697  10.586 -1.1058  1.1688  1.2814
 2366SOL    HW218735   3.235   2.708  10.616 -0.4413  0.1659  0.3126
 2367SOL     OW18736   2.435   1.689  13.938 -0.1442  0.5804  0.2924
 2367SOL    HW118737   2.514   1.685  13.992 -0.2745 -1.0949  0.3543
 2367SOL    HW218738   2.416   1.783  13.935 -0.3980  0.5109 -0.1214
 2368SOL     OW18739   2.959   2.144   3.447 -0.4268  0.2292  0.5209
 2368SOL    HW118740   2.907   2.221   3.470  1.5086  1.6954 -0.0765
 2368SOL    HW218741   2.895   2.113   3.382  0.9421  0.3385 -0.8657
 2369SOL     OW18742   2.525   2.031   3.501 -0.0042  0.0379  0.4809
 2369SOL    HW118743   2.435   2.006   3.523 -0.4929  2.3264  1.0842
 2369SOL    HW218744   2.500   2.109   3.452  0.9538  2.1667  3.4053
 2370SOL     OW18745   0.496   1.357  17.532 -0.0012 -0.3720 -0.4415
 2370SOL    HW118746   0.567   1.317  17.581  1.6259  1.0724 -1.5650
 2370SOL    HW218747   0.427   1.292  17.523 -2.2560  1.7901  1.4572
 2371SOL     OW18748   4.237   4.663   5.404  0.4209 -0.0867 -0.6266
 2371SOL    HW118749   4.219   4.720   5.330  2.3999  1.1422 -0.1594
 2371SOL    HW218750   4.325   4.692   5.428  1.0149 -0.7932 -1.9870
 2372SOL     OW18751   3.477   2.278   1.231 -0.3141 -0.1323 -0.6068
 2372SOL    HW118752   3.385   2.256   1.221 -1.1499  2.3965  1.3529
 2372SOL    HW218753   3.498   2.219   1.303 -0.7127  0.7059  0.2025
 2373SOL     OW18754   0.152   1.296  11.874  0.0919  0.2678 -0.6196
 2373SOL    HW118755   0.211   1.244  11.820 -1.1528 -0.1946 -1.5193
 2373SOL    HW218756   0.208   1.370  11.896 -0.7790  0.9407 -0.6631
 2374SOL     OW18757   3.314   4.218   6.805 -0.1059 -0.2478 -0.0145
 2374SOL    HW118758   3.236   4.166   6.784 -0.6445 -0.1064  1.6538
 2374SOL    HW218759   3.387   4.160   6.784  0.5068  0.5211 -0.0202
 2375SOL     OW18760   2.264   1.123   4.007 -0.3774 -0.3547 -0.1751
 2375SOL    HW118761   2.183   1.126   4.058 -0.3997  0.7688 -0.2816
 2375SOL    HW218762   2.317   1.067   4.063 -0.0305  0.5709  0.4208
 2376SOL     OW18763   2.967   0.717   2.873  0.3542  1.0033 -0.6137
 2376SOL    HW118764   3.060   0.737   2.863  0.4603  0.4843 -0.6837
 2376SOL    HW218765   2.945   0.691   2.783 -2.3913  1.2875 -0.0176
 2377SOL     OW18766   2.158   0.103   7.134  0.7014  0.3767  0.6547
 2377SOL    HW118767   2.158   0.195   7.159  2.9703 -0.1102  2.4235
 2377SOL    HW218768   2.069   0.093   7.100  0.0724 -1.5678  2.8487
 2378SOL     OW18769   0.214   1.642  10.362 -0.0528 -0.6827  0.1647
 2378SOL    HW118770   0.165   1.580  10.307 -0.4045  1.3947 -1.9057
 2378SOL    HW218771   0.289   1.589  10.387 -0.6956 -2.5891 -1.8708
 2379SOL     OW18772   2.267   1.319   6.988 -0.3321 -0.5902  0.6146
 2379SOL    HW118773   2.212   1.387   7.027 -0.3832 -0.6369  0.6221
 2379SOL    HW218774   2.343   1.376   6.974 -0.6184 -0.9563 -2.4855
 2380SOL     OW18775   3.862   1.488   1.805 -0.1457  0.2819 -0.4568
 2380SOL    HW118776   3.861   1.546   1.882 -1.0778  1.1336 -1.0965
 2380SOL    HW218777   3.907   1.549   1.746 -2.4439  0.7204 -1.7750
 2381SOL     OW18778   3.295   1.882   1.276 -0.6228  0.2482  0.4987
 2381SOL    HW118779   3.242   1.802   1.286  0.0030 -0.1647  0.5054
 2381SOL    HW218780   3.383   1.846   1.291 -0.8202 -0.6921 -0.5999
 2382SOL     OW18781   2.980   0.510   7.467  0.3170 -0.1800 -0.1125
 2382SOL    HW118782   2.935   0.573   7.523 -2.2881 -2.2977  0.2061
 2382SOL    HW218783   3.056   0.488   7.521 -0.8511  1.8166  2.3324
 2383SOL     OW18784   3.193   1.413   7.091 -0.5531  0.2065  0.2034
 2383SOL    HW118785   3.284   1.429   7.119 -0.7509  1.6021  0.0093
 2383SOL    HW218786   3.169   1.361   7.168 -2.9355 -0.5559 -1.0611
 2384SOL     OW18787   3.740   2.268   9.207 -0.4795 -0.9410  0.3596
 2384SOL    HW118788   3.794   2.229   9.139  1.4017  0.4905  1.0551
 2384SOL    HW218789   3.798   2.324   9.258 -1.0425  1.1315 -1.2598
 2385SOL     OW18790   2.321   1.023  17.460  0.1019 -0.2573 -0.3644
 2385SOL    HW118791   2.315   1.116  17.436  0.4891 -0.2247 -0.3238
 2385SOL    HW218792   2.228   1.001  17.465 -0.1277  0.8539  0.2728
 2386SOL     OW18793   2.871   0.364   5.562  0.2249 -0.1543  0.4008
 2386SOL    HW118794   2.832   0.283   5.594 -3.5608  1.6786  0.4091
 2386SOL    HW218795   2.859   0.424   5.636 -1.3219  1.0715 -0.8590
 2387SOL     OW18796   3.966   2.265  10.653  0.1634 -0.0621  0.1658
 2387SOL    HW118797   4.018   2.326  10.705 -1.4951  1.4251  0.0629
 2387SOL    HW218798   3.887   2.312  10.628 -0.2360  0.8322  3.1343
 2388SOL     OW18799   3.045   0.814   7.337  0.5926 -0.3148 -0.2144
 2388SOL    HW118800   3.102   0.874   7.287 -2.1137  1.4702 -1.1384
 2388SOL    HW218801   3.083   0.726   7.333  0.1790 -0.4733 -0.5740
 2389SOL     OW18802   1.505   4.367   8.829  0.3488 -0.1656 -0.7316
 2389SOL    HW118803   1.587   4.318   8.831  0.2126 -0.3230  1.5060
 2389SOL    HW218804   1.482   4.372   8.922  1.2186  0.6544 -0.5592
 2390SOL     OW18805   3.053   2.613   0.497 -0.4985 -0.2602  0.1143
 2390SOL    HW118806   3.115   2.686   0.508  1.6683 -1.9828 -0.5468
 2390SOL    HW218807   3.019   2.600   0.585 -1.4275 -0.5219 -0.2803
 2391SOL     OW18808   4.343   1.236   5.237 -0.4701  0.4510  0.0995
 2391SOL    HW118809   4.266   1.218   5.183 -1.3992  1.3443  1.1214
 2391SOL    HW218810   4.314   1.304   5.298 -0.4601  0.4428  0.1135
 2392SOL     OW18811   4.593   1.116   6.973 -0.3718 -0.0719 -0.2967
 2392SOL    HW118812   4.588   1.109   6.878 -1.4059 -0.9107 -0.1836
 2392SOL    HW218813   4.613   1.022   6.980 -1.2499 -0.3632 -1.8449
 2393SOL     OW18814   4.189   2.690   5.533  0.2574 -0.5925  0.6133
 2393SOL    HW118815   4.246   2.643   5.594 -0.8785 -0.2538  1.9468
 2393SOL    HW218816   4.167   2.770   5.582 -0.2974  1.0592 -2.3188
 2394SOL     OW18817   4.660   0.414   5.028  0.4800 -0.2442  0.0662
 2394SOL    HW118818   4.728   0.356   5.062 -0.0267 -0.2503  1.0752
 2394SOL    HW218819   4.656   0.389   4.936  2.4953 -1.4552  0.3122
 2395SOL     OW18820   0.408   2.463   4.177 -0.0850  0.0248  0.8949
 2395SOL    HW118821   0.431   2.471   4.084 -1.5792  0.4400  0.5759
 2395SOL    HW218822   0.459   2.527   4.227 -0.0864  0.1168  0.7809
 2396SOL     OW18823   1.846   4.354   5.050  0.6110  0.1468  0.5832
 2396SOL    HW118824   1.808   4.438   5.076  1.0698 -0.0158  1.7906
 2396SOL    HW218825   1.937   4.378   5.035  0.3689  0.6238 -0.1035
 2397SOL     OW18826   2.336   2.370   7.247 -0.1537  0.1976  0.4467
 2397SOL    HW118827   2.271   2.430   7.283  0.1695  1.4211 -1.0182
 2397SOL    HW218828   2.334   2.390   7.154  0.5686 -1.4543  0.0781
 2398SOL     OW18829   1.547   3.561   1.092 -0.4752  0.0986  0.1500
 2398SOL    HW118830   1.501   3.481   1.115  0.4674 -0.4880 -0.0289
 2398SOL    HW218831   1.622   3.540   1.147 -0.0985 -2.1620 -1.2391
 2399SOL     OW18832   2.313   1.573   7.108 -0.5973 -0.3519  0.3016
 2399SOL    HW118833   2.256   1.648   7.092 -0.0721 -0.1712 -0.7669
 2399SOL    HW218834   2.310   1.565   7.203 -1.6157 -0.2476  0.2791
 2400SOL     OW18835   2.388   0.361   2.815  0.1064  0.4475  0.1199
 2400SOL    HW118836   2.381   0.276   2.857 -0.8708  0.5838  0.2388
 2400SOL    HW218837   2.474   0.389   2.847  0.5925  1.5440 -2.1002
 2401SOL     OW18838   3.291   3.777   2.369  0.1124 -0.1912 -0.4747
 2401SOL    HW118839   3.279   3.872   2.359  0.9205 -0.1069 -0.7280
 2401SOL    HW218840   3.230   3.764   2.441 -1.1542  0.4250 -1.4451
 2402SOL     OW18841   2.060   1.101  10.558 -1.1074  0.1483  0.2801
 2402SOL    HW118842   2.146   1.142  10.547 -0.1843 -1.9900 -0.4796
 2402SOL    HW218843   2.010   1.179  10.582 -1.1066  0.9676 -2.4462
 2403SOL     OW18844   1.302   3.772  10.909 -0.0475  0.3848 -0.5414
 2403SOL    HW118845   1.376   3.794  10.853  0.9124 -1.3017  0.1017
 2403SOL    HW218846   1.346   3.765  10.993 -1.1701 -0.3158 -0.0026
 2404SOL     OW18847   1.879   4.199   6.251 -0.2681  0.0399 -0.3404
 2404SOL    HW118848   1.882   4.289   6.218  2.6239 -0.0776 -0.4463
 2404SOL    HW218849   1.860   4.221   6.342  1.7507 -0.3888  0.1787
 2405SOL     OW18850   3.560   0.584  15.580  0.0284 -0.6944  0.2683
 2405SOL    HW118851   3.638   0.605  15.529  0.6306 -2.1019  0.5992
 2405SOL    HW218852   3.592   0.597  15.669 -0.4539  1.1519  0.1586
 2406SOL     OW18853   2.866   2.260   4.933  0.1796 -0.0273 -0.4581
 2406SOL    HW118854   2.932   2.225   4.992  0.2030 -0.7684 -0.9247
 2406SOL    HW218855   2.838   2.193   4.870 -0.9527 -1.6366  1.7718
 2407SOL     OW18856   2.385   0.845  12.029  0.7649 -0.2017  0.2970
 2407SOL    HW118857   2.443   0.872  12.100 -1.4459 -0.7619  2.3176
 2407SOL    HW218858   2.436   0.881  11.956  0.0536  0.0683 -0.0641
 2408SOL     OW18859   0.164   1.779   3.843 -0.3801  0.1761 -0.7681
 2408SOL    HW118860   0.154   1.839   3.769  1.3086  0.0429 -1.1194
 2408SOL    HW218861   0.105   1.823   3.904  0.3655 -1.1868  0.9420
 2409SOL     OW18862   4.219   0.557   9.544  0.5073  0.1738  0.0725
 2409SOL    HW118863   4.261   0.471   9.547  0.2805  0.0326 -0.9241
 2409SOL    HW218864   4.243   0.595   9.629  0.0995 -1.1158  0.7564
 2410SOL     OW18865   3.975   4.182   3.373  0.5570 -0.6600 -0.3474
 2410SOL    HW118866   3.894   4.193   3.322 -0.4798 -2.0277  1.0035
 2410SOL    HW218867   3.940   4.193   3.462  2.0320 -0.9088  0.2520
 2411SOL     OW18868   1.835   3.843   3.613 -0.6227  0.1486  0.0754
 2411SOL    HW118869   1.914   3.888   3.584  0.9392 -0.6346  3.0610
 2411SOL    HW218870   1.818   3.879   3.700  0.2693 -0.0786  0.3452
 2412SOL     OW18871   0.900   1.938   6.475  0.0172  0.0907  0.0875
 2412SOL    HW118872   0.938   1.854   6.449 -0.4589 -0.6384  1.7077
 2412SOL    HW218873   0.970   1.979   6.525  2.1246 -3.0106 -0.3105
 2413SOL     OW18874   4.177   0.819   3.324  0.1557 -0.5533  0.3904
 2413SOL    HW118875   4.139   0.835   3.238 -1.9499 -1.0624  1.2200
 2413SOL    HW218876   4.242   0.886   3.344  0.6492  0.2911 -4.1065
 2414SOL     OW18877   1.224   4.676   1.380  0.2993  0.2151 -0.1933
 2414SOL    HW118878   1.287   4.696   1.310 -1.6885  0.4848 -1.9149
 2414SOL    HW218879   1.280   4.670   1.457 -0.6608 -1.8585  0.3536
 2415SOL     OW18880   0.705   1.425  15.979  0.3577  0.2220  0.1733
 2415SOL    HW118881   0.686   1.513  16.012  2.2274  0.3057  1.0569
 2415SOL    HW218882   0.778   1.399  16.035  1.0071  0.7127 -0.4283
 2416SOL     OW18883   3.054   3.885   8.303  0.0056  0.8883  0.4588
 2416SOL    HW118884   2.968   3.849   8.282  1.0362 -1.0022 -0.5403
 2416SOL    HW218885   3.106   3.871   8.223 -0.9477 -1.4211  0.2544
 2417SOL     OW18886   3.674   4.224   8.119  0.5544 -0.3703 -0.3050
 2417SOL    HW118887   3.709   4.204   8.206 -1.8133 -0.5951  0.5910
 2417SOL    HW218888   3.759   4.217   8.075  1.4426 -0.3573  1.4001
 2418SOL     OW18889   1.545   3.891   1.445 -0.6773 -0.2801 -0.1511
 2418SOL    HW118890   1.569   3.964   1.389 -0.2280  0.8685  1.5333
 2418SOL    HW218891   1.475   3.937   1.492 -0.5152 -1.0824  0.8890
 2419SOL     OW18892   3.084   3.136  13.934 -0.0291 -0.4242 -0.5606
 2419SOL    HW118893   3.034   3.070  13.981  0.4162 -0.1980  0.2218
 2419SOL    HW218894   3.162   3.085  13.913 -0.3080 -0.8230 -0.6253
 2420SOL     OW18895   1.125   1.321   2.057  0.5444 -0.0500 -0.1946
 2420SOL    HW118896   1.081   1.257   2.112  1.5677 -0.7657 -0.2028
 2420SOL    HW218897   1.102   1.297   1.967 -1.4353  2.6733 -0.4161
 2421SOL     OW18898   1.125   3.692   5.497 -0.1699  0.5029  0.1529
 2421SOL    HW118899   1.047   3.670   5.445 -0.9776 -0.2235  1.6640
 2421SOL    HW218900   1.145   3.771   5.446 -2.1133  0.6822 -0.3169
 2422SOL     OW18901   2.905   1.311   3.832  0.2159  0.2720 -0.4257
 2422SOL    HW118902   2.980   1.293   3.775  0.6785 -0.7722  0.4952
 2422SOL    HW218903   2.938   1.283   3.918  0.1081  0.2138 -0.4030
 2423SOL     OW18904   0.483   0.529   3.247 -0.7255  0.3453  0.2094
 2423SOL    HW118905   0.456   0.476   3.322 -0.4781 -0.0030  0.0544
 2423SOL    HW218906   0.571   0.491   3.242 -1.0773 -0.5263  0.6599
 2424SOL     OW18907   0.783   1.393   5.389  0.2306  0.2106 -0.2591
 2424SOL    HW118908   0.738   1.464   5.343 -1.6099 -1.8108 -1.5702
 2424SOL    HW218909   0.722   1.385   5.462 -1.6667  1.0930 -1.7133
 2425SOL     OW18910   4.605   1.631   4.386 -0.1128  0.4324  0.0334
 2425SOL    HW118911   4.682   1.575   4.377 -0.4470 -0.2917  1.6740
 2425SOL    HW218912   4.599   1.669   4.298 -2.2095  0.0601  0.0158
 2426SOL     OW18913   3.456   0.319   8.973 -0.0842 -0.2546 -0.3050
 2426SOL    HW118914   3.509   0.398   8.969  1.4300 -1.2911 -0.5028
 2426SOL    HW218915   3.523   0.252   8.958  0.0999  0.2111 -1.6025
 2427SOL     OW18916   2.235   3.090   1.979  0.0331  0.7034 -0.4829
 2427SOL    HW118917   2.290   3.035   2.035 -2.3410 -1.9827 -0.7800
 2427SOL    HW218918   2.213   3.031   1.906  0.7601 -0.1535 -0.0149
 2428SOL     OW18919   2.243   2.763   2.361 -0.1865  0.4983 -0.2412
 2428SOL    HW118920   2.330   2.729   2.380  0.1004  1.5319  0.2963
 2428SOL    HW218921   2.184   2.703   2.408 -1.4470  1.6775 -0.3044
 2429SOL     OW18922   4.041   0.790   8.489 -0.0944  0.8175 -0.5940
 2429SOL    HW118923   3.973   0.808   8.424 -2.1291 -1.5235  0.8544
 2429SOL    HW218924   4.115   0.810   8.432  0.5370 -1.4935 -0.6003
 2430SOL     OW18925   0.878   3.377   3.081 -0.1439 -0.3311  0.7050
 2430SOL    HW118926   0.900   3.285   3.065  1.2473 -0.4572  3.3118
 2430SOL    HW218927   0.827   3.351   3.158 -0.7704 -0.9862  0.0740
 2431SOL     OW18928   0.511   1.881   5.598  0.0516  0.4690 -0.3692
 2431SOL    HW118929   0.501   1.951   5.662  1.6805  0.2858  0.0928
 2431SOL    HW218930   0.550   1.935   5.530 -0.6980  1.0507 -0.3270
 2432SOL     OW18931   3.554   4.700   2.545 -0.1477  0.6760 -0.3487
 2432SOL    HW118932   3.502   0.023   2.596 -1.9880  1.1014 -2.7327
 2432SOL    HW218933   3.507   4.622   2.575 -1.6383  0.9600 -1.9136
 2433SOL     OW18934   4.035   1.101   6.668 -0.0989  0.4080 -0.0288
 2433SOL    HW118935   4.048   1.072   6.758 -0.3926 -0.9511 -0.4233
 2433SOL    HW218936   4.026   1.196   6.675  0.4552  0.4327  0.4073
 2434SOL     OW18937   2.361   2.291  11.111  0.0925 -0.3276  0.2495
 2434SOL    HW118938   2.445   2.335  11.096 -0.1989  0.4306  0.8322
 2434SOL    HW218939   2.389   2.243  11.188  0.0048  1.9283  1.6786
 2435SOL     OW18940   1.874   0.121   5.991  0.2962  0.2973  0.1734
 2435SOL    HW118941   1.821   0.055   5.946  0.9930  1.3328 -2.1618
 2435SOL    HW218942   1.892   0.074   6.073  0.8584  2.5957  1.3503
 2436SOL     OW18943   4.452   1.799  15.131  0.2768 -0.0184 -0.0757
 2436SOL    HW118944   4.367   1.773  15.095 -0.1463  0.5594  0.5168
 2436SOL    HW218945   4.500   1.815  15.050  0.3583 -2.3800 -0.4808
 2437SOL     OW18946   3.030   0.420  14.435 -0.4564  0.0768  0.4891
 2437SOL    HW118947   3.093   0.482  14.398 -1.8960  1.7357  0.7999
 2437SOL    HW218948   2.954   0.478  14.433  0.0220  0.7054  0.3233
 2438SOL     OW18949   2.759   3.334   1.317 -0.3768 -0.0035  0.5688
 2438SOL    HW118950   2.805   3.349   1.400 -0.4375  0.8421  0.4500
 2438SOL    HW218951   2.669   3.352   1.344 -1.3812 -1.6934 -1.6747
 2439SOL     OW18952   0.523   1.696   3.112 -0.3917 -0.0766 -0.4486
 2439SOL    HW118953   0.492   1.778   3.074 -1.7418 -1.2479 -1.9016
 2439SOL    HW218954   0.538   1.650   3.029 -0.7138 -0.1110 -0.4877
 2440SOL     OW18955   0.089   1.683   8.004 -0.0119  0.1925  0.5161
 2440SOL    HW118956   0.183   1.669   8.016  0.0033 -0.0383  0.1391
 2440SOL    HW218957   0.059   1.671   8.094  0.4524 -0.7536  0.5418
 2441SOL     OW18958   4.477   0.105  10.098 -0.2556 -0.6520  0.9354
 2441SOL    HW118959   4.415   0.042  10.060 -0.8089 -0.0151  0.7778
 2441SOL    HW218960   4.535   0.119  10.023 -1.5273 -0.3436  0.0012
 2442SOL     OW18961   2.471   0.350   4.802 -0.1196  0.5585  0.1731
 2442SOL    HW118962   2.508   0.333   4.716  0.7680 -0.0165  0.6617
 2442SOL    HW218963   2.531   0.293   4.851 -2.3796 -1.5424  0.4834
 2443SOL     OW18964   3.703   4.684   6.250  0.5439 -0.2547 -0.0593
 2443SOL    HW118965   3.741   4.730   6.175  0.0813  2.4648  1.3810
 2443SOL    HW218966   3.785   4.653   6.289 -0.8501 -0.9027  2.3332
 2444SOL     OW18967   2.655   3.722   1.760  0.2572  0.1207  0.2978
 2444SOL    HW118968   2.599   3.794   1.788 -0.8596 -0.6418  0.0341
 2444SOL    HW218969   2.643   3.663   1.835 -0.3881 -0.0904  0.0279
 2445SOL     OW18970   2.343   2.038   4.368 -0.0517 -0.5110 -0.5342
 2445SOL    HW118971   2.289   1.963   4.341 -0.8177 -0.1056 -0.1415
 2445SOL    HW218972   2.429   1.998   4.380  0.6956  1.5074  0.7689
 2446SOL     OW18973   4.290   2.282   5.565  0.4611  0.2490  0.8458
 2446SOL    HW118974   4.299   2.377   5.550 -0.8531  0.4316  1.2683
 2446SOL    HW218975   4.200   2.279   5.596  0.2500 -0.4529  0.1609
 2447SOL     OW18976   2.699   2.911   3.862 -0.3799 -0.4813  0.3725
 2447SOL    HW118977   2.744   2.995   3.873 -0.5532 -0.2994 -0.3478
 2447SOL    HW218978   2.633   2.905   3.931 -1.6723 -2.6693 -1.0514
 2448SOL     OW18979   2.037   3.525   1.018  0.1287  0.0909  0.0880
 2448SOL    HW118980   1.953   3.511   0.975  0.3800 -1.9467  0.2442
 2448SOL    HW218981   2.029   3.616   1.044 -1.4188 -0.4926  1.6583
 2449SOL     OW18982   1.410   4.312  13.924  0.5862 -0.1829  0.0658
 2449SOL    HW118983   1.478   4.361  13.969  0.7774 -0.7784  0.4321
 2449SOL    HW218984   1.414   4.225  13.965  1.6796  0.1975  0.7588
 2450SOL     OW18985   0.317   1.617   6.369 -0.2853 -0.7359  0.6779
 2450SOL    HW118986   0.300   1.699   6.415 -0.4477  0.1511 -0.9570
 2450SOL    HW218987   0.270   1.644   6.290 -1.3248 -2.0693  0.8446
 2451SOL     OW18988   3.177   2.731   7.400 -0.1588 -0.0341  0.4541
 2451SOL    HW118989   3.146   2.739   7.490  1.8672  3.7466  0.8150
 2451SOL    HW218990   3.272   2.739   7.411 -0.1480  0.7683 -0.2287
 2452SOL     OW18991   3.788   1.779   5.509  0.6713 -0.1857 -0.3351
 2452SOL    HW118992   3.802   1.705   5.450 -2.7581  0.2356 -1.6907
 2452SOL    HW218993   3.717   1.824   5.462  1.5958  1.0294 -0.5876
 2453SOL     OW18994   2.785   2.304   5.995  0.3370 -0.0140 -0.6026
 2453SOL    HW118995   2.715   2.340   5.941 -0.7240  0.0831  0.8413
 2453SOL    HW218996   2.851   2.286   5.928  1.3233 -2.6368  1.0738
 2454SOL     OW18997   4.228   2.316   8.261  0.3541  0.3415 -0.5060
 2454SOL    HW118998   4.196   2.237   8.218 -2.0150  0.8396  0.3282
 2454SOL    HW218999   4.323   2.303   8.257  0.3230  0.0866 -0.4281
 2455SOL     OW19000   2.766   3.937  12.968  0.2799  0.3248 -0.3075
 2455SOL    HW119001   2.784   3.993  12.893 -0.4736  2.3264  1.0072
 2455SOL    HW219002   2.760   4.006  13.034  1.4012 -0.2623  0.4066
 2456SOL     OW19003   4.692   3.581   8.068  0.8179 -0.1001  0.2069
 2456SOL    HW119004   4.617   3.559   8.124 -0.0789  1.0767 -0.5436
 2456SOL    HW219005   4.654   3.573   7.981 -0.3230 -0.0944  0.7086
 2457SOL     OW19006   4.640   2.289   5.253  0.3672 -0.3154  0.4517
 2457SOL    HW119007   4.560   2.341   5.240 -0.0063 -0.7854  0.8673
 2457SOL    HW219008   4.703   2.354   5.284  1.2221 -0.5828 -0.7365
 2458SOL     OW19009   0.798   2.001   3.097  0.3186 -0.0987  0.1810
 2458SOL    HW119010   0.797   2.093   3.125  1.3665  0.0726 -0.3589
 2458SOL    HW219011   0.852   2.007   3.019 -0.8644 -1.8307 -0.7770
 2459SOL     OW19012   2.064   3.803  13.681 -0.5309 -0.1098 -0.5422
 2459SOL    HW119013   2.020   3.885  13.703 -0.3811  0.3546 -1.9676
 2459SOL    HW219014   2.070   3.760  13.766 -1.3885 -0.7484 -0.8045
 2460SOL     OW19015   3.006   0.016  14.951 -0.7490 -0.3894  0.5567
 2460SOL    HW119016   3.083   0.073  14.961 -1.3038  0.3310  0.6898
 2460SOL    HW219017   3.053   4.683  14.909  0.0591  0.3014  0.2754
 2461SOL     OW19018   0.716   0.811  10.983 -0.1986 -0.1487  0.9958
 2461SOL    HW119019   0.783   0.863  11.028 -0.5043  1.0407  0.0675
 2461SOL    HW219020   0.713   0.737  11.043 -0.8299 -2.3664 -1.7769
 2462SOL     OW19021   4.450   3.160   6.638  0.0757 -0.3250  0.1546
 2462SOL    HW119022   4.367   3.144   6.593 -0.3717  0.9248  0.5253
 2462SOL    HW219023   4.432   3.163   6.732 -1.1813  2.2050 -0.1786
 2463SOL     OW19024   0.596   1.708  15.798 -0.3284  0.4596  0.0765
 2463SOL    HW119025   0.591   1.616  15.770 -1.0917  1.1580 -2.1180
 2463SOL    HW219026   0.670   1.707  15.858 -1.0195  2.3390  0.9561
 2464SOL     OW19027   3.495   2.362   9.120 -0.0258  0.2239  0.4222
 2464SOL    HW119028   3.513   2.454   9.137  2.0762 -0.0709 -0.2208
 2464SOL    HW219029   3.577   2.315   9.137 -0.1761  0.6511  2.2610
 2465SOL     OW19030   2.234   2.382  17.423  0.2835  0.3267  0.8667
 2465SOL    HW119031   2.278   2.391  17.507 -0.8433  1.2982  1.3612
 2465SOL    HW219032   2.139   2.379  17.433  0.5118 -0.2689  2.8003
 2466SOL     OW19033   3.663   0.373   5.751 -0.0152 -0.5913 -0.0306
 2466SOL    HW119034   3.584   0.326   5.725  0.0945 -1.1467  0.6350
 2466SOL    HW219035   3.628   0.427   5.821  2.5536 -1.1639  1.7188
 2467SOL     OW19036   4.297   0.019   7.329 -0.3336  0.3924 -0.3370
 2467SOL    HW119037   4.327   0.055   7.413  0.0366 -2.2975  0.7027
 2467SOL    HW219038   4.205   0.046   7.327 -0.9133 -1.6233 -0.5134
 2468SOL     OW19039   3.761   3.819  17.360 -0.1952 -0.7686  0.1617
 2468SOL    HW119040   3.802   3.735  17.379  0.6165 -0.9721 -2.5158
 2468SOL    HW219041   3.815   3.876  17.415 -0.9630  0.0096  0.1140
 2469SOL     OW19042   1.892   0.909  12.848  0.4917 -0.6071  0.6862
 2469SOL    HW119043   1.799   0.901  12.870  0.3151 -0.8044 -0.1402
 2469SOL    HW219044   1.881   0.919  12.753 -0.5260 -0.4969  0.8085
 2470SOL     OW19045   1.693   1.325  14.122  0.1324  0.5495  0.4783
 2470SOL    HW119046   1.622   1.385  14.146 -2.3787 -1.8348 -0.9809
 2470SOL    HW219047   1.703   1.335  14.027 -0.3055 -2.5213  0.1010
 2471SOL     OW19048   2.186   1.223   2.265 -0.2302  0.5636  0.2358
 2471SOL    HW119049   2.168   1.312   2.234 -0.7028  0.1426 -0.7110
 2471SOL    HW219050   2.274   1.204   2.232  0.5008 -1.2802  3.2641
 2472SOL     OW19051   3.755   4.217   2.614 -0.3935 -0.1233 -0.1778
 2472SOL    HW119052   3.784   4.297   2.658 -2.1511  1.2131 -1.4504
 2472SOL    HW219053   3.834   4.176   2.580 -1.1381 -0.7261 -1.1874
 2473SOL     OW19054   0.446   1.243   6.967  0.2524  0.1727 -0.4887
 2473SOL    HW119055   0.522   1.299   6.982  0.3511 -0.3479  0.9073
 2473SOL    HW219056   0.381   1.287   7.021  0.4298 -0.1746  0.0022
 2474SOL     OW19057   0.393   0.789   1.405 -0.0383  0.3976 -0.3793
 2474SOL    HW119058   0.370   0.704   1.441 -2.7505  2.3104  2.3924
 2474SOL    HW219059   0.347   0.791   1.321 -3.9486  0.7948  1.7798
 2475SOL     OW19060   0.547   0.784  13.358  0.5180  0.1427 -0.3878
 2475SOL    HW119061   0.561   0.693  13.331 -2.1145 -1.2897  3.1893
 2475SOL    HW219062   0.592   0.773  13.442  1.8657 -0.5643 -1.1913
 2476SOL     OW19063   3.532   1.986   9.082 -0.0635  0.1754  0.1785
 2476SOL    HW119064   3.605   1.924   9.089  1.8369  2.5165  1.0122
 2476SOL    HW219065   3.494   1.985   9.170 -1.9002  1.7321 -0.6006
 2477SOL     OW19066   0.661   3.909   1.146 -0.0039  0.2431  0.6524
 2477SOL    HW119067   0.593   3.937   1.083 -2.8308 -2.6905  2.3989
 2477SOL    HW219068   0.729   3.869   1.092  0.1313  0.4572  0.6646
 2478SOL     OW19069   1.475   0.496   7.297 -1.1204  0.1281 -0.3102
 2478SOL    HW119070   1.498   0.550   7.372 -1.0030 -1.0425  0.4903
 2478SOL    HW219071   1.461   0.567   7.233  3.6760  0.7147 -0.6622
 2479SOL     OW19072   0.444   0.816   5.145  0.3379 -0.2528 -0.3021
 2479SOL    HW119073   0.377   0.867   5.100 -2.4678 -2.0044  1.9545
 2479SOL    HW219074   0.490   0.770   5.074 -1.6217 -2.2033 -0.3082
 2480SOL     OW19075   4.322   1.438   9.453  0.4156 -0.4258 -0.3644
 2480SOL    HW119076   4.278   1.461   9.535  0.9452 -0.1359 -0.1670
 2480SOL    HW219077   4.274   1.358   9.430  0.2642 -0.5387  0.3556
 2481SOL     OW19078   0.548   2.158   9.564 -0.0366 -0.2550  0.4322
 2481SOL    HW119079   0.621   2.159   9.502 -0.4779  2.0567 -0.0629
 2481SOL    HW219080   0.498   2.237   9.543 -0.9008 -0.6185  1.1417
 2482SOL     OW19081   2.978   4.007  14.394  0.3588 -0.7186 -0.8153
 2482SOL    HW119082   2.897   4.018  14.345  0.0953  3.1135  0.4433
 2482SOL    HW219083   2.957   3.921  14.430  1.0130 -0.3446  0.4472
 2483SOL     OW19084   0.637   1.989  15.202  0.1121 -0.4441  0.9719
 2483SOL    HW119085   0.672   1.909  15.161 -2.0504 -0.5682 -0.6173
 2483SOL    HW219086   0.616   1.953  15.288  0.0480 -2.3032  0.2000
 2484SOL     OW19087   0.203   4.377   8.155 -0.4032 -0.3921  0.3129
 2484SOL    HW119088   0.232   4.378   8.063 -1.0283 -1.4225  0.0995
 2484SOL    HW219089   0.270   4.322   8.195 -1.2309 -0.9755  0.8889
 2485SOL     OW19090   2.336   2.708   4.288  0.0567 -0.3022  0.0664
 2485SOL    HW119091   2.317   2.641   4.354  0.7099  0.0087  0.5636
 2485SOL    HW219092   2.372   2.779   4.340  0.9961  0.4701 -1.6402
 2486SOL     OW19093   0.542   4.487   9.023  0.3116  0.1095  0.5209
 2486SOL    HW119094   0.610   4.439   9.071 -1.6810 -1.7832  1.4547
 2486SOL    HW219095   0.575   4.486   8.933  0.0674 -1.6305  0.4497
 2487SOL     OW19096   3.943   3.935   3.795  0.3993 -0.8665 -0.2028
 2487SOL    HW119097   3.873   3.876   3.767  0.1326  0.9553 -3.3667
 2487SOL    HW219098   3.957   3.984   3.714 -0.2474 -0.0204  0.1983
 2488SOL     OW19099   4.489   1.514   2.121 -0.2858 -0.4650  0.0055
 2488SOL    HW119100   4.522   1.451   2.057 -2.1568 -0.7984 -0.6051
 2488SOL    HW219101   4.480   1.595   2.071 -0.0955  0.2443  1.1109
 2489SOL     OW19102   0.113   3.171   1.297  0.4358 -0.0851  0.6992
 2489SOL    HW119103   0.172   3.247   1.287  0.5880 -0.2790  0.1409
 2489SOL    HW219104   0.162   3.096   1.263 -0.3193 -0.9330  1.4855
 2490SOL     OW19105   4.622   3.633   4.918 -0.1285  0.0949  0.0461
 2490SOL    HW119106   4.603   3.540   4.906 -0.4436  0.2700 -0.7535
 2490SOL    HW219107   4.647   3.649   4.827 -0.4764 -0.7174 -0.1980
 2491SOL     OW19108   0.760   2.166   6.375  0.4994 -0.4343  0.4098
 2491SOL    HW119109   0.797   2.081   6.397  1.0294 -0.9565 -2.5062
 2491SOL    HW219110   0.744   2.194   6.465  1.9341  0.0447  0.5260
 2492SOL     OW19111   3.942   0.533  16.364  0.1654 -0.0008  0.3625
 2492SOL    HW119112   3.958   0.444  16.396  2.1587  1.3173  2.9980
 2492SOL    HW219113   4.002   0.537  16.289 -1.2456 -2.0495 -0.8885
 2493SOL     OW19114   0.854   4.715   2.104  0.4396 -0.6252 -0.0211
 2493SOL    HW119115   0.773   4.722   2.155 -0.7123 -0.1057 -1.8954
 2493SOL    HW219116   0.900   4.663   2.169  0.7144  0.7374  0.8535
 2494SOL     OW19117   0.228   3.106  15.541  0.1132  0.5882 -0.3138
 2494SOL    HW119118   0.292   3.039  15.568 -0.1788  0.1697 -0.6654
 2494SOL    HW219119   0.155   3.080  15.597 -0.0018 -1.7152 -1.5468
 2495SOL     OW19120   0.263   2.251   8.110  0.4410  0.9651 -0.2076
 2495SOL    HW119121   0.324   2.324   8.112 -0.8668  2.0588 -0.1625
 2495SOL    HW219122   0.308   2.189   8.168 -0.9309 -0.1940 -0.3525
 2496SOL     OW19123   2.334   3.881   4.072 -0.1029 -0.2214 -0.6820
 2496SOL    HW119124   2.348   3.786   4.080 -1.9352 -0.4327  0.1660
 2496SOL    HW219125   2.238   3.888   4.076 -0.1135 -0.1154 -1.1658
 2497SOL     OW19126   2.187   0.561   1.108  0.2212 -0.1277 -0.1180
 2497SOL    HW119127   2.272   0.556   1.151 -0.4797 -4.2132  0.8138
 2497SOL    HW219128   2.206   0.505   1.032  0.3990 -2.5406  1.6956
 2498SOL     OW19129   4.423   2.969   2.785 -0.2678 -0.2009 -0.1040
 2498SOL    HW119130   4.510   2.938   2.761 -0.5143 -1.9928  1.2850
 2498SOL    HW219131   4.414   3.037   2.719  1.9226 -0.2777 -0.4660
 2499SOL     OW19132   2.641   3.356   5.821 -0.4352  0.0704  0.0202
 2499SOL    HW119133   2.569   3.293   5.813 -1.1676  0.6182  2.3152
 2499SOL    HW219134   2.705   3.301   5.865 -0.5573 -0.4055 -0.4039
 2500SOL     OW19135   3.656   3.725   3.480 -0.3933  0.2647  0.2524
 2500SOL    HW119136   3.695   3.751   3.396 -1.5711  1.2503  0.0173
 2500SOL    HW219137   3.653   3.806   3.531  2.7247 -1.3925  3.0244
 2501SOL     OW19138   3.690   0.774   5.400 -0.1300  0.2790  0.2979
 2501SOL    HW119139   3.745   0.707   5.360  1.1125  0.6629  1.3368
 2501SOL    HW219140   3.665   0.715   5.472  2.3885 -1.1687  0.0086
 2502SOL     OW19141   1.234   4.303   3.666 -0.4316 -0.3253  0.5639
 2502SOL    HW119142   1.161   4.242   3.652 -0.6867 -0.1750  1.2457
 2502SOL    HW219143   1.190   4.355   3.734 -0.5991  1.9599 -1.2619
 2503SOL     OW19144   2.824   1.613   5.489  0.0234 -0.3428  0.0814
 2503SOL    HW119145   2.864   1.666   5.558 -1.0228 -1.8461  1.8460
 2503SOL    HW219146   2.806   1.532   5.537  0.3460  0.4827  1.6201
 2504SOL     OW19147   4.528   0.634   8.080  0.0419 -0.4964  0.1490
 2504SOL    HW119148   4.563   0.600   8.163 -2.2533 -1.6089  0.6643
 2504SOL    HW219149   4.539   0.729   8.088 -0.3074 -0.4461  0.0516
 2505SOL     OW19150   4.634   1.330  11.763  0.3204 -0.1742 -0.2515
 2505SOL    HW119151   4.653   1.424  11.768  0.8429 -0.2704 -0.4730
 2505SOL    HW219152   4.711   1.289  11.801  0.3233 -0.7027 -0.8230
 2506SOL     OW19153   0.489   2.052   9.236 -0.7304 -0.3909 -0.2370
 2506SOL    HW119154   0.415   2.089   9.284 -1.4412 -2.2164  0.0954
 2506SOL    HW219155   0.497   1.974   9.290 -0.5392 -0.2828 -0.1094
 2507SOL     OW19156   4.660   3.237   4.420 -0.7041 -0.5217 -0.2479
 2507SOL    HW119157   4.616   3.280   4.346  0.5355  1.2836  0.0747
 2507SOL    HW219158   0.007   3.223   4.381 -0.1367 -2.0689  1.5972
 2508SOL     OW19159   1.127   0.087   3.897 -0.1192 -0.1026  0.4569
 2508SOL    HW119160   1.054   0.141   3.865  1.0589  1.6252  0.7192
 2508SOL    HW219161   1.146   0.041   3.816 -1.7265  1.0997 -0.6005
 2509SOL     OW19162   2.150   4.502   5.701  0.4382 -0.1978 -0.4279
 2509SOL    HW119163   2.116   4.434   5.760 -0.3122  0.3374 -0.2404
 2509SOL    HW219164   2.074   4.540   5.657  1.5022  2.8007  0.3227
 2510SOL     OW19165   0.425   3.187  14.134 -0.7355 -0.2341  0.8384
 2510SOL    HW119166   0.335   3.157  14.124 -0.8249 -0.0536  1.0823
 2510SOL    HW219167   0.450   3.194  14.042 -0.5756 -4.3133  0.5733
 2511SOL     OW19168   1.032   1.343   5.388 -0.0692 -0.0521 -0.3607
 2511SOL    HW119169   1.044   1.312   5.477  0.7375 -0.7376 -0.7030
 2511SOL    HW219170   0.940   1.366   5.385 -0.0443  0.0400 -0.4155
 2512SOL     OW19171   0.559   3.052   4.362  0.3780 -0.6008  0.7152
 2512SOL    HW119172   0.615   3.002   4.422  0.9038 -1.5201 -0.5599
 2512SOL    HW219173   0.581   3.027   4.273 -0.9260  0.4957  0.0836
 2513SOL     OW19174   2.038   3.664   1.778 -0.0227 -0.5538 -0.6995
 2513SOL    HW119175   2.059   3.716   1.701 -2.9565 -1.0031 -1.8070
 2513SOL    HW219176   1.968   3.605   1.749 -0.0614 -1.2473  0.8009
 2514SOL     OW19177   1.201   2.225   0.838 -0.1649 -0.4575  0.4189
 2514SOL    HW119178   1.105   2.226   0.846 -0.1730  0.5137  0.2015
 2514SOL    HW219179   1.225   2.257   0.751 -2.1493  1.8036  0.7125
 2515SOL     OW19180   3.124   0.639   3.236  0.6604 -0.3963 -0.0375
 2515SOL    HW119181   3.062   0.704   3.204  1.5513  0.2855 -0.3523
 2515SOL    HW219182   3.158   0.683   3.314  0.0110 -3.4653  1.9847
 2516SOL     OW19183   3.473   3.919  15.759 -0.6267  0.1641 -0.1532
 2516SOL    HW119184   3.419   3.996  15.739  0.6913  1.6049  1.8568
 2516SOL    HW219185   3.516   3.958  15.835 -0.8134 -0.1315  0.1006
 2517SOL     OW19186   0.009   1.449   7.843 -0.0962 -0.4868  0.1312
 2517SOL    HW119187   0.076   1.482   7.903  1.4801 -1.6185 -1.0041
 2517SOL    HW219188   0.048   1.457   7.756 -0.2034 -0.0603  0.1236
 2518SOL     OW19189   3.243   1.395   9.222  0.0719 -0.3448 -0.9078
 2518SOL    HW119190   3.194   1.314   9.215  1.6779 -1.4937  1.2242
 2518SOL    HW219191   3.210   1.453   9.153  1.7055  0.8095 -0.7279
 2519SOL     OW19192   4.129   0.416   8.274 -0.7989  0.5982  0.2945
 2519SOL    HW119193   4.074   0.417   8.352 -1.5360  1.4854 -0.2437
 2519SOL    HW219194   4.079   0.476   8.219  0.0436  0.1684 -0.9403
 2520SOL     OW19195   3.031   0.958  10.512 -0.0565 -0.0842 -0.2322
 2520SOL    HW119196   3.122   0.934  10.494 -0.8845 -0.3628 -3.9889
 2520SOL    HW219197   2.981   0.897  10.458  0.6798 -0.6649 -0.2590
 2521SOL     OW19198   3.319   3.597   8.443  0.0113  0.2435 -0.4257
 2521SOL    HW119199   3.379   3.524   8.456  0.3656  0.5334 -0.4492
 2521SOL    HW219200   3.358   3.662   8.501  1.1027  0.3096 -1.2263
 2522SOL     OW19201   4.072   4.523  12.092 -0.1232  0.3082 -0.2207
 2522SOL    HW119202   4.121   4.446  12.062 -1.3211 -0.7835  0.6191
 2522SOL    HW219203   4.000   4.481  12.139  1.1884 -0.3054  1.2075
 2523SOL     OW19204   1.771   3.964   9.934  0.0249  0.1632 -0.2213
 2523SOL    HW119205   1.681   3.994   9.940 -0.0518 -0.3191  1.0368
 2523SOL    HW219206   1.814   4.049   9.935 -1.3811  0.9401 -4.6241
 2524SOL     OW19207   1.750   1.497   8.232 -0.2668  0.3800  0.1883
 2524SOL    HW119208   1.766   1.419   8.179 -2.5436  0.1355 -0.1772
 2524SOL    HW219209   1.753   1.460   8.321 -2.5359  0.7460  0.4318
 2525SOL     OW19210   3.792   0.020  12.465 -0.4301 -0.1512  0.1476
 2525SOL    HW119211   3.756   0.051  12.549  0.5188  1.8019 -0.1686
 2525SOL    HW219212   3.722   4.737  12.404 -1.0493 -0.6502  1.0285
 2526SOL     OW19213   1.987   3.081   4.881 -0.2846 -0.8397  0.2085
 2526SOL    HW119214   2.008   3.002   4.932  2.1270  0.0638  0.6166
 2526SOL    HW219215   2.037   3.150   4.925  0.4786 -0.9011 -0.5759
 2527SOL     OW19216   1.820   1.688   2.170 -0.2665  0.3936  0.0239
 2527SOL    HW119217   1.895   1.713   2.115 -0.8031 -0.5423 -1.1140
 2527SOL    HW219218   1.867   1.678   2.253 -0.4885 -1.8773 -0.1281
 2528SOL     OW19219   0.054   0.754  13.417  0.2817 -0.0712  0.8633
 2528SOL    HW119220   0.083   0.841  13.443  0.6196 -0.4620  1.7651
 2528SOL    HW219221   0.131   0.715  13.374 -0.6282 -0.7963 -0.1315
 2529SOL     OW19222   1.212   4.048   7.147 -0.0687  0.1293  0.2691
 2529SOL    HW119223   1.308   4.048   7.156 -0.1744 -2.1718  1.5343
 2529SOL    HW219224   1.186   3.984   7.082 -0.2879  2.1953 -1.6676
 2530SOL     OW19225   4.619   3.042  16.850  0.4609 -0.3448  0.6107
 2530SOL    HW119226   4.648   3.026  16.940 -0.7122  1.1591  1.2488
 2530SOL    HW219227   4.637   3.135  16.836  1.6700 -0.2791  2.5628
 2531SOL     OW19228   2.834   3.815   6.805  0.4492  0.0646  0.1414
 2531SOL    HW119229   2.815   3.873   6.731  0.7353 -2.3372 -1.8336
 2531SOL    HW219230   2.893   3.868   6.858  0.6309  1.6043 -1.5811
 2532SOL     OW19231   4.158   2.076   7.132 -0.0545 -0.7643 -0.4590
 2532SOL    HW119232   4.097   2.095   7.061  1.0626  2.0098 -0.6624
 2532SOL    HW219233   4.222   2.016   7.095 -2.5338 -2.6031 -1.8279
 2533SOL     OW19234   1.481   3.666   8.714 -0.0090 -0.1593 -0.0456
 2533SOL    HW119235   1.567   3.633   8.740  0.9686  0.2839 -2.7024
 2533SOL    HW219236   1.441   3.580   8.699  2.3378 -1.2700 -0.0490
 2534SOL     OW19237   1.342   0.701   0.812  0.2716 -0.3629  0.1614
 2534SOL    HW119238   1.278   0.732   0.749 -2.6427  1.0514  3.8258
 2534SOL    HW219239   1.309   0.734   0.896 -3.3163  1.3672 -1.9752
 2535SOL     OW19240   3.470   2.975  11.884  0.3297 -0.1874 -0.3149
 2535SOL    HW119241   3.526   2.906  11.848 -1.0334 -1.3964 -0.0864
 2535SOL    HW219242   3.432   3.016  11.806 -0.4216  0.5207  0.4153
 2536SOL     OW19243   1.363   4.193  16.044 -0.5234  0.0480 -0.2096
 2536SOL    HW119244   1.447   4.222  16.079  0.0965 -1.5440 -0.3729
 2536SOL    HW219245   1.360   4.103  16.076 -0.2419  0.3529  0.6680
 2537SOL     OW19246   3.928   2.933   5.202  0.5234  0.0833  0.4296
 2537SOL    HW119247   3.871   3.001   5.167  1.1469  0.0384 -0.6833
 2537SOL    HW219248   4.006   2.940   5.147  1.2039  1.0217  1.5078
 2538SOL     OW19249   0.722   0.632   8.337  0.2902  0.4092  0.4258
 2538SOL    HW119250   0.684   0.599   8.418  0.3932 -0.6066  0.0601
 2538SOL    HW219251   0.805   0.585   8.343  1.3340  2.4956  2.5265
 2539SOL     OW19252   4.699   1.971  15.683 -0.0001  0.1120  0.8513
 2539SOL    HW119253   0.017   1.894  15.682 -1.1033 -0.6816 -2.1338
 2539SOL    HW219254   4.660   1.970  15.596  1.4169 -3.7210  0.2398
 2540SOL     OW19255   0.169   0.053   7.089  0.5326  0.5863 -0.3368
 2540SOL    HW119256   0.256   0.087   7.065 -0.1565  4.1323  2.1744
 2540SOL    HW219257   0.160   4.717   7.031  1.9177  0.7802 -0.8013
 2541SOL     OW19258   2.901   2.357   6.979 -0.0704  0.2329  0.0560
 2541SOL    HW119259   2.858   2.321   7.056  0.4379  0.4386  0.4370
 2541SOL    HW219260   2.857   2.442   6.985  2.1621  1.3804  0.2477
 2542SOL     OW19261   3.465   2.697   5.448  0.4140  0.1724 -0.5775
 2542SOL    HW119262   3.502   2.766   5.393  0.7075  1.5950  1.3796
 2542SOL    HW219263   3.548   2.669   5.487 -1.2196 -1.7314  1.5346
 2543SOL     OW19264   2.603   1.405   2.257 -0.4286  0.4651  0.0663
 2543SOL    HW119265   2.514   1.437   2.246 -1.0549 -1.0200  0.7321
 2543SOL    HW219266   2.639   1.419   2.169 -1.0961  1.7934  0.0027
 2544SOL     OW19267   0.364   0.549   4.327  0.1057 -0.6762 -0.3420
 2544SOL    HW119268   0.303   0.592   4.268 -0.9934 -2.9159 -0.8321
 2544SOL    HW219269   0.366   0.459   4.294 -0.3292  0.2246 -2.7744
 2545SOL     OW19270   1.601   2.267   6.575  0.0200  0.3975  0.4205
 2545SOL    HW119271   1.694   2.268   6.594 -0.0383 -2.1908  0.8246
 2545SOL    HW219272   1.601   2.353   6.533 -1.9550 -0.1364 -0.6929
 2546SOL     OW19273   1.065   0.676   1.433  0.1492 -0.1828 -0.1032
 2546SOL    HW119274   1.089   0.617   1.504 -2.3175 -1.8241 -0.6058
 2546SOL    HW219275   1.137   0.659   1.372  0.3369 -0.1574  0.1119
 2547SOL     OW19276   4.226   3.526   3.505  0.1117  0.1732 -0.2145
 2547SOL    HW119277   4.239   3.446   3.455 -1.5806  0.9811 -1.9554
 2547SOL    HW219278   4.286   3.511   3.579 -1.7941 -0.5199  1.1927
 2548SOL     OW19279   3.847   1.156  16.794 -0.0999  0.0843  0.2531
 2548SOL    HW119280   3.757   1.144  16.825 -0.5441  0.1876 -0.9893
 2548SOL    HW219281   3.853   1.069  16.754 -1.6259  0.3422 -0.5574
 2549SOL     OW19282   1.577   2.305   7.904 -0.1989  0.0169 -0.0295
 2549SOL    HW119283   1.632   2.256   7.843  0.4500  0.9909 -0.2226
 2549SOL    HW219284   1.619   2.293   7.989  0.3273 -0.6295 -0.3810
 2550SOL     OW19285   0.488   2.495   4.658  0.1214 -0.2568  0.2921
 2550SOL    HW119286   0.424   2.553   4.698  1.0850  0.8534  0.2440
 2550SOL    HW219287   0.440   2.415   4.637  1.3030 -1.0735  0.6718
 2551SOL     OW19288   0.055   3.192   1.577 -0.4132 -0.2350 -1.0390
 2551SOL    HW119289   0.081   3.198   1.485  3.0775  1.6316  0.0783
 2551SOL    HW219290   0.013   3.106   1.574 -1.3520  0.0585  3.7706
 2552SOL     OW19291   0.919   4.529   7.575 -0.6329  0.4696 -0.3766
 2552SOL    HW119292   0.950   4.616   7.547 -0.2728  0.4612 -0.0120
 2552SOL    HW219293   0.977   4.513   7.650 -0.2653 -1.5450 -1.1011
 2553SOL     OW19294   2.795   1.152   7.339  0.5045 -0.3941  0.2777
 2553SOL    HW119295   2.705   1.171   7.312  1.4130  1.7164 -1.2513
 2553SOL    HW219296   2.794   1.061   7.368 -0.4784  0.1723  2.0691
 2554SOL     OW19297   1.599   4.311   4.430 -0.6186  0.8019 -0.3805
 2554SOL    HW119298   1.687   4.285   4.403 -1.3178  0.4077 -2.2362
 2554SOL    HW219299   1.622   4.338   4.519  0.4023 -1.8050  0.1467
 2555SOL     OW19300   0.435   4.167   8.318 -0.4731 -0.2320  0.3694
 2555SOL    HW119301   0.467   4.245   8.275  2.4890 -2.7951 -2.0853
 2555SOL    HW219302   0.507   4.153   8.380  0.1216  2.5383  0.2622
 2556SOL     OW19303   4.386   0.510   8.283  0.4985  0.1623 -0.0619
 2556SOL    HW119304   4.384   0.512   8.187 -1.8377  1.0599 -0.0096
 2556SOL    HW219305   4.313   0.451   8.301  1.7692 -1.5714 -0.5781
 2557SOL     OW19306   0.314   2.987   3.024 -0.0173  0.1235  0.0815
 2557SOL    HW119307   0.369   3.036   3.085 -0.2069 -0.2121  0.5164
 2557SOL    HW219308   0.225   3.019   3.040 -1.2650 -2.5508 -1.4691
 2558SOL     OW19309   0.867   1.286   1.832  0.1898  0.2643 -0.7528
 2558SOL    HW119310   0.798   1.235   1.791  0.4478  0.8744 -1.9454
 2558SOL    HW219311   0.941   1.239   1.793  0.9085  2.3814 -1.9802
 2559SOL     OW19312   1.164   1.725   3.211 -0.0324  0.1218  0.4079
 2559SOL    HW119313   1.186   1.726   3.118  0.0123  0.3213  0.4203
 2559SOL    HW219314   1.250   1.745   3.249  0.2550 -0.4684  0.0680
 2560SOL     OW19315   0.581   0.326   8.188  0.2765 -0.0378  0.1089
 2560SOL    HW119316   0.501   0.355   8.232 -1.8737 -3.3349 -1.6757
 2560SOL    HW219317   0.613   0.405   8.144 -1.3216  0.2881 -0.4362
 2561SOL     OW19318   3.189   3.076   1.676  0.6664 -0.1395  0.3248
 2561SOL    HW119319   3.227   3.093   1.590  0.1040  0.5427  0.2058
 2561SOL    HW219320   3.252   3.117   1.736  0.9917  0.5509 -0.4912
 2562SOL     OW19321   1.749   0.733   5.333 -0.2370 -0.5083 -0.3354
 2562SOL    HW119322   1.682   0.787   5.375 -0.6089 -0.5390 -0.8840
 2562SOL    HW219323   1.701   0.651   5.322  0.9908 -1.4804  1.6999
 2563SOL     OW19324   2.091   0.817   4.261  0.0934 -0.3452 -0.3690
 2563SOL    HW119325   2.167   0.875   4.256  0.6389 -0.8895  2.0124
 2563SOL    HW219326   2.114   0.747   4.199 -0.8665  1.0537 -2.3044
 2564SOL     OW19327   2.211   1.985   8.467 -0.2993 -0.4919  0.1119
 2564SOL    HW119328   2.206   1.931   8.546  1.0748  2.3573  2.1249
 2564SOL    HW219329   2.287   2.041   8.482 -0.1587 -0.4476 -0.7647
 2565SOL     OW19330   4.618   3.378   6.270  0.4724  0.0012  0.3296
 2565SOL    HW119331   4.700   3.329   6.272  0.4708  0.0557  2.0733
 2565SOL    HW219332   4.659   3.465   6.279  0.5912 -0.0758  0.5379
 2566SOL     OW19333   2.880   0.440   0.530 -0.5588  0.4339 -0.1055
 2566SOL    HW119334   2.890   0.505   0.600  2.0983 -2.1436  1.9218
 2566SOL    HW219335   2.967   0.401   0.539  0.9060  3.5941 -0.8684
 2567SOL     OW19336   3.754   2.847   7.223 -0.2408 -0.2732 -0.2273
 2567SOL    HW119337   3.810   2.844   7.301  2.4573  1.2951 -2.1225
 2567SOL    HW219338   3.695   2.773   7.231  0.4201 -0.4247  3.2693
 2568SOL     OW19339   0.303   4.727   2.896  0.0705 -0.7184 -0.1171
 2568SOL    HW119340   0.227   0.027   2.938  0.1448 -0.2832 -0.3924
 2568SOL    HW219341   0.306   4.645   2.946  1.9242 -1.5283 -1.5407
 2569SOL     OW19342   4.298   2.969   6.901  0.2043  0.1826  0.6006
 2569SOL    HW119343   4.335   2.986   6.987  0.5821 -2.1790  0.9004
 2569SOL    HW219344   4.375   2.939   6.852 -1.2277 -0.7793 -1.0591
 2570SOL     OW19345   1.479   0.925   4.686  0.1131  0.5298  0.3371
 2570SOL    HW119346   1.429   1.006   4.688 -0.8896 -0.0634 -0.6261
 2570SOL    HW219347   1.435   0.869   4.751 -0.2304  3.0308  2.2455
 2571SOL     OW19348   3.080   2.814   1.460 -0.2021 -0.0954 -0.9920
 2571SOL    HW119349   3.132   2.741   1.425  1.5773  0.4215  0.5499
 2571SOL    HW219350   3.082   2.790   1.553  0.3035  0.1787 -0.9319
 2572SOL     OW19351   1.294   2.491   2.058 -0.2469  0.4519  0.2225
 2572SOL    HW119352   1.226   2.546   2.019 -0.2062  2.0330  2.4051
 2572SOL    HW219353   1.308   2.421   1.994 -2.6990 -2.0180  2.3793
 2573SOL     OW19354   1.900   1.705  11.802 -0.4106 -0.2898  0.0181
 2573SOL    HW119355   1.891   1.714  11.897 -0.2468  0.2910 -0.0208
 2573SOL    HW219356   1.875   1.794  11.777 -0.1780  0.3991  2.2987
 2574SOL     OW19357   1.462   4.551   2.563 -0.0459  0.3513 -0.4571
 2574SOL    HW119358   1.434   4.607   2.490 -0.3421  0.6135 -0.1407
 2574SOL    HW219359   1.557   4.556   2.561  0.0015  0.8582  2.9305
 2575SOL     OW19360   1.639   4.394   1.052 -0.2744 -0.4273 -0.1510
 2575SOL    HW119361   1.688   4.315   1.029  0.2748 -0.0805 -0.1833
 2575SOL    HW219362   1.558   4.381   1.003 -1.3840 -2.6698  2.3311
 2576SOL     OW19363   1.475   2.891   7.704  0.1713  0.2751 -0.3661
 2576SOL    HW119364   1.510   2.860   7.620  1.4350 -0.3122  0.3665
 2576SOL    HW219365   1.504   2.982   7.694 -2.5081  1.1059 -0.4798
 2577SOL     OW19366   4.105   2.674   7.645 -0.3856  0.1129 -0.0159
 2577SOL    HW119367   4.084   2.700   7.556 -0.2268  0.8889  0.1777
 2577SOL    HW219368   4.200   2.685   7.651 -0.1125 -2.1942  0.0129
 2578SOL     OW19369   4.059   3.110   8.063  0.3578  0.3232  0.2307
 2578SOL    HW119370   4.085   3.049   7.994 -2.4977 -0.1434 -0.4211
 2578SOL    HW219371   4.021   3.050   8.126  0.9762  0.1623  0.4486
 2579SOL     OW19372   1.101   0.375   6.728  0.0691  0.5687  0.4179
 2579SOL    HW119373   1.020   0.412   6.763 -1.7369 -2.1291 -0.9141
 2579SOL    HW219374   1.095   0.399   6.636 -0.1499 -1.0253  0.0244
 2580SOL     OW19375   3.178   4.528   6.083 -0.0398  0.1233  0.2700
 2580SOL    HW119376   3.136   4.611   6.063  1.0807 -0.2053 -3.4425
 2580SOL    HW219377   3.206   4.542   6.173 -2.6525  1.5021  0.8678
 2581SOL     OW19378   0.184   1.035  13.032 -0.8394 -0.2545 -0.0558
 2581SOL    HW119379   0.242   0.974  13.077 -0.3414 -0.7274 -1.3455
 2581SOL    HW219380   0.233   1.080  12.963  1.1677 -3.1580 -0.5104
 2582SOL     OW19381   2.377   1.508   1.150  0.1479 -0.0753  0.3615
 2582SOL    HW119382   2.472   1.503   1.159  0.1712  0.3084  0.3219
 2582SOL    HW219383   2.357   1.416   1.168 -0.5358  0.5436  2.6549
 2583SOL     OW19384   3.668   0.533   8.118 -0.1055 -0.1104 -0.7085
 2583SOL    HW119385   3.592   0.554   8.063 -2.0719 -2.1224  1.2392
 2583SOL    HW219386   3.628   0.522   8.204  0.2149 -0.9358 -0.6605
 2584SOL     OW19387   0.310   2.683  17.529  0.3276  0.0845  0.6500
 2584SOL    HW119388   0.359   2.761  17.556  0.3074  0.4787 -0.4491
 2584SOL    HW219389   0.361   2.613  17.569  0.2860 -0.7285 -0.7517
 2585SOL     OW19390   3.750   3.422   0.107  0.2181  0.3825 -0.0302
 2585SOL    HW119391   3.690   3.374   0.050 -0.0030  1.5758 -0.7935
 2585SOL    HW219392   3.685   3.454   0.170 -1.1300  0.2535 -1.3807
 2586SOL     OW19393   1.552   4.378   7.694  0.3212  0.1671 -0.5895
 2586SOL    HW119394   1.519   4.320   7.625  2.1113 -0.1974 -1.1437
 2586SOL    HW219395   1.596   4.317   7.753  3.8999  1.6811 -1.6915
 2587SOL     OW19396   4.314   0.480   8.934 -0.4623  0.4111  0.1411
 2587SOL    HW119397   4.300   0.564   8.979 -1.8457  2.3240 -3.8747
 2587SOL    HW219398   4.245   0.428   8.976 -1.4780  1.1533 -0.5971
 2588SOL     OW19399   3.995   1.044   2.775 -0.0711 -0.3377 -0.2239
 2588SOL    HW119400   3.914   1.009   2.813 -0.2293  1.1630  0.7877
 2588SOL    HW219401   3.998   0.994   2.693 -0.5910 -1.1136  0.2237
 2589SOL     OW19402   1.054   1.746  14.933  0.1013 -0.0318  0.2047
 2589SOL    HW119403   1.067   1.815  14.999  0.7939 -1.7728  1.8855
 2589SOL    HW219404   1.125   1.770  14.873  0.0985 -1.7886 -0.4941
 2590SOL     OW19405   0.516   0.147   3.017 -0.1311  0.0106 -0.1487
 2590SOL    HW119406   0.469   0.091   2.955  1.1589  1.0171 -2.0216
 2590SOL    HW219407   0.468   0.122   3.097 -0.5362 -2.0552 -1.0323
 2591SOL     OW19408   1.740   3.972   2.224  0.5141  0.4142 -0.1003
 2591SOL    HW119409   1.731   4.028   2.301 -1.1630 -0.7123  0.5477
 2591SOL    HW219410   1.661   3.994   2.174 -0.1420 -1.2663  0.1937
 2592SOL     OW19411   2.482   1.557  15.641  0.5071  0.0272 -0.2640
 2592SOL    HW119412   2.481   1.636  15.587 -1.4611 -0.7289 -1.3289
 2592SOL    HW219413   2.424   1.501  15.589 -1.0270  0.0677  1.3953
 2593SOL     OW19414   4.177   3.933   0.458  0.2555 -0.1834 -0.1173
 2593SOL    HW119415   4.187   3.848   0.415  0.0780 -0.9470  1.3645
 2593SOL    HW219416   4.182   3.984   0.376  1.2673  1.9067  1.2485
 2594SOL     OW19417   2.411   0.643   4.950  0.0938  0.3856  0.1957
 2594SOL    HW119418   2.430   0.723   4.902  2.9301 -0.4105 -0.0494
 2594SOL    HW219419   2.498   0.627   4.987 -0.4918 -1.1284  0.9051
 2595SOL     OW19420   3.757   4.438   2.834  0.0956  0.4735  0.5784
 2595SOL    HW119421   3.691   4.498   2.799 -0.1466  0.7141  1.4716
 2595SOL    HW219422   3.774   4.472   2.921 -1.2764  0.1863  0.9606
 2596SOL     OW19423   4.310   4.608   5.946  0.3665 -0.0429 -0.4033
 2596SOL    HW119424   4.232   4.585   5.997  0.4376  0.3987 -0.0871
 2596SOL    HW219425   4.348   4.520   5.943  1.0986  0.2299  0.7240
 2597SOL     OW19426   3.536   3.487  15.310 -0.6588 -0.0134 -0.4531
 2597SOL    HW119427   3.489   3.560  15.270 -1.5947  0.2713  1.1453
 2597SOL    HW219428   3.584   3.451  15.236 -1.6585  0.7862 -1.4954
 2598SOL     OW19429   0.201   3.619  10.244  0.6540  0.0642  0.0006
 2598SOL    HW119430   0.194   3.604  10.149 -1.3237 -2.6165  0.5791
 2598SOL    HW219431   0.285   3.576  10.259 -0.2881 -2.4941 -1.9923
 2599SOL     OW19432   0.503   2.475  15.444  0.0414 -0.5174  0.4542
 2599SOL    HW119433   0.488   2.539  15.375 -1.2226 -0.8653  0.4062
 2599SOL    HW219434   0.548   2.409  15.391 -0.9743 -0.9155  0.0981
 2600SOL     OW19435   3.873   2.241   8.941  0.3498  0.1769  0.0386
 2600SOL    HW119436   3.947   2.190   8.909  0.4471  1.5243 -1.9029
 2600SOL    HW219437   3.879   2.316   8.882 -0.2331  0.4737  0.3544
 2601SOL     OW19438   2.702   3.942   4.535 -0.7917 -0.0501 -0.2937
 2601SOL    HW119439   2.643   3.867   4.523  0.0026 -0.5114 -1.3775
 2601SOL    HW219440   2.761   3.944   4.459 -1.0539  0.1267 -0.4937
 2602SOL     OW19441   1.187   1.351   4.833 -0.1570  0.1371  0.1792
 2602SOL    HW119442   1.220   1.281   4.777  1.1286  2.3277 -1.7684
 2602SOL    HW219443   1.128   1.394   4.772  0.9093 -1.4154 -1.9293
 2603SOL     OW19444   4.109   4.616  10.718  0.3321 -0.4226 -0.1216
 2603SOL    HW119445   4.040   4.611  10.652  0.2617 -0.5576 -0.0358
 2603SOL    HW219446   4.179   4.568  10.673  2.0874  0.6932  1.3900
 2604SOL     OW19447   4.367   3.030  17.420 -0.7376  0.3556  0.0559
 2604SOL    HW119448   4.285   3.069  17.392 -0.9941  0.9161  1.5585
 2604SOL    HW219449   4.356   3.018  17.515 -0.3186 -2.4279 -0.2495
 2605SOL     OW19450   2.664   0.070   2.294  0.2946  0.1833  0.4481
 2605SOL    HW119451   2.626   0.089   2.209 -1.0094 -0.7930  0.8140
 2605SOL    HW219452   2.741   0.014   2.279  0.4405  0.0574  1.6729
 2606SOL     OW19453   1.874   3.348   7.985  0.1676 -0.2699 -0.4266
 2606SOL    HW119454   1.958   3.304   7.991  0.2600 -0.2564 -1.5790
 2606SOL    HW219455   1.879   3.418   7.919 -0.2397 -1.5495 -1.8090
 2607SOL     OW19456   4.053   2.334   5.667 -0.3384  0.2631  0.0039
 2607SOL    HW119457   4.072   2.374   5.752 -0.8330 -1.0855  0.7487
 2607SOL    HW219458   3.958   2.343   5.663 -0.4522 -0.0475  1.8194
 2608SOL     OW19459   2.365   0.785  14.893  0.2599  0.1110 -0.6260
 2608SOL    HW119460   2.419   0.858  14.864  0.5166  0.3637  0.4831
 2608SOL    HW219461   2.403   0.776  14.980 -2.6609 -1.2688  0.5428
 2609SOL     OW19462   1.793   0.550   2.615  0.3321 -0.2333 -0.2911
 2609SOL    HW119463   1.763   0.612   2.549  1.7419 -1.7361 -2.3299
 2609SOL    HW219464   1.828   0.481   2.559  2.1249 -0.8111  1.5275
 2610SOL     OW19465   1.973   2.051   9.077  0.3220  0.1672 -0.6663
 2610SOL    HW119466   1.928   2.113   9.135 -0.1554  1.0069 -1.9358
 2610SOL    HW219467   1.902   2.020   9.022 -1.3885 -0.3987  1.8826
 2611SOL     OW19468   4.472   4.674  16.233  0.1938 -0.1339 -0.2468
 2611SOL    HW119469   4.449   4.589  16.270 -0.9350  0.1226 -0.3534
 2611SOL    HW219470   4.462   4.726  16.314 -2.5721 -1.4734  0.2983
 2612SOL     OW19471   4.613   2.944  12.972  0.0714  0.6472 -0.9076
 2612SOL    HW119472   4.639   3.031  12.942  0.8355  1.0231  0.8143
 2612SOL    HW219473   4.623   2.955  13.067 -1.3337 -1.5789 -0.5072
 2613SOL     OW19474   4.066   0.001   9.056  0.0722  0.2885 -0.1223
 2613SOL    HW119475   4.057   4.706   8.967  0.2409  1.3702 -0.5556
 2613SOL    HW219476   4.060   0.096   9.052 -1.0552  0.2408  0.7160
 2614SOL     OW19477   3.517   2.921  11.556  0.4215 -0.4365  0.2028
 2614SOL    HW119478   3.428   2.909  11.523  0.8787  0.2526 -1.2863
 2614SOL    HW219479   3.565   2.886  11.481 -0.3531 -4.0171  1.3360
 2615SOL     OW19480   0.683   1.387   6.999 -0.4156 -0.2948  0.1858
 2615SOL    HW119481   0.738   1.322   6.957 -0.2466 -0.8080  1.1932
 2615SOL    HW219482   0.740   1.433   7.060  0.3281 -0.7135 -0.2014
 2616SOL     OW19483   0.153   3.878  14.489  0.2427  0.0056 -0.0128
 2616SOL    HW119484   0.205   3.954  14.516 -0.4996  0.5816 -0.2119
 2616SOL    HW219485   0.126   3.842  14.573  0.5669  0.7127  0.3938
 2617SOL     OW19486   3.180   4.394   0.414  0.0449 -0.0911  0.2005
 2617SOL    HW119487   3.216   4.323   0.467  1.7346  0.0434 -0.7524
 2617SOL    HW219488   3.253   4.454   0.396  0.2414  0.1379  1.7866
 2618SOL     OW19489   3.087   1.446   1.060 -0.4708  0.3252 -0.4645
 2618SOL    HW119490   3.073   1.353   1.044  1.1565  0.4410 -2.6603
 2618SOL    HW219491   3.148   1.449   1.134 -0.8158  0.6185 -0.1943
 2619SOL     OW19492   1.770   3.679  14.163 -0.2422 -0.7043 -0.1433
 2619SOL    HW119493   1.709   3.724  14.222  0.0857 -0.8217  0.2806
 2619SOL    HW219494   1.779   3.597  14.212  1.9299 -0.3771  0.0091
 2620SOL     OW19495   0.096   1.557   7.596 -0.7528 -0.0541  0.0544
 2620SOL    HW119496   0.174   1.563   7.539 -0.0617  3.3855  1.3475
 2620SOL    HW219497   0.042   1.510   7.533 -1.9091 -0.2856  1.2246
 2621SOL     OW19498   4.341   0.158   7.572  0.3339  0.0474  0.6675
 2621SOL    HW119499   4.425   0.130   7.608 -0.5264 -3.2631  0.1383
 2621SOL    HW219500   4.352   0.245   7.533 -0.4636  0.6627  1.8387
 2622SOL     OW19501   1.288   3.392  12.124 -0.4211  0.2440 -0.1205
 2622SOL    HW119502   1.292   3.353  12.037  0.4077  0.3306 -0.1254
 2622SOL    HW219503   1.355   3.340  12.169 -0.3383  0.7763  0.3660
 2623SOL     OW19504   0.228   0.984   3.982  0.5079  0.5169 -0.6271
 2623SOL    HW119505   0.277   0.911   4.019 -1.1951  0.1979  1.0129
 2623SOL    HW219506   0.294   1.044   3.947  1.5326 -0.8791 -1.0625
 2624SOL     OW19507   3.994   2.879   3.750 -0.8637 -0.2891 -0.1365
 2624SOL    HW119508   4.072   2.849   3.797 -0.4890  0.5119 -0.2593
 2624SOL    HW219509   3.969   2.795   3.711  0.4226 -0.7259 -0.0293
 2625SOL     OW19510   1.772   0.476  16.208  0.0562  0.2365  0.6851
 2625SOL    HW119511   1.687   0.466  16.166  0.8655 -0.5516 -0.7813
 2625SOL    HW219512   1.828   0.417  16.157 -1.4305 -1.4417  0.9972
 2626SOL     OW19513   3.351   3.366  13.608 -0.3888 -0.3404 -0.0386
 2626SOL    HW119514   3.268   3.395  13.646  0.7990  1.6434  1.0576
 2626SOL    HW219515   3.416   3.435  13.620 -0.0406 -0.5988 -0.4446
 2627SOL     OW19516   1.521   3.262   4.192  0.0254 -0.1096  0.0380
 2627SOL    HW119517   1.467   3.223   4.261  0.1387  1.2116  0.8668
 2627SOL    HW219518   1.594   3.200   4.202  1.1833  0.8920 -2.3446
 2628SOL     OW19519   4.694   2.124   3.032 -0.1732  0.3902 -0.2950
 2628SOL    HW119520   4.627   2.161   3.090  0.0431  1.9213 -1.0451
 2628SOL    HW219521   0.015   2.197   3.021 -1.2788  1.0863 -1.8005
 2629SOL     OW19522   3.731   2.231   6.408  0.4565  0.1839  0.0603
 2629SOL    HW119523   3.720   2.145   6.367  1.7951  1.0676 -2.1546
 2629SOL    HW219524   3.683   2.221   6.490  1.4375 -1.5599  0.4102
 2630SOL     OW19525   0.292   3.981   3.172  0.0212  0.0027  0.1044
 2630SOL    HW119526   0.348   4.059   3.167 -2.8333  1.9554 -1.2844
 2630SOL    HW219527   0.205   4.008   3.142  0.3683  0.9751 -0.0358
 2631SOL     OW19528   4.115   0.383   6.576 -0.1042 -0.1669 -0.2320
 2631SOL    HW119529   4.137   0.309   6.632 -1.3497  0.1516  0.7059
 2631SOL    HW219530   4.070   0.435   6.644 -0.5965 -0.7911 -0.0791
 2632SOL     OW19531   4.075   1.033  12.359  0.0386 -0.2790 -0.0827
 2632SOL    HW119532   4.034   1.036  12.272  4.2624  0.4681 -2.0949
 2632SOL    HW219533   4.169   1.026  12.339  0.2745  0.1052  0.9339
 2633SOL     OW19534   2.540   3.542   6.661  0.1546 -0.4142 -0.1418
 2633SOL    HW119535   2.458   3.494   6.661 -0.1625  0.1158  1.3273
 2633SOL    HW219536   2.600   3.468   6.650 -2.9917 -3.0094  0.2186
 2634SOL     OW19537   2.837   3.451   7.219  0.3839 -0.2105  0.3066
 2634SOL    HW119538   2.910   3.390   7.229 -0.1131 -1.2266 -2.0790
 2634SOL    HW219539   2.839   3.507   7.296 -0.8086  0.5103 -0.1929
 2635SOL     OW19540   2.137   1.504   3.933  0.2014  0.5584 -0.1436
 2635SOL    HW119541   2.217   1.545   3.901  2.9238 -4.1646  0.5894
 2635SOL    HW219542   2.154   1.511   4.027  0.2956  2.6625 -0.3192
 2636SOL     OW19543   2.542   3.651   4.721  0.0524  0.3212  0.2504
 2636SOL    HW119544   2.546   3.663   4.626 -1.2564 -2.7576 -0.1877
 2636SOL    HW219545   2.455   3.611   4.728 -0.0251  0.2765 -1.0290
 2637SOL     OW19546   2.390   4.289   3.606  0.9809 -0.3182  0.6488
 2637SOL    HW119547   2.385   4.359   3.672  0.1690 -0.3113  0.5905
 2637SOL    HW219548   2.483   4.273   3.595  1.6260  3.7786 -0.1676
 2638SOL     OW19549   4.018   2.035   8.128  0.6597  0.0932 -0.2567
 2638SOL    HW119550   4.075   2.009   8.200 -0.0736 -0.7487  0.0244
 2638SOL    HW219551   3.943   2.051   8.185  2.0599  2.6612  0.8246
 2639SOL     OW19552   3.807   3.778   4.164 -0.2729  0.6913 -0.2084
 2639SOL    HW119553   3.773   3.848   4.220 -0.0345  0.1799  0.5725
 2639SOL    HW219554   3.869   3.830   4.113 -0.0265 -1.9837 -2.6473
 2640SOL     OW19555   0.064   2.101   7.794  0.2685  0.2363  0.1349
 2640SOL    HW119556   0.141   2.096   7.850 -0.4257  0.7085  1.1339
 2640SOL    HW219557   0.039   2.009   7.804  1.1288  0.0926  0.9249
 2641SOL     OW19558   0.947   2.402   3.836 -0.4089  0.3490  0.5730
 2641SOL    HW119559   1.005   2.355   3.776  0.2114  2.5009 -0.5049
 2641SOL    HW219560   0.939   2.335   3.904  1.3946  0.0180  0.4668
 2642SOL     OW19561   4.560   1.854  17.284 -0.3351  0.4666 -0.3621
 2642SOL    HW119562   4.513   1.832  17.203 -0.5517  0.9474 -0.3693
 2642SOL    HW219563   4.535   1.781  17.340  1.4416  0.2329  0.1035
 2643SOL     OW19564   0.335   4.327  17.227  0.8504  0.2657 -0.4542
 2643SOL    HW119565   0.241   4.310  17.225  0.7138  1.2555 -2.3617
 2643SOL    HW219566   0.345   4.418  17.200  0.1567  0.5185  0.1388
 2644SOL     OW19567   1.803   3.159  16.504  0.3819 -0.6069  0.4140
 2644SOL    HW119568   1.787   3.200  16.419  0.8392 -3.9911 -1.3256
 2644SOL    HW219569   1.711   3.140  16.521 -0.0678  0.2787 -0.9922
 2645SOL     OW19570   1.711   2.479  13.666 -0.5755 -0.3313 -0.0982
 2645SOL    HW119571   1.713   2.547  13.733 -1.4618 -0.9772  0.5954
 2645SOL    HW219572   1.765   2.410  13.706 -2.2285 -0.3881  2.0575
 2646SOL     OW19573   0.835   1.814   3.551 -0.6702 -0.4039  0.3642
 2646SOL    HW119574   0.920   1.790   3.514 -0.2012 -0.1070  1.2553
 2646SOL    HW219575   0.772   1.817   3.479 -1.3539  1.1602  1.0252
 2647SOL     OW19576   1.486   2.201   2.036  0.0255  0.3711 -0.2668
 2647SOL    HW119577   1.558   2.142   2.061  1.1192  1.9404  0.3004
 2647SOL    HW219578   1.518   2.291   2.039  2.6408 -0.6167  1.2265
 2648SOL     OW19579   0.215   4.411  17.536 -0.1559 -0.9532 -0.0057
 2648SOL    HW119580   0.295   4.447  17.575 -1.0249 -1.3621  2.2133
 2648SOL    HW219581   0.249   4.322  17.526 -0.7070 -1.0641 -0.8305
 2649SOL     OW19582   3.395   1.437  13.263 -0.3479  0.0553 -0.1175
 2649SOL    HW119583   3.415   1.423  13.170  2.8659  0.4290  0.5181
 2649SOL    HW219584   3.478   1.433  13.310 -0.2175 -2.3040 -0.5243
 2650SOL     OW19585   2.414   1.376   1.880  0.4459 -0.2661  0.0207
 2650SOL    HW119586   2.424   1.285   1.851  0.2551 -0.2824  0.0023
 2650SOL    HW219587   2.364   1.401   1.802 -1.5006 -2.0049  0.6968
 2651SOL     OW19588   3.155   1.052   6.439  0.0897  0.1966 -0.5394
 2651SOL    HW119589   3.121   0.973   6.482  0.6030  0.8443  1.0715
 2651SOL    HW219590   3.230   1.010   6.397  0.2138  1.0805 -1.1878
 2652SOL     OW19591   0.282   0.150  14.664 -0.3444 -0.2133  0.0855
 2652SOL    HW119592   0.254   0.157  14.573 -0.7136 -2.7143 -0.0061
 2652SOL    HW219593   0.199   0.173  14.706 -0.2376 -0.0885  0.2302
 2653SOL     OW19594   3.493   3.011   8.543 -0.3901 -0.2054 -0.2858
 2653SOL    HW119595   3.430   2.954   8.499  0.7222 -0.7348 -1.2132
 2653SOL    HW219596   3.509   2.970   8.628 -1.6223  1.2391  0.6239
 2654SOL     OW19597   1.107   0.524   7.391 -0.2671 -0.3354 -1.3421
 2654SOL    HW119598   1.162   0.525   7.469 -0.9404  0.9307 -0.8832
 2654SOL    HW219599   1.147   0.465   7.328  1.5352 -1.0185  0.4412
 2655SOL     OW19600   0.491   2.244   6.283 -0.1608 -0.0707 -0.7009
 2655SOL    HW119601   0.585   2.230   6.296 -0.1958 -0.7287 -1.1189
 2655SOL    HW219602   0.472   2.194   6.204 -2.2121  0.2728 -0.4271
 2656SOL     OW19603   1.183   2.859   7.414  0.0749 -0.0085  0.4777
 2656SOL    HW119604   1.204   2.930   7.475 -2.0277 -0.0783  1.2766
 2656SOL    HW219605   1.199   2.775   7.457  1.4907 -0.6435 -1.2912
 2657SOL     OW19606   3.006   2.359   1.757 -0.3895 -0.6894 -0.4256
 2657SOL    HW119607   2.936   2.369   1.694  0.1543 -0.5065 -1.0006
 2657SOL    HW219608   3.042   2.272   1.739  1.4998 -0.0912  0.4419
 2658SOL     OW19609   0.629   1.614   9.273 -0.2071  0.4197 -0.6687
 2658SOL    HW119610   0.617   1.522   9.299  0.7920 -0.2540 -2.5414
 2658SOL    HW219611   0.683   1.642   9.346  2.1266 -1.2646 -1.7340
 2659SOL     OW19612   1.925   3.110   5.284  0.2541  0.3166 -0.0936
 2659SOL    HW119613   1.894   3.199   5.272 -0.3429  0.2149  0.6721
 2659SOL    HW219614   2.012   3.138   5.313  0.9438 -0.8137 -1.0350
 2660SOL     OW19615   0.636   3.330   4.922  0.4319 -0.0991  0.2980
 2660SOL    HW119616   0.548   3.295   4.906  0.9447 -0.3131 -2.0361
 2660SOL    HW219617   0.640   3.339   5.018 -1.3966  0.0918  0.3559
 2661SOL     OW19618   1.364   1.117   9.243 -0.3824  0.0697 -0.2032
 2661SOL    HW119619   1.326   1.116   9.155  0.0286  0.9088 -0.3923
 2661SOL    HW219620   1.289   1.091   9.297 -0.2967  0.1286 -0.0558
 2662SOL     OW19621   2.033   1.583   8.320 -0.1843  0.2093 -0.2414
 2662SOL    HW119622   2.090   1.621   8.386  0.4920  0.0636 -0.7439
 2662SOL    HW219623   2.010   1.495   8.351 -0.1745 -0.0328 -0.9043
 2663SOL     OW19624   4.206   3.389   1.696  0.5573 -0.3087 -0.3562
 2663SOL    HW119625   4.224   3.355   1.608 -0.9511 -1.7329 -0.1102
 2663SOL    HW219626   4.169   3.309   1.733  0.8788  0.3540  1.4103
 2664SOL     OW19627   2.027   4.472   3.728  0.0237 -0.7181  0.3802
 2664SOL    HW119628   1.958   4.408   3.711  1.0033 -0.7243 -3.5030
 2664SOL    HW219629   2.021   4.514   3.642  0.4257 -1.0341  0.1960
 2665SOL     OW19630   4.284   0.089  13.613 -0.0221 -0.0385 -0.0121
 2665SOL    HW119631   4.347   0.085  13.540 -2.2630  2.2875 -2.0775
 2665SOL    HW219632   4.261   0.182  13.615 -0.8567 -0.2417 -0.0991
 2666SOL     OW19633   0.197   3.411  17.291 -0.3497 -0.3045  0.1757
 2666SOL    HW119634   0.190   3.502  17.262 -3.5248 -0.2606  1.0654
 2666SOL    HW219635   0.275   3.403  17.346 -0.1641 -2.4713 -0.4365
 2667SOL     OW19636   2.266   3.834   1.935  0.2464 -0.5115  0.2446
 2667SOL    HW119637   2.223   3.757   1.898 -1.5960 -0.2597  1.8871
 2667SOL    HW219638   2.275   3.807   2.026 -2.4213 -3.4057 -0.3433
 2668SOL     OW19639   4.032   1.390  11.965  0.7922  0.3602 -0.3162
 2668SOL    HW119640   4.049   1.444  12.042 -2.1255 -0.1504  0.6578
 2668SOL    HW219641   4.080   1.437  11.897 -0.2086  2.2295  0.2966
 2669SOL     OW19642   3.155   1.507  10.153  0.4195  0.3757  0.3477
 2669SOL    HW119643   3.184   1.592  10.187  0.8599  0.4152 -0.1232
 2669SOL    HW219644   3.208   1.447  10.205 -0.7945 -0.3780  0.7195
 2670SOL     OW19645   3.169   1.269   2.448  0.4052  0.2078  0.3570
 2670SOL    HW119646   3.115   1.345   2.427 -0.0865  0.2441  1.7491
 2670SOL    HW219647   3.184   1.275   2.542 -0.8890 -0.6422  0.6163
 2671SOL     OW19648   4.481   2.119   5.485  0.1743 -0.4253 -0.1132
 2671SOL    HW119649   4.422   2.043   5.485 -0.7358  0.2769 -0.2455
 2671SOL    HW219650   4.411   2.183   5.499  2.2047  1.9033 -0.5612
 2672SOL     OW19651   0.619   4.432   6.291 -0.1949  0.6524  0.7249
 2672SOL    HW119652   0.597   4.341   6.311  0.6672 -0.3380 -2.8008
 2672SOL    HW219653   0.697   4.422   6.237 -1.0189 -1.5127 -0.0922
 2673SOL     OW19654   0.212   4.251   5.436  0.0553  0.6355 -0.4981
 2673SOL    HW119655   0.132   4.220   5.477  1.3502  0.2470  1.7278
 2673SOL    HW219656   0.259   4.168   5.425 -1.5300 -0.4289  0.7743
 2674SOL     OW19657   4.453   0.660  13.474  1.0570  0.0667 -0.0465
 2674SOL    HW119658   4.369   0.634  13.436  1.6808 -1.6916 -0.2327
 2674SOL    HW219659   4.489   0.689  13.391 -1.4848 -1.4841 -1.7066
 2675SOL     OW19660   4.689   3.760   3.094 -0.6103  0.6022 -0.0982
 2675SOL    HW119661   0.015   3.789   3.158  0.0736 -1.3912  0.0790
 2675SOL    HW219662   4.646   3.842   3.067  1.4146  1.3941 -0.9514
 2676SOL     OW19663   1.993   1.561   0.894  0.1177  0.4684  0.0718
 2676SOL    HW119664   2.005   1.523   0.807 -0.1955  1.3952 -0.3754
 2676SOL    HW219665   1.979   1.474   0.932 -0.6634  0.1255 -1.0009
 2677SOL     OW19666   0.507   0.961   6.055 -0.4438 -0.1420 -0.1275
 2677SOL    HW119667   0.487   0.994   5.967  4.0416 -0.3269 -1.1997
 2677SOL    HW219668   0.480   1.040   6.102 -0.8795  0.4034 -1.2837
 2678SOL     OW19669   1.262   1.435   2.369  0.0925  0.2232 -0.2112
 2678SOL    HW119670   1.189   1.388   2.410 -0.6731  0.9397 -0.7498
 2678SOL    HW219671   1.241   1.519   2.410  0.0711 -0.5549  1.3960
 2679SOL     OW19672   2.107   4.739   3.747  0.2068  0.2104  0.3233
 2679SOL    HW119673   2.022   0.043   3.758 -0.3213 -0.8598  0.4335
 2679SOL    HW219674   2.089   4.648   3.769  1.5112  0.1920  1.3084
 2680SOL     OW19675   3.361   2.093   7.541 -0.7695 -0.0693 -0.1690
 2680SOL    HW119676   3.365   2.007   7.582 -2.2588 -0.1237 -0.1332
 2680SOL    HW219677   3.272   2.091   7.506 -0.1404  1.3991 -1.8650
 2681SOL     OW19678   0.333   3.043  14.865 -0.3664  0.3528  0.0839
 2681SOL    HW119679   0.260   3.061  14.807  0.7905  1.0331 -1.1644
 2681SOL    HW219680   0.299   3.008  14.947 -2.1757 -0.1282 -0.8644
 2682SOL     OW19681   3.923   1.793   7.793  0.3143 -0.0985  0.8146
 2682SOL    HW119682   3.933   1.884   7.821  1.7174  0.1624 -0.4835
 2682SOL    HW219683   3.887   1.760   7.875 -0.3452  0.0878  0.5929
 2683SOL     OW19684   4.708   2.490   8.912  0.0532  0.2848  0.5677
 2683SOL    HW119685   4.662   2.566   8.947  0.8603  1.4638 -0.9133
 2683SOL    HW219686   4.646   2.426   8.948 -0.2383  0.7041  0.8111
 2684SOL     OW19687   0.872   2.515  13.428  0.2506 -0.0843  0.1104
 2684SOL    HW119688   0.845   2.451  13.362 -0.1533 -0.9085  1.0874
 2684SOL    HW219689   0.850   2.594  13.379  1.1460  0.2439  0.2438
 2685SOL     OW19690   3.904   2.820   4.314 -0.0721  0.4394 -0.1534
 2685SOL    HW119691   3.832   2.812   4.376  1.2238 -1.2153  1.1397
 2685SOL    HW219692   3.924   2.913   4.310  0.9345  0.2223 -0.0984
 2686SOL     OW19693   3.598   1.122   6.184  0.5549 -0.9317  0.0575
 2686SOL    HW119694   3.617   1.066   6.260 -0.5748  3.1921  3.3541
 2686SOL    HW219695   3.676   1.176   6.176  0.7369 -1.5465 -2.3003
 2687SOL     OW19696   0.473   1.565   7.093 -0.1368  0.2508 -0.0312
 2687SOL    HW119697   0.517   1.508   7.031  0.2392 -1.7811  2.1181
 2687SOL    HW219698   0.525   1.543   7.170 -1.5088  0.6292  1.0153
 2688SOL     OW19699   0.632   0.202  15.934 -0.0661  0.3095  0.4131
 2688SOL    HW119700   0.643   0.222  16.027  0.3606  0.2188  0.3816
 2688SOL    HW219701   0.574   0.268  15.895  0.0806 -1.3680 -2.6650
 2689SOL     OW19702   1.534   4.026   2.049 -0.0055  0.0785  0.2204
 2689SOL    HW119703   1.498   3.963   2.113 -1.5044  0.6654 -0.0431
 2689SOL    HW219704   1.490   4.105   2.081 -0.0283  0.0141  0.3506
 2690SOL     OW19705   4.584   3.376   4.864  0.5743 -0.9336  0.3252
 2690SOL    HW119706   4.634   3.296   4.880  1.1458 -0.2334  2.0569
 2690SOL    HW219707   4.592   3.367   4.769 -0.5769  0.3733  0.1144
 2691SOL     OW19708   1.275   4.422   0.646  0.1683 -0.0978 -0.3379
 2691SOL    HW119709   1.273   4.515   0.625 -0.7187  0.3577  1.7486
 2691SOL    HW219710   1.210   4.427   0.716  0.0568  1.3292 -0.5452
 2692SOL     OW19711   1.482   1.813   7.374  0.3431  0.2920 -0.0452
 2692SOL    HW119712   1.528   1.885   7.419 -1.0635  1.0455  0.1742
 2692SOL    HW219713   1.509   1.834   7.285  1.4697 -0.2486  0.1674
 2693SOL     OW19714   3.895   1.018   9.559  0.7713  0.1146 -0.2071
 2693SOL    HW119715   3.909   1.032   9.465  0.0773 -1.6089 -0.5729
 2693SOL    HW219716   3.975   0.971   9.580  1.4174  1.1811 -0.2486
 2694SOL     OW19717   4.085   1.342   5.849  0.2678  0.2739 -0.1403
 2694SOL    HW119718   4.085   1.429   5.889  2.7330  0.7876 -1.2162
 2694SOL    HW219719   4.099   1.364   5.757  0.6986  2.2050  0.3797
 2695SOL     OW19720   0.274   0.536  16.257 -0.3870  0.2428  0.2274
 2695SOL    HW119721   0.364   0.524  16.225  0.0913  0.1416  1.5898
 2695SOL    HW219722   0.248   0.447  16.281 -2.4135  1.0677  1.1157
 2696SOL     OW19723   2.693   0.900   3.135  0.1007 -0.1204 -0.6286
 2696SOL    HW119724   2.709   0.880   3.228  1.3654  1.4604 -0.4972
 2696SOL    HW219725   2.610   0.856   3.121 -0.4463  0.7282 -0.0845
 2697SOL     OW19726   2.073   0.982   2.013  0.3909 -0.0621 -0.1463
 2697SOL    HW119727   2.033   1.027   1.939 -0.0331  1.1776  0.8268
 2697SOL    HW219728   2.021   1.030   2.078 -1.5350 -0.6615 -1.2422
 2698SOL     OW19729   0.887   2.787   3.563 -0.2175 -0.0535  0.6039
 2698SOL    HW119730   0.933   2.713   3.522 -0.4817  1.2641 -2.0425
 2698SOL    HW219731   0.962   2.845   3.548 -0.4704 -0.0815 -0.7568
 2699SOL     OW19732   2.803   3.057  10.752 -0.5570  0.7350  0.8823
 2699SOL    HW119733   2.723   3.103  10.728  0.8860  1.8683 -1.7547
 2699SOL    HW219734   2.858   3.104  10.690  0.0806 -1.3771 -0.1779
 2700SOL     OW19735   0.594   1.152  10.796  0.2112  0.7490  0.5446
 2700SOL    HW119736   0.651   1.125  10.868  0.1211 -2.5504 -0.5910
 2700SOL    HW219737   0.610   1.074  10.744 -0.9212 -0.4464  1.9588
 2701SOL     OW19738   0.503   1.962   2.723  0.4235 -0.0516 -0.3953
 2701SOL    HW119739   0.457   1.881   2.743 -1.2623  0.8421 -0.6915
 2701SOL    HW219740   0.500   2.002   2.810 -1.5617 -0.7757 -0.1397
 2702SOL     OW19741   0.997   2.027   2.922  0.0433  0.8290  0.4551
 2702SOL    HW119742   1.042   2.087   2.864  1.5618  0.1009  0.8756
 2702SOL    HW219743   0.939   1.985   2.859  0.2682 -1.3343  1.6608
 2703SOL     OW19744   1.595   3.034  11.307  0.6934  0.2955  0.5834
 2703SOL    HW119745   1.608   3.127  11.289  0.6613  0.1708 -0.1026
 2703SOL    HW219746   1.555   2.999  11.227  0.5386  1.7500  0.0135
 2704SOL     OW19747   0.547   1.591   5.953  0.6483 -0.3098  0.0181
 2704SOL    HW119748   0.463   1.565   5.916 -0.3788  0.7496  1.6313
 2704SOL    HW219749   0.605   1.528   5.909 -0.1483 -0.5035 -0.7389
 2705SOL     OW19750   2.464   2.321  10.086  0.1474 -0.2091  0.4300
 2705SOL    HW119751   2.431   2.244  10.039 -0.3812  1.1172 -1.3815
 2705SOL    HW219752   2.491   2.365  10.005  0.4042  2.4597  1.9773
 2706SOL     OW19753   0.886   0.692   3.744  0.6348  0.0134  0.6430
 2706SOL    HW119754   0.798   0.714   3.714 -0.3822 -3.0667  1.3599
 2706SOL    HW219755   0.901   0.765   3.804  0.1292 -0.4030  1.2745
 2707SOL     OW19756   2.775   3.444   0.094  0.3161  0.1048 -0.4816
 2707SOL    HW119757   2.854   3.456   0.147 -0.3101 -0.6047  0.6191
 2707SOL    HW219758   2.711   3.420   0.161 -1.4295  2.3490 -1.3633
 2708SOL     OW19759   1.904   2.355   8.190 -0.1040  0.0204  0.0752
 2708SOL    HW119760   1.820   2.366   8.236 -0.6658 -1.3391 -0.6317
 2708SOL    HW219761   1.878   2.301   8.116  3.3547 -0.3938 -0.8468
 2709SOL     OW19762   2.116   4.195   1.320  0.5680  0.3325  0.0863
 2709SOL    HW119763   2.043   4.242   1.360  1.0757 -0.3851  1.8603
 2709SOL    HW219764   2.105   4.123   1.382  3.0879  0.3685  0.5744
 2710SOL     OW19765   1.356   0.115  15.208 -0.3211 -0.4775  0.1534
 2710SOL    HW119766   1.382   0.086  15.295  0.2123 -1.8430 -0.4636
 2710SOL    HW219767   1.271   0.158  15.213  0.2779  0.4385  2.6327
 2711SOL     OW19768   2.999   1.232  14.765 -0.0595 -0.1205  0.2288
 2711SOL    HW119769   3.045   1.293  14.822 -1.7628  1.3555 -0.0001
 2711SOL    HW219770   2.956   1.172  14.827  0.0369  1.5255  1.8963
 2712SOL     OW19771   0.563   1.148   6.432 -0.2921  0.5703  0.3456
 2712SOL    HW119772   0.557   1.154   6.527 -2.9057  2.2009  0.0899
 2712SOL    HW219773   0.489   1.205   6.413 -0.6733 -0.7171 -1.9941
 2713SOL     OW19774   2.993   2.133   3.716 -0.0514  0.3685  0.3611
 2713SOL    HW119775   3.016   2.050   3.757 -2.3869 -0.7506 -0.5924
 2713SOL    HW219776   2.988   2.097   3.628 -1.2227  0.0949  0.5331
 2714SOL     OW19777   2.241   0.882  12.346 -0.0747  0.5018 -0.2218
 2714SOL    HW119778   2.332   0.865  12.323  0.0922  1.1520 -0.0396
 2714SOL    HW219779   2.206   0.875  12.257 -2.5437  1.4100  0.6744
 2715SOL     OW19780   0.632   3.409   2.788 -0.1486 -0.1279 -0.2156
 2715SOL    HW119781   0.570   3.352   2.833  0.7034 -0.9789 -0.1498
 2715SOL    HW219782   0.655   3.357   2.711  0.7154  1.4146 -0.9983
 2716SOL     OW19783   1.259   3.340  12.973 -0.1555  0.3050  0.1982
 2716SOL    HW119784   1.344   3.377  12.998 -1.0678  1.3227  1.7461
 2716SOL    HW219785   1.283   3.248  12.985 -1.9915 -0.5397 -2.5183
 2717SOL     OW19786   3.650   4.429   2.163 -0.5762 -0.0125 -0.6903
 2717SOL    HW119787   3.703   4.405   2.239 -0.2375 -0.4603 -1.0622
 2717SOL    HW219788   3.691   4.376   2.094 -1.7883  0.1735 -1.5558
 2718SOL     OW19789   2.197   2.594   3.235 -0.4445 -0.3816 -0.1771
 2718SOL    HW119790   2.200   2.629   3.146 -0.9860  0.4951  0.1559
 2718SOL    HW219791   2.261   2.644   3.285  1.5374 -2.8655 -0.2298
 2719SOL     OW19792   3.266   0.603   3.559 -0.0817 -0.0870 -0.4220
 2719SOL    HW119793   3.349   0.613   3.606  0.7317 -0.1222 -1.8326
 2719SOL    HW219794   3.258   0.695   3.537  1.3634  0.5421  1.6817
 2720SOL     OW19795   3.385   0.519   7.431 -0.3325  0.1396 -0.1965
 2720SOL    HW119796   3.316   0.459   7.403 -1.3549  1.1220  0.2150
 2720SOL    HW219797   3.352   0.535   7.520 -2.4427  2.4117 -1.3733
 2721SOL     OW19798   2.229   3.525   3.928 -0.1622  0.1087 -1.0893
 2721SOL    HW119799   2.293   3.568   3.984  1.4186 -0.6869 -2.2654
 2721SOL    HW219800   2.274   3.456   3.879 -0.0799 -1.0231  0.5959
 2722SOL     OW19801   0.392   2.251   4.637  0.3644  0.1719 -0.1784
 2722SOL    HW119802   0.371   2.176   4.581 -3.5655  1.5539 -0.5194
 2722SOL    HW219803   0.366   2.218   4.723 -0.9919 -0.3607 -0.7833
 2723SOL     OW19804   3.173   2.683   4.558  0.5186  0.1247 -0.2054
 2723SOL    HW119805   3.144   2.765   4.518  2.4104  1.4802  1.2631
 2723SOL    HW219806   3.146   2.619   4.492  0.9752  1.3374 -1.5681
 2724SOL     OW19807   4.310   1.619   1.652 -0.0442 -0.3403 -0.3975
 2724SOL    HW119808   4.350   1.678   1.716 -1.7190  1.5229 -1.0686
 2724SOL    HW219809   4.319   1.668   1.571  0.2148  1.8604  0.9729
 2725SOL     OW19810   0.426   1.556   2.805 -0.0240  0.9457  0.1051
 2725SOL    HW119811   0.365   1.614   2.849  0.3493  0.7120  0.9299
 2725SOL    HW219812   0.500   1.616   2.813  0.9031 -0.1931  0.1471
 2726SOL     OW19813   0.402   1.653   3.844  0.4609  0.3271 -0.1929
 2726SOL    HW119814   0.454   1.675   3.767 -0.1257 -0.2235 -0.7474
 2726SOL    HW219815   0.331   1.715   3.829  1.2084  1.1205 -0.4547
 2727SOL     OW19816   1.254   3.339   2.120 -0.2387  0.3296  0.5040
 2727SOL    HW119817   1.243   3.407   2.186  0.7196  0.3174  0.6789
 2727SOL    HW219818   1.267   3.263   2.177 -1.1639 -0.5394 -0.4411
 2728SOL     OW19819   3.146   2.054   6.382  0.1683 -0.1541  0.3521
 2728SOL    HW119820   3.077   1.994   6.412  0.0282  0.2477  0.8296
 2728SOL    HW219821   3.107   2.139   6.400  1.4615  0.7510 -1.1514
 2729SOL     OW19822   0.166   4.236   6.585 -0.0498  0.4736 -0.5343
 2729SOL    HW119823   0.144   4.330   6.584 -0.6050  0.3354 -1.5944
 2729SOL    HW219824   0.255   4.238   6.618  0.0206  1.1531 -0.7667
 2730SOL     OW19825   0.127   1.221  12.784 -0.9006  1.2019  0.1933
 2730SOL    HW119826   0.074   1.204  12.862  1.0771 -3.0110  0.6378
 2730SOL    HW219827   0.187   1.147  12.784  0.1486  2.0514  0.8693
 2731SOL     OW19828   2.458   2.310   5.782 -0.0327 -0.1658  0.3343
 2731SOL    HW119829   2.525   2.275   5.723 -0.7850  0.5186 -0.9199
 2731SOL    HW219830   2.501   2.385   5.823  1.1836 -0.6380 -0.0845
 2732SOL     OW19831   0.216   4.459   7.225  0.0638  0.1602 -0.2277
 2732SOL    HW119832   0.192   4.375   7.186  0.2381 -0.1593  0.3597
 2732SOL    HW219833   0.154   4.514   7.178  0.0540 -0.9191 -1.4934
 2733SOL     OW19834   4.381   3.801   4.479  0.0414 -0.1207  0.8812
 2733SOL    HW119835   4.441   3.815   4.553  1.6847 -1.3370 -0.2162
 2733SOL    HW219836   4.330   3.882   4.481  0.0225 -0.0637 -2.2621
 2734SOL     OW19837   2.210   1.737  10.653 -0.5795  0.3453  0.3467
 2734SOL    HW119838   2.218   1.806  10.587 -0.4036 -1.4146 -1.4663
 2734SOL    HW219839   2.296   1.734  10.695 -0.4447 -2.0891 -0.0946
 2735SOL     OW19840   3.363   4.098   2.270 -0.4040  0.5972  0.3156
 2735SOL    HW119841   3.418   4.067   2.198 -0.5375 -1.9032  1.2958
 2735SOL    HW219842   3.428   4.148   2.319  2.1974 -0.9632 -1.5212
 2736SOL     OW19843   1.526   2.084  10.032  0.7243  0.0936 -0.3652
 2736SOL    HW119844   1.536   2.034   9.951  2.6008 -0.2650  0.0932
 2736SOL    HW219845   1.531   2.013  10.096  0.2545 -0.9206 -1.4454
 2737SOL     OW19846   4.215   3.765   0.042  0.5267 -0.3976  0.8123
 2737SOL    HW119847   4.284   3.722  17.746 -0.3689 -0.1243 -0.6399
 2737SOL    HW219848   4.255   3.852   0.040 -1.3152  0.3910 -2.2114
 2738SOL     OW19849   3.686   4.038   7.838 -0.5170  0.8409  0.0002
 2738SOL    HW119850   3.596   4.025   7.806 -0.7715  0.4769  0.8619
 2738SOL    HW219851   3.680   3.997   7.924  0.1682  0.3564 -0.1865
 2739SOL     OW19852   1.054   2.475   0.530 -0.2948  0.4510  0.3017
 2739SOL    HW119853   1.128   2.511   0.480  0.2530  1.5510  1.9251
 2739SOL    HW219854   1.107   2.412   0.578 -0.4099  1.0965  1.2774
 2740SOL     OW19855   3.360   0.457   0.166 -0.4745  0.8701 -0.3574
 2740SOL    HW119856   3.268   0.481   0.156 -0.3937  0.2108 -2.7208
 2740SOL    HW219857   3.377   0.422   0.078  1.5785 -0.8353  0.7167
 2741SOL     OW19858   4.540   0.747   5.490  0.4264  0.0057 -0.0603
 2741SOL    HW119859   4.579   0.781   5.410  3.3576 -1.5054  0.7532
 2741SOL    HW219860   4.538   0.654   5.468  1.7250  0.5310 -2.3907
 2742SOL     OW19861   2.775   4.020  14.119  0.6255  0.3060 -0.2842
 2742SOL    HW119862   2.755   3.948  14.060 -1.1912 -0.1970  0.9421
 2742SOL    HW219863   2.785   4.094  14.059 -2.1847  0.0941 -0.9734
 2743SOL     OW19864   0.305   4.298   5.907  0.2511 -0.2476 -0.3448
 2743SOL    HW119865   0.391   4.288   5.947 -0.0558 -0.7631  0.1972
 2743SOL    HW219866   0.274   4.210   5.883  2.3805 -1.4433  1.3153
 2744SOL     OW19867   2.825   3.896   2.041  0.2194  0.2934 -0.0688
 2744SOL    HW119868   2.826   3.803   2.060  2.2639 -0.1341 -2.2444
 2744SOL    HW219869   2.921   3.900   2.034  0.3219 -0.1734  1.0914
 2745SOL     OW19870   3.565   1.072  16.577  0.2498  0.4124  0.3173
 2745SOL    HW119871   3.551   1.024  16.659  2.7908 -0.6188  0.1333
 2745SOL    HW219872   3.583   0.999  16.518  0.3284  1.0305 -0.4205
 2746SOL     OW19873   1.600   4.428   6.338 -0.3961  0.1935  0.2359
 2746SOL    HW119874   1.548   4.435   6.258 -1.1646  2.8686  0.9419
 2746SOL    HW219875   1.687   4.443   6.300 -0.6326 -1.0049 -0.7946
 2747SOL     OW19876   1.833   1.755   8.229 -0.3355 -0.5405  0.1253
 2747SOL    HW119877   1.927   1.738   8.238 -0.4754 -0.6699  1.3161
 2747SOL    HW219878   1.807   1.666   8.253  0.0748 -0.7048 -0.0369
 2748SOL     OW19879   2.001   4.684   6.197  0.4428 -0.0247 -0.1836
 2748SOL    HW119880   2.094   4.705   6.209  0.5518 -0.9438  0.6019
 2748SOL    HW219881   1.973   4.678   6.288 -1.6038 -0.7441 -0.8622
 2749SOL     OW19882   0.415   3.610  17.080  0.1743 -0.3152 -0.1022
 2749SOL    HW119883   0.440   3.691  17.036 -1.0842  0.8846  1.3929
 2749SOL    HW219884   0.408   3.553  17.003  0.9519  0.6329 -0.8802
 2750SOL     OW19885   0.876   3.241  13.226 -1.2285  0.4818  0.0557
 2750SOL    HW119886   0.921   3.218  13.144 -0.7135 -1.3825  0.8566
 2750SOL    HW219887   0.890   3.335  13.238  1.0426 -0.3210  3.4309
 2751SOL     OW19888   1.939   0.323   2.560  0.4188  0.1409 -0.1935
 2751SOL    HW119889   1.954   0.328   2.654 -0.8061 -2.7945  0.1519
 2751SOL    HW219890   2.027   0.298   2.532  0.2235  1.8206 -2.3290
 2752SOL     OW19891   3.241   1.705   6.952  0.2763 -0.1550  0.2017
 2752SOL    HW119892   3.162   1.652   6.947  0.8154 -0.8221 -1.3025
 2752SOL    HW219893   3.206   1.793   6.966 -0.7540 -0.9867  2.6493
 2753SOL     OW19894   4.007   2.059   7.862 -0.5456  0.0180 -0.2719
 2753SOL    HW119895   4.008   2.030   7.953 -0.4223 -2.6979 -1.1313
 2753SOL    HW219896   4.061   2.138   7.864 -2.3165  1.2555 -1.9242
 2754SOL     OW19897   0.510   2.865  17.606 -0.2563  0.7379  0.1566
 2754SOL    HW119898   0.487   2.957  17.617  0.1483  0.9754 -0.9529
 2754SOL    HW219899   0.577   2.875  17.538  0.0530 -0.7070  0.2415
 2755SOL     OW19900   3.126   2.250   8.071 -0.1322 -0.4409  0.3357
 2755SOL    HW119901   3.101   2.160   8.090  0.6302  0.0487  3.7568
 2755SOL    HW219902   3.100   2.290   8.154  1.8479 -1.0924  1.2816
 2756SOL     OW19903   0.382   2.125  15.118  0.8446 -0.3333 -0.0664
 2756SOL    HW119904   0.386   2.063  15.046  1.1985 -1.7203  1.1540
 2756SOL    HW219905   0.421   2.068  15.183  0.6028 -1.5742 -1.0095
 2757SOL     OW19906   2.857   4.194   7.960 -0.4013 -0.2835  0.2640
 2757SOL    HW119907   2.865   4.109   7.917  0.5708 -0.1007  0.0766
 2757SOL    HW219908   2.772   4.222   7.928  0.1244  0.9372 -0.0548
 2758SOL     OW19909   1.733   1.837   6.878 -0.1123  0.7931 -0.1271
 2758SOL    HW119910   1.806   1.838   6.938  0.6014  1.2832 -1.0028
 2758SOL    HW219911   1.731   1.753   6.831  1.6306  0.3998  0.4993
 2759SOL     OW19912   0.864   1.525   1.644  0.2078  0.1140  0.3096
 2759SOL    HW119913   0.864   1.437   1.682 -0.0731  1.2561  2.9446
 2759SOL    HW219914   0.783   1.568   1.673  0.0306 -1.1357  1.6877
 2760SOL     OW19915   0.208   3.037   4.583  0.1671  0.0100  0.0671
 2760SOL    HW119916   0.130   2.983   4.568 -1.1512  0.9508  3.3996
 2760SOL    HW219917   0.273   2.966   4.583  0.7992  0.5939  0.2089
 2761SOL     OW19918   0.143   3.106   8.154  0.6371 -0.0705 -0.6503
 2761SOL    HW119919   0.127   3.094   8.061  0.5910  3.3579 -1.0889
 2761SOL    HW219920   0.060   3.072   8.187  1.0656 -0.1255  0.4014
 2762SOL     OW19921   4.735   4.190  14.089 -0.0804  0.2200  0.1296
 2762SOL    HW119922   0.031   4.146  14.011  0.0999 -0.9256  0.8646
 2762SOL    HW219923   0.035   4.135  14.157 -0.2123 -0.8759 -0.6737
 2763SOL     OW19924   3.078   4.359   6.525 -0.5433  0.5798 -0.3479
 2763SOL    HW119925   3.024   4.304   6.467 -1.7990  0.8792  0.5220
 2763SOL    HW219926   3.148   4.299   6.550 -0.7240  0.7117  0.4874
 2764SOL     OW19927   1.549   1.822   3.105  0.5150 -0.1804 -0.3410
 2764SOL    HW119928   1.558   1.804   3.012 -0.4471 -0.9592 -0.2847
 2764SOL    HW219929   1.567   1.740   3.152  0.0165 -1.8007 -2.9713
 2765SOL     OW19930   1.377   1.110   7.378  0.1660 -0.2569  0.1431
 2765SOL    HW119931   1.379   1.161   7.459 -0.6198  0.5008 -0.3147
 2765SOL    HW219932   1.340   1.177   7.320 -1.9427  0.4624  2.3275
 2766SOL     OW19933   3.054   3.140   3.342  0.6013  0.3659  0.1287
 2766SOL    HW119934   3.012   3.168   3.261 -0.3854  0.5621  0.7038
 2766SOL    HW219935   3.075   3.050   3.317 -0.3840 -0.2867  1.6208
 2767SOL     OW19936   3.951   1.298   2.299  0.2119  0.2652  0.1007
 2767SOL    HW119937   4.017   1.229   2.288  0.0534  0.0825  0.2733
 2767SOL    HW219938   4.004   1.377   2.303 -0.2257  0.5434  0.3957
 2768SOL     OW19939   4.453   0.336  14.476 -0.4567  0.2473  0.2271
 2768SOL    HW119940   4.478   0.361  14.565  0.0985 -0.7588  0.3641
 2768SOL    HW219941   4.495   0.250  14.469  0.8140  1.0422 -1.8185
 2769SOL     OW19942   1.493   3.084   2.338  0.1627  0.9549  0.2149
 2769SOL    HW119943   1.564   3.128   2.386 -0.6667  0.7681  1.6055
 2769SOL    HW219944   1.532   3.075   2.251  0.1555 -0.0176  0.3132
 2770SOL     OW19945   3.212   2.141   8.830 -0.3108  0.1118  0.0014
 2770SOL    HW119946   3.259   2.208   8.781 -1.7885  0.5985 -0.7561
 2770SOL    HW219947   3.125   2.142   8.791  0.5638 -0.5202 -1.9856
 2771SOL     OW19948   1.292   2.144  15.098  0.1620 -0.5095  0.7889
 2771SOL    HW119949   1.359   2.080  15.074 -1.7141 -1.3034 -2.2646
 2771SOL    HW219950   1.351   2.216  15.120  0.3187 -0.1923 -0.6679
 2772SOL     OW19951   3.717   3.959   5.528 -0.1385  0.2375  0.3151
 2772SOL    HW119952   3.673   3.946   5.611 -2.1706  0.3895 -0.7492
 2772SOL    HW219953   3.769   3.879   5.516  0.7550  1.2129 -2.5435
 2773SOL     OW19954   3.757   4.508   7.766 -0.2831  0.1036  0.3787
 2773SOL    HW119955   3.781   4.555   7.846  1.9961 -1.1743  0.4361
 2773SOL    HW219956   3.671   4.473   7.793 -0.8051  1.7645  0.8679
 2774SOL     OW19957   3.405   2.653   6.123  0.2056 -0.3165 -0.1440
 2774SOL    HW119958   3.483   2.671   6.174 -0.1793  1.3562 -0.1529
 2774SOL    HW219959   3.378   2.567   6.156 -2.3460  0.7697  0.5778
 2775SOL     OW19960   0.199   2.495   8.652 -0.3591  0.5719 -0.3551
 2775SOL    HW119961   0.174   2.452   8.734  0.5818 -1.2143 -1.0159
 2775SOL    HW219962   0.207   2.419   8.595  1.0819  1.4866 -1.3774
 2776SOL     OW19963   4.433   3.923   0.554 -0.1572  0.7052  0.3561
 2776SOL    HW119964   4.438   3.838   0.597  0.7013  0.5828  0.0119
 2776SOL    HW219965   4.348   3.920   0.511  0.3014  2.0810 -0.6374
 2777SOL     OW19966   3.148   0.497   6.053  0.0980  1.0363  0.1529
 2777SOL    HW119967   3.207   0.423   6.067  2.1901  2.7975  0.7417
 2777SOL    HW219968   3.132   0.521   6.144 -0.9850  0.0099  0.2177
 2778SOL     OW19969   1.381   1.591   6.152  0.5366 -0.3249 -0.2271
 2778SOL    HW119970   1.472   1.563   6.147  0.6672  0.2057 -0.8381
 2778SOL    HW219971   1.337   1.508   6.130  0.2246 -0.0339 -0.7192
 2779SOL     OW19972   1.758   0.376   3.168  0.3894 -0.5084  0.1287
 2779SOL    HW119973   1.718   0.295   3.135  1.4933 -1.1888  0.4879
 2779SOL    HW219974   1.749   0.427   3.087  0.7969 -2.1243 -0.9353
 2780SOL     OW19975   2.162   4.374   3.253  0.0417  0.2021  0.0413
 2780SOL    HW119976   2.201   4.297   3.294  0.1505  1.0835  1.6036
 2780SOL    HW219977   2.168   4.353   3.160 -1.0923  1.0556 -0.2235
 2781SOL     OW19978   4.383   3.935  15.012 -0.6782  0.0956 -0.4693
 2781SOL    HW119979   4.365   4.025  15.040  1.1550  0.8924 -1.8733
 2781SOL    HW219980   4.293   3.908  14.994 -0.4412 -0.6642 -0.5427
 2782SOL     OW19981   2.268   4.687   6.280  0.7589  0.3246  0.2092
 2782SOL    HW119982   2.322   4.690   6.358  0.0705  0.3025  0.6863
 2782SOL    HW219983   2.311   4.611   6.240 -0.8465  0.1764 -1.2369
 2783SOL     OW19984   0.517   0.055   7.213  0.5975  0.4623 -0.1119
 2783SOL    HW119985   0.465   4.723   7.250  0.4846 -0.9408 -2.9685
 2783SOL    HW219986   0.566   0.069   7.294  0.9229 -3.4741  0.3657
 2784SOL     OW19987   0.349   2.698  14.214 -0.3226  0.0808 -0.5351
 2784SOL    HW119988   0.430   2.655  14.244 -0.3601  1.1068  1.0372
 2784SOL    HW219989   0.315   2.629  14.156  0.5138  0.8844 -1.9696
 2785SOL     OW19990   0.926   2.740   8.971 -0.2003  0.1273  0.3000
 2785SOL    HW119991   1.010   2.703   9.000 -0.3961 -1.1435 -0.7585
 2785SOL    HW219992   0.935   2.825   9.013 -1.9985  0.3272  0.2938
 2786SOL     OW19993   1.131   1.161   1.800 -0.1173 -0.3541 -0.4001
 2786SOL    HW119994   1.144   1.076   1.843  1.2941 -0.7642 -1.6373
 2786SOL    HW219995   1.197   1.168   1.731  0.8470  1.1271  0.6841
 2787SOL     OW19996   1.163   0.344   5.661  0.2477 -0.2461 -0.6201
 2787SOL    HW119997   1.133   0.434   5.674  0.9203 -0.1874  0.5568
 2787SOL    HW219998   1.090   0.331   5.601 -0.0601  1.9197 -0.7034
 2788SOL     OW19999   4.605   0.931   7.697 -0.4007  0.2530 -0.0975
 2788SOL    HW120000   4.585   0.956   7.788 -0.2169 -2.3152  0.6527
 2788SOL    HW220001   4.680   0.874   7.713  0.0725  0.9913  0.3366
 2789SOL     OW20002   0.527   1.073   7.259 -0.8271 -0.0046  0.2050
 2789SOL    HW120003   0.563   1.161   7.246  2.3585 -1.0300  1.9181
 2789SOL    HW220004   0.451   1.072   7.201  2.0384  1.3406 -3.5489
 2790SOL     OW20005   2.389   0.830   2.791  0.1381 -0.4051  0.2356
 2790SOL    HW120006   2.346   0.785   2.863 -0.2182  0.8313  0.7784
 2790SOL    HW220007   2.432   0.754   2.751 -0.4642 -3.0931  4.6976
 2791SOL     OW20008   2.350   3.239  16.143 -0.6883 -0.9316 -0.3198
 2791SOL    HW120009   2.407   3.168  16.172 -0.5600 -2.2572 -3.7860
 2791SOL    HW220010   2.396   3.250  16.060 -0.8559  0.5925 -0.2183
 2792SOL     OW20011   3.300   3.673   7.510 -0.2284  0.0368  0.6412
 2792SOL    HW120012   3.275   3.631   7.592 -0.0095 -0.5276  0.4175
 2792SOL    HW220013   3.268   3.608   7.446 -0.5994  0.2835  0.5784
 2793SOL     OW20014   4.247   3.953  16.825 -0.3909  0.7801 -0.5647
 2793SOL    HW120015   4.155   3.975  16.808  0.1597  2.8209 -0.9863
 2793SOL    HW220016   4.239   3.884  16.890  3.1608  1.1292  0.1932
 2794SOL     OW20017   0.279   4.693   8.207 -0.1241 -0.2189  0.5573
 2794SOL    HW120018   0.234   0.010   8.269  1.6801 -0.5314  2.1498
 2794SOL    HW220019   0.210   4.630   8.187 -1.2514  0.8957  0.9237
 2795SOL     OW20020   1.843   0.086   4.952 -0.2972  0.4460 -0.0885
 2795SOL    HW120021   1.925   0.115   4.912 -0.4275  0.6870 -0.1807
 2795SOL    HW220022   1.863   0.079   5.045  1.3741 -0.9761 -0.5538
 2796SOL     OW20023   0.826   0.453  10.441  0.7743  0.2471  0.7515
 2796SOL    HW120024   0.909   0.491  10.412 -0.3465  0.9890 -1.4267
 2796SOL    HW220025   0.864   0.401  10.512  0.7970  1.3879  1.5738
 2797SOL     OW20026   3.186   2.055   4.656  0.1246 -0.0304  0.9451
 2797SOL    HW120027   3.187   1.966   4.691 -1.2718 -0.3390  0.2193
 2797SOL    HW220028   3.163   2.032   4.566  0.3474 -1.5219  1.2591
 2798SOL     OW20029   0.014   1.643   8.549  0.0853  0.4407 -0.3852
 2798SOL    HW120030   0.085   1.587   8.579 -0.1131  1.5655  2.2008
 2798SOL    HW220031   0.007   1.630   8.454 -1.1996 -2.0984  0.0439
 2799SOL     OW20032   3.256   4.512   7.456 -0.0480 -0.5576  0.0300
 2799SOL    HW120033   3.294   4.448   7.517  2.4326  1.9135  1.0503
 2799SOL    HW220034   3.317   4.488   7.387  0.6787  1.1662  0.0710
 2800SOL     OW20035   2.544   2.321   4.760  0.1203 -1.0376  0.5048
 2800SOL    HW120036   2.573   2.270   4.836 -0.1393 -1.7443  0.1323
 2800SOL    HW220037   2.495   2.266   4.698 -2.5226  2.2650 -0.3493
 2801SOL     OW20038   0.521   2.646   7.869 -0.1298  0.4697  0.6525
 2801SOL    HW120039   0.579   2.720   7.851  0.6796  0.0608  1.6046
 2801SOL    HW220040   0.491   2.632   7.779 -0.3052  3.6711  0.2249
 2802SOL     OW20041   4.053   2.722   1.642 -0.0670  0.3233 -0.3118
 2802SOL    HW120042   4.088   2.634   1.653 -0.1288 -0.0784 -3.1850
 2802SOL    HW220043   4.112   2.770   1.584  1.3462  0.4109  1.2089
 2803SOL     OW20044   4.483   3.236  16.615 -0.2458 -0.7848  0.0034
 2803SOL    HW120045   4.478   3.319  16.567  0.3811 -0.8687 -0.2122
 2803SOL    HW220046   4.505   3.262  16.705  1.3680  1.3745 -1.0250
 2804SOL     OW20047   0.665   2.439   3.821  0.1735 -0.3320  0.3735
 2804SOL    HW120048   0.651   2.355   3.866 -0.2168  0.1753  1.2025
 2804SOL    HW220049   0.760   2.433   3.814  0.2597 -0.1477  1.4176
 2805SOL     OW20050   1.124   4.091   1.318 -0.1715 -0.7936 -0.2099
 2805SOL    HW120051   1.187   4.108   1.248  0.7557  0.1277  0.8473
 2805SOL    HW220052   1.159   4.158   1.377 -0.2669 -1.9316  1.1333
 2806SOL     OW20053   0.682   2.400   5.857  0.1584 -0.1568  0.0040
 2806SOL    HW120054   0.702   2.330   5.920 -2.7474 -0.4913  0.5378
 2806SOL    HW220055   0.591   2.414   5.880 -0.0830 -2.0231  0.1554
 2807SOL     OW20056   1.044   0.270  16.984 -0.3167  0.6196 -0.3307
 2807SOL    HW120057   1.062   0.350  17.033  1.1063 -0.1054  0.3473
 2807SOL    HW220058   1.128   0.224  16.994 -0.5459  0.2507 -0.1245
 2808SOL     OW20059   2.553   2.163   3.895 -0.0668  0.0467  0.1973
 2808SOL    HW120060   2.508   2.227   3.840 -1.7099 -0.8327  0.5343
 2808SOL    HW220061   2.614   2.231   3.924  0.4263  0.1517 -1.0788
 2809SOL     OW20062   1.520   3.119   2.849  0.1931  0.0048  0.6717
 2809SOL    HW120063   1.425   3.130   2.837 -0.0036  1.2844  3.5491
 2809SOL    HW220064   1.565   3.182   2.792  0.3305 -1.5304 -0.9178
 2810SOL     OW20065   1.269   1.112  13.214  0.5216  0.0777  0.1015
 2810SOL    HW120066   1.338   1.133  13.151 -0.1759  1.1748 -0.2972
 2810SOL    HW220067   1.204   1.066  13.161  0.4503  0.8584 -0.4873
 2811SOL     OW20068   4.274   1.876   8.807 -0.2442  0.5463 -0.2021
 2811SOL    HW120069   4.293   1.837   8.892  1.2864  1.4883 -0.1300
 2811SOL    HW220070   4.224   1.956   8.825 -2.2362 -0.3815 -1.6265
 2812SOL     OW20071   2.709   2.328   5.371  0.2968  0.3274  0.5726
 2812SOL    HW120072   2.710   2.304   5.278  2.8091  0.0877  0.6816
 2812SOL    HW220073   2.803   2.346   5.375 -0.1343  2.3909  1.4716
 2813SOL     OW20074   0.432   2.106   7.868  0.3509 -0.1682 -0.1534
 2813SOL    HW120075   0.462   2.019   7.842  0.4056 -0.2882  0.3102
 2813SOL    HW220076   0.386   2.091   7.951 -0.1693 -1.1699 -0.6221
 2814SOL     OW20077   0.715   3.720   0.340  0.2578 -0.4112  0.3045
 2814SOL    HW120078   0.683   3.752   0.256  1.7458 -1.9602 -0.8496
 2814SOL    HW220079   0.630   3.700   0.379 -0.6815  3.8730  0.4720
 2815SOL     OW20080   2.494   0.034   2.066 -0.8116 -0.2101  0.3898
 2815SOL    HW120081   2.494   0.043   1.970  0.0610 -0.4320  0.3679
 2815SOL    HW220082   2.502   4.678   2.068  1.6749  0.0105  1.4379
 2816SOL     OW20083   3.404   0.160   3.231  0.4317  0.3716 -0.2174
 2816SOL    HW120084   3.387   0.074   3.269  0.9868  0.0335 -0.7290
 2816SOL    HW220085   3.396   0.221   3.304  1.5637  0.4239 -0.1420
 2817SOL     OW20086   2.565   3.928   8.531 -0.1892  0.1331  0.3225
 2817SOL    HW120087   2.659   3.921   8.553  0.1116  2.1677 -0.3270
 2817SOL    HW220088   2.563   4.014   8.490  1.0770 -0.8579 -1.8466
 2818SOL     OW20089   1.299   0.908   7.867  0.0652 -0.6628 -0.2307
 2818SOL    HW120090   1.223   0.913   7.924 -0.3988 -2.1833 -0.6973
 2818SOL    HW220091   1.249   0.917   7.786  0.0276 -0.4496 -0.1814
 2819SOL     OW20092   1.881   1.333   6.296  0.4957  0.3051  0.3821
 2819SOL    HW120093   1.936   1.257   6.316 -1.7966 -1.4670 -0.0308
 2819SOL    HW220094   1.800   1.293   6.328 -1.1699  2.6110 -1.0151
 2820SOL     OW20095   1.982   1.029   0.234  0.1378 -0.8003  0.4022
 2820SOL    HW120096   2.055   1.000   0.289  1.5328  0.1657 -0.9204
 2820SOL    HW220097   1.924   1.069   0.298  0.2485 -0.9734  0.6082
 2821SOL     OW20098   2.037   0.764   3.141 -0.1666 -0.1689  0.1980
 2821SOL    HW120099   2.064   0.677   3.168 -0.3118 -0.6203 -1.0889
 2821SOL    HW220100   1.944   0.756   3.118 -0.1020  1.5612 -0.7088
 2822SOL     OW20101   1.766   1.777   4.512  0.2824  0.7837  0.2871
 2822SOL    HW120102   1.750   1.822   4.429 -2.5156 -0.6481  0.0569
 2822SOL    HW220103   1.732   1.842   4.574  1.4695  1.5000  0.1910
 2823SOL     OW20104   0.856   0.539   6.752 -0.0630  0.1735  0.2802
 2823SOL    HW120105   0.777   0.580   6.715  0.0848  1.1712  1.0694
 2823SOL    HW220106   0.824   0.449   6.758 -0.6213  0.4021  0.8192
 2824SOL     OW20107   0.208   1.144  14.762  0.6168  0.1470  0.4767
 2824SOL    HW120108   0.124   1.189  14.762  1.3440  1.5220  0.3715
 2824SOL    HW220109   0.199   1.087  14.685 -1.0328 -1.8134  2.1318
 2825SOL     OW20110   2.607   0.292   4.580  0.3585 -0.1476 -0.8129
 2825SOL    HW120111   2.688   0.271   4.533 -0.0415  0.6550 -1.8497
 2825SOL    HW220112   2.559   0.216   4.547  1.9811 -2.2703  1.7411
 2826SOL     OW20113   2.749   1.815   8.198  0.0006 -0.5206 -0.2586
 2826SOL    HW120114   2.699   1.748   8.243  1.7810  0.8590  3.7137
 2826SOL    HW220115   2.830   1.807   8.248  0.6652 -0.8374 -1.3702
 2827SOL     OW20116   0.373   1.518   5.477  0.2236 -0.0057  0.2682
 2827SOL    HW120117   0.301   1.580   5.467  0.4100 -0.5022 -4.1453
 2827SOL    HW220118   0.322   1.442   5.505 -1.9402  1.9219  1.5470
 2828SOL     OW20119   2.991   4.087   3.174  0.0269 -0.0178 -0.0283
 2828SOL    HW120120   2.995   3.998   3.211 -0.2862 -0.6389 -1.5030
 2828SOL    HW220121   2.971   4.135   3.254 -0.9449 -2.7255  1.3502
 2829SOL     OW20122   2.478   0.056   3.574  0.2649  1.3421 -0.5723
 2829SOL    HW120123   2.552   0.061   3.512 -0.7596  2.1012 -1.7257
 2829SOL    HW220124   2.497   0.111   3.649  0.0560  0.0225  0.4477
 2830SOL     OW20125   0.522   3.044  10.395 -0.4390 -0.7912  0.6742
 2830SOL    HW120126   0.531   3.034  10.300  3.2794 -0.4637  0.9886
 2830SOL    HW220127   0.579   3.118  10.412 -0.2797 -0.7774  0.0737
 2831SOL     OW20128   4.281   2.823   7.916  0.1771 -0.0408  0.0312
 2831SOL    HW120129   4.283   2.818   7.820 -0.2117  1.8363 -0.0784
 2831SOL    HW220130   4.313   2.913   7.918  0.3122 -0.0866 -0.0405
 2832SOL     OW20131   2.999   4.597   7.470 -0.6865 -0.5173 -0.7463
 2832SOL    HW120132   3.088   4.562   7.469 -0.2040  0.6986 -0.7848
 2832SOL    HW220133   2.995   4.628   7.379 -1.3916 -0.1100 -0.5792
 2833SOL     OW20134   2.552   2.190  13.043 -0.3444 -0.1862 -0.2660
 2833SOL    HW120135   2.613   2.249  12.999  0.6352  0.4058  1.8470
 2833SOL    HW220136   2.602   2.163  13.120 -0.4377 -1.0803 -0.5121
 2834SOL     OW20137   0.216   3.858   6.014 -0.7691 -0.1779 -0.0803
 2834SOL    HW120138   0.218   3.859   6.110  0.7814 -2.6207 -0.0827
 2834SOL    HW220139   0.254   3.773   5.994 -0.7949 -0.2714  0.2682
 2835SOL     OW20140   2.562   3.639   8.005  0.7970  0.1244 -0.6657
 2835SOL    HW120141   2.557   3.717   7.949  0.1403  0.1797 -0.5246
 2835SOL    HW220142   2.488   3.650   8.064  1.0111  1.3620 -0.6102
 2836SOL     OW20143   0.089   3.475  12.554  0.0191  0.2854 -0.1657
 2836SOL    HW120144   0.106   3.485  12.460 -1.8574  1.2907 -0.4019
 2836SOL    HW220145   0.170   3.450  12.598  0.3649  1.4645 -0.1510
 2837SOL     OW20146   0.801   1.076   5.449 -0.3065  0.1515  0.2670
 2837SOL    HW120147   0.809   1.159   5.402  0.6058  0.8583  1.7207
 2837SOL    HW220148   0.836   1.103   5.533 -0.7882 -1.8800  1.1368
 2838SOL     OW20149   0.461   0.438   9.545  0.3409  0.0986 -0.2529
 2838SOL    HW120150   0.482   0.451   9.452  0.3301  2.3455  0.0580
 2838SOL    HW220151   0.387   0.497   9.557  1.7928  1.5533  1.4856
 2839SOL     OW20152   2.444   0.545   7.610  0.1395 -0.4276  0.2141
 2839SOL    HW120153   2.526   0.570   7.653  0.1418 -1.7693  0.9765
 2839SOL    HW220154   2.428   0.616   7.547  2.9231 -1.9499 -2.1903
 2840SOL     OW20155   1.040   1.297   8.574 -0.3116 -0.4828  1.2139
 2840SOL    HW120156   1.070   1.342   8.653  1.4715 -0.3717  0.4715
 2840SOL    HW220157   1.019   1.210   8.607 -0.3263  0.3971  3.4922
 2841SOL     OW20158   2.192   0.685  12.532 -0.2434  0.3441 -0.2390
 2841SOL    HW120159   2.203   0.736  12.453 -0.9867  2.0388  0.7604
 2841SOL    HW220160   2.211   0.754  12.596  0.1477 -0.8819  0.9821
 2842SOL     OW20161   1.939   0.073   6.957 -0.1591  0.3437  0.1514
 2842SOL    HW120162   1.862   0.119   6.991 -1.4844 -0.8425 -1.2268
 2842SOL    HW220163   1.954   0.128   6.880 -0.9065 -1.9153 -1.6230
 2843SOL     OW20164   2.265   3.956   8.232 -0.1357 -0.5714 -0.2995
 2843SOL    HW120165   2.312   4.030   8.270 -0.7324 -0.7178  0.7322
 2843SOL    HW220166   2.177   3.972   8.267  0.1684 -1.8529  1.0626
 2844SOL     OW20167   4.409   1.993   3.595 -0.4851  0.7491 -0.5269
 2844SOL    HW120168   4.355   2.062   3.634 -0.5656 -0.5879  1.7706
 2844SOL    HW220169   4.466   2.029   3.528  0.5719  0.6198  0.3062
 2845SOL     OW20170   4.615   0.991   9.876 -0.2559 -0.5426  0.2268
 2845SOL    HW120171   4.700   1.034   9.882  0.1396 -1.3038  0.1007
 2845SOL    HW220172   4.619   0.967   9.783  2.9114  1.0821 -0.0567
 2846SOL     OW20173   0.739   3.370  16.270 -0.0492  0.3193 -0.3107
 2846SOL    HW120174   0.750   3.457  16.232 -2.4661  0.4248 -0.7793
 2846SOL    HW220175   0.814   3.376  16.329 -0.6588  1.2082  0.3749
 2847SOL     OW20176   4.327   3.719   6.091 -0.6810  1.0315 -0.0468
 2847SOL    HW120177   4.302   3.627   6.080 -0.8821  1.0899 -0.0778
 2847SOL    HW220178   4.369   3.743   6.008  0.1255  0.5742  0.2393
 2848SOL     OW20179   4.555   0.941   8.670 -0.2104  0.2247 -0.7372
 2848SOL    HW120180   4.473   0.963   8.626 -0.5270  0.4054 -0.0577
 2848SOL    HW220181   4.518   0.877   8.730 -1.3211  0.3554 -1.2925
 2849SOL     OW20182   1.645   2.257   0.198  0.4559  0.1621  0.1881
 2849SOL    HW120183   1.706   2.264   0.124  0.7513 -0.7240  0.3506
 2849SOL    HW220184   1.600   2.178   0.168  0.9394 -0.1781  0.3621
 2850SOL     OW20185   2.829   3.273  12.993  0.0929 -0.7863  0.0547
 2850SOL    HW120186   2.809   3.351  12.940  0.3657 -0.1529  0.8786
 2850SOL    HW220187   2.917   3.244  12.970 -0.0542  0.0702 -1.6021
 2851SOL     OW20188   0.643   0.360  17.588 -0.0164  0.4711 -0.6515
 2851SOL    HW120189   0.721   0.322  17.628  1.1132  0.3697 -2.9555
 2851SOL    HW220190   0.610   0.420  17.654 -1.0147 -1.4216  0.5477
 2852SOL     OW20191   0.598   1.709   2.038  0.2269 -0.8225 -0.9936
 2852SOL    HW120192   0.594   1.614   2.022  0.7142 -0.9018 -0.6320
 2852SOL    HW220193   0.670   1.720   2.099  0.3346 -1.4962 -0.9963
 2853SOL     OW20194   3.080   1.463   4.084  0.0016  0.4019  0.5819
 2853SOL    HW120195   3.083   1.372   4.113 -3.4058  0.1288  0.1161
 2853SOL    HW220196   2.985   1.473   4.098  0.0599  0.7696  0.7235
 2854SOL     OW20197   2.794   1.721   8.631 -0.0728  0.8183 -0.0629
 2854SOL    HW120198   2.757   1.753   8.549 -0.7422 -2.2049 -0.9538
 2854SOL    HW220199   2.758   1.632   8.629 -0.3343  0.9224  0.1136
 2855SOL     OW20200   4.498   1.446   7.720 -0.3274  0.0561  0.6015
 2855SOL    HW120201   4.486   1.524   7.773 -0.3195  1.4383 -1.4058
 2855SOL    HW220202   4.590   1.441   7.743 -0.0423 -2.8689 -1.1153
 2856SOL     OW20203   1.781   3.796   2.823  0.2300 -0.0253 -0.0503
 2856SOL    HW120204   1.832   3.824   2.746  1.1728 -0.6659  0.3398
 2856SOL    HW220205   1.737   3.879   2.842  2.5808  1.2154 -0.0123
 2857SOL     OW20206   0.133   3.719   4.546 -0.2852  0.3055 -0.0001
 2857SOL    HW120207   0.210   3.751   4.593  0.1923 -1.2774  0.2832
 2857SOL    HW220208   0.107   3.664   4.619  0.1010  0.2592  0.1016
 2858SOL     OW20209   0.750   4.028   2.684 -0.1173 -0.1897 -0.6098
 2858SOL    HW120210   0.769   4.122   2.694  1.8094 -0.7734  0.9779
 2858SOL    HW220211   0.787   4.016   2.596  0.8678 -0.2126 -0.1868
 2859SOL     OW20212   1.947   3.075  10.964  0.1335  0.0357 -0.0566
 2859SOL    HW120213   1.944   3.168  10.984 -1.8778 -0.8677  3.7609
 2859SOL    HW220214   2.017   3.075  10.898  0.7179  0.3691  0.5651
 2860SOL     OW20215   3.042   4.691  11.810  0.7827 -0.3430 -0.4273
 2860SOL    HW120216   3.083   4.707  11.725 -0.6195  1.9573 -0.6809
 2860SOL    HW220217   3.008   4.602  11.803 -1.3997  0.4008  0.5336
 2861SOL     OW20218   3.192   0.431  12.625  0.2763 -0.1083  0.2384
 2861SOL    HW120219   3.210   0.415  12.718  0.6858  3.2988  0.7611
 2861SOL    HW220220   3.096   0.437  12.630  0.4616  1.2509  2.1404
 2862SOL     OW20221   2.629   1.733   5.122 -0.0730 -0.9615  0.2832
 2862SOL    HW120222   2.542   1.709   5.090  1.0513 -1.3480 -2.4257
 2862SOL    HW220223   2.683   1.659   5.095  3.5676  1.5681  0.6348
 2863SOL     OW20224   2.691   3.736   5.311  0.0411 -0.2145  0.0361
 2863SOL    HW120225   2.707   3.719   5.404 -0.2147  2.7055  0.6279
 2863SOL    HW220226   2.678   3.645   5.284  1.8773 -0.3553 -0.4180
 2864SOL     OW20227   4.725   4.296   9.369 -0.3771 -0.2586 -0.2215
 2864SOL    HW120228   4.677   4.240   9.430 -0.3554 -0.2824 -0.2262
 2864SOL    HW220229   4.720   4.382   9.411  0.3518  0.3905 -1.4673
 2865SOL     OW20230   1.642   3.320  11.516 -0.1153 -0.0941  0.4396
 2865SOL    HW120231   1.683   3.351  11.435  1.0522 -1.6445  0.4271
 2865SOL    HW220232   1.552   3.351  11.505 -0.2139 -0.3957  0.3902
 2866SOL     OW20233   2.588   3.966  15.090 -0.1149 -0.5142  0.3087
 2866SOL    HW120234   2.609   4.055  15.117  0.7253 -0.6792  0.1954
 2866SOL    HW220235   2.603   3.916  15.171 -0.3777 -1.0074  0.0512
 2867SOL     OW20236   3.914   3.785   7.882 -0.0828 -0.3569  0.7405
 2867SOL    HW120237   3.985   3.848   7.871 -1.2641  0.9404  0.5351
 2867SOL    HW220238   3.842   3.848   7.890  0.9308  1.0890 -1.5790
 2868SOL     OW20239   1.386   2.949  11.488  0.5779  0.1801  0.6986
 2868SOL    HW120240   1.449   3.019  11.500  0.0970  1.0339 -1.6006
 2868SOL    HW220241   1.437   2.878  11.526  0.5332 -1.5440 -2.3849
 2869SOL     OW20242   1.133   3.143  16.389  0.0957 -0.4812 -0.2346
 2869SOL    HW120243   1.210   3.089  16.408  0.5072 -0.0107 -0.5487
 2869SOL    HW220244   1.093   3.093  16.318 -0.6646  0.9077 -0.7778
 2870SOL     OW20245   1.397   2.812  11.909 -0.2254 -0.6085 -0.1954
 2870SOL    HW120246   1.351   2.808  11.825 -1.5751 -1.3752  0.5777
 2870SOL    HW220247   1.474   2.861  11.881 -0.5736 -1.4568 -2.6169
 2871SOL     OW20248   2.963   1.913  14.584 -0.0311 -0.3073  0.2775
 2871SOL    HW120249   2.968   1.959  14.500 -1.5166  0.0399  0.3693
 2871SOL    HW220250   2.868   1.901  14.582 -0.1132  0.1499  2.0530
 2872SOL     OW20251   1.567   2.012   6.482 -0.5240 -0.3769 -0.2754
 2872SOL    HW120252   1.569   2.107   6.494  1.6026 -0.4620  0.0926
 2872SOL    HW220253   1.502   2.001   6.413 -0.2055  1.2581 -0.8419
 2873SOL     OW20254   1.704   1.728   3.409 -0.3144  0.2176 -0.0080
 2873SOL    HW120255   1.788   1.732   3.454 -0.6271  0.1342  0.5806
 2873SOL    HW220256   1.730   1.738   3.317 -0.5482  2.6714  0.2032
 2874SOL     OW20257   1.024   3.779   3.201 -0.1722  0.2627 -0.2024
 2874SOL    HW120258   1.108   3.754   3.162 -0.6614 -2.7085  0.6902
 2874SOL    HW220259   0.964   3.747   3.134  2.7300  0.4863 -2.9092
 2875SOL     OW20260   1.532   0.516   4.317 -0.0195  0.5444 -0.5215
 2875SOL    HW120261   1.603   0.455   4.335  2.1231  2.6211 -1.8848
 2875SOL    HW220262   1.475   0.519   4.393  0.9810 -1.1013  0.2840
 2876SOL     OW20263   4.530   0.213   8.255  0.4413  0.1056 -0.3150
 2876SOL    HW120264   4.533   0.231   8.349 -0.4210 -2.7375  0.2527
 2876SOL    HW220265   4.461   0.148   8.247 -0.3172  1.2675 -3.2542
 2877SOL     OW20266   1.690   3.250   4.620  0.1868 -0.2850  1.1647
 2877SOL    HW120267   1.739   3.184   4.669  1.1381  0.0909  0.7258
 2877SOL    HW220268   1.745   3.328   4.622 -4.0356  2.7518 -0.2359
 2878SOL     OW20269   3.533   0.448  17.129 -0.1419 -0.2724 -0.1192
 2878SOL    HW120270   3.451   0.412  17.162 -0.1500 -1.2941 -1.2384
 2878SOL    HW220271   3.593   0.375  17.115  0.2609  0.3365 -1.6044
 2879SOL     OW20272   1.866   1.970  14.674  0.2589 -0.2405  0.2243
 2879SOL    HW120273   1.897   1.884  14.702 -0.8080 -0.9231 -0.6997
 2879SOL    HW220274   1.842   1.956  14.582 -0.0288  0.2504  0.2251
 2880SOL     OW20275   2.232   1.932   9.706 -0.3472  0.6906  0.6439
 2880SOL    HW120276   2.207   1.978   9.786 -2.2335  0.0351  0.4450
 2880SOL    HW220277   2.243   1.848   9.752 -0.2909 -0.9191 -2.3124
 2881SOL     OW20278   4.532   0.302  14.949 -0.0485  0.4642 -0.4268
 2881SOL    HW120279   4.468   0.290  15.019  2.6331 -6.4374  0.8058
 2881SOL    HW220280   4.542   0.210  14.925  0.5562 -0.3024  2.7365
 2882SOL     OW20281   4.395   3.547   4.342 -0.6091 -0.2248  0.5946
 2882SOL    HW120282   4.391   3.640   4.368  0.1784 -0.1096  0.3122
 2882SOL    HW220283   4.346   3.566   4.262  1.6014 -1.7983 -1.1354
 2883SOL     OW20284   2.137   3.730   8.463  0.2326 -0.0890  0.9120
 2883SOL    HW120285   2.095   3.712   8.379  0.8976 -0.4671  0.6593
 2883SOL    HW220286   2.228   3.735   8.433  0.2219 -0.9678  0.7453
 2884SOL     OW20287   0.853   0.644   9.093 -0.5407  0.4806  0.1035
 2884SOL    HW120288   0.764   0.675   9.079 -1.5751 -2.2877  0.4361
 2884SOL    HW220289   0.861   0.665   9.186  1.4203 -1.3099  0.3516
 2885SOL     OW20290   1.988   1.283  15.792 -0.0453  0.2379  0.1548
 2885SOL    HW120291   2.046   1.293  15.868  2.0436  0.6267 -1.4911
 2885SOL    HW220292   2.042   1.312  15.718  0.9921 -0.0524  0.7909
 2886SOL     OW20293   4.612   0.136   4.004  0.2563 -0.0285 -0.2905
 2886SOL    HW120294   4.535   0.177   4.044 -1.2018 -0.3373 -2.7236
 2886SOL    HW220295   4.674   0.198   4.043  0.1340 -0.7816  1.0818
 2887SOL     OW20296   4.595   0.110  14.552 -0.3701  0.1031  0.5578
 2887SOL    HW120297   4.534   0.046  14.590 -1.3538 -0.3868 -1.8395
 2887SOL    HW220298   4.636   0.057  14.484 -0.9115  0.5233 -0.0903
 2888SOL     OW20299   1.973   3.351   2.856 -0.3167 -0.2839 -0.0844
 2888SOL    HW120300   1.989   3.269   2.901 -0.5226 -0.4494 -0.3120
 2888SOL    HW220301   2.044   3.409   2.883 -0.2338  0.4980 -1.9766
 2889SOL     OW20302   3.644   1.375   5.407  0.0889  0.0223  0.1404
 2889SOL    HW120303   3.734   1.355   5.381 -0.4406  0.1152 -1.7986
 2889SOL    HW220304   3.598   1.346   5.328  0.8351 -2.2996  0.5530
 2890SOL     OW20305   1.942   0.138   8.457  0.2628  0.0937 -0.3037
 2890SOL    HW120306   1.945   0.046   8.483  0.2203 -0.0542 -0.8370
 2890SOL    HW220307   1.931   0.178   8.544 -0.8477 -0.4156 -0.2086
 2891SOL     OW20308   3.335   3.476   5.946  0.4616 -0.3807  0.2152
 2891SOL    HW120309   3.399   3.407   5.932 -0.8678 -1.3995 -0.9380
 2891SOL    HW220310   3.369   3.520   6.023  2.1457  2.3743 -2.1132
 2892SOL     OW20311   1.437   2.854   8.072 -0.2544  0.5709  0.0531
 2892SOL    HW120312   1.353   2.896   8.090 -0.1452 -0.2729  2.4024
 2892SOL    HW220313   1.460   2.814   8.155  0.0862 -0.3357 -0.4824
 2893SOL     OW20314   4.477   0.599  11.942  0.3203  0.4479  0.0295
 2893SOL    HW120315   4.463   0.673  11.883  1.1920  1.0741  0.5848
 2893SOL    HW220316   4.517   0.537  11.881  0.0433  1.5351 -1.2481
 2894SOL     OW20317   4.403   4.647   0.402  0.1640  0.7919 -0.2020
 2894SOL    HW120318   4.418   4.574   0.462  0.7923 -0.8195 -2.3551
 2894SOL    HW220319   4.323   4.620   0.356  1.0637  1.6005 -2.2405
 2895SOL     OW20320   0.970   3.748  16.670 -0.1132  0.1128  0.0603
 2895SOL    HW120321   0.985   3.810  16.742 -1.9554  0.9068 -0.2148
 2895SOL    HW220322   0.928   3.802  16.603  1.9303 -0.7242 -1.9024
 2896SOL     OW20323   2.769   3.624   8.919 -0.0531 -0.4455  0.2911
 2896SOL    HW120324   2.836   3.663   8.976 -1.0530  2.0514 -0.2543
 2896SOL    HW220325   2.829   3.615   8.845  1.8652 -1.0136  1.9272
 2897SOL     OW20326   4.589   3.379   9.202 -0.3821 -1.2497 -0.2403
 2897SOL    HW120327   4.650   3.415   9.137  1.1410  0.4394  2.1281
 2897SOL    HW220328   4.576   3.446   9.269  0.7654 -1.3079  0.0416
 2898SOL     OW20329   0.277   2.118   4.280  0.7113  0.5546 -1.3635
 2898SOL    HW120330   0.216   2.083   4.345  3.1979 -2.9018 -0.8491
 2898SOL    HW220331   0.207   2.140   4.219 -0.4742 -1.3104 -0.6816
 2899SOL     OW20332   4.130   0.630   2.098 -0.4751 -0.4938  0.4075
 2899SOL    HW120333   4.221   0.658   2.104  0.4346 -3.0441 -1.3951
 2899SOL    HW220334   4.124   0.652   2.005 -1.1750 -1.8584  0.1200
 2900SOL     OW20335   3.897   0.061  17.033 -0.8339 -0.3856 -0.0583
 2900SOL    HW120336   3.803   0.077  17.018 -1.2645 -2.1697  0.8103
 2900SOL    HW220337   3.902   4.707  17.053  1.7330 -0.0931  0.7025
 2901SOL     OW20338   1.220   0.282   4.089  0.7393  0.3196 -0.0801
 2901SOL    HW120339   1.197   0.374   4.075 -0.6770  0.0792  0.6178
 2901SOL    HW220340   1.194   0.243   4.005 -0.4365 -0.7483  0.7860
 2902SOL     OW20341   1.851   3.773   1.370 -0.3929 -0.9356  0.3213
 2902SOL    HW120342   1.850   3.796   1.463  1.4857  2.0451 -0.4030
 2902SOL    HW220343   1.760   3.794   1.348 -0.2797 -0.6269  0.1519
 2903SOL     OW20344   3.793   0.884   2.933  0.2967  0.2354 -0.1413
 2903SOL    HW120345   3.806   0.817   2.866 -0.1369 -1.1313  1.1455
 2903SOL    HW220346   3.861   0.866   2.999  1.9387 -1.5618 -2.3418
 2904SOL     OW20347   1.626   1.355   7.301  0.3667 -0.9897  0.5422
 2904SOL    HW120348   1.549   1.343   7.356 -0.6972  1.3406 -0.4186
 2904SOL    HW220349   1.681   1.288   7.340 -0.9851 -1.2148  2.0553
 2905SOL     OW20350   4.312   2.882  10.964 -0.5285 -0.0734  0.0576
 2905SOL    HW120351   4.257   2.896  10.887  0.7306  0.4484 -0.7454
 2905SOL    HW220352   4.324   2.973  10.991  0.3109  0.9626 -3.7965
 2906SOL     OW20353   1.539   0.380   5.809  0.2302  0.0973  0.6720
 2906SOL    HW120354   1.507   0.316   5.873 -0.2532  0.9327  1.2791
 2906SOL    HW220355   1.611   0.414   5.861  0.6371 -1.4028  1.0689
 2907SOL     OW20356   2.783   0.588   6.249  0.0928  0.1918  0.0080
 2907SOL    HW120357   2.710   0.565   6.306  0.1588 -0.5177 -0.1926
 2907SOL    HW220358   2.846   0.519   6.268  0.9640  0.7984 -0.6229
 2908SOL     OW20359   4.144   2.212  15.948  0.4248 -0.5890 -0.6620
 2908SOL    HW120360   4.205   2.239  15.879  2.0475 -2.3013  0.0831
 2908SOL    HW220361   4.205   2.181  16.015  0.4539  1.5843  0.2800
 2909SOL     OW20362   1.129   1.849  16.638 -0.1056 -0.1931 -0.2252
 2909SOL    HW120363   1.121   1.754  16.631 -0.4770 -0.2252  0.6621
 2909SOL    HW220364   1.185   1.851  16.715  1.2306 -1.8034 -1.1723
 2910SOL     OW20365   1.363   2.387  11.811  0.3461  0.7372  0.0694
 2910SOL    HW120366   1.282   2.341  11.790  0.7428  0.2303 -0.3434
 2910SOL    HW220367   1.383   2.330  11.885  0.6827 -0.1155 -0.6869
 2911SOL     OW20368   1.705   2.490   3.806  0.1264 -0.3167  0.3517
 2911SOL    HW120369   1.666   2.433   3.871  2.0174  1.1077  2.7259
 2911SOL    HW220370   1.695   2.453   3.718  0.4082 -1.7703  0.9377
 2912SOL     OW20371   4.734   3.245   7.008  0.3933  0.0981  0.1366
 2912SOL    HW120372   0.067   3.276   6.954  0.1741  0.2947 -0.0412
 2912SOL    HW220373   4.727   3.155   6.975 -0.8345  0.8918 -1.7913
 2913SOL     OW20374   4.716   3.285   7.782  0.3880  0.2184  0.3280
 2913SOL    HW120375   4.710   3.277   7.687  3.0144 -0.8718  0.2526
 2913SOL    HW220376   4.675   3.366   7.810 -0.9078 -0.6697  1.0187
 2914SOL     OW20377   4.364   3.647   5.809 -0.1436 -1.0006 -0.4145
 2914SOL    HW120378   4.441   3.668   5.862 -0.2748 -0.3841 -0.4776
 2914SOL    HW220379   4.403   3.673   5.725 -0.9533  0.5311 -0.3004
 2915SOL     OW20380   1.924   1.985   8.098  0.2025 -0.0913  0.2463
 2915SOL    HW120381   1.866   1.912   8.119  0.8978 -0.9490 -0.8862
 2915SOL    HW220382   2.011   1.947   8.107  0.0142 -0.9248 -1.4720
 2916SOL     OW20383   0.911   3.538   5.965 -0.2034 -0.0889  0.1672
 2916SOL    HW120384   0.949   3.585   5.891 -0.3060  0.6354  0.5744
 2916SOL    HW220385   0.956   3.584   6.036 -2.2467 -0.8493  1.9224
 2917SOL     OW20386   3.241   1.353   2.716 -0.4067 -0.7727 -0.0607
 2917SOL    HW120387   3.295   1.291   2.765  1.2737 -0.9690 -2.1244
 2917SOL    HW220388   3.294   1.427   2.687 -0.0488 -1.2786 -0.7225
 2918SOL     OW20389   0.744   1.258  17.699 -0.2314 -0.5118 -0.0929
 2918SOL    HW120390   0.806   1.307  17.753  0.0777 -0.5711 -0.3906
 2918SOL    HW220391   0.768   1.288  17.611  1.9277  1.2162  1.0993
 2919SOL     OW20392   3.323   4.569  12.290  0.2153  0.4345  0.0265
 2919SOL    HW120393   3.414   4.576  12.320  0.4515 -0.3609 -0.5094
 2919SOL    HW220394   3.285   4.655  12.309 -0.7694  0.1282 -0.5807
 2920SOL     OW20395   0.669   4.559  17.649  0.1753 -0.0853 -0.0049
 2920SOL    HW120396   0.732   4.549  17.720  0.7503  3.2114 -0.0271
 2920SOL    HW220397   0.697   4.642  17.612  3.2958 -1.3504 -0.4717
 2921SOL     OW20398   1.138   4.315   9.081  0.2097  0.1307 -0.0815
 2921SOL    HW120399   1.234   4.314   9.082  0.2186  2.3250  1.8343
 2921SOL    HW220400   1.110   4.282   8.996  2.6690  0.2889 -0.9614
 2922SOL     OW20401   3.648   1.471  10.777  0.1157 -0.3887  0.1909
 2922SOL    HW120402   3.630   1.485  10.870 -4.1292 -0.8079 -0.5680
 2922SOL    HW220403   3.565   1.454  10.732 -0.9917 -2.2058  2.9126
 2923SOL     OW20404   0.525   3.987   6.039  0.5963 -0.0260  0.4863
 2923SOL    HW120405   0.455   3.927   6.013  1.3874 -0.6290 -0.2609
 2923SOL    HW220406   0.538   4.040   5.960  0.3608 -0.1613  0.3541
 2924SOL     OW20407   2.763   0.812   1.627  0.5555  0.3222  0.2574
 2924SOL    HW120408   2.776   0.907   1.625  0.1697  0.4075  1.5309
 2924SOL    HW220409   2.794   0.791   1.715 -2.1193 -3.9716  0.1634
 2925SOL     OW20410   4.675   0.292  16.184 -0.0396 -0.2578  0.2347
 2925SOL    HW120411   4.611   0.322  16.119 -1.0421 -0.2399  1.2343
 2925SOL    HW220412   0.005   0.275  16.121 -0.4585 -0.6274 -0.1247
 2926SOL     OW20413   2.433   3.264   7.457 -0.2380 -0.3910  0.2799
 2926SOL    HW120414   2.437   3.340   7.514 -1.1731  0.0769 -0.2738
 2926SOL    HW220415   2.374   3.293   7.387 -2.2215 -2.2952  1.1603
 2927SOL     OW20416   4.305   0.857   5.176 -0.0847 -0.3594 -0.0063
 2927SOL    HW120417   4.220   0.898   5.155 -0.3256 -0.4459  0.8142
 2927SOL    HW220418   4.293   0.776   5.126  0.1897  0.4795 -1.4420
 2928SOL     OW20419   2.312   0.032   6.902 -0.9647  0.6156 -1.3545
 2928SOL    HW120420   2.284   0.084   6.977  0.2075 -2.2864  1.0990
 2928SOL    HW220421   2.327   0.109   6.847  1.6802 -0.1985 -1.7755
 2929SOL     OW20422   0.890   3.606   4.119  0.2609 -0.0787  0.0658
 2929SOL    HW120423   0.970   3.656   4.108 -0.0916  0.0758 -1.9067
 2929SOL    HW220424   0.921   3.534   4.064 -0.4674 -0.1702 -0.2343
 2930SOL     OW20425   2.992   0.813   6.272 -0.2726  0.0704  0.4415
 2930SOL    HW120426   2.917   0.754   6.273 -0.7726  0.6742 -0.8407
 2930SOL    HW220427   3.006   0.818   6.178  0.8523  1.3147  0.6782
 2931SOL     OW20428   0.939   0.882   1.671 -0.7991 -0.7668  0.0958
 2931SOL    HW120429   0.854   0.877   1.627 -0.5686  0.1503 -0.4577
 2931SOL    HW220430   0.951   0.802   1.722 -1.0097  0.2562  1.7484
 2932SOL     OW20431   3.966   3.148   4.359 -0.2652 -0.3620  0.5551
 2932SOL    HW120432   3.995   3.112   4.444  3.3617  0.0550 -0.4898
 2932SOL    HW220433   4.006   3.235   4.358  1.3788 -1.1725 -3.5564
 2933SOL     OW20434   1.819   0.720  11.791 -0.2549 -0.1859  0.0111
 2933SOL    HW120435   1.858   0.786  11.848 -0.4918 -0.2495  0.2490
 2933SOL    HW220436   1.889   0.702  11.729 -0.2075  0.5998 -0.1546
 2934SOL     OW20437   3.185   0.806   5.080 -0.2097 -0.0091 -0.2077
 2934SOL    HW120438   3.189   0.823   5.174 -1.6671  1.0005 -0.3180
 2934SOL    HW220439   3.277   0.811   5.056  0.5132 -0.5471  2.5151
 2935SOL     OW20440   0.776   1.912   1.298  0.2084 -0.3212  0.6455
 2935SOL    HW120441   0.868   1.938   1.305  0.5025 -1.1109 -0.2647
 2935SOL    HW220442   0.780   1.831   1.246  1.0600  0.1791 -0.0654
 2936SOL     OW20443   4.168   2.344   1.778 -0.2739 -0.0080 -0.5135
 2936SOL    HW120444   4.254   2.313   1.750 -0.1614 -0.5327  0.4243
 2936SOL    HW220445   4.142   2.389   1.697  0.3367 -2.7582 -2.2087
 2937SOL     OW20446   0.517   2.670   0.050  0.2342  0.1994  0.5279
 2937SOL    HW120447   0.511   2.745  17.746  1.8519  0.2862  0.4870
 2937SOL    HW220448   0.495   2.594  17.749 -0.4845 -1.9620  3.7602
 2938SOL     OW20449   4.492   4.599  10.847 -0.5237  0.0184 -0.1072
 2938SOL    HW120450   4.440   4.671  10.811  0.8390  1.0889  0.0506
 2938SOL    HW220451   4.434   4.573  10.919  2.1269 -1.0486  1.6335
 2939SOL     OW20452   1.969   0.884   7.316 -0.3904 -0.1325  0.2863
 2939SOL    HW120453   2.062   0.879   7.339 -0.2593  1.8680  0.1981
 2939SOL    HW220454   1.963   0.967   7.269 -0.3517 -2.5836 -4.0379
 2940SOL     OW20455   1.189   0.294   5.046  0.0322 -0.7728  0.7059
 2940SOL    HW120456   1.162   0.353   5.117  2.6905  0.4532  0.6775
 2940SOL    HW220457   1.282   0.313   5.053  0.2759 -1.6125 -0.2314
 2941SOL     OW20458   3.323   3.542  12.253  0.0711  0.4639 -0.4552
 2941SOL    HW120459   3.304   3.516  12.343  1.8730  0.3684 -0.1015
 2941SOL    HW220460   3.340   3.635  12.269 -0.2868  0.0142  2.4603
 2942SOL     OW20461   2.774   3.486   6.886  0.1757  0.1173 -0.5160
 2942SOL    HW120462   2.769   3.498   6.791 -0.4053  3.2002 -0.1064
 2942SOL    HW220463   2.849   3.428   6.896 -1.3798 -1.9952 -1.3284
 2943SOL     OW20464   2.239   0.848  12.739  0.0715  0.3207 -0.1967
 2943SOL    HW120465   2.269   0.937  12.721  1.5824 -0.4362 -1.3900
 2943SOL    HW220466   2.216   0.865  12.830 -3.8619  2.5090 -1.5577
 2944SOL     OW20467   3.558   3.309   5.955  0.0940 -0.5445 -0.2465
 2944SOL    HW120468   3.566   3.214   5.960  2.3136 -0.3791 -0.8444
 2944SOL    HW220469   3.575   3.330   6.047  2.3238 -0.3478 -0.7087
 2945SOL     OW20470   2.523   1.539   0.288 -0.4054  0.7060 -0.0372
 2945SOL    HW120471   2.584   1.582   0.228  0.8126  1.0908  1.4551
 2945SOL    HW220472   2.451   1.601   0.274 -0.7723  0.2254 -0.2662
 2946SOL     OW20473   0.638   0.697   1.726 -0.0440  0.6321 -0.0941
 2946SOL    HW120474   0.704   0.649   1.777 -0.1743 -1.3176 -1.7555
 2946SOL    HW220475   0.569   0.634   1.705  1.5683 -0.0584 -3.4144
 2947SOL     OW20476   4.327   4.006   0.000 -0.6140  0.6835  0.2252
 2947SOL    HW120477   4.296   3.995  17.666 -0.2151 -0.6109  0.2444
 2947SOL    HW220478   4.410   4.050  17.736 -0.3739 -0.7342 -1.9219
 2948SOL     OW20479   1.715   4.379   4.041  0.3009 -0.7040  0.3250
 2948SOL    HW120480   1.757   4.457   4.004 -1.2671  0.5839  1.2870
 2948SOL    HW220481   1.783   4.317   4.013  0.4638 -0.4787  0.2203
 2949SOL     OW20482   3.086   0.860  11.183  0.4367  0.2817 -0.1156
 2949SOL    HW120483   3.154   0.850  11.249  0.8723 -1.0315 -0.7588
 2949SOL    HW220484   3.052   0.941  11.220  0.1906 -0.1060  0.4944
 2950SOL     OW20485   4.707   4.623   2.776 -0.1938 -0.3464 -0.0116
 2950SOL    HW120486   0.005   4.589   2.857  1.7653  4.2911  0.9732
 2950SOL    HW220487   0.015   4.572   2.709  0.1110  0.2833 -0.2703
 2951SOL     OW20488   3.142   0.546   6.987 -0.8388 -0.6939  0.0102
 2951SOL    HW120489   3.136   0.586   6.900 -1.9628 -0.6487  0.1123
 2951SOL    HW220490   3.229   0.576   7.016 -0.7421 -1.4457  0.4795
 2952SOL     OW20491   0.667   4.182   6.515 -0.4262  0.6031  0.0630
 2952SOL    HW120492   0.617   4.164   6.435 -2.7282  0.1858  1.6089
 2952SOL    HW220493   0.759   4.162   6.496 -0.5008  1.0823 -0.7966
 2953SOL     OW20494   3.139   4.368   2.563 -0.4147 -0.0796  0.4110
 2953SOL    HW120495   3.146   4.336   2.472 -0.3917 -1.3043  0.8378
 2953SOL    HW220496   3.230   4.388   2.583  0.4200 -2.7546 -0.6706
 2954SOL     OW20497   1.302   3.098   1.331  0.0900  0.2652  0.0182
 2954SOL    HW120498   1.229   3.074   1.274 -0.9669 -0.9454  1.8817
 2954SOL    HW220499   1.257   3.116   1.413  1.7558 -0.3546  1.0816
 2955SOL     OW20500   0.990   2.422   7.622  0.3621 -0.3129  0.1673
 2955SOL    HW120501   0.942   2.351   7.666  0.9185 -0.4655  0.5247
 2955SOL    HW220502   0.948   2.425   7.536  0.7642  0.4029 -0.0071
 2956SOL     OW20503   4.617   4.120   9.573 -0.1850 -0.9396  0.2613
 2956SOL    HW120504   4.639   4.035   9.613 -0.8411 -1.3690 -0.2860
 2956SOL    HW220505   4.604   4.172   9.652  1.2159 -0.0649 -0.0901
 2957SOL     OW20506   1.817   4.607   3.936 -0.3338  0.1055  0.0116
 2957SOL    HW120507   1.846   4.675   3.997 -1.5044  0.2791  0.3799
 2957SOL    HW220508   1.830   4.652   3.852 -0.6656 -1.4622 -0.8767
 2958SOL     OW20509   4.168   2.419   4.884 -0.3704  0.0126 -0.1382
 2958SOL    HW120510   4.173   2.362   4.960  0.1444 -1.7493 -1.4953
 2958SOL    HW220511   4.188   2.352   4.819 -0.1329 -0.2733  0.2354
 2959SOL     OW20512   0.680   4.466  16.349  0.4613  0.2691 -0.2111
 2959SOL    HW120513   0.637   4.391  16.308 -0.1779  0.3538  0.3021
 2959SOL    HW220514   0.623   4.541  16.333 -0.5431 -0.5618 -0.5497
 2960SOL     OW20515   0.442   0.232   1.376 -0.4007  0.3990 -0.3124
 2960SOL    HW120516   0.422   0.325   1.364  1.9667  0.6165 -2.5190
 2960SOL    HW220517   0.395   0.231   1.460 -1.2417 -1.7311 -0.7986
 2961SOL     OW20518   2.478   4.372  13.404  0.0549  0.1906  0.1560
 2961SOL    HW120519   2.527   4.405  13.329  0.9927 -2.3539 -0.3179
 2961SOL    HW220520   2.387   4.372  13.375 -0.3258  0.8442  1.3421
 2962SOL     OW20521   3.990   0.619   7.442  0.2160  0.0857 -0.2901
 2962SOL    HW120522   4.036   0.536   7.453  1.4893  0.9581  0.8513
 2962SOL    HW220523   4.050   0.672   7.495 -0.6203 -0.3021  1.0380
 2963SOL     OW20524   1.991   4.020   8.297  0.4080 -0.5608 -0.0468
 2963SOL    HW120525   2.000   4.109   8.330 -1.1449  0.0041 -1.1481
 2963SOL    HW220526   1.933   3.979   8.361 -1.1780  0.9921 -0.5114
 2964SOL     OW20527   2.795   0.613  16.210  0.1851  0.3301  0.4615
 2964SOL    HW120528   2.840   0.684  16.163 -0.0307 -1.2807 -2.1757
 2964SOL    HW220529   2.778   0.657  16.293 -0.9850  0.2357  0.2704
 2965SOL     OW20530   0.356   3.624   5.972  0.5944  0.1595  0.7411
 2965SOL    HW120531   0.323   3.567   6.042 -1.5443 -0.9825 -1.1875
 2965SOL    HW220532   0.450   3.624   5.985  0.7355 -1.0901 -0.4370
 2966SOL     OW20533   0.478   1.478  13.731 -0.0034  0.1630  0.1057
 2966SOL    HW120534   0.478   1.556  13.787 -0.6010 -1.5080  2.4191
 2966SOL    HW220535   0.396   1.504  13.690 -0.6631  1.2879  2.1409
 2967SOL     OW20536   0.371   1.990   4.554  0.2591  0.8341  0.5867
 2967SOL    HW120537   0.399   1.915   4.606  1.0597  0.0788 -0.9124
 2967SOL    HW220538   0.306   1.958   4.492  1.7600 -3.3907  1.2045
 2968SOL     OW20539   2.024   3.833  16.191 -0.2250 -0.1552 -0.0622
 2968SOL    HW120540   1.946   3.812  16.242 -0.1366 -0.2528  0.0329
 2968SOL    HW220541   2.001   3.926  16.192 -0.3809 -0.1956  1.1057
 2969SOL     OW20542   2.179   2.595   7.329  0.3794  0.2329 -0.3013
 2969SOL    HW120543   2.205   2.650   7.255  1.9617 -1.4224 -0.9586
 2969SOL    HW220544   2.149   2.658   7.395 -1.7386  1.4024 -2.3981
 2970SOL     OW20545   2.212   1.604   0.220  0.0479 -0.5498  0.0180
 2970SOL    HW120546   2.190   1.684   0.173  1.3794 -1.1420 -1.6010
 2970SOL    HW220547   2.169   1.619   0.305  0.5177 -0.8396  0.3020
 2971SOL     OW20548   1.995   4.306   8.391  0.2523  0.1466  0.4101
 2971SOL    HW120549   1.914   4.313   8.341  0.3792  1.9704  0.4619
 2971SOL    HW220550   1.972   4.360   8.467 -3.8651  0.6857 -1.2427
 2972SOL     OW20551   4.105   1.025  16.861  0.2147  0.2267  0.0645
 2972SOL    HW120552   4.143   1.093  16.916  0.8571 -1.0334  1.1791
 2972SOL    HW220553   4.017   1.064  16.856  0.3559  0.5747  0.3353
 2973SOL     OW20554   1.275   4.040  13.150  0.2634 -0.0585  0.0227
 2973SOL    HW120555   1.334   4.116  13.148 -1.3238  1.1877  0.6610
 2973SOL    HW220556   1.186   4.071  13.166  0.2291  0.1217 -0.5242
 2974SOL     OW20557   2.768   4.657   5.786 -0.7941 -0.4234  0.1469
 2974SOL    HW120558   2.819   4.576   5.780 -1.2270 -0.6789 -0.0696
 2974SOL    HW220559   2.709   4.637   5.858 -0.2322  0.7231  0.9262
 2975SOL     OW20560   4.610   0.507  15.356  0.2982  0.1530  0.4599
 2975SOL    HW120561   4.572   0.577  15.410 -0.5760  0.8584 -1.0404
 2975SOL    HW220562   4.658   0.462  15.425  0.4223  2.3569  1.8078
 2976SOL     OW20563   2.715   1.342  12.157 -0.3848  0.3614  0.0966
 2976SOL    HW120564   2.696   1.255  12.193 -0.6684 -0.2179 -1.4492
 2976SOL    HW220565   2.699   1.318  12.066  0.0249  1.9802 -0.3986
 2977SOL     OW20566   0.030   3.758   5.114  1.0524 -0.5065 -0.2373
 2977SOL    HW120567   4.717   3.729   5.039  0.2121 -0.9936  0.5465
 2977SOL    HW220568   0.024   3.681   5.170  2.4765 -1.6180 -1.5955
 2978SOL     OW20569   3.093   3.380   6.015 -0.0627 -0.5908  0.2567
 2978SOL    HW120570   3.181   3.368   5.981  0.2187  0.3445  0.6383
 2978SOL    HW220571   3.046   3.341   5.942 -1.6823  1.1146  0.3829
 2979SOL     OW20572   0.691   3.768  12.233  0.2157 -0.2735 -0.2771
 2979SOL    HW120573   0.612   3.759  12.180  0.9093 -0.9184 -1.1898
 2979SOL    HW220574   0.757   3.804  12.174  0.6719  0.8374  0.9152
 2980SOL     OW20575   0.898   0.581   3.348 -0.4762  0.0654 -0.5908
 2980SOL    HW120576   0.858   0.630   3.276  0.2771 -0.3592 -1.3001
 2980SOL    HW220577   0.863   0.639   3.415  0.3470  3.0355 -2.7458
 2981SOL     OW20578   0.117   0.303   8.848 -0.5968  0.2030  0.0816
 2981SOL    HW120579   0.188   0.324   8.788 -0.8482  1.8612  0.3627
 2981SOL    HW220580   0.133   0.363   8.921 -2.1587 -0.8386  1.2855
 2982SOL     OW20581   0.040   3.733  14.684  0.4477  0.2833  0.4918
 2982SOL    HW120582   4.709   3.798  14.681  1.8222  1.7689  0.4760
 2982SOL    HW220583   0.016   3.696  14.770 -0.4223  1.7270  0.8697
 2983SOL     OW20584   4.645   2.315   7.757 -0.5611 -0.5343  0.5252
 2983SOL    HW120585   4.683   2.228   7.768 -1.2053 -0.9037 -0.2443
 2983SOL    HW220586   4.665   2.344   7.847 -1.7717 -0.7832  0.8714
 2984SOL     OW20587   0.587   2.149  11.436 -0.0657 -0.1430 -0.2740
 2984SOL    HW120588   0.595   2.135  11.342 -0.3832 -1.6839 -0.0700
 2984SOL    HW220589   0.499   2.117  11.456  1.1101 -2.1629  1.7385
 2985SOL     OW20590   3.320   1.043   8.709  0.0057  0.0081  0.2407
 2985SOL    HW120591   3.414   1.056   8.724  0.0606  0.4207 -0.4529
 2985SOL    HW220592   3.298   1.113   8.647  1.6490 -0.1907 -0.5553
 2986SOL     OW20593   0.447   0.724   2.893  0.3879 -0.4108 -0.1359
 2986SOL    HW120594   0.458   0.781   2.969 -0.3402 -0.8346  0.2861
 2986SOL    HW220595   0.408   0.784   2.829  0.7132  0.5538  0.5691
 2987SOL     OW20596   2.803   1.023   2.206  0.3029  0.3407  0.3911
 2987SOL    HW120597   2.770   0.936   2.230 -0.0578  0.2662 -0.3921
 2987SOL    HW220598   2.845   1.039   2.290  1.9870  1.1258 -0.6096
 2988SOL     OW20599   0.255   0.576   9.418  0.5793  0.0225 -0.4313
 2988SOL    HW120600   0.202   0.628   9.358 -1.3607  0.9657  2.0839
 2988SOL    HW220601   0.200   0.581   9.497 -0.4581  0.7725 -1.1922
 2989SOL     OW20602   1.886   2.856   2.678  0.4312 -0.9373  0.3535
 2989SOL    HW120603   1.799   2.896   2.671  1.1819  1.0611  2.7115
 2989SOL    HW220604   1.935   2.893   2.605  0.1647 -1.1685  0.0532
 2990SOL     OW20605   1.673   3.067   5.146  0.3879  0.5106 -0.1931
 2990SOL    HW120606   1.718   3.092   5.066  0.0698 -0.7817 -0.7855
 2990SOL    HW220607   1.746   3.051   5.205  0.6368  2.5306  0.0300
 2991SOL     OW20608   3.749   0.405   2.180 -0.0309  0.8327 -0.0158
 2991SOL    HW120609   3.704   0.422   2.263  0.1049  2.3349 -0.2575
 2991SOL    HW220610   3.702   0.326   2.154 -1.4250  0.6539  3.0309
 2992SOL     OW20611   4.011   0.844   7.653 -0.2391 -0.1245  0.1700
 2992SOL    HW120612   4.022   0.938   7.669  0.2591  0.4150 -3.3393
 2992SOL    HW220613   3.930   0.846   7.603 -1.0061 -3.2590  1.3168
 2993SOL     OW20614   1.799   1.222   9.021 -0.1042 -0.0504 -0.2741
 2993SOL    HW120615   1.744   1.168   9.078  3.5511 -0.5839  2.8155
 2993SOL    HW220616   1.785   1.302   9.071  1.5416  1.1331 -1.6880
 2994SOL     OW20617   2.607   4.519   3.531 -0.4444 -0.1050  0.0592
 2994SOL    HW120618   2.647   4.606   3.531 -2.4664  0.8277  0.5681
 2994SOL    HW220619   2.686   4.467   3.545 -0.3359 -1.0195 -3.8395
 2995SOL     OW20620   3.495   2.118   3.690 -0.1881 -0.3714 -0.3936
 2995SOL    HW120621   3.481   2.040   3.636 -1.7370 -1.7273  1.9599
 2995SOL    HW220622   3.409   2.128   3.731  0.2819 -1.0764  0.7461
 2996SOL     OW20623   0.935   0.646   1.823  0.2730 -0.0336  0.1753
 2996SOL    HW120624   0.885   0.631   1.903 -2.1900 -0.4451 -1.4293
 2996SOL    HW220625   0.914   0.568   1.771  0.0683  0.1899 -0.0800
 2997SOL     OW20626   0.917   2.467   9.212 -0.3365  0.3540  0.3643
 2997SOL    HW120627   0.936   2.512   9.130 -0.1787  0.0575  0.2377
 2997SOL    HW220628   0.932   2.549   9.259  1.9671 -0.4264  1.0024
 2998SOL     OW20629   1.375   1.605   2.149  0.1882  0.5809 -0.0406
 2998SOL    HW120630   1.339   1.539   2.208 -0.5454  0.5296 -0.5534
 2998SOL    HW220631   1.371   1.565   2.062 -1.9932  0.7356 -0.0078
 2999SOL     OW20632   2.761   1.262   5.872 -0.2793  0.0096 -0.0195
 2999SOL    HW120633   2.757   1.296   5.961 -0.3380  1.4619 -0.5871
 2999SOL    HW220634   2.831   1.196   5.878 -1.0283 -0.9848 -2.4022
 3000SOL     OW20635   3.848   0.598   6.522  0.4882  0.1732 -0.0159
 3000SOL    HW120636   3.901   0.658   6.575 -1.8414  3.1440 -1.0434
 3000SOL    HW220637   3.862   0.520   6.575  0.0924  0.5763  0.6768
 3001SOL     OW20638   1.498   1.431  16.441  0.0805  0.0755  0.4251
 3001SOL    HW120639   1.568   1.374  16.475 -2.2862 -2.1626  1.5768
 3001SOL    HW220640   1.422   1.417  16.497 -1.2745  0.2573 -1.3727
 3002SOL     OW20641   0.456   2.897  14.040 -0.8383 -0.7228 -0.3837
 3002SOL    HW120642   0.375   2.935  14.007 -1.0279 -0.4297  0.4283
 3002SOL    HW220643   0.433   2.871  14.129 -1.0095 -0.0861 -0.2371
 3003SOL     OW20644   2.502   1.735  12.862 -0.0787  0.0735 -0.2184
 3003SOL    HW120645   2.449   1.656  12.853  1.8327 -1.0268 -1.6808
 3003SOL    HW220646   2.591   1.701  12.853  0.9570  2.2788  1.6065
 3004SOL     OW20647   0.647   3.604   2.973 -0.0522 -0.1792 -0.1512
 3004SOL    HW120648   0.648   3.528   2.914  3.7561  1.4205 -2.1399
 3004SOL    HW220649   0.559   3.636   2.956  0.2542 -0.7288 -2.6958
 3005SOL     OW20650   1.351   3.593  14.706 -0.3664  0.1375 -0.0070
 3005SOL    HW120651   1.266   3.612  14.668  0.3467  0.8764 -1.2465
 3005SOL    HW220652   1.334   3.625  14.794 -0.1590  0.8500 -0.2228
 3006SOL     OW20653   2.872   3.069   2.048  0.4979  0.1252  0.7945
 3006SOL    HW120654   2.860   2.978   2.076  1.2797 -0.2143 -0.0018
 3006SOL    HW220655   2.870   3.058   1.953 -1.4146  0.5373  0.7799
 3007SOL     OW20656   2.172   1.858   8.224 -0.4837  0.4979 -0.0660
 3007SOL    HW120657   2.210   1.780   8.266 -0.0256  1.1510  0.7390
 3007SOL    HW220658   2.171   1.920   8.297  0.5691 -1.7145  1.8552
 3008SOL     OW20659   2.559   2.639   4.574  0.4388 -0.0849 -0.0260
 3008SOL    HW120660   2.478   2.612   4.617 -0.8295 -1.1095 -3.0731
 3008SOL    HW220661   2.612   2.563   4.552  1.0390 -0.7215  3.6404
 3009SOL     OW20662   0.093   3.161   3.450 -0.0671  0.1486 -0.5686
 3009SOL    HW120663   0.092   3.073   3.486  0.3478  0.4889  0.2564
 3009SOL    HW220664   0.173   3.164   3.398  0.0863 -0.7558 -0.3722
 3010SOL     OW20665   0.617   2.588   9.497  0.0890 -0.4122 -0.0539
 3010SOL    HW120666   0.569   2.508   9.474  1.1153 -0.3608 -2.2994
 3010SOL    HW220667   0.638   2.564   9.587 -0.6065  0.3189  0.3049
 3011SOL     OW20668   2.269   4.609   7.313  0.2732 -0.3092 -0.4835
 3011SOL    HW120669   2.218   4.676   7.267 -0.4593  0.6406  1.7411
 3011SOL    HW220670   2.353   4.652   7.323 -0.7008  1.1830  1.2354
 3012SOL     OW20671   3.830   3.110   9.944  0.1121 -0.4474  0.2680
 3012SOL    HW120672   3.844   3.136  10.035  0.3544 -0.6737  0.2948
 3012SOL    HW220673   3.737   3.087   9.949  0.5132 -1.9762  0.7708
 3013SOL     OW20674   4.089   4.343   6.253 -0.0464  0.1122 -0.1707
 3013SOL    HW120675   4.170   4.308   6.216  0.4572 -0.2026  1.2294
 3013SOL    HW220676   4.113   4.321   6.343  0.1529 -0.5385 -0.3823
 3014SOL     OW20677   0.177   1.567  11.620 -0.1676 -0.1392 -0.0115
 3014SOL    HW120678   0.125   1.539  11.695 -0.3702  1.2826  0.3823
 3014SOL    HW220679   0.259   1.578  11.668 -0.3826 -1.0693  0.5500
 3015SOL     OW20680   1.902   0.357  14.513 -0.0358  0.1172 -0.0256
 3015SOL    HW120681   1.851   0.353  14.432  1.9263 -0.7236 -1.2122
 3015SOL    HW220682   1.829   0.370  14.575  0.9139  2.9802  0.5078
 3016SOL     OW20683   3.964   3.313   3.048 -0.0181 -0.0144  0.2984
 3016SOL    HW120684   4.023   3.383   3.073  0.1421  0.2215 -0.7286
 3016SOL    HW220685   3.900   3.322   3.118  0.8805  0.3256  1.0820
 3017SOL     OW20686   2.420   4.466  11.212 -0.5350 -0.2534 -0.6783
 3017SOL    HW120687   2.357   4.393  11.213 -0.2938 -0.4529  0.2176
 3017SOL    HW220688   2.496   4.427  11.170  0.8567 -1.2527  2.7254
 3018SOL     OW20689   2.684   2.090   2.226 -0.6232 -0.3683  0.1058
 3018SOL    HW120690   2.617   2.098   2.159 -0.1501  0.6682 -0.2492
 3018SOL    HW220691   2.624   2.091   2.301 -1.4083  1.2938 -0.5412
 3019SOL     OW20692   2.377   1.348   4.232  0.0530 -0.2866 -0.1275
 3019SOL    HW120693   2.343   1.297   4.306 -0.6535 -0.0927 -0.3167
 3019SOL    HW220694   2.298   1.398   4.213 -0.8274 -1.6101  0.0535
 3020SOL     OW20695   2.872   1.059   6.352 -0.2881 -0.1638  0.3263
 3020SOL    HW120696   2.901   0.982   6.304 -1.5792 -0.8432  0.6427
 3020SOL    HW220697   2.940   1.124   6.332 -0.7935 -0.1985 -1.4845
 3021SOL     OW20698   3.680   0.932   5.012 -0.1145  0.1044 -0.0181
 3021SOL    HW120699   3.658   0.839   5.012  1.9799 -0.3947  1.1219
 3021SOL    HW220700   3.590   0.965   5.015 -1.0238 -2.4479  0.2081
 3022SOL     OW20701   2.516   4.405  15.215  0.0821  0.8864  0.4324
 3022SOL    HW120702   2.504   4.497  15.241  2.5142  1.3489 -0.0099
 3022SOL    HW220703   2.477   4.357  15.287  0.4278  2.3425  1.5952
 3023SOL     OW20704   0.470   4.349   4.396  0.2692  0.0164 -0.1928
 3023SOL    HW120705   0.444   4.398   4.474  0.3993 -0.8273  0.3896
 3023SOL    HW220706   0.414   4.272   4.409  0.6622 -0.0772  0.8933
 3024SOL     OW20707   4.499   0.910   2.505  0.2513 -0.8378  0.2528
 3024SOL    HW120708   4.428   0.902   2.568 -0.4035  0.7903 -0.2913
 3024SOL    HW220709   4.542   0.986   2.543 -3.2822  1.3976 -0.2684
 3025SOL     OW20710   4.479   3.665   1.428 -0.7602  0.6350 -0.1783
 3025SOL    HW120711   4.455   3.588   1.377  0.7141 -0.5955  0.9929
 3025SOL    HW220712   4.570   3.646   1.451 -0.7349  0.2995 -0.5617
 3026SOL     OW20713   3.461   2.860   2.324 -0.8126 -0.3787  0.0853
 3026SOL    HW120714   3.425   2.907   2.399 -1.5835 -0.2849 -0.3444
 3026SOL    HW220715   3.437   2.769   2.344 -0.8276 -0.3782  0.0689
 3027SOL     OW20716   1.484   2.203   3.388  0.1886  0.0785  0.6869
 3027SOL    HW120717   1.511   2.147   3.461  0.8332 -0.6168 -0.0960
 3027SOL    HW220718   1.527   2.166   3.311 -0.1212  0.5741  0.2839
 3028SOL     OW20719   1.431   0.812   6.662 -0.2517 -0.6358  0.1950
 3028SOL    HW120720   1.499   0.779   6.603 -0.7030  1.1149 -1.3286
 3028SOL    HW220721   1.434   0.737   6.721 -1.1917 -1.1002 -0.3545
 3029SOL     OW20722   4.673   0.448   6.866 -0.4042 -1.1664 -0.1208
 3029SOL    HW120723   4.608   0.438   6.935 -0.2863  0.6045  0.2434
 3029SOL    HW220724   4.712   0.361   6.858 -0.5568 -1.2565  0.1088
 3030SOL     OW20725   0.489   3.421   8.456 -0.2446 -0.2170 -0.3157
 3030SOL    HW120726   0.426   3.352   8.432 -1.5886  1.4768 -1.6627
 3030SOL    HW220727   0.456   3.490   8.398  2.0684  1.2356  0.1021
 3031SOL     OW20728   3.423   4.152  12.919 -0.1384 -0.1383  0.0173
 3031SOL    HW120729   3.355   4.101  12.876  0.5294  0.6614 -2.0007
 3031SOL    HW220730   3.391   4.147  13.009 -0.1960 -1.7202 -0.0977
 3032SOL     OW20731   2.958   1.748   8.870  0.2126  0.2774  0.1800
 3032SOL    HW120732   2.883   1.743   8.811  0.8525 -0.2079 -0.5992
 3032SOL    HW220733   2.949   1.836   8.906  2.9266 -0.2344  2.1803
 3033SOL     OW20734   0.551   0.476  10.505  0.3770 -0.0214  0.9285
 3033SOL    HW120735   0.638   0.457  10.470  0.0004 -0.3055  0.1559
 3033SOL    HW220736   0.577   0.559  10.546 -1.7804  0.9644  0.3271
 3034SOL     OW20737   3.474   0.846   4.739  0.0331 -0.4082 -0.8334
 3034SOL    HW120738   3.419   0.909   4.693 -1.0671  0.2326  1.3666
 3034SOL    HW220739   3.471   0.884   4.827  1.5261  1.1531 -1.4562
 3035SOL     OW20740   1.770   0.518   7.073 -0.3922  0.0293  0.1657
 3035SOL    HW120741   1.741   0.510   7.164  0.7093  0.2638  0.5444
 3035SOL    HW220742   1.761   0.430   7.037 -2.5557  1.5096 -2.8353
 3036SOL     OW20743   0.244   1.722   6.127  0.2284 -0.2456  0.7146
 3036SOL    HW120744   0.193   1.803   6.134  0.0567 -0.0339 -3.0662
 3036SOL    HW220745   0.333   1.757   6.129  1.1407 -2.5589  0.4902
 3037SOL     OW20746   3.398   4.005   5.999  0.0913  0.3792  1.0642
 3037SOL    HW120747   3.457   3.951   6.052 -0.5456 -0.9817  0.3908
 3037SOL    HW220748   3.444   4.088   6.017 -1.3818  1.1897  1.0683
 3038SOL     OW20749   2.301   3.278   6.923 -0.1490 -0.3040  0.4330
 3038SOL    HW120750   2.359   3.328   6.866 -2.7736  0.8719 -1.2332
 3038SOL    HW220751   2.214   3.312   6.900  0.3502  0.9232  0.3440
 3039SOL     OW20752   4.564   3.780  12.327  0.3542 -0.5284 -0.2452
 3039SOL    HW120753   4.513   3.712  12.371  0.4580 -0.4973 -0.0749
 3039SOL    HW220754   4.539   3.860  12.372  0.7964 -0.3116 -0.3948
 3040SOL     OW20755   0.493   1.056   9.666 -0.2365 -0.5157  0.5000
 3040SOL    HW120756   0.505   1.116   9.740 -2.1973  1.6258 -0.9395
 3040SOL    HW220757   0.402   1.032   9.683  0.2334 -0.3914  3.2286
 3041SOL     OW20758   2.800   3.254   2.504  0.0787  0.3195 -0.0664
 3041SOL    HW120759   2.732   3.196   2.538 -1.3272  2.0405  0.0491
 3041SOL    HW220760   2.790   3.235   2.411 -3.0427  1.3013  0.0707
 3042SOL     OW20761   0.410   2.397   5.943 -0.0658  0.7017 -0.2406
 3042SOL    HW120762   0.431   2.450   6.020  0.6356  1.2236 -0.7910
 3042SOL    HW220763   0.381   2.312   5.977 -0.3513  0.6857 -0.5311
 3043SOL     OW20764   4.665   2.943   8.272 -0.0656 -0.2841  0.0039
 3043SOL    HW120765   4.688   2.939   8.364 -0.9877  1.0212  0.2929
 3043SOL    HW220766   4.609   2.867   8.262  1.7390 -1.4506 -1.2782
 3044SOL     OW20767   2.120   3.240   6.546 -0.0144 -0.1780 -0.4295
 3044SOL    HW120768   2.090   3.149   6.548 -1.9961  0.5266  1.6788
 3044SOL    HW220769   2.046   3.293   6.516  2.0035  2.2689 -1.0343
 3045SOL     OW20770   0.556   0.924  17.237 -0.2735 -0.0254  0.0282
 3045SOL    HW120771   0.592   0.987  17.175  1.2805 -0.1240  0.8431
 3045SOL    HW220772   0.507   0.978  17.299 -1.3824 -2.4013  1.2274
 3046SOL     OW20773   2.600   2.775   7.405  0.4022 -0.0530  0.3311
 3046SOL    HW120774   2.671   2.832   7.434  0.3902 -1.0982  2.3848
 3046SOL    HW220775   2.544   2.804   7.477  0.1550 -0.3608  0.2627
 3047SOL     OW20776   4.233   3.701   7.826 -0.3458 -0.1794  0.3067
 3047SOL    HW120777   4.269   3.626   7.874 -2.1532 -1.1175  0.2058
 3047SOL    HW220778   4.289   3.773   7.854 -0.5074  0.3043 -0.6423
 3048SOL     OW20779   4.446   2.151   3.220  0.1698 -0.7752  0.2472
 3048SOL    HW120780   4.434   2.060   3.194  1.9944 -0.6332 -1.1081
 3048SOL    HW220781   4.512   2.140   3.288 -0.3623 -1.6072  0.6355
 3049SOL     OW20782   3.295   4.578   5.028  0.1416 -0.5032 -0.4177
 3049SOL    HW120783   3.218   4.634   5.018 -1.0433 -1.8157  1.2002
 3049SOL    HW220784   3.263   4.488   5.025  0.2934 -0.5338 -1.0184
 3050SOL     OW20785   0.569   3.594  13.024 -0.0054  0.1454  0.4801
 3050SOL    HW120786   0.592   3.651  13.098 -0.9306  0.0106  0.8671
 3050SOL    HW220787   0.545   3.520  13.080 -2.2600  2.2186  2.2432
 3051SOL     OW20788   0.781   1.643   7.583 -0.0997  0.0535  0.3750
 3051SOL    HW120789   0.758   1.638   7.675 -3.1778  1.7133 -0.3124
 3051SOL    HW220790   0.859   1.697   7.597  1.3891 -2.0185  0.1161
 3052SOL     OW20791   2.659   4.071   4.247  0.1259  0.0094  0.2760
 3052SOL    HW120792   2.607   3.995   4.272  0.3558  0.0252  0.8288
 3052SOL    HW220793   2.739   4.037   4.207 -1.4181 -0.3446 -2.5030
 3053SOL     OW20794   1.355   4.195   4.682  0.5438 -0.0748  0.0040
 3053SOL    HW120795   1.310   4.137   4.743  0.3454  2.2623  2.0679
 3053SOL    HW220796   1.378   4.124   4.622  2.9067 -0.7715  1.7181
 3054SOL     OW20797   1.266   0.501   7.630 -0.5236  0.0492  0.4495
 3054SOL    HW120798   1.237   0.544   7.710 -1.1799 -1.2070  0.8856
 3054SOL    HW220799   1.339   0.558   7.608 -0.6540  0.5747  1.4309
 3055SOL     OW20800   3.344   1.237   2.237 -0.2827  0.5543  0.2062
 3055SOL    HW120801   3.285   1.226   2.312 -0.5987 -1.3517 -0.3327
 3055SOL    HW220802   3.377   1.326   2.246  1.7381 -0.0347 -1.3336
 3056SOL     OW20803   4.215   2.985   1.211  0.4551  0.1951 -0.1741
 3056SOL    HW120804   4.131   2.993   1.167 -0.4607  0.9206  1.7339
 3056SOL    HW220805   4.226   2.890   1.221  0.6594  0.3535  1.1688
 3057SOL     OW20806   3.114   3.532   6.631  0.1258  0.8428 -0.0464
 3057SOL    HW120807   3.139   3.472   6.561  0.1613  0.2699  0.4609
 3057SOL    HW220808   3.175   3.500   6.697 -0.3592  0.0607  0.0124
 3058SOL     OW20809   0.052   1.639   9.890  0.6562 -0.0056 -0.4497
 3058SOL    HW120810   0.113   1.612   9.959 -0.9864 -4.3342 -0.6881
 3058SOL    HW220811   0.063   1.565   9.831  0.3325 -1.2105  0.9996
 3059SOL     OW20812   4.177   0.598  12.041 -0.1557  0.0069  0.4658
 3059SOL    HW120813   4.161   0.551  11.960 -1.6276 -0.8212  1.2472
 3059SOL    HW220814   4.108   0.663  12.029 -0.1435  0.0907  0.8474
 3060SOL     OW20815   3.638   2.763  12.234  0.2728  0.3066 -0.7194
 3060SOL    HW120816   3.583   2.832  12.196 -2.9434 -1.8969 -0.0898
 3060SOL    HW220817   3.630   2.687  12.177 -1.3061 -1.1593  1.4451
 3061SOL     OW20818   3.298   3.816  12.300  0.3185 -0.1344  0.2488
 3061SOL    HW120819   3.331   3.887  12.245 -1.6501  0.3556 -0.2857
 3061SOL    HW220820   3.299   3.858  12.386  0.5056 -1.1428  0.7445
 3062SOL     OW20821   3.912   3.261   2.163 -0.4346  0.3165 -0.5732
 3062SOL    HW120822   4.003   3.266   2.135 -0.2495  0.3726  0.0536
 3062SOL    HW220823   3.865   3.255   2.079  2.9850  0.0453 -2.4671
 3063SOL     OW20824   1.180   3.263   5.778 -0.6194 -0.0035 -0.2215
 3063SOL    HW120825   1.272   3.268   5.753 -0.7930  0.7229 -0.7286
 3063SOL    HW220826   1.190   3.266   5.873  1.7269  0.1786 -0.4663
 3064SOL     OW20827   1.259   1.567   1.624  0.7222  0.4991 -0.1505
 3064SOL    HW120828   1.216   1.541   1.542 -0.7017 -0.1631  0.8135
 3064SOL    HW220829   1.304   1.487   1.651  0.1185 -0.2967 -1.5002
 3065SOL     OW20830   0.982   4.395  14.623  0.5733  0.0263 -0.2367
 3065SOL    HW120831   1.001   4.307  14.654  0.9757  0.1652 -0.0891
 3065SOL    HW220832   0.924   4.385  14.547  1.6921 -3.9472 -0.5769
 3066SOL     OW20833   3.155   0.789   2.122  0.2264 -0.2945  0.0198
 3066SOL    HW120834   3.169   0.694   2.113 -0.0358 -0.2193 -1.1953
 3066SOL    HW220835   3.091   0.785   2.193 -1.6305  0.0025 -1.6376
 3067SOL     OW20836   3.789   0.557   6.059  0.3687 -0.3833  0.2162
 3067SOL    HW120837   3.865   0.616   6.051  0.6394 -0.7823 -0.1335
 3067SOL    HW220838   3.729   0.631   6.056 -2.1345 -2.4306  0.4429
 3068SOL     OW20839   4.431   1.935   9.801  0.2034  0.4775 -0.7959
 3068SOL    HW120840   4.445   2.022   9.763 -0.0175 -0.4674 -3.0020
 3068SOL    HW220841   4.496   1.924   9.871  0.3888  0.2386 -1.0031
 3069SOL     OW20842   1.660   4.620   4.453 -0.0942  0.0658 -0.8629
 3069SOL    HW120843   1.567   4.631   4.432  0.1828  1.8337 -1.1080
 3069SOL    HW220844   1.653   4.538   4.502  0.3081  0.3882 -0.2638
 3070SOL     OW20845   2.839   2.977   4.197  0.0688  0.4350 -0.4851
 3070SOL    HW120846   2.823   2.883   4.204  0.7856  0.2595 -1.1466
 3070SOL    HW220847   2.926   2.974   4.238  0.1082 -1.0521 -0.6485
 3071SOL     OW20848   3.978   2.159   2.656 -0.1211  0.4156 -0.4809
 3071SOL    HW120849   3.902   2.163   2.714 -0.1840  1.2121 -0.6130
 3071SOL    HW220850   4.056   2.170   2.709 -1.1110  3.8284  0.2714
 3072SOL     OW20851   1.174   1.929  17.603 -0.3723  0.4487 -0.3774
 3072SOL    HW120852   1.113   1.977  17.546  0.0897  0.8486 -0.5398
 3072SOL    HW220853   1.114   1.888  17.665  0.0874  1.6673  0.8632
 3073SOL     OW20854   3.439   0.142   8.159  0.2194  0.3985 -0.0397
 3073SOL    HW120855   3.383   0.195   8.215 -1.6259 -0.1256 -1.3719
 3073SOL    HW220856   3.418   0.193   8.081 -1.9576  0.0481  0.3169
 3074SOL     OW20857   0.384   3.602   6.621  0.0628 -0.1486 -0.1946
 3074SOL    HW120858   0.417   3.520   6.584  3.2853  1.9425 -1.9867
 3074SOL    HW220859   0.295   3.618   6.589 -1.4434 -0.7858  3.6347
 3075SOL     OW20860   0.584   3.008   2.860  0.9930 -0.1773 -0.0026
 3075SOL    HW120861   0.530   2.964   2.925 -1.8313  1.5811 -1.1348
 3075SOL    HW220862   0.529   3.087   2.858  0.9901 -0.1536  1.0623
 3076SOL     OW20863   1.327   3.746   4.150 -0.3346 -0.2074 -0.3533
 3076SOL    HW120864   1.279   3.773   4.072 -1.7921 -1.6241  0.0778
 3076SOL    HW220865   1.317   3.651   4.147  0.8023 -0.3079 -1.4539
 3077SOL     OW20866   1.266   2.776   7.849  0.1423 -0.4898 -0.1568
 3077SOL    HW120867   1.310   2.808   7.770  1.2275 -0.8386  0.3164
 3077SOL    HW220868   1.335   2.803   7.909 -0.4420  1.2136 -0.2353
 3078SOL     OW20869   2.343   1.714   4.223  0.4803 -0.2632 -0.9810
 3078SOL    HW120870   2.417   1.763   4.189  1.0458  0.6100  1.4953
 3078SOL    HW220871   2.370   1.709   4.315  1.6460 -0.3061 -1.3261
 3079SOL     OW20872   3.431   1.680  16.312 -0.4154 -0.3444 -0.4980
 3079SOL    HW120873   3.511   1.664  16.262  0.1966  1.4599 -0.1020
 3079SOL    HW220874   3.366   1.622  16.272  0.3917  0.4633 -2.9591
 3080SOL     OW20875   0.130   1.535   8.903 -0.2924  0.1833  0.0623
 3080SOL    HW120876   0.194   1.590   8.948 -0.2666 -0.3764  0.7177
 3080SOL    HW220877   0.049   1.557   8.950 -0.8175 -0.8500 -0.3368
 3081SOL     OW20878   0.973   0.911  14.460 -0.5650  0.2557  0.0871
 3081SOL    HW120879   1.025   0.856  14.519 -2.5450 -0.6635  0.9902
 3081SOL    HW220880   1.011   0.996  14.481 -0.5536  0.7455 -1.9254
 3082SOL     OW20881   4.627   2.119   3.415  0.2428  0.6847 -0.2884
 3082SOL    HW120882   4.664   2.032   3.424  0.5213  0.6625 -1.6180
 3082SOL    HW220883   4.709   2.167   3.404  0.3888  0.1447 -1.6040
 3083SOL     OW20884   0.433   1.332   1.598 -0.0936 -0.0263 -0.1892
 3083SOL    HW120885   0.437   1.242   1.567  1.3618  0.7836 -2.3200
 3083SOL    HW220886   0.358   1.323   1.656 -0.7797 -0.6395 -1.1864
 3084SOL     OW20887   4.424   0.690   4.823 -0.1906 -0.4496 -0.2088
 3084SOL    HW120888   4.415   0.687   4.919 -0.2596  1.5876 -0.1367
 3084SOL    HW220889   4.504   0.638   4.810  2.6562  4.1056 -0.9796
 3085SOL     OW20890   1.794   2.267   2.676  0.0228  0.6496  0.6420
 3085SOL    HW120891   1.764   2.352   2.708 -0.9634  0.7205 -0.5020
 3085SOL    HW220892   1.784   2.261   2.581 -1.0342 -2.1815  0.9213
 3086SOL     OW20893   0.322   2.036   9.855  0.0005 -0.3623  0.2670
 3086SOL    HW120894   0.256   2.054   9.921 -1.9294 -0.9441 -1.5005
 3086SOL    HW220895   0.375   1.971   9.901  0.0947 -1.6106 -1.5992
 3087SOL     OW20896   2.259   2.934   8.029  0.7388 -0.5454  0.9188
 3087SOL    HW120897   2.348   2.900   8.044  0.3774 -0.7872  2.5186
 3087SOL    HW220898   2.227   2.898   7.947  0.8298 -2.0268  1.5285
 3088SOL     OW20899   1.129   2.491  10.360 -0.0723  0.3689  0.3816
 3088SOL    HW120900   1.125   2.584  10.385  0.9528  0.4483  0.2277
 3088SOL    HW220901   1.210   2.490  10.308 -0.1677 -0.0341  0.2409
 3089SOL     OW20902   3.449   0.037   0.799 -0.0505  0.1353  0.5054
 3089SOL    HW120903   3.489   0.111   0.753  0.3571 -1.5416 -1.8030
 3089SOL    HW220904   3.421   0.075   0.883 -0.5203 -2.0708  1.3436
 3090SOL     OW20905   3.352   1.103  16.124  0.0778  0.1705 -0.3141
 3090SOL    HW120906   3.339   1.011  16.147 -1.0376 -0.4996 -3.7093
 3090SOL    HW220907   3.279   1.140  16.175  0.1169  0.4248 -0.4420
 3091SOL     OW20908   4.648   4.595   7.819  0.8121  0.0087 -0.6949
 3091SOL    HW120909   4.652   4.602   7.723 -1.1410  0.6822 -0.7110
 3091SOL    HW220910   4.556   4.610   7.838  1.3763  0.5747  1.5005
 3092SOL     OW20911   4.270   2.670   5.252 -0.2161  0.3375  0.4468
 3092SOL    HW120912   4.304   2.747   5.205 -1.1853 -0.2269 -1.1786
 3092SOL    HW220913   4.250   2.699   5.341 -1.2626  0.2798  0.2292
 3093SOL     OW20914   3.963   1.537   9.456 -0.4738  0.2250 -0.2286
 3093SOL    HW120915   3.944   1.445   9.439 -1.9381  0.0416  2.2902
 3093SOL    HW220916   4.015   1.516   9.534 -1.9670 -0.1406  0.6814
 3094SOL     OW20917   3.314   0.070   1.311  0.4464  0.1825 -0.3569
 3094SOL    HW120918   3.380   0.050   1.377 -1.5515 -0.9885  1.3322
 3094SOL    HW220919   3.280   4.724   1.282 -0.8394  0.5446  0.0774
 3095SOL     OW20920   0.438   0.751  10.567  0.0083  0.3891 -0.4438
 3095SOL    HW120921   0.375   0.702  10.619 -1.9484  3.8614  0.5150
 3095SOL    HW220922   0.479   0.806  10.634 -1.1652 -1.4964  1.8246
 3096SOL     OW20923   0.822   3.383   7.990 -0.3005 -0.2076 -0.3302
 3096SOL    HW120924   0.901   3.437   7.983 -0.3299 -0.0607  0.4951
 3096SOL    HW220925   0.766   3.435   8.047  1.0745  1.4468 -0.4952
 3097SOL     OW20926   0.672   4.530   6.667  0.9956 -0.1125 -0.1968
 3097SOL    HW120927   0.672   4.439   6.639 -2.4998 -0.6790  1.6463
 3097SOL    HW220928   0.689   4.576   6.585 -3.1990  1.3024 -0.3129
 3098SOL     OW20929   0.313   3.750  14.299 -0.1127  0.0680 -0.4366
 3098SOL    HW120930   0.258   3.777  14.372  1.2629  0.0779  0.6012
 3098SOL    HW220931   0.279   3.663  14.279 -0.0160  0.1247 -0.8561
 3099SOL     OW20932   1.068   2.761  10.431 -0.2336  0.4977  0.2379
 3099SOL    HW120933   0.973   2.762  10.417  0.0177 -0.0525 -1.5272
 3099SOL    HW220934   1.081   2.853  10.454 -0.7325  0.7092 -0.3262
 3100SOL     OW20935   3.200   0.132   2.346  0.1412 -0.6006  0.3644
 3100SOL    HW120936   3.216   0.046   2.308 -1.3838 -0.7799  0.1217
 3100SOL    HW220937   3.113   0.123   2.385 -0.2825  1.7542 -0.0171
 3101SOL     OW20938   3.999   0.225   6.348 -0.4979  0.0466 -0.6430
 3101SOL    HW120939   3.906   0.230   6.372  0.2491  1.5592  1.9708
 3101SOL    HW220940   4.034   0.261   6.430  1.0373 -1.3475 -0.6809
 3102SOL     OW20941   0.969   3.470  14.145 -0.3927 -0.3677  0.5814
 3102SOL    HW120942   0.900   3.444  14.083 -1.1186 -0.5113  1.4581
 3102SOL    HW220943   1.020   3.531  14.092 -0.6539 -1.0882 -0.5048
 3103SOL     OW20944   0.675   3.638  16.185  0.1444 -0.4564  0.0275
 3103SOL    HW120945   0.607   3.658  16.249  0.7214 -0.8501  0.7747
 3103SOL    HW220946   0.622   3.657  16.108 -1.1868 -3.4438  0.1992
 3104SOL     OW20947   2.090   4.039   1.542  0.5591 -0.1369  0.1109
 3104SOL    HW120948   2.044   3.956   1.554  0.4598 -0.2333 -0.9691
 3104SOL    HW220949   2.173   3.997   1.522  1.0556  0.6447  0.5047
 3105SOL     OW20950   0.583   2.439   2.194 -0.3381 -0.6313  0.2605
 3105SOL    HW120951   0.556   2.348   2.201 -1.4418 -0.1016  3.2311
 3105SOL    HW220952   0.673   2.425   2.223 -0.3895 -0.9041  0.2854
 3106SOL     OW20953   2.590   1.923   8.426  1.3015 -0.5365 -0.3010
 3106SOL    HW120954   2.557   1.998   8.376  1.2705 -0.2119  0.2082
 3106SOL    HW220955   2.564   1.846   8.376 -1.2354  0.4370 -0.4501
 3107SOL     OW20956   0.975   0.839   6.757 -0.2890 -0.3942 -0.1501
 3107SOL    HW120957   0.907   0.773   6.743 -1.2733  0.1365  2.1451
 3107SOL    HW220958   0.939   0.905   6.697  1.0549  0.7937  0.3651
 3108SOL     OW20959   0.403   4.161   4.076 -0.0652 -0.5161  0.2244
 3108SOL    HW120960   0.473   4.222   4.054  0.5638 -0.9724  0.9558
 3108SOL    HW220961   0.426   4.139   4.167 -0.7904 -0.9882  0.2970
 3109SOL     OW20962   4.124   1.102   3.459  0.2281 -0.3404  0.1384
 3109SOL    HW120963   4.132   1.044   3.535  2.9968  1.4838  1.2424
 3109SOL    HW220964   4.033   1.128   3.450  0.1341  0.0651  2.3609
 3110SOL     OW20965   4.516   0.512   3.137  0.1205  0.4386  0.1494
 3110SOL    HW120966   4.446   0.549   3.189 -1.8268 -1.9171 -0.8130
 3110SOL    HW220967   4.524   0.578   3.067 -3.2504  0.0278 -0.6312
 3111SOL     OW20968   1.788   0.937   2.736  0.5268  0.4256 -0.6659
 3111SOL    HW120969   1.864   0.884   2.760 -0.0686  0.6135  1.6186
 3111SOL    HW220970   1.750   0.930   2.824 -1.5428  1.0272 -1.5206
 3112SOL     OW20971   1.746   1.797  16.639 -0.0654 -0.3998  0.5335
 3112SOL    HW120972   1.656   1.778  16.664 -0.4639  0.0725 -0.5457
 3112SOL    HW220973   1.792   1.716  16.615 -1.7468 -0.1685 -3.4583
 3113SOL     OW20974   1.035   2.225   5.093  0.1806 -0.1237 -0.3763
 3113SOL    HW120975   1.111   2.223   5.035  0.8123  0.2966  0.4404
 3113SOL    HW220976   0.971   2.261   5.031  1.6643  0.7309 -1.3951
 3114SOL     OW20977   3.849   0.284   9.099  0.1249  0.5826  0.1543
 3114SOL    HW120978   3.786   0.235   9.047  1.1137  0.9749 -1.4017
 3114SOL    HW220979   3.805   0.364   9.130  1.6117  1.8283 -0.9191
 3115SOL     OW20980   0.543   3.188   6.723 -0.1824 -0.2634  0.8629
 3115SOL    HW120981   0.620   3.230   6.759  1.1330 -1.8335 -0.1248
 3115SOL    HW220982   0.548   3.229   6.636 -0.9731 -1.4524  0.2484
 3116SOL     OW20983   1.888   1.429   4.658 -0.3815 -0.0092  0.4028
 3116SOL    HW120984   1.858   1.474   4.737 -0.8988  0.0552  0.1721
 3116SOL    HW220985   1.855   1.345   4.690 -0.9188  0.1019  0.1473
 3117SOL     OW20986   2.083   3.088   0.443  0.2876 -0.3739  0.0037
 3117SOL    HW120987   2.008   3.138   0.410  0.9962  0.5221 -0.2490
 3117SOL    HW220988   2.048   3.000   0.454 -3.4061  1.1283  0.2574
 3118SOL     OW20989   1.706   4.061   6.986  0.0693  0.2237 -0.8047
 3118SOL    HW120990   1.773   4.011   6.940  1.7560 -0.2602  2.1825
 3118SOL    HW220991   1.730   4.151   6.963  1.9378 -0.3377 -1.0148
 3119SOL     OW20992   0.651   2.158   5.094  0.3180 -0.0766 -0.0443
 3119SOL    HW120993   0.700   2.128   5.171 -0.6640 -4.3416 -1.0909
 3119SOL    HW220994   0.618   2.246   5.115  1.1393  0.8688 -2.7542
 3120SOL     OW20995   1.923   4.139   5.267 -0.6159 -0.3585 -0.1801
 3120SOL    HW120996   1.846   4.174   5.223 -0.4647  0.1444 -0.0550
 3120SOL    HW220997   1.902   4.164   5.357  1.8806 -3.3956  1.2157
 3121SOL     OW20998   2.139   4.400  15.701  0.1551  0.0959 -0.1905
 3121SOL    HW120999   2.063   4.451  15.730  2.1328  2.4472  0.9079
 3121SOL    HW221000   2.098   4.314  15.704  3.0990 -1.3183 -0.1571
 3122SOL     OW21001   3.351   0.596   3.898  0.2706 -0.1551  0.0806
 3122SOL    HW121002   3.396   0.654   3.961 -1.6617  1.8330 -0.3595
 3122SOL    HW221003   3.385   0.640   3.820 -3.1098  1.2710 -0.5655
 3123SOL     OW21004   3.260   1.846  16.703  0.3001  0.2403 -0.7358
 3123SOL    HW121005   3.183   1.877  16.656  1.0999  0.5923 -1.8155
 3123SOL    HW221006   3.328   1.850  16.635 -0.1529 -1.4586 -1.2714
 3124SOL     OW21007   3.243   1.439  15.524 -0.0047  0.0955 -0.2369
 3124SOL    HW121008   3.203   1.448  15.437 -0.3452 -0.6296 -0.1524
 3124SOL    HW221009   3.265   1.527  15.555  0.3479  0.8175 -2.5040
 3125SOL     OW21010   0.345   3.493   1.572 -0.0011  0.6936  0.9172
 3125SOL    HW121011   0.261   3.512   1.616 -1.8076 -1.0241 -1.8030
 3125SOL    HW221012   0.390   3.567   1.613 -1.1832  2.0078 -0.1568
 3126SOL     OW21013   1.324   3.512   5.472 -0.1049 -0.1946 -0.1532
 3126SOL    HW121014   1.314   3.476   5.384  0.4910 -0.2487 -0.2027
 3126SOL    HW221015   1.261   3.583   5.480  1.1002  0.7932  0.5764
 3127SOL     OW21016   1.171   2.946   8.115 -0.0877 -0.3435  0.1890
 3127SOL    HW121017   1.148   3.030   8.155  3.2640  0.2712  0.8143
 3127SOL    HW221018   1.109   2.956   8.043 -0.8741 -0.3170  0.8605
 3128SOL     OW21019   1.005   1.789   7.643 -0.0327  0.2589 -0.3406
 3128SOL    HW121020   1.087   1.837   7.637 -0.5625  1.4071  1.3760
 3128SOL    HW221021   1.037   1.701   7.665  1.8955  0.5265 -2.1549
 3129SOL     OW21022   3.583   1.573   4.247  0.8405 -0.0316 -0.1825
 3129SOL    HW121023   3.565   1.629   4.172 -2.5476  0.2684  0.8426
 3129SOL    HW221024   3.498   1.529   4.256  0.7211  0.4555  0.9851
 3130SOL     OW21025   0.257   3.482   3.153 -0.4230  0.2326  0.3277
 3130SOL    HW121026   0.333   3.458   3.206  1.1030  0.7808 -1.5944
 3130SOL    HW221027   0.191   3.485   3.222 -1.8133  3.7145 -1.1558
 3131SOL     OW21028   2.725   2.877   2.614 -0.1409 -0.1721  0.5549
 3131SOL    HW121029   2.812   2.915   2.602 -0.5702  0.5399 -0.2328
 3131SOL    HW221030   2.715   2.873   2.709 -0.7726 -2.5635  0.3973
 3132SOL     OW21031   2.845   3.955   5.229 -0.3895 -0.3619  0.5442
 3132SOL    HW121032   2.807   4.011   5.296  1.1464  0.3714  0.8039
 3132SOL    HW221033   2.793   3.877   5.248 -0.9938  0.2993  1.5986
 3133SOL     OW21034   3.401   3.070  10.473  0.0514  0.2687 -0.0953
 3133SOL    HW121035   3.463   3.092  10.404 -1.1608 -0.4615 -1.4252
 3133SOL    HW221036   3.408   3.140  10.537 -1.6007 -1.6679  2.1985
 3134SOL     OW21037   4.629   3.025   6.443  0.7040 -0.3181 -0.3019
 3134SOL    HW121038   4.610   3.106   6.490 -0.5532 -0.4514 -0.5592
 3134SOL    HW221039   4.548   3.027   6.391 -1.1403  0.4896  2.6112
 3135SOL     OW21040   3.240   3.454   6.843 -0.3935 -0.3447  0.4044
 3135SOL    HW121041   3.184   3.524   6.875  0.9030  1.0496 -0.3508
 3135SOL    HW221042   3.324   3.500   6.840 -0.7253  0.2713  0.5988
 3136SOL     OW21043   4.312   1.002   2.835 -0.5471 -0.5600 -0.6757
 3136SOL    HW121044   4.308   0.927   2.776  0.0211 -1.6862  0.7176
 3136SOL    HW221045   4.276   1.066   2.774 -1.4488  0.5569  1.0381
 3137SOL     OW21046   4.247   0.356   1.977  0.0561  0.0541  0.5027
 3137SOL    HW121047   4.185   0.355   1.904  0.0217  2.6087  0.4914
 3137SOL    HW221048   4.191   0.392   2.046  0.1877 -2.2015  1.8111
 3138SOL     OW21049   3.830   1.108   4.522  0.0198 -0.3851  0.0595
 3138SOL    HW121050   3.916   1.089   4.560 -1.3324 -2.3984  2.1318
 3138SOL    HW221051   3.794   1.142   4.604 -1.6212 -0.3950 -0.6683
 3139SOL     OW21052   0.970   1.697   5.035 -0.4837 -0.3775 -0.7109
 3139SOL    HW121053   1.004   1.610   5.059 -0.4097 -0.3665 -0.7743
 3139SOL    HW221054   0.976   1.746   5.117 -1.6408  0.8340 -1.3566
 3140SOL     OW21055   1.637   4.582   8.055 -0.2165 -0.2839  0.2831
 3140SOL    HW121056   1.565   4.593   8.118  0.7081  0.2252  1.2698
 3140SOL    HW221057   1.613   4.642   7.984 -0.9913 -1.0316 -0.0827
 3141SOL     OW21058   1.672   0.005   5.829  0.2544  0.0879 -0.1671
 3141SOL    HW121059   1.589   0.039   5.862  0.6714  2.4603 -1.5654
 3141SOL    HW221060   1.662   0.013   5.734  0.6875 -1.0980 -0.3133
 3142SOL     OW21061   4.384   2.435   7.460  0.3840 -0.1784  0.2527
 3142SOL    HW121062   4.443   2.361   7.444 -2.9344 -2.7339 -0.2922
 3142SOL    HW221063   4.327   2.383   7.516  2.3932 -1.7886  0.7943
 3143SOL     OW21064   2.423   3.479   6.382 -0.1460 -0.4139 -0.3585
 3143SOL    HW121065   2.467   3.463   6.299  1.5320  1.0165  0.2595
 3143SOL    HW221066   2.482   3.530   6.437 -0.3799 -0.2878 -0.2244
 3144SOL     OW21067   4.689   3.584  17.486 -0.5671 -0.1888 -0.0976
 3144SOL    HW121068   4.671   3.586  17.392  0.3172  3.0431 -0.1891
 3144SOL    HW221069   4.628   3.646  17.526 -0.8369 -1.0918  0.8697
 3145SOL     OW21070   0.497   2.340   1.919  0.3772 -0.0860 -0.0485
 3145SOL    HW121071   0.462   2.341   2.008  2.7901 -2.8909  0.9521
 3145SOL    HW221072   0.523   2.248   1.917 -1.4055 -0.6209  1.2273
 3146SOL     OW21073   1.372   3.405  11.485  0.1438 -0.3466  0.6849
 3146SOL    HW121074   1.402   3.461  11.413 -0.2418  0.1263  0.8938
 3146SOL    HW221075   1.305   3.350  11.444 -0.3553  0.8145 -0.0628
 3147SOL     OW21076   4.065   1.368   6.265  0.1233 -0.0504  0.2701
 3147SOL    HW121077   4.138   1.420   6.298  1.4047 -0.5640 -1.7422
 3147SOL    HW221078   4.099   1.317   6.192 -0.2781  2.3644 -1.5858
 3148SOL     OW21079   1.281   2.849  11.157 -0.3524 -0.0916  0.3347
 3148SOL    HW121080   1.238   2.905  11.092  1.1872  0.7799  0.0670
 3148SOL    HW221081   1.374   2.851  11.133 -0.6255 -0.0342 -0.7572
 3149SOL     OW21082   0.767   2.718   6.098 -0.2168  0.3174 -0.7403
 3149SOL    HW121083   0.767   2.715   6.193  0.4007 -1.3176 -0.7789
 3149SOL    HW221084   0.833   2.786   6.085 -0.4571  1.0159  1.8325
 3150SOL     OW21085   2.491   1.642   5.531  0.5636 -0.4327 -0.8975
 3150SOL    HW121086   2.534   1.559   5.510  2.3492  0.5727 -1.2202
 3150SOL    HW221087   2.453   1.670   5.448 -0.9517 -1.1798 -0.4535
 3151SOL     OW21088   2.930   1.345  14.525  0.2843 -0.4798 -0.3801
 3151SOL    HW121089   2.958   1.304  14.606  1.2091  0.0386 -0.4238
 3151SOL    HW221090   3.018   1.352  14.487  0.3879 -0.6029 -0.1580
 3152SOL     OW21091   1.835   2.540   3.003  0.2813  0.4677  0.0645
 3152SOL    HW121092   1.823   2.635   3.011  2.5286  0.7569  0.1338
 3152SOL    HW221093   1.783   2.536   2.923  0.7764  1.8933 -0.3379
 3153SOL     OW21094   0.483   3.922   1.513 -0.4148 -0.1188 -0.2356
 3153SOL    HW121095   0.540   3.876   1.575 -1.6894 -1.6744 -0.2022
 3153SOL    HW221096   0.405   3.939   1.566  0.3378 -1.2514  1.2279
 3154SOL     OW21097   2.580   4.708   7.946  0.1560  0.5519 -0.8476
 3154SOL    HW121098   2.554   4.683   7.857 -0.3432 -2.7871  0.2216
 3154SOL    HW221099   2.555   0.060   7.953 -0.9600 -0.0237  2.5785
 3155SOL     OW21100   2.603   1.475   7.471  0.4631 -0.4748  0.4397
 3155SOL    HW121101   2.581   1.400   7.417 -0.7141 -0.3867  0.7966
 3155SOL    HW221102   2.518   1.482   7.515  0.0160  1.1355 -0.6566
 3156SOL     OW21103   4.207   3.771  16.999 -0.5001  0.0511 -0.7034
 3156SOL    HW121104   4.217   3.686  16.956  0.1454 -1.6422  2.7793
 3156SOL    HW221105   4.126   3.750  17.045 -0.9159 -0.7186 -1.8062
 3157SOL     OW21106   0.619   1.530  13.258 -0.0379  0.2624  0.4654
 3157SOL    HW121107   0.614   1.452  13.314 -2.2833  0.5409  0.6333
 3157SOL    HW221108   0.682   1.504  13.191 -2.0329 -0.6118 -1.0592
 3158SOL     OW21109   0.148   2.792   3.967  0.3271 -0.0097 -0.2319
 3158SOL    HW121110   0.238   2.807   3.937  0.0633 -0.4557 -1.2810
 3158SOL    HW221111   0.163   2.795   4.061  2.2094 -3.8145 -0.3995
 3159SOL     OW21112   4.658   4.289   7.819 -0.1126 -0.1048 -0.3085
 3159SOL    HW121113   4.657   4.382   7.843 -0.0298 -0.0133 -0.6613
 3159SOL    HW221114   4.664   4.288   7.724 -2.9709  3.5199 -0.5432
 3160SOL     OW21115   1.646   1.991   4.667 -0.4138  0.1262  0.5555
 3160SOL    HW121116   1.574   2.038   4.623 -0.7172 -2.2908 -1.5452
 3160SOL    HW221117   1.707   2.063   4.682 -0.3081 -0.0656  1.0093
 3161SOL     OW21118   1.500   0.239   4.514 -0.2830 -0.3456  0.3021
 3161SOL    HW121119   1.456   0.195   4.441  0.8365 -1.1471  0.0941
 3161SOL    HW221120   1.585   0.251   4.471  1.2148  0.9095  3.5569
 3162SOL     OW21121   0.403   3.125   3.663  0.7340 -0.5601  0.1658
 3162SOL    HW121122   0.405   3.204   3.609 -1.7712  0.7490  1.9777
 3162SOL    HW221123   0.378   3.164   3.747 -1.9178 -1.3632 -0.2687
 3163SOL     OW21124   0.476   3.393  13.638  0.3166 -0.1919  0.1690
 3163SOL    HW121125   0.435   3.365  13.556  0.6662 -0.6397  0.1498
 3163SOL    HW221126   0.557   3.432  13.606  0.5996 -0.9246 -0.0153
 3164SOL     OW21127   1.274   0.229  15.475 -0.6300  0.1110 -0.0220
 3164SOL    HW121128   1.243   0.272  15.555 -1.7563  1.9578 -1.4438
 3164SOL    HW221129   1.222   0.262  15.402 -1.0273  1.3690  0.8310
 3165SOL     OW21130   1.835   2.506   4.449 -0.2025 -0.8819  0.3150
 3165SOL    HW121131   1.873   2.493   4.536 -1.6340  1.3713  1.2765
 3165SOL    HW221132   1.889   2.581   4.426 -0.2002 -0.9460  0.1111
 3166SOL     OW21133   3.367   4.133   3.761 -0.2065 -0.3350 -0.1022
 3166SOL    HW121134   3.327   4.182   3.832  0.3142 -2.6780  1.8088
 3166SOL    HW221135   3.332   4.047   3.785 -0.7594 -1.0781 -3.4496
 3167SOL     OW21136   1.264   0.957   1.201 -0.1531 -0.0547 -0.2493
 3167SOL    HW121137   1.358   0.945   1.215 -0.2653 -0.7844 -0.1318
 3167SOL    HW221138   1.256   1.047   1.233 -1.8934  0.5273 -2.3148
 3168SOL     OW21139   0.375   2.849   3.802 -0.4141 -0.1259  0.1840
 3168SOL    HW121140   0.424   2.931   3.811  0.0580 -0.3596 -0.2728
 3168SOL    HW221141   0.369   2.845   3.707  0.6253 -0.9542  0.1429
 3169SOL     OW21142   0.444   4.260   7.087  0.0111  0.1295  0.2586
 3169SOL    HW121143   0.434   4.313   7.166  0.7154  1.2860 -0.4393
 3169SOL    HW221144   0.511   4.303   7.034 -0.0831  1.6728  1.4091
 3170SOL     OW21145   0.777   3.544   8.825 -0.5665  0.1242  0.1426
 3170SOL    HW121146   0.692   3.538   8.783 -2.0027 -0.3744  3.1470
 3170SOL    HW221147   0.839   3.525   8.753 -0.3808 -0.6093  0.4958
 3171SOL     OW21148   1.054   3.368   7.292 -0.4366 -0.1837  0.2551
 3171SOL    HW121149   1.055   3.457   7.257  2.2608 -0.2421  0.1982
 3171SOL    HW221150   1.106   3.317   7.230  2.4142  2.4598  0.4564
 3172SOL     OW21151   2.555   1.289   0.922  0.1174  0.0666 -0.1683
 3172SOL    HW121152   2.523   1.274   1.010 -0.4705  1.5749 -0.1209
 3172SOL    HW221153   2.594   1.203   0.908 -1.3379 -0.7039  0.5651
 3173SOL     OW21154   2.790   1.170   3.233  0.3495 -0.3655  0.0124
 3173SOL    HW121155   2.697   1.169   3.212 -0.0627  0.9248  1.7690
 3173SOL    HW221156   2.829   1.208   3.155 -1.2366  0.9283 -0.1463
 3174SOL     OW21157   3.045   1.220   9.198  0.3279  0.1303  0.5845
 3174SOL    HW121158   3.010   1.230   9.110  3.8218 -0.2345 -0.8323
 3174SOL    HW221159   3.082   1.131   9.198 -0.4769 -0.2023  0.6319
 3175SOL     OW21160   0.448   3.482   5.591 -0.3291 -0.4572  0.2530
 3175SOL    HW121161   0.516   3.484   5.524 -0.0346 -1.2680  0.5269
 3175SOL    HW221162   0.501   3.457   5.667 -1.0380 -2.0526  0.2199
 3176SOL     OW21163   0.320   0.519  12.451  0.0571  0.5333 -0.3986
 3176SOL    HW121164   0.259   0.592  12.436  0.3936  1.0649  0.7554
 3176SOL    HW221165   0.253   0.453  12.467 -0.1796  0.3673 -2.0687
 3177SOL     OW21166   3.484   0.703  10.141 -0.0114  0.2211  0.2110
 3177SOL    HW121167   3.562   0.650  10.123  0.6326  0.8030  1.2442
 3177SOL    HW221168   3.530   0.780  10.174 -1.2217  0.9556  0.1581
 3178SOL     OW21169   0.659   1.684  15.077  0.0576 -0.1671 -0.3062
 3178SOL    HW121170   0.712   1.672  14.998 -1.0409 -0.8559 -0.9397
 3178SOL    HW221171   0.571   1.655  15.055  0.2989 -1.5018  0.4731
 3179SOL     OW21172   3.362   1.238  13.657  0.6421  0.0899  0.1745
 3179SOL    HW121173   3.317   1.270  13.579  1.3853  0.0342 -0.2812
 3179SOL    HW221174   3.306   1.244  13.734 -1.3481 -1.9640 -1.0894
 3180SOL     OW21175   0.600   1.505   1.793 -0.0816  0.3120 -0.2329
 3180SOL    HW121176   0.571   1.478   1.880 -0.8136  0.9860 -0.2683
 3180SOL    HW221177   0.579   1.420   1.752 -2.0062 -0.0695  1.5062
 3181SOL     OW21178   0.020   1.429   2.526 -0.1997 -0.1892 -0.3657
 3181SOL    HW121179   4.697   1.477   2.582 -1.2482  0.6529 -2.2607
 3181SOL    HW221180   0.018   1.486   2.449 -0.0890  1.3585  0.7827
 3182SOL     OW21181   2.880   2.209  13.292  0.7402 -0.1686 -0.0677
 3182SOL    HW121182   2.924   2.217  13.208  1.9828 -1.3210  0.4722
 3182SOL    HW221183   2.819   2.139  13.266  0.9818 -0.4511  0.1235
 3183SOL     OW21184   3.248   3.957  10.036  0.0577  0.2490  0.1961
 3183SOL    HW121185   3.210   4.037   9.998  1.6894  1.9009  2.0660
 3183SOL    HW221186   3.191   3.905  10.092 -0.6209 -0.3720 -1.0722
 3184SOL     OW21187   4.246   0.248  11.946  0.2878 -0.2274  0.1725
 3184SOL    HW121188   4.166   0.205  11.977  0.3038  0.0987  0.6684
 3184SOL    HW221189   4.203   0.298  11.877  2.5731  1.3065 -0.1413
 3185SOL     OW21190   1.890   2.337   4.240 -0.2307  0.4239  0.2524
 3185SOL    HW121191   1.829   2.388   4.294 -1.5076 -1.3923  0.5439
 3185SOL    HW221192   1.966   2.383   4.275  0.6993 -0.1469 -1.0654
 3186SOL     OW21193   0.967   2.217  12.815  0.1438 -0.4249  0.1371
 3186SOL    HW121194   0.975   2.301  12.770 -0.2209 -0.2250  0.4364
 3186SOL    HW221195   1.045   2.168  12.792  0.2513 -0.4774  0.6193
 3187SOL     OW21196   2.139   1.466  17.448  0.2221  0.0176  0.1584
 3187SOL    HW121197   2.200   1.393  17.441  1.2105  0.8455  0.1857
 3187SOL    HW221198   2.167   1.523  17.377  0.0277  2.6331  2.1690
 3188SOL     OW21199   0.301   3.716  12.566  0.1488 -0.0679 -0.2492
 3188SOL    HW121200   0.373   3.759  12.520  1.5641 -1.1391  0.9686
 3188SOL    HW221201   0.348   3.700  12.648  0.8462 -0.7846 -0.7961
 3189SOL     OW21202   3.860   0.620   4.220  0.1460 -0.1574  0.0520
 3189SOL    HW121203   3.950   0.587   4.218  0.0697 -0.3994  0.6005
 3189SOL    HW221204   3.841   0.630   4.314  0.2926 -1.1801  0.1906
 3190SOL     OW21205   3.620   1.629   8.824  0.2419 -0.3630 -0.7088
 3190SOL    HW121206   3.550   1.597   8.881 -0.5617  3.1353  0.2185
 3190SOL    HW221207   3.693   1.651   8.883 -1.1898 -0.2806  1.0398
 3191SOL     OW21208   0.692   1.061   2.477 -0.0757  0.2319 -0.3873
 3191SOL    HW121209   0.657   1.022   2.397 -2.0245  3.4215 -1.0974
 3191SOL    HW221210   0.716   1.145   2.437  1.5687  1.0895  2.3906
 3192SOL     OW21211   2.466   1.773  14.781 -0.4019 -0.1291  0.5657
 3192SOL    HW121212   2.551   1.787  14.822 -0.4290 -0.5484  0.7626
 3192SOL    HW221213   2.457   1.678  14.790  0.4811 -0.2552  0.0632
 3193SOL     OW21214   1.580   4.157   8.275  0.7541 -0.2479 -0.5546
 3193SOL    HW121215   1.538   4.177   8.191 -0.3550 -0.3653 -0.0283
 3193SOL    HW221216   1.499   4.153   8.327  0.5990  0.5085 -0.7266
 3194SOL     OW21217   0.785   2.169   9.408 -0.5646 -0.4075  0.3374
 3194SOL    HW121218   0.833   2.096   9.370 -0.9718 -0.4152 -0.1656
 3194SOL    HW221219   0.863   2.217   9.437 -0.4714 -0.7221  0.6053
 3195SOL     OW21220   0.568   2.923   4.994 -0.3547 -0.1752  0.6251
 3195SOL    HW121221   0.560   2.842   4.945  1.3078 -0.7563  1.3246
 3195SOL    HW221222   0.608   2.895   5.076 -3.3731 -2.2562  1.3591
 3196SOL     OW21223   3.293   2.670   3.192 -0.1112 -0.1803  0.2528
 3196SOL    HW121224   3.210   2.627   3.170  1.1468 -2.1869 -0.5642
 3196SOL    HW221225   3.360   2.606   3.171 -0.5363 -0.4223 -0.3623
 3197SOL     OW21226   2.568   3.696   4.461  0.3230 -0.5918 -0.1862
 3197SOL    HW121227   2.517   3.754   4.406  0.1408 -0.1964  0.3939
 3197SOL    HW221228   2.586   3.612   4.418  1.3408 -0.7764  0.5782
 3198SOL     OW21229   4.285   0.384   0.118 -0.4124 -0.2653  0.4362
 3198SOL    HW121230   4.312   0.307   0.168  1.9319  0.1301 -0.2186
 3198SOL    HW221231   4.248   0.341   0.040 -0.3854 -1.7095  1.2302
 3199SOL     OW21232   2.314   1.408  15.502  0.1716 -0.0064  0.1446
 3199SOL    HW121233   2.333   1.316  15.515 -1.1580 -0.3158 -0.1146
 3199SOL    HW221234   2.219   1.403  15.496  0.0608  2.3747 -0.2339
 3200SOL     OW21235   3.609   3.933   3.635 -0.1701  0.2395 -0.2761
 3200SOL    HW121236   3.595   3.888   3.718  0.2008  1.5813  0.5177
 3200SOL    HW221237   3.642   4.020   3.660 -0.1384 -0.0555  0.6825
 3201SOL     OW21238   1.121   2.266  11.887 -0.1584  0.0707 -0.1343
 3201SOL    HW121239   1.027   2.266  11.870 -0.6531 -0.7149  2.6578
 3201SOL    HW221240   1.116   2.306  11.973  0.9684 -0.9609  0.4044
 3202SOL     OW21241   1.329   2.490   6.710  0.1787 -0.6707  0.3168
 3202SOL    HW121242   1.414   2.447   6.700  0.3650 -0.3928  0.7175
 3202SOL    HW221243   1.283   2.431   6.651 -2.7148  2.0932 -0.1644
 3203SOL     OW21244   2.489   4.697  11.840 -0.1942  0.6113  0.2135
 3203SOL    HW121245   2.549   4.738  11.902  0.2914  0.4027 -0.1244
 3203SOL    HW221246   2.459   0.037  11.795 -3.2567  1.3291  3.5040
 3204SOL     OW21247   1.221   2.985   2.915 -0.6097 -0.0741  0.0233
 3204SOL    HW121248   1.219   2.901   2.868 -0.4607 -1.0157  1.7197
 3204SOL    HW221249   1.164   2.962   2.988 -1.9564  1.0188 -0.6878
 3205SOL     OW21250   1.732   2.086  15.260  0.0666 -0.1080  0.2238
 3205SOL    HW121251   1.808   2.128  15.220 -2.2553  2.6899 -1.2875
 3205SOL    HW221252   1.744   2.101  15.354  1.8161  1.2997 -0.2298
 3206SOL     OW21253   2.089   0.486   5.171  0.1477 -0.4317 -0.4196
 3206SOL    HW121254   2.183   0.473   5.155  0.3083  0.9023 -0.5961
 3206SOL    HW221255   2.072   0.552   5.103 -0.0442 -0.0455  0.0008
 3207SOL     OW21256   1.664   2.714   7.897 -0.6730 -0.2981 -0.4329
 3207SOL    HW121257   1.687   2.791   7.845  0.6270 -0.4546 -0.0772
 3207SOL    HW221258   1.666   2.748   7.986 -1.3007 -1.3906  0.0011
 3208SOL     OW21259   3.294   0.363  16.257  0.2260  0.4072  0.1866
 3208SOL    HW121260   3.242   0.408  16.191 -0.7379  0.6540  1.1130
 3208SOL    HW221261   3.383   0.376  16.224 -0.0187 -0.2820 -0.7555
 3209SOL     OW21262   3.547   2.743   5.753 -0.0699  0.1711  0.3608
 3209SOL    HW121263   3.498   2.676   5.802 -2.1465  0.7653 -0.9208
 3209SOL    HW221264   3.496   2.823   5.759 -2.3870 -1.1998 -1.0155
 3210SOL     OW21265   2.395   0.827   4.580  0.0944 -0.1580 -0.4957
 3210SOL    HW121266   2.397   0.841   4.486  1.0476  4.0001  0.1467
 3210SOL    HW221267   2.301   0.818   4.598  0.2827 -0.0796  0.5656
 3211SOL     OW21268   2.504   2.957   5.802  0.5648 -0.3049 -0.1312
 3211SOL    HW121269   2.478   3.048   5.797 -1.5895 -0.8603  0.7361
 3211SOL    HW221270   2.518   2.951   5.708  0.4343 -1.1552 -0.1028
 3212SOL     OW21271   2.875   1.941   1.705  0.1904 -0.1383 -0.0849
 3212SOL    HW121272   2.841   1.884   1.774  0.0038 -1.6587 -1.4280
 3212SOL    HW221273   2.867   1.875   1.636  0.1737  1.7682 -1.9057
 3213SOL     OW21274   2.431   4.619   9.899  0.9682 -0.2136 -0.0549
 3213SOL    HW121275   2.430   4.572   9.816 -1.8211  0.4692 -0.4042
 3213SOL    HW221276   2.515   4.665   9.899  0.8987 -0.0729  0.9658
 3214SOL     OW21277   0.153   0.096   8.408  0.1772  0.0971 -0.2260
 3214SOL    HW121278   0.070   0.094   8.455 -0.0747 -0.5353 -0.6911
 3214SOL    HW221279   0.142   0.174   8.353 -3.2471 -0.1301  0.1358
 3215SOL     OW21280   2.170   4.443  15.972 -0.1097  0.4485 -0.7572
 3215SOL    HW121281   2.180   4.432  15.878 -2.0398  1.9741 -1.1237
 3215SOL    HW221282   2.236   4.376  15.992  0.0313  1.2502  1.4729
 3216SOL     OW21283   4.568   1.336   1.492  0.0328  0.5302 -0.3959
 3216SOL    HW121284   4.476   1.361   1.489  0.0394  0.5425 -0.4786
 3216SOL    HW221285   4.568   1.247   1.456 -0.5075  0.4916 -0.2973
 3217SOL     OW21286   0.326   0.298  12.042 -0.1249  0.9853 -0.7608
 3217SOL    HW121287   0.419   0.321  12.036 -0.3079  1.4906 -1.6411
 3217SOL    HW221288   0.295   0.389  12.043  0.6220  1.2070  1.1568
 3218SOL     OW21289   4.391   3.431   5.555 -0.2351  0.5339  0.4779
 3218SOL    HW121290   4.415   3.344   5.522 -0.2343  0.9134 -0.5197
 3218SOL    HW221291   4.398   3.412   5.649  1.4742 -0.8716  0.0701
 3219SOL     OW21292   4.135   0.351   2.561  0.5549  0.8185  0.2830
 3219SOL    HW121293   4.103   0.395   2.482 -0.4040 -0.6646 -0.1503
 3219SOL    HW221294   4.218   0.314   2.531 -0.7096 -0.7637 -1.2310
 3220SOL     OW21295   0.674   3.334   1.075  0.3060 -0.3678 -0.6276
 3220SOL    HW121296   0.670   3.391   0.998  0.4196  0.7472  0.1956
 3220SOL    HW221297   0.628   3.382   1.144  1.1562  1.5370 -1.3622
 3221SOL     OW21298   0.775   3.261   6.805  0.0083  0.5880  0.2326
 3221SOL    HW121299   0.785   3.342   6.856  1.8471  0.6105 -0.1570
 3221SOL    HW221300   0.823   3.272   6.723  0.9896 -0.2204  0.6981
 3222SOL     OW21301   2.552   2.811   1.957  0.3215  0.3645 -0.0029
 3222SOL    HW121302   2.626   2.751   1.951  0.4604  0.5046  0.3218
 3222SOL    HW221303   2.480   2.751   1.938 -0.1132  0.7671  0.3786
 3223SOL     OW21304   0.249   3.249   0.093  0.1878  0.0215  0.1877
 3223SOL    HW121305   0.306   3.304   0.147  0.6331 -0.8866  0.6465
 3223SOL    HW221306   0.197   3.306   0.036 -1.4140 -0.7039  0.9409
 3224SOL     OW21307   2.789   4.098   6.968 -0.4297 -0.2882  0.1199
 3224SOL    HW121308   2.787   4.147   6.887  0.9475 -0.9718 -0.3303
 3224SOL    HW221309   2.876   4.122   7.000 -1.1923  1.5141  0.8352
 3225SOL     OW21310   2.109   3.066   7.039 -0.0444 -0.1741 -0.4252
 3225SOL    HW121311   2.088   3.053   6.946 -0.1340  0.0512 -0.4373
 3225SOL    HW221312   2.162   3.145   7.034  0.8768 -0.8663 -1.7144
 3226SOL     OW21313   0.523   2.741   8.635  0.1071  0.5819  1.1026
 3226SOL    HW121314   0.506   2.811   8.573  2.1347 -1.5327 -1.8512
 3226SOL    HW221315   0.578   2.682   8.583 -0.7788  1.3174 -0.6669
 3227SOL     OW21316   2.993   2.485  15.181 -0.4900  0.9121 -0.1593
 3227SOL    HW121317   2.978   2.408  15.237 -0.8651  0.7104 -0.5358
 3227SOL    HW221318   3.062   2.523  15.235 -0.1029  0.1438 -0.1104
 3228SOL     OW21319   3.521   3.278   2.224  0.5328 -0.2793 -0.1930
 3228SOL    HW121320   3.575   3.328   2.162  2.4404 -0.8711  1.0189
 3228SOL    HW221321   3.497   3.339   2.294  1.3207 -0.6431  0.3953
 3229SOL     OW21322   0.536   0.899  16.931  0.0774  0.1062  0.0179
 3229SOL    HW121323   0.450   0.939  16.915 -0.0776 -0.5696 -0.8444
 3229SOL    HW221324   0.585   0.975  16.899  2.1935 -0.7330  1.2883
 3230SOL     OW21325   0.894   1.038   7.795  1.0090  0.2829 -0.4436
 3230SOL    HW121326   0.833   1.105   7.825 -0.2203 -0.8056 -0.4694
 3230SOL    HW221327   0.920   1.074   7.710  1.0651  2.3092  0.4407
 3231SOL     OW21328   3.818   1.059   6.955 -0.3572 -0.0548  0.4068
 3231SOL    HW121329   3.905   1.070   6.916 -1.0633 -2.3708 -1.8488
 3231SOL    HW221330   3.753   1.093   6.893  0.1399  2.0776  1.0479
 3232SOL     OW21331   4.076   2.425   1.496  0.3818 -0.4076 -0.2136
 3232SOL    HW121332   3.998   2.475   1.470  1.6813  1.5431 -0.3423
 3232SOL    HW221333   4.032   2.340   1.498 -1.6756  0.6250 -1.9443
 3233SOL     OW21334   3.017   2.506   3.341  0.0703  0.0651 -0.3528
 3233SOL    HW121335   3.026   2.538   3.252  0.5250  1.2018  0.0973
 3233SOL    HW221336   3.107   2.525   3.368 -0.4429  1.1756  0.6083
 3234SOL     OW21337   3.054   3.191   3.794 -0.0148  0.3698 -0.1389
 3234SOL    HW121338   2.970   3.173   3.835  0.0770  0.2256 -0.0159
 3234SOL    HW221339   3.115   3.139   3.847  0.8776  1.0815 -0.4718
 3235SOL     OW21340   3.380   1.538  10.692  0.3421  0.0587 -0.9172
 3235SOL    HW121341   3.303   1.499  10.650  0.4553 -0.1556 -0.9259
 3235SOL    HW221342   3.359   1.631  10.698 -2.2246 -0.6701  1.3730
 3236SOL     OW21343   2.064   1.441   9.189  0.1837 -0.1277 -0.1775
 3236SOL    HW121344   1.973   1.433   9.158 -0.7177  0.2356  2.4228
 3236SOL    HW221345   2.083   1.351   9.215 -0.4791 -0.5434 -1.1170
 3237SOL     OW21346   3.959   1.560   8.342 -0.4878  0.1545  0.1326
 3237SOL    HW121347   3.909   1.481   8.320 -1.8013  1.4766 -1.5266
 3237SOL    HW221348   3.980   1.585   8.252 -1.7205  0.0320 -0.1822
 3238SOL     OW21349   4.167   4.449  15.834 -0.1981 -0.4680  0.7965
 3238SOL    HW121350   4.128   4.530  15.801 -2.1290 -0.4814  3.0132
 3238SOL    HW221351   4.241   4.448  15.774  1.5713  1.4398  2.9485
 3239SOL     OW21352   1.140   0.725  14.588 -0.2928  0.4700 -0.6873
 3239SOL    HW121353   1.159   0.669  14.663 -2.0723  1.0958  0.2219
 3239SOL    HW221354   1.231   0.741  14.564 -0.3568  3.2684  0.9060
 3240SOL     OW21355   4.631   2.343   9.815  0.0813  0.3272 -0.2288
 3240SOL    HW121356   4.691   2.272   9.840  0.4450  0.7851  0.1807
 3240SOL    HW221357   4.608   2.365   9.905 -1.7453  0.0619 -0.6351
 3241SOL     OW21358   3.537   0.496   6.711 -0.1158  0.0158  0.2403
 3241SOL    HW121359   3.623   0.520   6.745 -1.3688  1.9785  2.0232
 3241SOL    HW221360   3.529   0.408   6.749 -0.7511 -0.7470 -1.6464
 3242SOL     OW21361   2.079   1.605   7.646 -0.2758 -0.1555  0.1973
 3242SOL    HW121362   2.037   1.520   7.637  0.6725 -0.6599  0.4636
 3242SOL    HW221363   2.124   1.591   7.729 -1.8922 -0.6704  0.9785
 3243SOL     OW21364   0.910   2.334   6.908 -0.4802 -0.4416 -0.1384
 3243SOL    HW121365   0.928   2.425   6.885 -0.0189 -0.9628 -1.8187
 3243SOL    HW221366   0.996   2.292   6.914 -1.0630 -1.5441  0.5367
 3244SOL     OW21367   2.880   2.999   7.517 -0.2521 -0.2386  0.4613
 3244SOL    HW121368   2.937   2.970   7.446 -2.0563  0.5443 -1.2965
 3244SOL    HW221369   2.847   3.083   7.486  0.4417  0.0959  0.6321
 3245SOL     OW21370   0.436   2.484   8.072  0.1179  0.3034 -0.3406
 3245SOL    HW121371   0.454   2.547   8.002 -2.1992 -0.3326 -1.5185
 3245SOL    HW221372   0.407   2.538   8.146 -2.2259 -0.0176 -1.0100
 3246SOL     OW21373   0.954   1.914   7.376  0.1618 -0.1539  0.1746
 3246SOL    HW121374   0.924   1.948   7.460 -1.4124  0.3852 -0.5972
 3246SOL    HW221375   0.891   1.843   7.361  1.5774 -0.9237 -2.1476
 3247SOL     OW21376   3.753   2.765  12.647  0.4143 -0.2027  0.4155
 3247SOL    HW121377   3.764   2.734  12.558  1.0280 -2.2532  1.1992
 3247SOL    HW221378   3.813   2.708  12.696  1.6513  0.5248 -0.2594
 3248SOL     OW21379   3.333   3.848   7.972  0.4854  0.0257 -0.4747
 3248SOL    HW121380   3.354   3.931   8.014  2.7164 -1.7766  1.9661
 3248SOL    HW221381   3.312   3.791   8.046 -0.4745  1.1886  0.1456
 3249SOL     OW21382   1.767   1.481   9.153  0.1604  0.0412  0.7772
 3249SOL    HW121383   1.753   1.575   9.142 -0.3377 -0.1934 -0.6947
 3249SOL    HW221384   1.729   1.467   9.240 -0.8136  0.5989  0.4437
 3250SOL     OW21385   1.590   3.653   0.539 -0.0552  0.5953 -0.3999
 3250SOL    HW121386   1.650   3.707   0.488 -1.2127  1.8865 -0.3790
 3250SOL    HW221387   1.655   3.587   0.565 -1.6780 -0.7227  0.3027
 3251SOL     OW21388   2.256   4.168   3.414  0.1953  0.4280  0.4499
 3251SOL    HW121389   2.314   4.203   3.481  0.6753  1.4004 -0.4808
 3251SOL    HW221390   2.172   4.168   3.461  0.8410  1.7943  1.6405
 3252SOL     OW21391   2.878   0.421   1.106 -0.4407 -0.4695 -0.1777
 3252SOL    HW121392   2.845   0.455   1.023 -2.6821 -0.2010  0.8088
 3252SOL    HW221393   2.802   0.445   1.159  0.7012 -1.3745  1.8466
 3253SOL     OW21394   1.243   0.605   2.539  0.2407  0.4856  0.2207
 3253SOL    HW121395   1.272   0.516   2.521  3.9888  1.6438  0.5416
 3253SOL    HW221396   1.218   0.640   2.454  2.7563  1.5955 -0.0691
 3254SOL     OW21397   1.506   2.057   1.743  0.1066  0.2286  0.0069
 3254SOL    HW121398   1.556   2.034   1.665  0.6293 -0.8138  0.6566
 3254SOL    HW221399   1.582   2.079   1.798 -0.3890  0.8403  0.4509
 3255SOL     OW21400   0.397   0.248   4.527 -0.0561 -0.0979 -0.6147
 3255SOL    HW121401   0.330   0.214   4.468  3.7476 -0.8166 -4.5053
 3255SOL    HW221402   0.356   0.325   4.567 -1.7518 -1.9288  1.1492
 3256SOL     OW21403   3.022   2.941   8.201  0.1695  0.1980 -0.0761
 3256SOL    HW121404   3.048   2.865   8.149 -1.0673  0.6249 -1.3393
 3256SOL    HW221405   2.986   2.900   8.279  0.0650  1.9543  0.7942
 3257SOL     OW21406   3.735   2.086   1.178 -0.1596 -0.1093 -0.0016
 3257SOL    HW121407   3.778   2.036   1.248  1.0897  0.0639 -0.6437
 3257SOL    HW221408   3.662   2.113   1.233 -2.1791 -0.5408 -2.5108
 3258SOL     OW21409   2.157   0.156   5.905 -0.2596  0.1575 -0.6746
 3258SOL    HW121410   2.062   0.150   5.917 -0.0042  1.0359  1.8395
 3258SOL    HW221411   2.173   0.177   5.997 -0.2266 -0.0007 -0.6445
 3259SOL     OW21412   2.489   3.272   2.079  0.4529 -0.5298  0.0354
 3259SOL    HW121413   2.410   3.326   2.083 -0.8070 -2.5278  1.4149
 3259SOL    HW221414   2.456   3.183   2.090  1.1024 -0.6121  1.3169
 3260SOL     OW21415   0.403   1.140   2.327  0.2802  0.2440 -0.0144
 3260SOL    HW121416   0.331   1.097   2.280  1.6095  0.2776 -2.0689
 3260SOL    HW221417   0.474   1.081   2.303  0.8498  0.6640  0.6619
 3261SOL     OW21418   1.509   2.025  10.851  0.1896 -0.8915 -0.5911
 3261SOL    HW121419   1.425   2.046  10.891  1.6713  2.6622  0.6137
 3261SOL    HW221420   1.534   1.950  10.905  1.5789  0.9447  1.3057
 3262SOL     OW21421   3.599   1.223   1.918  0.5614 -0.2107  0.5300
 3262SOL    HW121422   3.577   1.149   1.976 -0.6602  0.7893  1.3500
 3262SOL    HW221423   3.680   1.251   1.960  0.0777 -0.2494  1.5108
 3263SOL     OW21424   2.532   4.007   3.890  0.3280  0.2699  0.7639
 3263SOL    HW121425   2.469   3.996   3.819  0.3169 -1.2381  1.0040
 3263SOL    HW221426   2.476   3.996   3.968 -1.0301  0.7304 -0.1483
 3264SOL     OW21427   3.893   2.203   3.835 -0.2250 -0.3852 -0.4004
 3264SOL    HW121428   3.849   2.253   3.904  0.9821  1.6288 -1.0963
 3264SOL    HW221429   3.905   2.261   3.760  0.6603  2.5110  1.9498
 3265SOL     OW21430   0.045   3.313   8.771 -0.2714 -0.2197  0.1137
 3265SOL    HW121431   4.692   3.310   8.795 -0.3329  2.3243  0.2059
 3265SOL    HW221432   0.039   3.301   8.676  1.2481  0.3796 -0.0601
 3266SOL     OW21433   0.866   3.792   8.908  0.0742 -0.1538 -0.7842
 3266SOL    HW121434   0.775   3.818   8.923  0.8016  1.9625 -0.0519
 3266SOL    HW221435   0.852   3.702   8.877  2.9080  0.5612 -4.1186
 3267SOL     OW21436   0.598   1.995   7.639  0.3209  0.1788 -0.5611
 3267SOL    HW121437   0.565   1.905   7.647 -0.9673  0.7591  0.7473
 3267SOL    HW221438   0.560   2.025   7.557 -2.2467 -0.0042  0.5508
 3268SOL     OW21439   3.687   1.159   4.746  0.1943 -0.5256 -0.3501
 3268SOL    HW121440   3.595   1.185   4.749 -0.0879 -1.7628  2.2266
 3268SOL    HW221441   3.698   1.121   4.833 -2.7141  2.4428  1.3212
 3269SOL     OW21442   2.969   2.701   2.589 -0.3928 -0.1340  0.9239
 3269SOL    HW121443   3.055   2.674   2.620  0.7560  1.2226 -1.0697
 3269SOL    HW221444   2.994   2.788   2.560 -0.8322 -0.2864  0.0967
 3270SOL     OW21445   1.249   0.945   1.905  0.3958  0.4620  0.0250
 3270SOL    HW121446   1.344   0.939   1.913  0.2890 -2.1808 -0.4446
 3270SOL    HW221447   1.234   0.866   1.852 -0.1723  1.8623 -1.8728
 3271SOL     OW21448   3.608   2.775   1.431  0.2146 -0.1367 -0.0681
 3271SOL    HW121449   3.573   2.701   1.381  1.8172 -0.8249 -0.1497
 3271SOL    HW221450   3.547   2.763   1.504  0.6514 -0.2919  0.2713
 3272SOL     OW21451   4.545   4.731   9.379  0.1978  0.2489  0.4887
 3272SOL    HW121452   4.597   0.071   9.397 -0.7172  1.4946 -2.4465
 3272SOL    HW221453   4.578   4.728   9.289 -2.3934  1.6938 -0.4914
 3273SOL     OW21454   0.125   3.635   9.013  0.3104  0.1075  0.1249
 3273SOL    HW121455   0.034   3.652   9.038 -0.3967 -0.8136 -1.9044
 3273SOL    HW221456   0.144   3.577   9.087  1.6429  0.6844  0.2449
 3274SOL     OW21457   2.748   4.195   5.372  0.1387 -0.3831 -0.1261
 3274SOL    HW121458   2.689   4.270   5.364 -0.5286 -0.9595 -0.6727
 3274SOL    HW221459   2.834   4.235   5.376 -0.4162  0.8338 -0.2253
 3275SOL     OW21460   3.796   3.152  11.444  0.2619 -0.6571  0.2564
 3275SOL    HW121461   3.808   3.062  11.415  1.1603 -0.4001 -0.1447
 3275SOL    HW221462   3.804   3.142  11.539 -0.2375  1.6355  0.5434
 3276SOL     OW21463   2.459   1.690   2.228  0.6835  0.2033 -0.1417
 3276SOL    HW121464   2.454   1.754   2.158 -0.7583 -0.8440 -1.0044
 3276SOL    HW221465   2.540   1.713   2.272 -0.9203  0.8240  2.5294
 3277SOL     OW21466   1.406   1.378   7.483  0.2071  0.1724 -0.2066
 3277SOL    HW121467   1.424   1.392   7.576 -2.5719 -0.7454  0.4543
 3277SOL    HW221468   1.342   1.448   7.472 -0.6235 -0.5753 -0.1342
 3278SOL     OW21469   4.597   4.107   5.269  0.0869  0.0236 -0.4753
 3278SOL    HW121470   4.520   4.084   5.218 -3.7230  2.2667  4.2559
 3278SOL    HW221471   4.579   4.172   5.337  1.2354  0.2357 -0.3733
 3279SOL     OW21472   0.929   3.416   3.494 -0.4915  0.4640 -0.2914
 3279SOL    HW121473   0.846   3.435   3.537  0.9597 -2.2747  3.7025
 3279SOL    HW221474   0.967   3.501   3.471 -0.3816  0.8483  1.2861
 3280SOL     OW21475   3.574   2.962   7.045  0.0049 -0.0784  0.2526
 3280SOL    HW121476   3.639   2.935   7.111 -0.7935 -2.8561 -0.0958
 3280SOL    HW221477   3.618   3.017   6.981 -1.8011 -3.4867 -3.8907
 3281SOL     OW21478   2.328   3.957   3.721 -0.1738  0.7280  0.9249
 3281SOL    HW121479   2.277   3.876   3.715 -1.0481  1.5816 -3.6417
 3281SOL    HW221480   2.363   3.964   3.632 -3.4299  1.2010 -0.3116
 3282SOL     OW21481   0.956   2.217   1.781  1.2509 -0.2257 -0.2376
 3282SOL    HW121482   0.902   2.292   1.759 -0.6207 -1.4467  0.1656
 3282SOL    HW221483   1.035   2.246   1.734  0.9399  1.3524  0.2308
 3283SOL     OW21484   3.357   0.667   0.543 -0.5689 -0.3561  0.0858
 3283SOL    HW121485   3.435   0.706   0.503 -0.0367  0.7047  2.1985
 3283SOL    HW221486   3.283   0.696   0.490 -0.0879  0.1489 -0.3160
 3284SOL     OW21487   1.819   0.394   5.955 -0.0932 -0.2591 -0.6491
 3284SOL    HW121488   1.788   0.308   5.929  0.3019 -0.4820 -0.3803
 3284SOL    HW221489   1.853   0.381   6.044 -1.4894  2.7414  0.3638
 3285SOL     OW21490   0.442   0.081   8.034  0.1171  0.4869  0.3586
 3285SOL    HW121491   0.510   0.108   8.096  0.5947 -2.0260  0.9056
 3285SOL    HW221492   0.391   0.022   8.089 -0.8140 -1.4346 -2.5417
 3286SOL     OW21493   2.931   0.762   8.012  0.4496  0.0714 -0.2083
 3286SOL    HW121494   2.971   0.704   8.078  1.0834  0.7298 -0.0185
 3286SOL    HW221495   2.999   0.824   7.986  0.1757 -0.0267 -1.1449
 3287SOL     OW21496   1.076   4.442   3.191 -0.3960 -0.3246  0.4194
 3287SOL    HW121497   1.082   4.356   3.150  2.1689  0.5454 -1.0685
 3287SOL    HW221498   1.021   4.427   3.267 -1.5752  0.5191 -0.2706
 3288SOL     OW21499   2.051   1.301   8.923 -0.2282  0.2553 -0.3635
 3288SOL    HW121500   2.131   1.275   8.970 -0.2479 -0.3905 -0.6783
 3288SOL    HW221501   1.987   1.242   8.963  0.4540  0.8649  1.6580
 3289SOL     OW21502   4.485   0.918   6.169  0.1054  0.3738  0.4907
 3289SOL    HW121503   4.501   1.007   6.140 -1.0864 -0.1997 -1.9050
 3289SOL    HW221504   4.530   0.875   6.096  2.1567 -1.1474  2.6356
 3290SOL     OW21505   1.844   2.848   2.084 -0.1054  0.2045 -0.4512
 3290SOL    HW121506   1.843   2.836   1.989 -0.2408  0.5823 -0.4961
 3290SOL    HW221507   1.938   2.865   2.090 -0.0439 -0.1187 -0.4975
 3291SOL     OW21508   0.971   0.816  13.751  0.4478  0.5664 -0.2689
 3291SOL    HW121509   0.929   0.735  13.724 -0.6240  0.5342  1.4737
 3291SOL    HW221510   1.012   0.860  13.677 -1.0095  0.9685 -0.8428
 3292SOL     OW21511   1.011   1.612   9.119  0.6646 -0.0124 -0.2849
 3292SOL    HW121512   0.962   1.695   9.120 -1.3354 -1.2297  1.2185
 3292SOL    HW221513   0.955   1.566   9.056  0.3001 -0.8712  0.6843
 3293SOL     OW21514   4.100   4.258   5.869 -0.2829  0.3479 -0.2143
 3293SOL    HW121515   4.174   4.200   5.887 -0.5776  0.6526  2.0173
 3293SOL    HW221516   4.067   4.285   5.955  0.6001 -2.1152  0.8892
 3294SOL     OW21517   0.302   1.457   2.560 -0.2058  0.0971  0.1851
 3294SOL    HW121518   0.360   1.497   2.625 -0.6024 -1.3631  1.4397
 3294SOL    HW221519   0.225   1.432   2.611 -0.9820 -2.4636 -2.3060
 3295SOL     OW21520   4.718   3.162   7.484  0.0180  0.3010  0.2230
 3295SOL    HW121521   0.001   3.100   7.554  1.5935  0.9893  0.3452
 3295SOL    HW221522   0.067   3.165   7.448  0.4390  0.9900  1.2896
 3296SOL     OW21523   0.182   3.577   6.229  0.0316 -0.6026 -0.5736
 3296SOL    HW121524   0.097   3.610   6.201  0.0004 -0.5871 -0.4581
 3296SOL    HW221525   0.217   3.643   6.288  0.6633 -1.2484 -0.2219
 3297SOL     OW21526   2.810   0.582   3.439 -0.1184 -0.2318 -0.2065
 3297SOL    HW121527   2.763   0.665   3.432  0.0303 -0.1769 -0.5218
 3297SOL    HW221528   2.749   0.531   3.386  0.1357 -2.3495  1.5380
 3298SOL     OW21529   1.481   0.307  12.521 -0.2776 -1.0754 -0.6551
 3298SOL    HW121530   1.504   0.304  12.614  4.3406  1.3430 -1.7260
 3298SOL    HW221531   1.424   0.384  12.519 -0.0340 -0.9282 -1.7885
 3299SOL     OW21532   4.450   0.991   3.412  0.4401 -0.6168  0.1525
 3299SOL    HW121533   4.423   1.064   3.357  1.0964 -0.7531 -0.3538
 3299SOL    HW221534   4.432   1.019   3.501  1.0655  0.9317 -0.2009
 3300SOL     OW21535   2.826   4.363   3.049 -0.2951  0.1643 -0.2957
 3300SOL    HW121536   2.791   4.323   2.970  2.2003 -0.3194 -1.1395
 3300SOL    HW221537   2.748   4.406   3.085  0.8532  1.0888  1.0878
 3301SOL     OW21538   4.615   0.111   7.603 -0.2516 -0.1659  0.0836
 3301SOL    HW121539   4.676   0.160   7.657 -1.7665  1.4294  0.3247
 3301SOL    HW221540   4.667   0.035   7.575 -3.5065 -1.4170 -2.6140
 3302SOL     OW21541   1.259   4.287  17.223  0.4138 -0.1604  0.1988
 3302SOL    HW121542   1.247   4.214  17.162  1.3819 -0.6187  0.5668
 3302SOL    HW221543   1.210   4.265  17.302 -1.1946  0.7708 -0.5361
 3303SOL     OW21544   2.219   4.368  13.297 -0.0423  0.1057  0.2689
 3303SOL    HW121545   2.199   4.395  13.208 -1.7989 -1.4326  0.1865
 3303SOL    HW221546   2.177   4.442  13.342  2.4007  0.5400  1.8307
 3304SOL     OW21547   3.222   1.635  11.785 -0.0023 -0.5233  0.1999
 3304SOL    HW121548   3.170   1.703  11.743  1.4302  0.3209 -0.2102
 3304SOL    HW221549   3.218   1.673  11.872 -2.1061 -1.2779  0.4149
 3305SOL     OW21550   3.748   1.932   8.527 -0.4821  0.1083  0.4122
 3305SOL    HW121551   3.677   1.923   8.590 -0.8763  3.0633  0.4174
 3305SOL    HW221552   3.778   2.013   8.567  1.1091  0.6707 -1.8891
 3306SOL     OW21553   2.359   3.383   5.468 -0.1110 -0.2224  0.5583
 3306SOL    HW121554   2.450   3.353   5.466 -0.5636 -1.5084 -1.3964
 3306SOL    HW221555   2.371   3.476   5.486 -0.0227  0.2164 -1.7888
 3307SOL     OW21556   0.777   2.485   8.767 -0.1351  1.0139 -0.0046
 3307SOL    HW121557   0.801   2.571   8.731 -1.8847  1.6373  0.2904
 3307SOL    HW221558   0.828   2.430   8.708 -1.7640 -0.8035  0.2936
 3308SOL     OW21559   3.872   4.171   5.391 -0.0218  0.1535 -0.3550
 3308SOL    HW121560   3.831   4.092   5.428  0.1229  0.0920 -0.3278
 3308SOL    HW221561   3.930   4.194   5.463  0.7842 -1.9868 -0.3201
 3309SOL     OW21562   1.007   0.653   2.667 -0.6743  0.2413  0.4541
 3309SOL    HW121563   1.092   0.657   2.624 -0.3194 -0.3283  1.0906
 3309SOL    HW221564   0.970   0.726   2.619  0.2099  0.2678 -0.1815
 3310SOL     OW21565   2.377   2.048   2.035 -0.1212 -0.1314  0.3093
 3310SOL    HW121566   2.332   1.965   2.023 -0.1058  0.0112 -0.7222
 3310SOL    HW221567   2.383   2.083   1.946 -0.4606 -1.2280 -0.1338
 3311SOL     OW21568   0.028   0.301   4.171  0.0386 -0.3130  0.1522
 3311SOL    HW121569   0.004   0.393   4.177 -0.7391 -0.5587  0.8150
 3311SOL    HW221570   4.702   0.261   4.229  0.8013 -0.2845  1.0438
 3312SOL     OW21571   3.924   0.435  14.615 -0.2127 -0.0126 -0.0554
 3312SOL    HW121572   3.943   0.397  14.529  1.2546 -0.6636  0.5696
 3312SOL    HW221573   3.828   0.438  14.618 -0.2348  0.4229 -1.1561
 3313SOL     OW21574   4.227   1.125  16.209  0.1275  0.2924  0.1030
 3313SOL    HW121575   4.217   1.052  16.148  3.4041 -0.6174  0.6038
 3313SOL    HW221576   4.166   1.109  16.280 -1.3729 -1.1567 -1.5228
 3314SOL     OW21577   1.284   3.760  17.151 -0.5997 -0.2125 -0.4011
 3314SOL    HW121578   1.318   3.672  17.135 -0.3909 -0.4393  1.2630
 3314SOL    HW221579   1.200   3.738  17.111 -0.9581 -0.9698  0.7928
 3315SOL     OW21580   1.353   3.348  14.602 -0.5284 -0.9310  0.8836
 3315SOL    HW121581   1.328   3.280  14.664 -1.0408 -2.2799 -0.7850
 3315SOL    HW221582   1.357   3.427  14.655  1.2181 -1.3292  1.3209
 3316SOL     OW21583   2.259   3.984   7.934  0.3225  0.0556  0.2652
 3316SOL    HW121584   2.178   4.025   7.904 -0.5267 -1.5721  0.3197
 3316SOL    HW221585   2.242   3.983   8.028  0.3429 -0.0394  0.2681
 3317SOL     OW21586   0.658   0.168   2.778 -0.5609  0.6100 -0.7331
 3317SOL    HW121587   0.606   0.212   2.711 -0.4619  1.7319 -0.0561
 3317SOL    HW221588   0.621   0.190   2.864  1.0376  0.5034 -0.0325
 3318SOL     OW21589   1.771   2.994   7.791 -0.5345 -0.0002  0.3870
 3318SOL    HW121590   1.732   3.034   7.713  0.9158  2.6599  1.0168
 3318SOL    HW221591   1.860   2.992   7.756 -0.3629  1.4103  0.7174
 3319SOL     OW21592   1.904   3.942   6.846  0.2389 -0.3606 -0.3612
 3319SOL    HW121593   1.899   3.861   6.794 -1.0603 -1.1151  0.9556
 3319SOL    HW221594   1.973   3.997   6.807  0.6773 -0.9323 -0.4054
 3320SOL     OW21595   2.249   4.363   8.062  0.4113 -0.1187  0.9774
 3320SOL    HW121596   2.281   4.362   7.972 -1.9061  0.2233  0.1253
 3320SOL    HW221597   2.155   4.344   8.056  0.0607  0.9365  3.1449
 3321SOL     OW21598   0.033   4.278  16.297  0.5162  0.3142 -0.1547
 3321SOL    HW121599   0.059   4.201  16.246  0.8735  0.3914 -0.0892
 3321SOL    HW221600   0.075   4.248  16.377  1.7227 -0.5243 -1.0870
 3322SOL     OW21601   3.469   0.247   4.397  0.0163 -0.1333  0.0478
 3322SOL    HW121602   3.445   0.340   4.394 -1.2307 -0.4863 -1.0117
 3322SOL    HW221603   3.387   0.198   4.385 -0.5624  1.0535 -0.8982
 3323SOL     OW21604   2.940   3.428   0.803  0.0924  0.6847 -0.1444
 3323SOL    HW121605   2.857   3.424   0.755 -0.8179  0.9181  1.4200
 3323SOL    HW221606   2.972   3.516   0.783  1.8132  0.4549  1.6754
 3324SOL     OW21607   4.717   1.209   2.377 -0.1632  0.1520  0.1786
 3324SOL    HW121608   4.736   1.284   2.433 -1.1911 -1.7605  3.0664
 3324SOL    HW221609   4.712   1.246   2.289 -0.2188  0.4204  0.2936
 3325SOL     OW21610   4.390   2.840  15.741 -0.1536 -0.4949  0.4749
 3325SOL    HW121611   4.367   2.824  15.649  2.3440  1.5458 -0.5078
 3325SOL    HW221612   4.311   2.869  15.787 -1.0891 -1.8590 -0.2442
 3326SOL     OW21613   1.128   2.336   7.943  0.1928 -0.2218 -0.0153
 3326SOL    HW121614   1.083   2.315   8.025  1.2536 -0.1415  0.5875
 3326SOL    HW221615   1.095   2.257   7.898  0.5743 -0.5620  0.3067
 3327SOL     OW21616   3.574   3.434   0.304  0.1618 -0.0844  0.1190
 3327SOL    HW121617   3.599   3.456   0.394 -0.6517  2.4278 -0.2696
 3327SOL    HW221618   3.489   3.476   0.289 -0.2934 -0.1883  2.3815
 3328SOL     OW21619   1.460   0.260   3.950 -0.5340  0.4255 -0.3142
 3328SOL    HW121620   1.380   0.272   4.002  0.8865  0.3150  1.8855
 3328SOL    HW221621   1.438   0.321   3.880  0.0249 -0.1321 -0.9680
 3329SOL     OW21622   4.422   1.137   4.976 -1.1214 -0.3478  0.0544
 3329SOL    HW121623   4.403   1.194   5.051  1.0423 -2.0394  1.8943
 3329SOL    HW221624   4.417   1.203   4.908 -0.3952  3.3264  3.5312
 3330SOL     OW21625   1.713   3.707   8.915  0.3755 -0.5899 -0.6889
 3330SOL    HW121626   1.728   3.644   8.844 -0.1108 -1.6259  0.1252
 3330SOL    HW221627   1.672   3.653   8.983 -1.3616 -1.0649 -2.1026
 3331SOL     OW21628   2.454   1.326   5.121 -0.2283 -0.5317 -0.4617
 3331SOL    HW121629   2.372   1.281   5.101 -2.0178  2.7243 -0.5148
 3331SOL    HW221630   2.526   1.276   5.081 -0.2072 -1.0067  0.1818
 3332SOL     OW21631   0.265   4.105  17.512  0.0059  0.1994 -0.5288
 3332SOL    HW121632   0.292   4.013  17.519 -2.0477 -0.1971  2.4336
 3332SOL    HW221633   0.344   4.149  17.544 -0.7310  0.4221  1.0185
 3333SOL     OW21634   0.620   0.928   1.591 -0.2503 -0.0384  0.1541
 3333SOL    HW121635   0.575   0.910   1.508 -1.9107  0.8905  0.8413
 3333SOL    HW221636   0.595   0.852   1.643  0.1209 -0.3518 -0.1256
 3334SOL     OW21637   3.476   2.394   4.113 -0.5594 -0.3981  0.3578
 3334SOL    HW121638   3.520   2.354   4.038  0.7935  0.3281  0.7574
 3334SOL    HW221639   3.392   2.424   4.079 -1.0476 -1.3929  0.6967
 3335SOL     OW21640   3.417   3.548   4.316  0.9198 -0.5647  0.0584
 3335SOL    HW121641   3.462   3.585   4.392  0.2953 -0.0377  0.1652
 3335SOL    HW221642   3.495   3.525   4.265 -0.8863 -0.7369 -2.6275
 3336SOL     OW21643   1.198   2.874   2.089 -0.0566  0.0505  0.0276
 3336SOL    HW121644   1.217   2.795   2.138 -0.4092 -1.8013 -2.8390
 3336SOL    HW221645   1.219   2.938   2.158  2.2216 -2.7738  1.9297
 3337SOL     OW21646   1.902   1.807   0.983  0.6352 -0.4037 -0.4560
 3337SOL    HW121647   1.858   1.833   0.902  0.5428 -0.1559 -0.3269
 3337SOL    HW221648   1.917   1.715   0.964 -3.8830 -1.1586 -0.3613
 3338SOL     OW21649   2.010   4.252  14.560  0.0484  0.4584 -0.0204
 3338SOL    HW121650   2.015   4.291  14.648  0.5549 -2.0192  1.0426
 3338SOL    HW221651   2.077   4.303  14.514 -0.8463  2.2246  0.6282
 3339SOL     OW21652   3.526   0.488   5.955  0.3180 -0.0006 -0.1844
 3339SOL    HW121653   3.616   0.517   5.971  0.8432 -2.1505  0.6402
 3339SOL    HW221654   3.482   0.574   5.955  0.0968 -0.1125 -0.0123
 3340SOL     OW21655   2.544   0.752  12.870 -0.3860 -0.2246 -0.1411
 3340SOL    HW121656   2.484   0.678  12.861 -0.6690 -0.0808  0.6375
 3340SOL    HW221657   2.489   0.816  12.913  0.8408  1.1139 -0.5607
 3341SOL     OW21658   3.276   3.863   3.814  0.2454 -0.1005  0.5512
 3341SOL    HW121659   3.248   3.793   3.872 -1.8215 -1.2474 -1.8256
 3341SOL    HW221660   3.360   3.831   3.781 -0.8033 -1.7814 -0.4758
 3342SOL     OW21661   3.257   4.361  16.395  0.0366 -0.0847 -0.3386
 3342SOL    HW121662   3.188   4.395  16.337  0.0887  1.1019  0.2834
 3342SOL    HW221663   3.218   4.288  16.442 -1.7815  0.7508 -0.5163
 3343SOL     OW21664   3.994   3.304   2.605 -0.4137 -0.0771 -0.7058
 3343SOL    HW121665   3.926   3.253   2.560 -1.0769  0.7814 -0.6756
 3343SOL    HW221666   4.054   3.231   2.619  0.0612  0.8611  2.1015
 3344SOL     OW21667   1.664   3.773   6.553 -0.1140  0.2156 -0.5591
 3344SOL    HW121668   1.600   3.830   6.510  1.5756  0.6145 -2.5356
 3344SOL    HW221669   1.746   3.808   6.516  1.0011 -0.6995  1.0670
 3345SOL     OW21670   0.513   3.268  13.871 -0.3241 -0.8206  0.1644
 3345SOL    HW121671   0.479   3.314  13.795  1.2319  1.4397  0.8523
 3345SOL    HW221672   0.586   3.235  13.819  0.0221  0.0255  0.1243
 3346SOL     OW21673   2.971   0.301   6.622 -0.1913  0.6962  0.1595
 3346SOL    HW121674   3.003   0.388   6.647 -1.3184  0.6261  1.8374
 3346SOL    HW221675   2.995   0.246   6.696  0.2682 -1.1911 -1.4082
 3347SOL     OW21676   3.976   2.391   7.142 -0.1190 -0.2701 -0.1784
 3347SOL    HW121677   3.979   2.466   7.202 -0.1588  0.9919 -1.7404
 3347SOL    HW221678   4.068   2.367   7.131 -0.3848 -0.5458 -1.9223
 3348SOL     OW21679   1.265   1.764   9.184  0.1288  0.3966 -0.5916
 3348SOL    HW121680   1.235   1.818   9.111 -2.0226 -2.3866 -1.7694
 3348SOL    HW221681   1.188   1.711   9.204  1.7482 -1.2495  1.2876
 3349SOL     OW21682   1.894   2.102   7.580 -0.0344 -0.0853  0.4414
 3349SOL    HW121683   1.980   2.141   7.566  1.1634 -2.4031  1.1741
 3349SOL    HW221684   1.918   2.012   7.604 -1.1337 -0.2923  0.7559
 3350SOL     OW21685   2.131   2.391   6.615  0.8744  0.4034  0.1258
 3350SOL    HW121686   2.153   2.471   6.568  0.2759  0.9561  0.7859
 3350SOL    HW221687   2.083   2.420   6.693  0.5176  2.8320 -1.0024
 3351SOL     OW21688   3.348   0.880   6.357  0.3093 -0.0920  0.1604
 3351SOL    HW121689   3.385   0.809   6.409 -0.0180 -0.4051 -0.0301
 3351SOL    HW221690   3.376   0.857   6.268  0.6563  2.1222 -0.3162
 3352SOL     OW21691   2.423   1.588   5.052 -0.4487  0.3044 -0.7203
 3352SOL    HW121692   2.385   1.600   4.964 -0.3731  1.0264 -0.6468
 3352SOL    HW221693   2.461   1.500   5.047  0.3555  0.7848 -2.9923
 3353SOL     OW21694   3.686   1.644   5.080 -0.1520 -0.3935 -0.0148
 3353SOL    HW121695   3.754   1.655   5.146  1.0482 -0.4192 -1.2231
 3353SOL    HW221696   3.712   1.555   5.055 -0.0155 -0.3113 -0.1640
 3354SOL     OW21697   4.126   2.062  10.394  0.4203  0.6117  0.1994
 3354SOL    HW121698   4.138   1.981  10.344 -1.1043 -1.5323  3.2606
 3354SOL    HW221699   4.152   2.019  10.475 -0.6312 -1.0774 -0.3455
 3355SOL     OW21700   2.507   3.921   5.141  0.4148 -0.0868 -0.3550
 3355SOL    HW121701   2.535   3.882   5.224  0.8267  0.2445 -0.3439
 3355SOL    HW221702   2.578   3.899   5.080  0.2580 -0.2842 -0.4657
 3356SOL     OW21703   1.722   2.444  17.655  0.1201  0.2323  0.9985
 3356SOL    HW121704   1.644   2.451  17.600 -0.2785 -0.9636  1.4253
 3356SOL    HW221705   1.739   2.350  17.649 -0.7799 -0.0774  3.3188
 3357SOL     OW21706   3.660   2.404   2.737  0.0603  0.0550 -0.0682
 3357SOL    HW121707   3.708   2.423   2.817  1.9150  2.1625 -1.6920
 3357SOL    HW221708   3.666   2.309   2.729 -0.4209  0.1079 -1.1345
 3358SOL     OW21709   0.209   2.319  13.399 -0.0522 -0.2225  0.0520
 3358SOL    HW121710   0.189   2.247  13.458  0.2541 -0.7047 -0.4333
 3358SOL    HW221711   0.153   2.384  13.442  2.7821  1.7857  0.7541
 3359SOL     OW21712   2.500   3.217  17.059 -0.0743  0.1177  0.1882
 3359SOL    HW121713   2.498   3.247  16.968 -1.3395  1.3598  0.6228
 3359SOL    HW221714   2.469   3.298  17.099  0.6259  0.0137  0.9590
 3360SOL     OW21715   3.895   2.980   8.239 -0.8365  0.8420 -0.4086
 3360SOL    HW121716   3.924   2.893   8.268 -1.3508  0.5112 -0.8896
 3360SOL    HW221717   3.801   2.968   8.257 -0.9897  2.4807 -0.0869
 3361SOL     OW21718   2.634   2.066  16.520  0.3039  0.0888 -0.3671
 3361SOL    HW121719   2.677   2.150  16.506  1.3365 -0.4897 -0.6112
 3361SOL    HW221720   2.692   2.013  16.574  0.6199  0.7202 -0.0825
 3362SOL     OW21721   3.559   2.116   6.580  0.4031 -0.1494  0.0227
 3362SOL    HW121722   3.476   2.068   6.589 -0.1356  0.9747  1.0951
 3362SOL    HW221723   3.604   2.064   6.646  2.0279 -2.1425 -2.6622
 3363SOL     OW21724   4.445   4.541   3.299  0.8402 -0.1597  0.5536
 3363SOL    HW121725   4.382   4.600   3.340 -1.6036 -1.9253 -0.7220
 3363SOL    HW221726   4.430   4.463   3.353  1.9690 -0.9564 -0.2721
 3364SOL     OW21727   3.109   3.460   1.685  0.2750  0.1291 -0.2621
 3364SOL    HW121728   3.052   3.531   1.712 -1.9611 -1.1494 -1.6322
 3364SOL    HW221729   3.096   3.462   1.590  1.5881  0.1268 -0.4470
 3365SOL     OW21730   2.487   3.915  16.392 -0.1397 -0.1118  0.1423
 3365SOL    HW121731   2.525   3.829  16.373  3.2110  1.5410 -0.7067
 3365SOL    HW221732   2.514   3.928  16.483  0.3854 -0.1058 -0.0108
 3366SOL     OW21733   1.973   2.682   9.669  0.7868  0.2169  0.3175
 3366SOL    HW121734   1.990   2.588   9.660 -0.0424  0.0159  0.9043
 3366SOL    HW221735   1.988   2.692   9.763  0.7678  1.9625  0.1301
 3367SOL     OW21736   1.413   0.875  11.007 -0.1700  0.1232  0.4598
 3367SOL    HW121737   1.482   0.809  11.000 -0.3867 -0.1298  0.7090
 3367SOL    HW221738   1.408   0.887  10.912  2.3521 -2.0973  0.0628
 3368SOL     OW21739   1.657   2.416   5.083  0.2628  0.4425  0.3792
 3368SOL    HW121740   1.620   2.364   5.155  2.5665 -1.4645  0.1859
 3368SOL    HW221741   1.635   2.502   5.118 -2.3175  0.2698 -0.7769
 3369SOL     OW21742   2.120   4.692  16.078 -0.5810 -0.2794 -0.2099
 3369SOL    HW121743   2.131   4.602  16.048 -0.4872  0.3051 -1.9071
 3369SOL    HW221744   2.080   4.677  16.164  1.0679  0.2927  0.6660
 3370SOL     OW21745   0.231   1.920   8.854  0.9273 -0.0003 -0.3916
 3370SOL    HW121746   0.236   1.858   8.926  2.3172  1.1916  0.5444
 3370SOL    HW221747   0.302   1.983   8.866  0.8608 -0.0861  0.4660
 3371SOL     OW21748   3.550   3.213   0.470 -0.5952 -0.0947  0.1880
 3371SOL    HW121749   3.551   3.282   0.403  2.0009 -0.0055  0.3237
 3371SOL    HW221750   3.630   3.238   0.517 -1.9084  0.9522  1.8585
 3372SOL     OW21751   0.833   3.648  12.466 -0.2490  0.0420 -0.3748
 3372SOL    HW121752   0.807   3.672  12.377  2.6080  4.1933 -0.0927
 3372SOL    HW221753   0.863   3.736  12.486  1.9934 -1.2024  1.6855
 3373SOL     OW21754   4.701   3.916   9.035  0.4111 -0.3197 -0.6508
 3373SOL    HW121755   4.717   3.982   8.967  0.1751  0.1404 -0.2616
 3373SOL    HW221756   4.738   3.949   9.117  0.7593  1.4533 -1.5249
 3374SOL     OW21757   0.476   2.110  10.259 -0.4500 -0.7238 -0.6892
 3374SOL    HW121758   0.504   2.025  10.293 -0.6343 -0.5789 -0.1727
 3374SOL    HW221759   0.533   2.166  10.312 -0.5474 -1.0567 -0.2349
 3375SOL     OW21760   0.317   1.492   7.886  0.0371 -0.0933  0.1674
 3375SOL    HW121761   0.411   1.494   7.904  0.5931 -2.2899 -2.5323
 3375SOL    HW221762   0.307   1.578   7.846  0.9293 -0.4352 -0.7969
 3376SOL     OW21763   2.843   1.324   2.728 -0.5897  0.2103  0.4886
 3376SOL    HW121764   2.926   1.276   2.737 -0.7889  0.0146  1.2600
 3376SOL    HW221765   2.845   1.327   2.632 -3.9013 -1.4726  0.3606
 3377SOL     OW21766   2.788   1.345   6.570 -0.1792 -0.3702  0.0785
 3377SOL    HW121767   2.841   1.283   6.621  1.7978  1.1499 -0.1313
 3377SOL    HW221768   2.782   1.409   6.640  0.2584 -0.6898  0.4109
 3378SOL     OW21769   0.484   1.782  14.535 -0.1913  0.1798  0.2924
 3378SOL    HW121770   0.525   1.840  14.599  0.7129 -0.3305  0.1627
 3378SOL    HW221771   0.514   1.815  14.450  1.2507 -2.2359 -0.1189
 3379SOL     OW21772   4.691   2.817  15.393  0.1138 -0.0156 -0.0096
 3379SOL    HW121773   0.018   2.856  15.336  1.3663 -1.8345  0.2038
 3379SOL    HW221774   0.004   2.763  15.452 -0.5118  1.5836  1.9868
 3380SOL     OW21775   2.070   1.150   1.794 -0.1652 -0.0039 -0.1718
 3380SOL    HW121776   2.131   1.096   1.744 -0.3324 -1.5447  1.2895
 3380SOL    HW221777   2.112   1.236   1.803 -2.1164  0.7014  2.0677
 3381SOL     OW21778   2.493   2.405   3.783  0.5051 -0.2011  0.0405
 3381SOL    HW121779   2.422   2.466   3.804  0.0329 -0.4531 -0.8423
 3381SOL    HW221780   2.552   2.453   3.726 -2.2966  0.6902 -2.1361
 3382SOL     OW21781   4.489   0.520  15.708 -0.2334  0.6552 -0.0923
 3382SOL    HW121782   4.485   0.568  15.790  1.7997 -2.1271  1.6134
 3382SOL    HW221783   4.414   0.461  15.699  1.5205 -1.4073 -1.3970
 3383SOL     OW21784   1.367   3.960   3.004 -0.5785  0.0917 -0.3012
 3383SOL    HW121785   1.435   3.921   3.059 -1.4032 -1.9387 -0.7219
 3383SOL    HW221786   1.310   3.884   3.015 -1.6310  0.8995 -0.2033
 3384SOL     OW21787   2.376   2.028  16.422  0.2374 -1.1318 -0.0572
 3384SOL    HW121788   2.453   2.076  16.454  0.7472 -1.2269 -1.1238
 3384SOL    HW221789   2.394   1.943  16.460  0.5618 -0.8779  0.3555
 3385SOL     OW21790   1.836   1.703  10.829  0.0193  0.2368 -0.0313
 3385SOL    HW121791   1.772   1.726  10.896  1.6269  1.5735  1.0641
 3385SOL    HW221792   1.898   1.652  10.882  2.2252  1.6165 -1.2782
 3386SOL     OW21793   3.870   1.033   6.473 -0.3137 -0.6309 -0.1096
 3386SOL    HW121794   3.934   1.055   6.405  0.3238  1.7327  1.2618
 3386SOL    HW221795   3.920   1.063   6.549  0.4868 -1.8512 -0.1519
 3387SOL     OW21796   3.192   3.577   0.557  0.2018 -0.0051  0.4723
 3387SOL    HW121797   3.116   3.608   0.507 -0.4432  0.2270  1.6054
 3387SOL    HW221798   3.175   3.638   0.628  3.0323  0.5579  0.6596
 3388SOL     OW21799   2.068   1.182   9.245 -0.3936 -0.0248 -0.1406
 3388SOL    HW121800   2.130   1.109   9.244  1.6513  1.7148  0.0938
 3388SOL    HW221801   2.010   1.156   9.317 -2.5486 -0.1200 -1.9204
 3389SOL     OW21802   3.977   4.140  10.824 -0.2528  0.0264 -0.7062
 3389SOL    HW121803   3.905   4.203  10.814  0.9125  1.5636  0.6086
 3389SOL    HW221804   4.042   4.183  10.879  0.5232 -1.7558 -0.2103
 3390SOL     OW21805   3.168   1.667   1.912 -0.3405 -0.0591  0.0514
 3390SOL    HW121806   3.137   1.751   1.877 -0.0149 -0.6660 -1.6618
 3390SOL    HW221807   3.135   1.614   1.840  0.8027  0.3789 -0.7868
 3391SOL     OW21808   0.440   0.712   8.670  0.5964  0.4113 -0.4384
 3391SOL    HW121809   0.366   0.731   8.728  1.5143  1.9550  0.2003
 3391SOL    HW221810   0.395   0.678   8.592  1.1067  0.9781 -0.9690
 3392SOL     OW21811   4.087   1.003   4.568 -0.0020  0.0476  0.7450
 3392SOL    HW121812   4.139   0.975   4.643  1.0065 -1.0989 -0.3696
 3392SOL    HW221813   4.060   0.918   4.532 -1.9702  1.3386 -0.8317
 3393SOL     OW21814   0.771   4.234   8.159 -0.2310 -0.1150 -0.0698
 3393SOL    HW121815   0.693   4.273   8.120 -0.2941 -1.5176 -1.3536
 3393SOL    HW221816   0.820   4.315   8.176 -1.4071  0.9281 -1.6276
 3394SOL     OW21817   3.549   4.272   2.399 -0.1779  0.7946 -0.6783
 3394SOL    HW121818   3.621   4.232   2.449 -1.0009 -0.6589 -0.6428
 3394SOL    HW221819   3.585   4.358   2.377 -0.1181  0.5489 -1.5362
 3395SOL     OW21820   1.803   1.627   4.231  0.2318  0.2057  0.0611
 3395SOL    HW121821   1.806   1.531   4.228  1.2200  0.1777  2.2641
 3395SOL    HW221822   1.861   1.644   4.305 -0.9809  0.5069  0.9333
 3396SOL     OW21823   2.477   2.281  17.290  0.0946  0.0229 -0.1677
 3396SOL    HW121824   2.559   2.319  17.322 -0.6204  1.7093 -0.3486
 3396SOL    HW221825   2.418   2.313  17.359  1.2126  1.3506  0.1874
 3397SOL     OW21826   3.132   0.390   7.901  0.6440 -0.2477 -0.1703
 3397SOL    HW121827   3.183   0.310   7.917  2.1909  0.8401  0.3065
 3397SOL    HW221828   3.185   0.453   7.951  0.7534 -1.1526  0.8781
 3398SOL     OW21829   4.503   1.232   7.213  0.1324  0.6768 -0.2366
 3398SOL    HW121830   4.564   1.199   7.279 -0.2926  0.2354 -0.0631
 3398SOL    HW221831   4.547   1.187   7.140  0.2971  0.7907 -0.2075
 3399SOL     OW21832   3.010   0.997   2.046  0.0711  0.3816  0.5797
 3399SOL    HW121833   2.951   1.027   2.115  0.4099  0.7310  0.7229
 3399SOL    HW221834   3.058   0.929   2.093  0.1810 -0.2334 -0.4153
 3400SOL     OW21835   2.635   1.157   2.608 -0.5131  0.0418  0.1637
 3400SOL    HW121836   2.655   1.070   2.642 -0.7985 -0.8184 -1.8790
 3400SOL    HW221837   2.720   1.200   2.612 -0.6279  0.1816  1.0268
 3401SOL     OW21838   4.502   1.811   9.477  0.6121  0.3446  0.1130
 3401SOL    HW121839   4.554   1.790   9.555  0.8971 -1.5447 -0.5826
 3401SOL    HW221840   4.566   1.870   9.435 -1.2421  1.6973 -0.7853
 3402SOL     OW21841   1.908   4.736  17.184  0.2694 -0.3707 -0.0909
 3402SOL    HW121842   1.897   4.695  17.270  1.2711 -1.2809 -0.4002
 3402SOL    HW221843   1.824   0.032  17.157  0.5625 -1.1193 -1.9369
 3403SOL     OW21844   3.120   4.429   4.724  0.7739  0.5500  0.5012
 3403SOL    HW121845   3.047   4.374   4.752  2.0023 -0.7009  1.2406
 3403SOL    HW221846   3.180   4.365   4.687 -0.7989  0.4312 -1.7999
 3404SOL     OW21847   4.075   3.606   1.379 -0.5925  0.0931 -0.1563
 3404SOL    HW121848   4.141   3.670   1.351 -0.2081 -1.4510 -2.7440
 3404SOL    HW221849   4.006   3.663   1.345  1.3127  1.1687 -2.2790
 3405SOL     OW21850   3.111   1.388  15.257  0.2324  0.0885 -0.4596
 3405SOL    HW121851   3.123   1.361  15.166 -0.9225 -1.5902 -0.1132
 3405SOL    HW221852   3.051   1.461  15.245 -0.5093 -0.1818  1.7061
 3406SOL     OW21853   0.002   3.764   8.487 -0.6943 -0.4091 -0.2120
 3406SOL    HW121854   0.010   3.859   8.479 -0.7904 -0.4607 -0.8713
 3406SOL    HW221855   4.721   3.747   8.580  1.8253  1.1902  0.6170
 3407SOL     OW21856   3.909   4.607   7.330 -0.1039 -0.2481  0.3586
 3407SOL    HW121857   3.879   4.697   7.317  1.4793 -0.0120 -1.6752
 3407SOL    HW221858   3.931   4.618   7.422 -0.9049  1.6063  0.3258
 3408SOL     OW21859   0.300   0.605   6.049  0.8727 -0.2021 -0.4378
 3408SOL    HW121860   0.286   0.688   6.002  0.8401  0.7117  1.1852
 3408SOL    HW221861   0.238   0.618   6.121  0.3155  1.1769 -1.1659
 3409SOL     OW21862   0.161   1.188  17.727 -0.1645 -0.0247 -0.3920
 3409SOL    HW121863   0.161   1.092  17.724  0.4407  0.0166 -1.5743
 3409SOL    HW221864   0.093   1.202  17.662 -1.7045 -2.7384  0.6262
 3410SOL     OW21865   3.344   0.267  15.975 -0.2238  0.2574 -0.1001
 3410SOL    HW121866   3.355   0.182  16.018 -0.1567  1.1396  1.6382
 3410SOL    HW221867   3.402   0.313  16.037  0.5296 -0.5752 -0.1827
 3411SOL     OW21868   2.893   4.099   8.693 -0.5715  0.3974  0.1987
 3411SOL    HW121869   2.843   4.157   8.635 -2.2058 -0.0695  1.1162
 3411SOL    HW221870   2.870   4.012   8.658 -0.1317 -0.3616  1.8273
 3412SOL     OW21871   4.077   1.006   2.335 -0.3943  0.2246  0.1598
 3412SOL    HW121872   4.015   0.987   2.405 -0.1179 -0.9210  0.0970
 3412SOL    HW221873   4.019   0.997   2.259  0.4501  1.9200 -0.6786
 3413SOL     OW21874   2.751   0.126   5.602 -0.1535 -0.1783  0.0238
 3413SOL    HW121875   2.785   0.058   5.660  0.2220 -0.0337 -0.0294
 3413SOL    HW221876   2.656   0.117   5.612 -0.1041 -0.1759  0.4853
 3414SOL     OW21877   1.771   1.745   0.450 -0.5084  0.2103  0.8175
 3414SOL    HW121878   1.751   1.720   0.540 -1.0815  0.5757  0.7933
 3414SOL    HW221879   1.804   1.835   0.457  0.4430 -0.1021  0.2240
 3415SOL     OW21880   2.183   4.293   3.008 -0.1562  0.3395 -0.3738
 3415SOL    HW121881   2.174   4.203   2.976 -0.8019  0.5580 -0.8208
 3415SOL    HW221882   2.183   4.340   2.925 -0.8997  1.9767  0.5609
 3416SOL     OW21883   1.914   2.237  16.348  0.0335 -0.2847 -0.4701
 3416SOL    HW121884   1.974   2.170  16.315  2.2389  0.8986  1.1033
 3416SOL    HW221885   1.924   2.306  16.282 -0.1547 -0.0907 -0.2976
 3417SOL     OW21886   2.044   2.434  16.567 -0.3569 -0.4058 -0.7073
 3417SOL    HW121887   2.015   2.355  16.522 -0.9487 -1.2112  1.0858
 3417SOL    HW221888   2.067   2.490  16.492 -0.1271  2.4266  1.4760
 3418SOL     OW21889   3.171   1.273   1.636  0.0452 -0.5382 -0.6647
 3418SOL    HW121890   3.261   1.302   1.624 -0.3463  1.3533  0.9692
 3418SOL    HW221891   3.182   1.182   1.609 -2.3214 -0.0503 -3.2242
 3419SOL     OW21892   0.915   0.350   9.369  0.1691 -0.2796 -0.0928
 3419SOL    HW121893   0.898   0.419   9.434 -3.4178 -0.0841 -1.2196
 3419SOL    HW221894   0.982   0.293   9.407  0.1459  1.3724  2.4795
 3420SOL     OW21895   3.663   4.504   4.619  0.2227  0.3278  0.4377
 3420SOL    HW121896   3.691   4.595   4.628 -1.0175  0.6738  0.8298
 3420SOL    HW221897   3.594   4.503   4.685  2.2877  0.3687  2.6214
 3421SOL     OW21898   3.355   0.133   5.466 -0.9172  0.4200 -0.0340
 3421SOL    HW121899   3.392   0.195   5.403  2.4005 -1.0594  0.4629
 3421SOL    HW221900   3.418   0.133   5.538 -1.3518 -0.7969  0.3524
 3422SOL     OW21901   3.887   2.676   6.658 -0.4330  0.5434 -0.2147
 3422SOL    HW121902   3.960   2.630   6.700 -0.1496  0.9375 -0.2723
 3422SOL    HW221903   3.823   2.606   6.653  1.4983 -1.2471 -0.0515
 3423SOL     OW21904   3.381   3.700   7.039 -0.0177 -0.3698  0.5478
 3423SOL    HW121905   3.432   3.714   7.120 -2.2011 -0.1583  1.8903
 3423SOL    HW221906   3.296   3.739   7.057 -0.0429 -0.0662 -0.2434
 3424SOL     OW21907   3.096   4.159   5.414  0.7252  0.1135 -0.3601
 3424SOL    HW121908   3.098   4.142   5.508 -1.1509 -2.7008 -0.8256
 3424SOL    HW221909   3.182   4.201   5.416  1.0479 -0.5112 -1.0178
 3425SOL     OW21910   3.586   1.423   6.165  0.1240 -0.2070  0.0670
 3425SOL    HW121911   3.655   1.429   6.231 -0.9516 -1.0528  1.2670
 3425SOL    HW221912   3.640   1.401   6.089 -0.7548  0.4918 -0.7750
 3426SOL     OW21913   4.236   3.436   2.622  0.1465 -0.2280 -0.0649
 3426SOL    HW121914   4.145   3.408   2.617  0.3178 -0.6987 -0.4980
 3426SOL    HW221915   4.257   3.421   2.714  0.5355  1.4980  0.1343
 3427SOL     OW21916   2.809   1.603  14.514 -0.0428  0.2949  0.1133
 3427SOL    HW121917   2.827   1.509  14.505 -2.2023 -0.1406  0.1931
 3427SOL    HW221918   2.885   1.638  14.467  0.4907 -1.5939 -0.4244
 3428SOL     OW21919   4.357   1.584   3.123  0.1846 -0.7581  0.2224
 3428SOL    HW121920   4.343   1.502   3.076 -0.3829 -0.8323  0.5210
 3428SOL    HW221921   4.448   1.599   3.096 -0.4371 -2.4821 -2.7389
 3429SOL     OW21922   2.806   4.662  10.607  0.3129 -0.2913  0.2999
 3429SOL    HW121923   2.722   4.655  10.652  0.9543  0.2763  1.5966
 3429SOL    HW221924   2.838   4.575  10.628  1.2697  0.0167  0.1263
 3430SOL     OW21925   3.055   3.848  10.218  0.0621 -0.0200 -0.2377
 3430SOL    HW121926   2.992   3.917  10.238 -0.6952 -0.7909  0.0702
 3430SOL    HW221927   3.002   3.769  10.228  1.0411 -0.4397  1.5093
 3431SOL     OW21928   0.774   4.303   2.752  0.2810 -0.2499 -0.6859
 3431SOL    HW121929   0.818   4.386   2.733 -1.0991  0.6027 -0.0931
 3431SOL    HW221930   0.694   4.319   2.702 -1.3366  3.0041  2.9708
 3432SOL     OW21931   0.498   0.586   0.789  0.3797  0.0633 -0.0666
 3432SOL    HW121932   0.584   0.618   0.814  0.8663  0.5740 -2.4142
 3432SOL    HW221933   0.503   0.494   0.814  2.2332  0.0276 -0.5643
 3433SOL     OW21934   1.445   3.183   7.112  0.1508  0.2973 -0.1860
 3433SOL    HW121935   1.431   3.112   7.050  1.6291 -1.1502  1.1288
 3433SOL    HW221936   1.399   3.258   7.074  0.9759  1.3712  0.8789
 3434SOL     OW21937   0.390   1.327   6.012 -0.8172  0.5286  0.2317
 3434SOL    HW121938   0.383   1.257   6.077 -1.4946  0.7460  0.3992
 3434SOL    HW221939   0.366   1.288   5.928  0.9140 -1.9675  0.8875
 3435SOL     OW21940   3.435   0.543  15.343 -0.1742 -0.0061 -0.1798
 3435SOL    HW121941   3.447   0.582  15.429 -1.6297  2.7603 -1.2256
 3435SOL    HW221942   3.419   0.624  15.294  0.0110 -0.3294 -0.7704
 3436SOL     OW21943   0.215   1.001   5.511 -0.2938  0.3556 -0.5683
 3436SOL    HW121944   0.291   0.945   5.498  1.4541  2.2782  1.2933
 3436SOL    HW221945   0.188   0.993   5.603  1.5993  0.8435  0.0259
 3437SOL     OW21946   0.385   0.049   8.597  0.2350  0.2298  0.0397
 3437SOL    HW121947   0.309   0.101   8.570 -0.7179  0.2624  2.7779
 3437SOL    HW221948   0.343   4.706   8.620  0.1521  0.8417  2.0838
 3438SOL     OW21949   3.888   2.198   3.079 -0.4725 -0.3924  0.1358
 3438SOL    HW121950   3.905   2.283   3.121 -0.0027  0.5202 -1.8986
 3438SOL    HW221951   3.793   2.198   3.097 -0.5774 -2.9655 -0.4688
 3439SOL     OW21952   0.977   1.969   3.747 -0.2828 -0.1687  0.0805
 3439SOL    HW121953   0.927   1.916   3.685 -3.2657  0.5711  1.8395
 3439SOL    HW221954   1.040   1.905   3.780  1.5791  0.0425 -3.0914
 3440SOL     OW21955   4.119   2.503  13.252  0.0961  0.0297  0.1502
 3440SOL    HW121956   4.150   2.590  13.226  0.1689  0.1283  0.5596
 3440SOL    HW221957   4.195   2.452  13.224 -0.3855 -0.7161  0.1933
 3441SOL     OW21958   4.513   4.212   8.048  0.4208  0.2816  0.0369
 3441SOL    HW121959   4.539   4.245   7.962  0.0109  3.5310  1.1458
 3441SOL    HW221960   4.562   4.133   8.028 -0.1351  0.2118 -1.0763
 3442SOL     OW21961   1.321   0.350   2.486  0.1613  0.2786 -0.7267
 3442SOL    HW121962   1.282   0.284   2.543  0.9413 -0.3739 -0.9591
 3442SOL    HW221963   1.414   0.329   2.483 -0.1404 -0.9010 -1.6370
 3443SOL     OW21964   1.530   1.833   9.302 -0.6671  0.0828 -0.2727
 3443SOL    HW121965   1.450   1.884   9.315  0.3019  1.7885 -0.9868
 3443SOL    HW221966   1.486   1.749   9.289 -2.6206  1.2491 -1.1055
 3444SOL     OW21967   3.619   1.012   3.786 -0.6838 -0.1746 -0.3870
 3444SOL    HW121968   3.684   0.996   3.855  0.3847  1.3109 -1.0476
 3444SOL    HW221969   3.548   0.998   3.849  1.1110 -2.7738  1.0845
 3445SOL     OW21970   3.714   3.378  10.547  0.1615  0.4781  0.4712
 3445SOL    HW121971   3.764   3.308  10.588 -1.6819 -1.7912 -1.1403
 3445SOL    HW221972   3.627   3.337  10.549  0.0860  0.7989  3.6830
 3446SOL     OW21973   4.688   0.206   9.486 -0.2323 -0.0537  0.1779
 3446SOL    HW121974   0.044   0.196   9.477 -0.0602  0.6018  1.2461
 3446SOL    HW221975   4.684   0.302   9.487 -0.6886 -0.0722 -0.0850
 3447SOL     OW21976   3.765   4.260  11.631 -0.2076 -0.0386  0.2475
 3447SOL    HW121977   3.695   4.196  11.617 -0.1028 -0.5328  2.0145
 3447SOL    HW221978   3.711   4.337  11.648  0.1603 -0.0675  1.5766
 3448SOL     OW21979   4.076   0.183   8.800  0.2401  0.1488  0.1608
 3448SOL    HW121980   4.082   0.123   8.725 -0.3336  0.1575  0.1087
 3448SOL    HW221981   4.067   0.263   8.748 -1.0167  0.2084  0.4715
 3449SOL     OW21982   1.422   0.487   5.411  0.5054  0.0090  0.0241
 3449SOL    HW121983   1.503   0.441   5.390  1.2745  0.6904  1.5313
 3449SOL    HW221984   1.414   0.465   5.504  0.3627 -0.5915 -0.1245
 3450SOL     OW21985   1.348   4.380   3.343 -0.4377 -0.0243  0.1012
 3450SOL    HW121986   1.404   4.326   3.288 -0.0087 -0.0242  0.5397
 3450SOL    HW221987   1.276   4.404   3.285 -0.2729 -0.4377 -0.2798
 3451SOL     OW21988   1.019   1.954  16.949  0.0456 -0.1087  0.5502
 3451SOL    HW121989   1.113   1.940  16.938  0.2543  1.0749  0.8604
 3451SOL    HW221990   1.008   1.883  17.012  1.8566 -1.1441 -0.3155
 3452SOL     OW21991   3.593   4.350   7.076  0.1448 -0.0977 -0.0853
 3452SOL    HW121992   3.645   4.377   7.152  0.1497 -0.4489  0.0379
 3452SOL    HW221993   3.557   4.429   7.036  1.3787  0.0749 -0.8555
 3453SOL     OW21994   3.716   3.265  16.316 -0.0989 -0.1177 -0.3065
 3453SOL    HW121995   3.624   3.281  16.295 -0.0101  0.2193 -0.4480
 3453SOL    HW221996   3.762   3.316  16.249  1.5870 -0.3536  0.6700
 3454SOL     OW21997   1.732   4.628   2.625  0.2146  0.3189  0.3722
 3454SOL    HW121998   1.794   4.658   2.691  0.1810  0.4961  0.3243
 3454SOL    HW221999   1.771   4.690   2.563  0.0367 -0.8612 -0.9362
 3455SOL     OW22000   4.057   0.669  15.867 -0.1361  0.0733 -0.0370
 3455SOL    HW122001   4.118   0.739  15.846 -0.4686  0.2107 -0.5512
 3455SOL    HW222002   4.099   0.592  15.829  1.2215  1.0680 -0.5414
 3456SOL     OW22003   4.668   0.147   3.360  0.8517  0.2691  0.2890
 3456SOL    HW122004   4.673   0.078   3.427 -1.9512  1.6049  1.8932
 3456SOL    HW222005   0.015   0.135   3.320 -0.6196 -1.6055 -2.2740
 3457SOL     OW22006   0.219   1.799   0.716  0.1460 -0.0979  0.3361
 3457SOL    HW122007   0.135   1.777   0.676  0.2756 -1.5712  0.8879
 3457SOL    HW222008   0.204   1.893   0.725 -0.7269 -0.2452  0.4411
 3458SOL     OW22009   4.520   1.889  11.669 -0.0187 -0.4063  0.1126
 3458SOL    HW122010   4.552   1.844  11.591  2.4137  1.5671 -0.0259
 3458SOL    HW222011   4.574   1.966  11.685 -0.1850  0.0500 -1.5598
 3459SOL     OW22012   3.477   2.034  11.932 -0.4150 -0.2240 -0.6044
 3459SOL    HW122013   3.544   1.975  11.965  0.5222  1.9445  1.4004
 3459SOL    HW222014   3.504   2.022  11.841  0.3323 -0.2285 -0.3810
 3460SOL     OW22015   2.472   2.992   2.121 -0.6575  0.4877 -0.2191
 3460SOL    HW122016   2.518   2.959   2.198 -0.0937  0.8146 -0.4115
 3460SOL    HW222017   2.502   2.932   2.053 -2.2459  1.3210 -1.6605
 3461SOL     OW22018   4.685   4.441   7.014 -0.3154  0.2683  0.1038
 3461SOL    HW122019   4.619   4.375   6.994  0.7627 -1.1205  1.1657
 3461SOL    HW222020   0.024   4.387   7.022 -0.8884 -0.5345  0.2771
 3462SOL     OW22021   2.262   0.374  12.240  0.3234  0.2701 -0.1156
 3462SOL    HW122022   2.195   0.386  12.308  0.1205 -3.5790  0.3372
 3462SOL    HW222023   2.266   0.465  12.210 -2.2799  0.3613 -0.1562
 3463SOL     OW22024   3.991   4.072   1.700 -0.8389  0.1235 -0.2851
 3463SOL    HW122025   3.915   4.118   1.735  0.5547  1.3749  1.0581
 3463SOL    HW222026   3.960   3.981   1.695  1.5041 -0.7617  0.8564
 3464SOL     OW22027   3.660   0.964   1.219  0.0314  0.3005 -0.0288
 3464SOL    HW122028   3.620   0.952   1.133 -1.1804  1.0139  0.4367
 3464SOL    HW222029   3.582   0.941   1.269 -1.5460  1.4899 -1.9709
 3465SOL     OW22030   1.436   3.891  12.249  0.3034  0.3040 -0.0574
 3465SOL    HW122031   1.351   3.934  12.263 -0.4531 -0.6036 -1.8723
 3465SOL    HW222032   1.409   3.799  12.245  0.9603  0.1093  0.0456
 3466SOL     OW22033   1.498   1.308  17.198 -0.3604  0.5152 -0.3888
 3466SOL    HW122034   1.572   1.255  17.225  0.3923  2.2641  0.9723
 3466SOL    HW222035   1.478   1.349  17.282  5.3384  2.6689 -0.1001
 3467SOL     OW22036   3.174   3.992   1.780  0.2422 -0.1622 -0.2109
 3467SOL    HW122037   3.100   4.033   1.734 -0.8621 -1.0909  0.7254
 3467SOL    HW222038   3.168   3.905   1.742 -1.8417  0.2696 -0.9056
 3468SOL     OW22039   3.908   0.457   1.576 -0.1062  0.8474 -0.1157
 3468SOL    HW122040   3.893   0.363   1.580  2.6137  0.5334  2.2181
 3468SOL    HW222041   3.924   0.468   1.482  1.1197  0.3886  0.0402
 3469SOL     OW22042   2.106   3.312  15.891 -0.1611 -0.6319 -0.2839
 3469SOL    HW122043   2.125   3.396  15.931 -1.7640 -1.3891  2.0797
 3469SOL    HW222044   2.074   3.333  15.803 -0.1744 -0.1343 -0.1583
 3470SOL     OW22045   1.655   3.367   2.769  0.0479 -0.3437  0.1718
 3470SOL    HW122046   1.730   3.341   2.716  0.8067  0.0119  1.0697
 3470SOL    HW222047   1.636   3.459   2.750 -2.0156 -0.7521  0.1799
 3471SOL     OW22048   3.795   0.622  15.788  0.4399  0.0622 -0.2503
 3471SOL    HW122049   3.762   0.710  15.771 -0.7397 -0.7678 -2.2845
 3471SOL    HW222050   3.883   0.627  15.826 -1.1080  0.6726  3.2501
 3472SOL     OW22051   3.482   4.706   8.767  0.2995  0.0938 -0.4185
 3472SOL    HW122052   3.506   4.614   8.757 -1.3294 -0.1693 -1.9201
 3472SOL    HW222053   3.388   4.693   8.782  0.5531  0.2108  1.2780
 3473SOL     OW22054   2.410   3.621   7.119 -0.2177 -0.2390  0.1151
 3473SOL    HW122055   2.458   3.539   7.124 -2.8296 -1.7727 -0.1197
 3473SOL    HW222056   2.422   3.641   7.026  0.5289 -1.2912 -0.0071
 3474SOL     OW22057   3.365   1.411  10.996 -0.4342  0.1313  0.3297
 3474SOL    HW122058   3.431   1.478  11.006  1.5187 -1.7010 -0.2546
 3474SOL    HW222059   3.411   1.327  10.994 -2.3448 -0.8931 -2.0063
 3475SOL     OW22060   4.325   1.121  12.194 -0.0755 -0.3872 -0.3159
 3475SOL    HW122061   4.321   1.206  12.151  3.5979 -0.8091 -1.4970
 3475SOL    HW222062   4.398   1.144  12.252 -1.0263 -0.9494  1.1042
 3476SOL     OW22063   2.129   4.179   3.846  0.2987 -0.6539  0.2214
 3476SOL    HW122064   2.192   4.108   3.833  0.5690 -0.1294 -1.2975
 3476SOL    HW222065   2.194   4.250   3.844  1.7024 -1.9330 -0.1326
 3477SOL     OW22066   2.074   2.628   9.427  0.7717 -0.3642  0.6086
 3477SOL    HW122067   2.125   2.694   9.381 -1.4378  0.3303 -0.8564
 3477SOL    HW222068   2.061   2.680   9.507 -2.1508 -0.7022  0.3623
 3478SOL     OW22069   0.905   1.692   4.762  0.0051  0.7746 -0.3604
 3478SOL    HW122070   0.990   1.716   4.724  0.9531  1.6936  2.3180
 3478SOL    HW222071   0.940   1.688   4.851 -0.9666  2.5102  0.1037
 3479SOL     OW22072   4.599   3.982   4.928 -0.4294 -0.1960  0.1953
 3479SOL    HW122073   4.679   4.028   4.904 -0.8399  0.2892 -0.2309
 3479SOL    HW222074   4.537   4.054   4.927  0.2275  0.3727  0.5125
 3480SOL     OW22075   2.352   0.242  13.667 -0.0083  0.3828  0.0136
 3480SOL    HW122076   2.411   0.317  13.672  0.7399 -0.4505  3.3996
 3480SOL    HW222077   2.303   0.260  13.747  0.4696 -1.4440  0.7092
 3481SOL     OW22078   0.514   3.809  11.465 -0.2440  0.3499  0.2734
 3481SOL    HW122079   0.507   3.841  11.555 -0.6122  0.8012  0.0827
 3481SOL    HW222080   0.448   3.739  11.459  2.1241 -1.7246 -1.6462
 3482SOL     OW22081   1.589   3.858   3.125 -0.0030 -0.3533  0.0895
 3482SOL    HW122082   1.608   3.920   3.195  0.4640 -0.3456 -0.0478
 3482SOL    HW222083   1.679   3.832   3.105 -0.7097 -2.2593 -0.6546
 3483SOL     OW22084   0.315   0.393  14.064  0.0879 -0.6314  0.0079
 3483SOL    HW122085   0.248   0.334  14.029 -1.0452  0.3926  0.4546
 3483SOL    HW222086   0.390   0.336  14.080  0.0394 -0.2553  1.5765
 3484SOL     OW22087   0.189   3.521   7.040 -0.5378  0.1150 -0.2003
 3484SOL    HW122088   0.177   3.486   7.128  0.0943  0.6409  0.0882
 3484SOL    HW222089   0.101   3.553   7.023 -1.2646 -1.2082  1.0708
 3485SOL     OW22090   1.724   4.736   7.543  0.0539 -0.2203 -0.0896
 3485SOL    HW122091   1.761   0.068   7.595 -0.3263 -0.3519  0.3634
 3485SOL    HW222092   1.629   0.005   7.552  0.2260  1.8563 -0.0574
 3486SOL     OW22093   0.458   0.494  17.096  0.5812  0.6919 -0.1810
 3486SOL    HW122094   0.524   0.556  17.063 -0.6057  2.6130  1.0256
 3486SOL    HW222095   0.447   0.431  17.026  1.6979 -0.0617  0.3247
 3487SOL     OW22096   3.073   2.220   5.134  0.2166  0.2043 -0.3594
 3487SOL    HW122097   3.143   2.163   5.101 -0.6015 -0.1417 -1.4969
 3487SOL    HW222098   3.113   2.291   5.185 -3.8493  1.0051  1.7227
 3488SOL     OW22099   1.765   0.363  10.548 -0.5903  0.0843 -0.1116
 3488SOL    HW122100   1.736   0.432  10.489  0.9911  0.4420 -0.4539
 3488SOL    HW222101   1.717   0.286  10.516 -2.3222  1.2359 -0.2986
 3489SOL     OW22102   3.312   2.632  10.880  0.0863  0.4176 -0.2931
 3489SOL    HW122103   3.271   2.655  10.796  1.0923  2.1147 -0.3235
 3489SOL    HW222104   3.282   2.541  10.883  0.4720  0.3330  0.8209
 3490SOL     OW22105   2.288   4.538   9.050  0.5950  0.0542 -0.5906
 3490SOL    HW122106   2.284   4.564   8.958 -0.5765 -0.7784 -0.7841
 3490SOL    HW222107   2.199   4.549   9.081  0.3246 -0.9506 -1.0038
 3491SOL     OW22108   2.953   4.043   9.790  0.0582  0.0738 -0.1091
 3491SOL    HW122109   2.976   4.132   9.762 -0.6457  0.1102 -0.5635
 3491SOL    HW222110   3.026   3.989   9.761 -1.6834 -1.8820 -0.8211
 3492SOL     OW22111   3.148   3.968   5.926 -0.5020  0.0967 -0.6066
 3492SOL    HW122112   3.234   3.973   5.968 -0.1494 -1.9757 -1.0439
 3492SOL    HW222113   3.100   3.967   6.009  1.3229 -0.0243  0.4572
 3493SOL     OW22114   3.280   3.481   5.113  0.1308 -0.4879  0.0404
 3493SOL    HW122115   3.204   3.442   5.155  0.3194  0.3700  1.1687
 3493SOL    HW222116   3.315   3.531   5.187 -1.1583  1.7457 -0.8749
 3494SOL     OW22117   2.935   4.117   2.924 -0.0907  0.0261  0.5938
 3494SOL    HW122118   2.840   4.112   2.938 -0.2248 -1.1035 -0.7646
 3494SOL    HW222119   2.958   4.087   3.012  0.4608 -1.9930 -0.2417
 3495SOL     OW22120   1.849   0.908   9.647  0.3855  0.0183 -0.1853
 3495SOL    HW122121   1.840   0.841   9.580  0.8955 -0.5136  0.2757
 3495SOL    HW222122   1.759   0.933   9.668  1.0598  2.2575  0.0171
 3496SOL     OW22123   1.991   3.770   1.122 -0.9007  0.6904  0.0577
 3496SOL    HW122124   2.001   3.865   1.124  0.6440  0.4823  2.1698
 3496SOL    HW222125   1.919   3.751   1.182 -0.0960 -1.1427  0.4428
 3497SOL     OW22126   3.700   2.607   5.185 -0.0371  0.3578 -0.4613
 3497SOL    HW122127   3.652   2.570   5.112  0.4187 -2.5094  0.6979
 3497SOL    HW222128   3.788   2.619   5.147  1.0713 -1.0111  1.7030
 3498SOL     OW22129   0.555   0.449   5.877 -0.2206 -0.1608  0.0491
 3498SOL    HW122130   0.577   0.537   5.845  0.1417 -0.7592 -1.3036
 3498SOL    HW222131   0.533   0.413   5.792  0.9066 -1.8512  0.4918
 3499SOL     OW22132   0.191   1.715   2.516  0.2729 -0.1712 -0.0192
 3499SOL    HW122133   0.232   1.629   2.510  4.0095  1.5479  0.2736
 3499SOL    HW222134   0.148   1.706   2.601 -0.1555  1.5818 -0.0474
 3500SOL     OW22135   3.165   3.261   0.887  0.6694 -0.5446  0.2913
 3500SOL    HW122136   3.094   3.326   0.884  1.7242  0.5681 -0.4621
 3500SOL    HW222137   3.122   3.182   0.919  0.3838 -0.6345 -0.3265
 3501SOL     OW22138   1.251   3.636   0.826 -0.0482  0.7340 -0.3788
 3501SOL    HW122139   1.198   3.602   0.899 -0.6982  1.3444 -0.5767
 3501SOL    HW222140   1.198   3.708   0.794 -0.0492  1.0353  0.3032
 3502SOL     OW22141   4.679   2.102   7.047 -0.0805 -0.2744  0.3132
 3502SOL    HW122142   0.001   2.148   6.990 -0.0999  0.4732  0.8942
 3502SOL    HW222143   4.632   2.045   6.986  1.3551  0.8554 -1.8505
 3503SOL     OW22144   3.419   0.968   6.076  0.3705 -0.0421  0.8742
 3503SOL    HW122145   3.485   1.016   6.126  2.8848 -1.3123 -1.2490
 3503SOL    HW222146   3.356   1.036   6.052  2.4241  0.7799 -2.1477
 3504SOL     OW22147   0.390   4.658   2.373 -0.1754 -0.0300  0.4016
 3504SOL    HW122148   0.381   4.640   2.467  0.9437 -0.8052  0.3512
 3504SOL    HW222149   0.350   0.006   2.371  1.4419  0.6540 -1.8244
 3505SOL     OW22150   4.081   0.339   1.773 -0.3999  0.0253 -0.3046
 3505SOL    HW122151   4.042   0.392   1.703 -0.8223  0.6110  0.3862
 3505SOL    HW222152   4.117   0.267   1.721  0.7293 -0.0849  0.6625
 3506SOL     OW22153   0.039   3.370   3.625 -0.0614 -0.4626 -0.8618
 3506SOL    HW122154   0.078   3.314   3.558 -0.3415 -1.3321 -0.3083
 3506SOL    HW222155   0.055   3.324   3.708  0.6093  1.4070  0.0414
 3507SOL     OW22156   3.192   4.566   3.256 -0.5763  0.2334 -0.0721
 3507SOL    HW122157   3.213   4.655   3.226  0.7393 -0.4926 -1.2819
 3507SOL    HW222158   3.264   4.517   3.218  1.3311  3.0862 -0.1749
 3508SOL     OW22159   2.067   0.526   4.580 -0.8603  0.2501 -0.0013
 3508SOL    HW122160   2.119   0.532   4.660  0.5514  0.3575 -0.9162
 3508SOL    HW222161   2.043   0.434   4.571  0.1632  0.3070 -3.3460
 3509SOL     OW22162   4.132   1.492   9.162  0.4622 -0.5562  0.1552
 3509SOL    HW122163   4.186   1.532   9.230 -0.0863  0.5817 -0.0679
 3509SOL    HW222164   4.049   1.536   9.182  0.2289 -0.9204 -0.0101
 3510SOL     OW22165   1.856   4.448   8.844 -0.3052 -0.2501 -0.5958
 3510SOL    HW122166   1.818   4.486   8.923 -0.5724 -0.7429 -0.4837
 3510SOL    HW222167   1.819   4.360   8.840 -1.9495  0.5166 -1.9631
 3511SOL     OW22168   1.202   0.399   8.704 -0.1937 -0.1332  0.0175
 3511SOL    HW122169   1.257   0.385   8.782 -1.0650 -2.9724  0.1439
 3511SOL    HW222170   1.247   0.353   8.633 -0.2170 -0.8044  0.4385
 3512SOL     OW22171   3.776   1.042   3.434  0.0924  0.1179  0.4493
 3512SOL    HW122172   3.739   0.956   3.415  1.3252 -0.3449  0.1061
 3512SOL    HW222173   3.742   1.090   3.358 -1.1548 -1.2450  0.1676
 3513SOL     OW22174   2.395   0.945  10.203 -0.6463 -0.0126 -0.2808
 3513SOL    HW122175   2.455   0.916  10.134  0.1495  0.8960  0.0284
 3513SOL    HW222176   2.400   0.874  10.267 -1.4915  1.4508  1.4064
 3514SOL     OW22177   1.074   3.116  12.409 -0.2344  0.1251  0.6114
 3514SOL    HW122178   1.090   3.041  12.352  0.2990  1.2551 -0.7248
 3514SOL    HW222179   1.156   3.104  12.457  0.2630 -1.7466 -0.7016
 3515SOL     OW22180   3.845   3.586   4.342  0.8097 -0.3690  0.2421
 3515SOL    HW122181   3.902   3.611   4.415  0.6944  1.7690 -0.3921
 3515SOL    HW222182   3.837   3.663   4.286  0.0426 -0.0717  0.7640
 3516SOL     OW22183   4.060   2.782   7.366 -0.0611  0.2773 -0.1912
 3516SOL    HW122184   4.082   2.690   7.350 -0.6907 -0.2534  2.0246
 3516SOL    HW222185   4.103   2.833   7.298 -0.5021 -1.8466 -2.0796
 3517SOL     OW22186   2.059   0.037  10.324 -0.1510 -0.2069 -0.2211
 3517SOL    HW122187   2.073   0.029  10.419  0.8014  0.1411 -0.3273
 3517SOL    HW222188   1.964   0.025  10.324 -0.3849  1.6526  0.2407
 3518SOL     OW22189   0.479   0.676  16.727  0.4618 -0.5106 -0.2948
 3518SOL    HW122190   0.563   0.632  16.722 -0.8108 -3.0896  1.0455
 3518SOL    HW222191   0.493   0.743  16.794  1.6115  0.6460 -1.6827
 3519SOL     OW22192   3.931   0.954   3.661  0.1689  0.4418 -0.4937
 3519SOL    HW122193   3.953   1.046   3.679  0.5809  0.3983 -0.7574
 3519SOL    HW222194   3.855   0.962   3.605 -0.2274  0.0427 -0.0110
 3520SOL     OW22195   3.329   2.722   9.160  0.7240  0.4699  1.3246
 3520SOL    HW122196   3.309   2.795   9.101 -1.4753 -0.9270  0.3459
 3520SOL    HW222197   3.243   2.698   9.192  0.6696 -1.9330 -0.6244
 3521SOL     OW22198   3.397   2.201   5.264 -0.3875 -0.6226 -0.3854
 3521SOL    HW122199   3.460   2.219   5.335 -0.3101  0.1455 -0.6451
 3521SOL    HW222200   3.329   2.264   5.287  0.3817  0.3478 -0.7363
 3522SOL     OW22201   3.045   0.007   9.489  0.6493 -0.2112  0.3888
 3522SOL    HW122202   3.053   0.066   9.564  0.8697 -0.1111  0.2866
 3522SOL    HW222203   3.023   0.079   9.429  1.0098 -0.7263 -0.3634
 3523SOL     OW22204   0.635   4.045   7.419  0.4581  0.0845 -0.3747
 3523SOL    HW122205   0.689   4.107   7.371  0.5646  0.9511  0.8565
 3523SOL    HW222206   0.567   4.024   7.354 -0.2412  1.5428 -0.1059
 3524SOL     OW22207   2.020   4.081   8.045 -0.6609  0.5096  0.4951
 3524SOL    HW122208   2.007   4.176   8.047  1.2108  0.7430  1.3716
 3524SOL    HW222209   2.034   4.069   8.139  0.7750  0.3422  0.2597
 3525SOL     OW22210   0.317   4.297   7.905  0.7444 -0.1968  0.5777
 3525SOL    HW122211   0.376   4.281   7.832 -1.0482  1.9763 -1.3210
 3525SOL    HW222212   0.326   4.209   7.943  1.0768 -0.3286  0.1906
 3526SOL     OW22213   1.175   2.861  17.017 -0.2271  0.2588  0.3155
 3526SOL    HW122214   1.259   2.884  17.057 -1.1633 -0.5171  2.7435
 3526SOL    HW222215   1.200   2.876  16.925  0.2928 -0.6644  0.3113
 3527SOL     OW22216   1.777   2.391   3.259  0.2974  0.0934 -0.8212
 3527SOL    HW122217   1.688   2.378   3.228  0.4178 -1.2836 -0.6096
 3527SOL    HW222218   1.813   2.428   3.179  0.0474  1.4523 -0.3018
 3528SOL     OW22219   2.402   3.012   6.286 -0.0548 -0.0955  0.2512
 3528SOL    HW122220   2.462   3.038   6.217  0.6257  0.4551  1.0526
 3528SOL    HW222221   2.421   3.069   6.361  1.7059  0.1942 -0.4115
 3529SOL     OW22222   1.808   0.338  16.459 -0.3066  0.1020  0.0703
 3529SOL    HW122223   1.817   0.391  16.380 -0.0390 -1.5201 -1.0006
 3529SOL    HW222224   1.810   0.249  16.423 -1.0221  0.1610 -0.0992
 3530SOL     OW22225   3.186   1.232  13.854 -0.2321 -0.1861 -0.3158
 3530SOL    HW122226   3.207   1.202  13.943 -0.5552  0.7345  0.0691
 3530SOL    HW222227   3.117   1.166  13.847 -0.6653  0.2068  0.2182
 3531SOL     OW22228   0.650   3.443  17.236 -0.0970  0.3560  0.6014
 3531SOL    HW122229   0.565   3.451  17.193 -0.8095 -0.6643  1.8308
 3531SOL    HW222230   0.630   3.475  17.324  0.9061  1.3069  0.4883
 3532SOL     OW22231   0.931   4.500   4.996  0.4415  0.6304 -0.2579
 3532SOL    HW122232   0.999   4.435   5.010 -1.4636 -1.0949  1.0172
 3532SOL    HW222233   0.908   4.521   5.087  1.4155  0.4109  0.0320
 3533SOL     OW22234   2.736   2.021  13.219  0.1204 -0.1153  0.1838
 3533SOL    HW122235   2.683   1.945  13.243  3.0504 -2.4772 -0.6820
 3533SOL    HW222236   2.776   1.978  13.143 -2.5134 -1.2481 -0.5489
 3534SOL     OW22237   3.997   3.800   8.626  0.0492 -0.3789 -0.6834
 3534SOL    HW122238   4.031   3.846   8.549  0.2111  2.1403  0.9243
 3534SOL    HW222239   3.907   3.831   8.628  0.7488  1.5412  0.8520
 3535SOL     OW22240   2.334   1.322   6.249 -0.0523 -0.0423  0.1999
 3535SOL    HW122241   2.350   1.344   6.341 -1.3949 -0.4476  0.5252
 3535SOL    HW222242   2.344   1.399   6.193  0.8349  1.6880  2.7214
 3536SOL     OW22243   2.748   4.175   4.621  0.4281  0.4138 -0.0030
 3536SOL    HW122244   2.733   4.080   4.623 -2.0196  0.8373  1.1021
 3536SOL    HW222245   2.775   4.185   4.530 -0.5748  0.4123 -0.2989
 3537SOL     OW22246   1.899   4.567   4.765 -0.0867  0.0860  0.3798
 3537SOL    HW122247   1.879   4.643   4.821 -0.8897  0.6159 -0.6319
 3537SOL    HW222248   1.994   4.582   4.763  0.0606 -0.8411  0.3916
 3538SOL     OW22249   1.768   2.134   1.792 -0.1322 -0.3331 -0.5834
 3538SOL    HW122250   1.842   2.101   1.740 -0.0330 -2.0885  0.6700
 3538SOL    HW222251   1.807   2.204   1.845 -0.6740  1.7025 -2.8624
 3539SOL     OW22252   3.448   0.800   2.158  0.4161  0.5954  0.3853
 3539SOL    HW122253   3.475   0.711   2.135 -0.9317  0.2772 -0.0135
 3539SOL    HW222254   3.362   0.798   2.114  0.4136  0.6584  0.3874
 3540SOL     OW22255   3.132   2.905  16.723 -0.8264 -0.3181 -0.1680
 3540SOL    HW122256   3.217   2.920  16.764 -0.0795 -4.4200 -0.2553
 3540SOL    HW222257   3.151   2.848  16.648 -0.5642  1.7074 -1.6312
 3541SOL     OW22258   4.396   2.756   4.481 -0.0725 -0.6347 -0.1003
 3541SOL    HW122259   4.314   2.709   4.471  1.2487 -2.9866  0.0016
 3541SOL    HW222260   4.386   2.783   4.572  3.1832 -0.4357  0.2007
 3542SOL     OW22261   0.565   2.374  15.712 -0.8942 -0.0957 -0.0604
 3542SOL    HW122262   0.519   2.291  15.721  0.5684 -0.7730  1.1803
 3542SOL    HW222263   0.586   2.378  15.619  1.4657  0.8743  0.5038
 3543SOL     OW22264   2.665   0.968  16.187 -0.2672  0.2155 -0.2134
 3543SOL    HW122265   2.684   1.028  16.115 -1.3836 -1.0746 -1.5979
 3543SOL    HW222266   2.720   1.012  16.251 -1.7982  0.6411  0.7955
 3544SOL     OW22267   3.593   3.187   7.911  0.2868  0.2533  0.3767
 3544SOL    HW122268   3.572   3.098   7.940  0.2198  0.5763  1.2966
 3544SOL    HW222269   3.645   3.223   7.982 -0.5286  2.5540 -0.1787
 3545SOL     OW22270   0.143   0.546   2.477 -0.4316  0.1464  0.1625
 3545SOL    HW122271   0.067   0.510   2.431 -1.3430  2.2573  0.0007
 3545SOL    HW222272   0.114   0.619   2.532 -2.0875 -1.0116  0.8246
 3546SOL     OW22273   0.586   3.840   6.647 -0.4510  0.3044  0.3055
 3546SOL    HW122274   0.560   3.879   6.564 -2.7173  0.0879  0.9129
 3546SOL    HW222275   0.529   3.763   6.651  0.6921 -0.5622 -0.3450
 3547SOL     OW22276   0.545   2.948   6.432  0.1792 -0.0965 -0.0096
 3547SOL    HW122277   0.587   2.961   6.517 -1.4244  1.5485  0.5074
 3547SOL    HW222278   0.455   2.944   6.462 -0.2711 -1.1700 -1.5175
 3548SOL     OW22279   3.092   2.577   7.175  0.3465 -0.4059 -0.2582
 3548SOL    HW122280   3.005   2.552   7.206  0.0764 -0.9641 -1.4549
 3548SOL    HW222281   3.130   2.621   7.251  0.1041 -2.0098  0.8024
 3549SOL     OW22282   0.146   1.480   4.723  0.1398  0.4609  0.0168
 3549SOL    HW122283   0.072   1.442   4.675  0.0853 -0.3456  0.7289
 3549SOL    HW222284   0.185   1.406   4.770 -0.0421  0.6816  0.5252
 3550SOL     OW22285   3.460   4.735  10.689 -0.0613  0.0862  0.3228
 3550SOL    HW122286   3.400   0.060  10.726 -1.8908 -1.2906 -0.2530
 3550SOL    HW222287   3.479   0.022  10.599 -0.4762  1.7879  0.7431
 3551SOL     OW22288   2.175   4.556  10.010  0.7097 -0.3948 -0.3620
 3551SOL    HW122289   2.268   4.566   9.990  0.6910 -1.0775 -0.7968
 3551SOL    HW222290   2.160   4.650  10.021  1.6115 -0.3687  0.6179
 3552SOL     OW22291   0.930   0.183  13.388  0.1263 -0.2581  0.3716
 3552SOL    HW122292   0.855   0.238  13.366  1.3264  0.6598 -1.4724
 3552SOL    HW222293   0.956   0.210  13.476  2.3791 -0.5339 -0.2099
 3553SOL     OW22294   0.003   4.643   3.514 -0.2880 -0.6025 -0.3013
 3553SOL    HW122295   4.738   4.548   3.511 -0.0914 -0.6780  1.8157
 3553SOL    HW222296   4.729   4.655   3.608 -0.5406  1.5558 -0.6010
 3554SOL     OW22297   1.197   2.157   3.281  0.1429 -0.4416  0.0802
 3554SOL    HW122298   1.213   2.068   3.252 -1.4772 -0.2067 -1.4935
 3554SOL    HW222299   1.280   2.178   3.325  0.3913 -0.6490 -0.2962
 3555SOL     OW22300   0.194   0.317   3.981  0.0060  0.0056  0.5465
 3555SOL    HW122301   0.131   0.311   4.053  0.1578  2.5849  0.8979
 3555SOL    HW222302   0.274   0.320   4.034  0.0333  1.1972  0.4523
 3556SOL     OW22303   1.517   4.162   2.621 -0.4344  0.0300  0.5140
 3556SOL    HW122304   1.561   4.219   2.684 -0.5031 -1.3252  1.7673
 3556SOL    HW222305   1.500   4.080   2.665  0.7954  0.3162  1.5133
 3557SOL     OW22306   1.703   1.064   4.205 -0.3419 -0.6399  0.4353
 3557SOL    HW122307   1.712   1.002   4.278  1.9526  0.5266  1.1246
 3557SOL    HW222308   1.782   1.033   4.161 -0.1316  1.7796 -0.8954
 3558SOL     OW22309   4.211   2.582   6.656  0.3220  0.1865  0.4737
 3558SOL    HW122310   4.146   2.631   6.708  0.1006  0.4812 -0.0772
 3558SOL    HW222311   4.234   2.512   6.717  1.5939  1.1859  1.1449
 3559SOL     OW22312   0.519   3.840  12.470 -0.4779  0.5298  0.3668
 3559SOL    HW122313   0.561   3.853  12.555 -1.6458  2.2303  0.6857
 3559SOL    HW222314   0.599   3.825  12.420 -1.8380 -0.2440 -1.5928
 3560SOL     OW22315   0.526   1.813   4.125 -0.1600  0.0205 -0.4503
 3560SOL    HW122316   0.535   1.752   4.199 -0.5589 -1.9240 -2.0171
 3560SOL    HW222317   0.588   1.785   4.058 -0.4605 -1.0290 -0.2847
 3561SOL     OW22318   4.551   3.777   4.136  0.2676  0.0719  0.2037
 3561SOL    HW122319   4.473   3.833   4.139  1.5124  1.8920 -1.5730
 3561SOL    HW222320   4.559   3.771   4.041 -0.6076 -0.7964  0.1798
 3562SOL     OW22321   1.068   3.889   4.307  0.3815  0.2626  0.0208
 3562SOL    HW122322   1.107   3.846   4.230 -1.6023 -0.5283 -0.5517
 3562SOL    HW222323   1.016   3.959   4.268 -0.7612 -0.4992  0.1839
 3563SOL     OW22324   0.179   3.436   0.534 -0.4435  0.4835  0.3725
 3563SOL    HW122325   0.267   3.441   0.572 -1.9331  2.7931  3.4618
 3563SOL    HW222326   0.204   3.436   0.441 -1.5692 -0.5525  0.0675
 3564SOL     OW22327   0.824   1.413   5.721 -0.4304 -0.4838  0.0576
 3564SOL    HW122328   0.829   1.507   5.704  0.4471 -0.9176 -1.9773
 3564SOL    HW222329   0.732   1.405   5.694  0.0187 -0.2049 -1.5490
 3565SOL     OW22330   0.871   1.224  15.875  0.1514 -0.4780 -0.0798
 3565SOL    HW122331   0.897   1.233  15.967 -2.8157 -2.1684  0.9327
 3565SOL    HW222332   0.866   1.317  15.852  1.6498 -0.0280  1.4287
 3566SOL     OW22333   1.295   3.010  12.081 -0.3670  0.0881  0.2700
 3566SOL    HW122334   1.318   2.956  12.005 -1.2429  1.2671 -0.8298
 3566SOL    HW222335   1.337   3.086  12.040 -1.1263  1.4368  2.0170
 3567SOL     OW22336   4.425   2.326   9.624  0.0801  0.2713 -0.1651
 3567SOL    HW122337   4.390   2.243   9.592 -2.1015  0.5911  1.3518
 3567SOL    HW222338   4.500   2.299   9.676 -1.0135 -1.0502  0.7457
 3568SOL     OW22339   4.644   4.647   9.128 -0.3867 -0.2444 -0.3952
 3568SOL    HW122340   4.732   4.614   9.148  0.0491  0.3389 -1.3376
 3568SOL    HW222341   4.622   4.580   9.063  1.2199  0.8447 -2.0531
 3569SOL     OW22342   4.127   3.237   4.886  0.1359  0.0773  0.1577
 3569SOL    HW122343   4.044   3.284   4.895 -0.5336 -0.8596 -1.0569
 3569SOL    HW222344   4.186   3.309   4.861  2.6239 -1.7498  0.7784
 3570SOL     OW22345   4.320   1.325   4.298  0.3181 -0.5861 -0.1252
 3570SOL    HW122346   4.289   1.414   4.286 -0.6378 -0.8816  0.1404
 3570SOL    HW222347   4.270   1.313   4.379  1.1988  0.4365  0.5760
 3571SOL     OW22348   4.210   2.311   4.364  0.0457  0.4423 -0.0389
 3571SOL    HW122349   4.262   2.389   4.342  1.6329 -1.0100 -1.3465
 3571SOL    HW222350   4.132   2.360   4.393  0.6253  1.5713 -0.3632
 3572SOL     OW22351   0.121   4.110   4.890  0.5282  0.3288 -0.0408
 3572SOL    HW122352   0.211   4.129   4.865  0.6665 -0.1129  0.1251
 3572SOL    HW222353   0.102   4.178   4.954 -3.4754  0.0914 -0.9708
 3573SOL     OW22354   4.025   0.670   5.998  0.4003 -0.1719  0.7991
 3573SOL    HW122355   4.000   0.762   6.002  4.1983  0.8827 -0.1620
 3573SOL    HW222356   4.108   0.669   6.046  0.6223  1.0879  0.4445
 3574SOL     OW22357   2.448   4.623  15.367  0.4400  0.5036  0.2500
 3574SOL    HW122358   2.396   4.572  15.429  1.5397  0.6359  1.2731
 3574SOL    HW222359   2.497   4.681  15.425 -0.2051  1.9193 -0.6078
 3575SOL     OW22360   2.975   3.396   4.030  0.0125  0.7554 -0.5356
 3575SOL    HW122361   3.069   3.413   4.034  0.2246 -1.4500  3.2999
 3575SOL    HW222362   2.952   3.489   4.022  0.8805  0.9839 -0.3729
 3576SOL     OW22363   3.185   2.230  15.915 -0.6202  0.3440 -0.5496
 3576SOL    HW122364   3.263   2.179  15.890 -1.1856 -0.0089 -1.5929
 3576SOL    HW222365   3.144   2.247  15.830  0.0622  0.3609 -0.8822
 3577SOL     OW22366   3.874   3.540   6.530 -0.2846  0.1200  0.3784
 3577SOL    HW122367   3.827   3.476   6.583  1.6149 -0.4940  1.3178
 3577SOL    HW222368   3.965   3.516   6.544 -0.2454  0.5162  0.8328
 3578SOL     OW22369   0.530   3.189   5.203 -0.0402  0.4313  0.3841
 3578SOL    HW122370   0.624   3.175   5.215  0.3636  1.6903 -1.1828
 3578SOL    HW222371   0.501   3.153   5.287  0.4703  0.8551  0.7416
 3579SOL     OW22372   0.808   4.313   2.329  0.0077  0.2464 -0.1550
 3579SOL    HW122373   0.855   4.236   2.361  0.7669  1.7134  2.2727
 3579SOL    HW222374   0.791   4.276   2.243  0.7632 -0.1688 -0.1203
 3580SOL     OW22375   4.453   3.010   5.883 -0.6391  0.0665 -0.2729
 3580SOL    HW122376   4.520   2.962   5.835 -0.3373  0.4265 -0.2088
 3580SOL    HW222377   4.503   3.037   5.960 -3.6596  1.6916  1.1288
 3581SOL     OW22378   2.206   0.505   2.300  0.1380 -0.2144 -0.1533
 3581SOL    HW122379   2.143   0.436   2.278  0.6732 -0.2964 -1.4410
 3581SOL    HW222380   2.194   0.574   2.235 -2.1795  0.2610  0.7507
 3582SOL     OW22381   4.066   1.229   8.747  0.2768 -0.2626 -0.5619
 3582SOL    HW122382   4.024   1.286   8.683 -2.8046 -2.0126 -0.0753
 3582SOL    HW222383   4.107   1.296   8.801  0.0706  0.1258 -0.8947
 3583SOL     OW22384   0.280   0.840   3.661 -0.0488  0.6219  0.0912
 3583SOL    HW122385   0.258   0.841   3.568 -0.1246 -1.7768  0.0976
 3583SOL    HW222386   0.327   0.923   3.673  0.6637  0.1517  0.5294
 3584SOL     OW22387   3.196   3.006   4.001  0.0812  0.0421  0.3855
 3584SOL    HW122388   3.244   3.084   4.027 -0.2964  0.7881 -1.1667
 3584SOL    HW222389   3.168   2.963   4.082  0.3364 -0.4275  0.2217
 3585SOL     OW22390   3.431   1.913   2.818 -0.0759 -0.0681 -0.5729
 3585SOL    HW122391   3.344   1.952   2.828 -0.2451 -0.9346  1.3459
 3585SOL    HW222392   3.415   1.825   2.851  1.3278 -0.1972 -0.2358
 3586SOL     OW22393   2.696   3.443  16.126  0.0079  0.2985 -0.0500
 3586SOL    HW122394   2.600   3.448  16.134  0.0298  1.6553 -0.7308
 3586SOL    HW222395   2.719   3.531  16.155  2.2715  0.3050 -1.9073
 3587SOL     OW22396   1.924   0.489   7.399  0.2152  0.0979 -0.0702
 3587SOL    HW122397   2.015   0.479   7.371  0.6956 -0.6447  1.7829
 3587SOL    HW222398   1.889   0.404   7.371 -4.0226  2.5124 -2.1331
 3588SOL     OW22399   3.293   2.583  11.291 -0.1323 -0.2122 -0.5355
 3588SOL    HW122400   3.338   2.524  11.352 -2.2095  0.3715  1.5514
 3588SOL    HW222401   3.217   2.531  11.267 -0.0080 -1.1248  1.0700
 3589SOL     OW22402   2.208   2.076   0.609 -0.4475 -0.5125  0.6134
 3589SOL    HW122403   2.235   2.017   0.680  1.7247 -0.7420 -0.3895
 3589SOL    HW222404   2.168   2.024   0.539 -0.8216  0.3121  0.2110
 3590SOL     OW22405   4.011   4.207   4.578  0.1658 -0.4940 -0.6651
 3590SOL    HW122406   4.063   4.256   4.514  1.0485  0.9145  1.1202
 3590SOL    HW222407   3.931   4.197   4.527 -0.5397  1.9687 -0.0470
 3591SOL     OW22408   1.565   0.080  12.224 -0.5824  0.2484 -0.2449
 3591SOL    HW122409   1.634   0.134  12.184 -1.6798  2.5327  0.9046
 3591SOL    HW222410   1.589   0.083  12.317  0.8532  1.3647 -0.6368
 3592SOL     OW22411   2.867   1.162   0.496 -0.4812 -0.2390 -0.4181
 3592SOL    HW122412   2.819   1.207   0.426 -3.0568  1.1685  2.2654
 3592SOL    HW222413   2.892   1.236   0.551 -0.5249 -0.1762 -0.4814
 3593SOL     OW22414   2.495   0.363  13.877  1.0962 -0.2131 -0.4116
 3593SOL    HW122415   2.547   0.392  13.802 -0.0092  1.8333 -0.3961
 3593SOL    HW222416   2.484   0.438  13.935 -2.4560 -1.5278  0.6300
 3594SOL     OW22417   3.257   0.873   7.161  0.2443  0.4832 -0.1620
 3594SOL    HW122418   3.251   0.904   7.070 -3.0047 -0.2679 -0.2048
 3594SOL    HW222419   3.322   0.802   7.157 -2.1956 -1.8065  0.7600
 3595SOL     OW22420   4.499   1.250   9.944 -0.1343 -0.4038  0.3323
 3595SOL    HW122421   4.526   1.309   9.874 -1.0795  0.2021  0.4680
 3595SOL    HW222422   4.532   1.164   9.918 -0.6608 -0.4846 -0.0599
 3596SOL     OW22423   1.067   1.520   7.398 -0.6506 -0.2859 -0.1288
 3596SOL    HW122424   1.040   1.572   7.474 -0.6085  1.2770 -1.1895
 3596SOL    HW222425   1.157   1.553   7.392 -0.2627 -1.1116  1.0847
 3597SOL     OW22426   2.343   4.383   4.173 -0.3841 -0.5591 -0.5051
 3597SOL    HW122427   2.341   4.372   4.078 -0.8095  0.3361 -0.6010
 3597SOL    HW222428   2.284   4.311   4.194 -0.9525 -0.1454 -0.6637
 3598SOL     OW22429   2.407   3.005   7.267  0.0930 -0.0197 -0.2048
 3598SOL    HW122430   2.416   3.090   7.224  2.4990 -0.3679 -0.4238
 3598SOL    HW222431   2.400   3.034   7.357 -0.7784 -1.3114  0.1517
 3599SOL     OW22432   1.043   1.971   1.314  0.3733  0.0444 -0.2816
 3599SOL    HW122433   1.041   1.892   1.368 -1.5431 -0.6343 -1.3315
 3599SOL    HW222434   1.056   2.038   1.381 -0.0305 -0.2909  0.1373
 3600SOL     OW22435   4.470   2.313  10.968 -0.0514 -0.1115  0.0504
 3600SOL    HW122436   4.429   2.235  10.930  0.2839 -0.2707  0.0170
 3600SOL    HW222437   4.483   2.288  11.059 -2.0835  0.2791  0.4527
 3601SOL     OW22438   4.420   0.949   7.511  0.1941  0.1183 -0.5458
 3601SOL    HW122439   4.392   1.039   7.531 -1.8741 -0.5669 -0.3134
 3601SOL    HW222440   4.488   0.938   7.577 -1.6759 -2.5628  0.9095
 3602SOL     OW22441   0.098   2.949   8.525 -0.1001  0.6742 -0.3081
 3602SOL    HW122442   0.155   2.873   8.516 -0.1135  0.3625  2.0567
 3602SOL    HW222443   0.062   2.935   8.613 -0.4136 -0.1158 -0.5635
 3603SOL     OW22444   3.238   1.742   6.236  0.0780  0.3360 -0.2384
 3603SOL    HW122445   3.278   1.669   6.188 -1.2352 -1.1625  0.9184
 3603SOL    HW222446   3.143   1.727   6.226 -0.0989  1.2333  0.1132
 3604SOL     OW22447   3.821   3.183  12.236  0.1850  0.3711 -0.2075
 3604SOL    HW122448   3.813   3.123  12.310  1.6911  0.6287  0.1625
 3604SOL    HW222449   3.772   3.129  12.174 -0.2953  2.3949 -1.5901
 3605SOL     OW22450   2.824   3.945   5.626  0.1344  0.0313  0.4036
 3605SOL    HW122451   2.858   3.930   5.538  3.4883  0.0178  1.6784
 3605SOL    HW222452   2.821   3.854   5.658  0.5705 -0.3282 -0.5738
 3606SOL     OW22453   0.164   3.502  12.296 -0.1943  0.1610  0.4524
 3606SOL    HW122454   0.124   3.582  12.262 -2.1297 -1.8551 -1.9667
 3606SOL    HW222455   0.232   3.493  12.230 -1.1239 -1.7068 -0.2495
 3607SOL     OW22456   1.380   2.578   3.859  0.0675  0.1988  0.2604
 3607SOL    HW122457   1.314   2.646   3.854 -2.3936 -2.4818 -3.8688
 3607SOL    HW222458   1.443   2.600   3.790 -0.6202  1.6485  0.0946
 3608SOL     OW22459   4.703   2.919  15.004 -0.1001 -0.3377  0.3061
 3608SOL    HW122460   0.058   2.907  15.009  0.3495  2.2198 -1.7898
 3608SOL    HW222461   4.671   2.832  14.981  0.1052 -0.4506  0.4521
 3609SOL     OW22462   1.125   1.575  16.638  0.0288  0.1125 -0.2058
 3609SOL    HW122463   1.189   1.514  16.602  0.0761 -1.7296  2.9624
 3609SOL    HW222464   1.108   1.513  16.710 -0.0243  0.1920 -0.1504
 3610SOL     OW22465   2.816   2.935   9.770  0.1693  0.8039 -0.1736
 3610SOL    HW122466   2.784   2.923   9.859  4.2233 -1.7816  0.9667
 3610SOL    HW222467   2.745   2.987   9.734  0.7898  1.8971  0.1814
 3611SOL     OW22468   0.164   0.735  12.491 -0.1025 -0.2917 -0.1812
 3611SOL    HW122469   0.129   0.821  12.466  0.6281 -0.2348 -1.0162
 3611SOL    HW222470   0.166   0.741  12.586 -0.2181  1.4134 -0.2824
 3612SOL     OW22471   2.093   0.761   2.197  0.4334  0.2941 -0.0525
 3612SOL    HW122472   2.098   0.819   2.121 -0.2983 -0.5743 -0.7664
 3612SOL    HW222473   2.006   0.787   2.227  0.6131  0.4528  0.3298
 3613SOL     OW22474   1.163   3.746   8.799 -0.1391  0.0286 -0.4263
 3613SOL    HW122475   1.257   3.735   8.813 -0.5985 -1.9559  1.2315
 3613SOL    HW222476   1.153   3.839   8.819  1.2623  0.0773  0.0247
 3614SOL     OW22477   0.907   0.742  12.766 -0.8191  0.3142 -0.1979
 3614SOL    HW122478   0.828   0.692  12.748 -1.0129  1.2268 -1.9431
 3614SOL    HW222479   0.890   0.794  12.845  3.0002  0.8260  0.2991
 3615SOL     OW22480   1.885   0.698   6.547 -0.1123  0.1594 -0.1473
 3615SOL    HW122481   1.893   0.687   6.452  0.4952  1.6335 -0.2656
 3615SOL    HW222482   1.794   0.674   6.561  0.6144 -1.1412  2.4033
 3616SOL     OW22483   0.363   4.308   8.624  0.4208  0.3683  0.3574
 3616SOL    HW122484   0.317   4.351   8.696  1.9273  1.8962  0.4080
 3616SOL    HW222485   0.308   4.234   8.599 -0.6567  2.0235 -2.1940
 3617SOL     OW22486   3.464   2.966  12.168  0.3900  0.5372 -0.2796
 3617SOL    HW122487   3.469   2.991  12.076  0.3082 -0.9680 -0.7096
 3617SOL    HW222488   3.431   3.046  12.208 -0.2385  0.9832 -1.7042
 3618SOL     OW22489   1.709   4.400   5.320 -0.0555  0.6025  0.3526
 3618SOL    HW122490   1.688   4.318   5.276  0.8270  0.1944  0.6882
 3618SOL    HW222491   1.705   4.468   5.253 -0.9871  0.4185  0.2338
 3619SOL     OW22492   2.986   1.174   6.656 -0.1074 -0.0389  0.1997
 3619SOL    HW122493   3.040   1.155   6.579  2.0728  1.5382  1.3256
 3619SOL    HW222494   3.050   1.221   6.711  0.1735  1.2261 -1.2011
 3620SOL     OW22495   2.212   2.711   3.650  0.1302  0.7850 -0.4266
 3620SOL    HW122496   2.172   2.626   3.631 -1.2335  1.5546 -0.9608
 3620SOL    HW222497   2.254   2.683   3.732  0.2048 -0.0144 -0.7314
 3621SOL     OW22498   3.532   0.147   1.770 -0.7780 -0.1272  0.1210
 3621SOL    HW122499   3.562   0.148   1.861 -0.2399  0.2226 -0.0635
 3621SOL    HW222500   3.500   0.236   1.760  0.2076  0.1697 -0.3465
 3622SOL     OW22501   2.494   3.322  15.587 -0.2957  0.4038 -0.3795
 3622SOL    HW122502   2.433   3.277  15.645 -0.6086 -0.1260 -1.1182
 3622SOL    HW222503   2.489   3.260  15.515  1.9170  0.1872 -0.3511
 3623SOL     OW22504   4.069   1.051   8.069 -0.6195  0.0573  0.3693
 3623SOL    HW122505   3.985   1.090   8.093 -1.2483 -0.3150 -1.2160
 3623SOL    HW222506   4.072   0.972   8.124  3.1443  1.1029  1.6350
 3624SOL     OW22507   0.593   3.982   2.212 -0.2650 -0.3478  0.2738
 3624SOL    HW122508   0.584   4.062   2.265 -1.4656  0.1730 -0.7046
 3624SOL    HW222509   0.583   3.912   2.276  0.6018 -0.5792  0.1582
 3625SOL     OW22510   1.969   2.375   8.880  0.3637 -0.1008 -0.0067
 3625SOL    HW122511   1.974   2.457   8.831 -1.1309  1.2175  2.0511
 3625SOL    HW222512   1.874   2.364   8.883  0.6401 -1.7908  2.4704
 3626SOL     OW22513   4.035   2.806   9.527 -0.3276 -0.2365 -0.5516
 3626SOL    HW122514   4.130   2.799   9.539 -0.5070  1.0511  1.7157
 3626SOL    HW222515   4.014   2.838   9.615  2.3540 -0.8742  0.3316
 3627SOL     OW22516   2.020   1.810   0.168 -0.5805  0.2452 -0.0896
 3627SOL    HW122517   1.929   1.800   0.197  0.0364 -0.3681  1.5925
 3627SOL    HW222518   2.050   1.840   0.254 -3.8255 -1.0310  1.4932
 3628SOL     OW22519   1.267   3.876   3.599 -0.4042 -0.6545 -0.1422
 3628SOL    HW122520   1.271   3.840   3.511 -1.1160  0.5140 -0.6572
 3628SOL    HW222521   1.254   3.969   3.580 -2.7630 -1.3086 -1.6270
 3629SOL     OW22522   0.165   2.428   9.082  0.5184  0.0316 -0.5811
 3629SOL    HW122523   0.101   2.464   9.021  0.4330 -1.1237 -1.1532
 3629SOL    HW222524   0.236   2.418   9.019  1.3676  1.8153  0.0656
 3630SOL     OW22525   2.796   2.167  15.539 -0.5368  0.0050  0.0811
 3630SOL    HW122526   2.827   2.089  15.493 -1.2990 -0.8064  0.9283
 3630SOL    HW222527   2.737   2.136  15.608  2.4852  0.3759  2.7970
 3631SOL     OW22528   0.303   3.038   5.033  0.4552  0.0358 -0.2295
 3631SOL    HW122529   0.392   3.009   5.053  0.3648  0.2828  0.5461
 3631SOL    HW222530   0.284   2.964   4.974 -0.4203  1.0047 -1.1546
 3632SOL     OW22531   2.153   3.832   5.155  0.2400  0.6030 -0.0586
 3632SOL    HW122532   2.063   3.812   5.130  1.1006 -2.2221 -0.9655
 3632SOL    HW222533   2.199   3.766   5.102  0.5485 -0.5287  1.6167
 3633SOL     OW22534   2.745   0.778   2.326 -0.5347 -0.2864  0.0097
 3633SOL    HW122535   2.748   0.714   2.256 -0.8829  0.9685 -1.1431
 3633SOL    HW222536   2.673   0.738   2.375  0.4489  0.0161  1.7227
 3634SOL     OW22537   0.929   1.238   3.572  0.4419 -0.9150  0.0967
 3634SOL    HW122538   0.949   1.298   3.645  0.1549 -1.2838  0.4818
 3634SOL    HW222539   1.007   1.184   3.577  1.1730 -0.1281 -3.0467
 3635SOL     OW22540   1.781   4.180   0.744  0.6135  0.9340  0.4607
 3635SOL    HW122541   1.717   4.248   0.724  0.4220  1.0037  1.3184
 3635SOL    HW222542   1.788   4.184   0.839  2.6641 -0.9934  0.3978
 3636SOL     OW22543   2.438   3.594  15.537  0.3451  0.4168 -0.0762
 3636SOL    HW122544   2.526   3.611  15.569 -0.4881 -0.4124  2.6679
 3636SOL    HW222545   2.443   3.501  15.559  2.9316  0.7862  0.8624
 3637SOL     OW22546   3.367   2.409   3.297  0.5642  0.2315  0.1222
 3637SOL    HW122547   3.355   2.328   3.347 -2.3787  0.0441 -0.8638
 3637SOL    HW222548   3.328   2.479   3.348 -1.0866  1.2168 -2.4646
 3638SOL     OW22549   2.172   0.072  10.067  0.4705  0.0843 -0.4032
 3638SOL    HW122550   2.193   0.163  10.046  1.8395 -0.0909  0.2645
 3638SOL    HW222551   2.161   0.075  10.162 -0.1930 -0.5240 -0.4612
 3639SOL     OW22552   2.345   1.451   5.717 -0.3302  0.2071 -0.0592
 3639SOL    HW122553   2.400   1.440   5.639 -1.1936 -2.0869 -0.3270
 3639SOL    HW222554   2.374   1.375   5.766  0.0318  0.1528 -0.3553
 3640SOL     OW22555   2.126   3.324   8.266 -0.0093 -0.4890 -0.8025
 3640SOL    HW122556   2.152   3.254   8.326  1.5801  1.2194  0.4984
 3640SOL    HW222557   2.111   3.398   8.325  0.5682  0.7632 -2.2347
 3641SOL     OW22558   0.566   3.645  16.614 -0.0947  0.0549  0.2965
 3641SOL    HW122559   0.637   3.587  16.641 -0.9745 -0.0580  2.4299
 3641SOL    HW222560   0.589   3.732  16.648  1.4863 -2.1640  5.0185
 3642SOL     OW22561   4.399   0.970  16.408 -0.2033 -0.0334 -0.7179
 3642SOL    HW122562   4.489   0.992  16.383 -0.8889  1.0182 -2.2146
 3642SOL    HW222563   4.357   1.049  16.375 -0.1956  0.7243  1.0865
 3643SOL     OW22564   1.331   2.090   2.678 -0.2189 -0.2618  0.1931
 3643SOL    HW122565   1.406   2.096   2.619  0.3260  2.0061  1.1244
 3643SOL    HW222566   1.259   2.106   2.617 -0.1938 -0.2502  0.1667
 3644SOL     OW22567   2.842   2.135   6.626  0.1105  0.2978  0.3554
 3644SOL    HW122568   2.928   2.117   6.663 -0.5432 -0.9867  1.2421
 3644SOL    HW222569   2.864   2.132   6.533 -0.6382  0.1671  0.1783
 3645SOL     OW22570   1.726   3.025  11.560  0.3612  0.8664 -0.7965
 3645SOL    HW122571   1.713   3.120  11.564  1.2574  1.0595 -2.6258
 3645SOL    HW222572   1.711   3.008  11.467 -1.7488 -0.6713 -0.1672
 3646SOL     OW22573   1.626   1.622  17.542 -0.1904  0.2858  0.5415
 3646SOL    HW122574   1.721   1.630  17.527  0.0334 -0.3586  1.6056
 3646SOL    HW222575   1.609   1.688  17.610  0.6061  2.2182 -1.1161
 3647SOL     OW22576   4.025   3.623  10.969  0.2743  0.9559 -0.1467
 3647SOL    HW122577   3.992   3.711  10.950 -0.9313  1.0179  2.2174
 3647SOL    HW222578   4.001   3.591  10.882 -1.5090 -1.3063  1.1781
 3648SOL     OW22579   2.458   2.430  10.337 -0.0327  0.9869 -0.3893
 3648SOL    HW122580   2.429   2.412  10.247 -0.7147  0.7067 -0.1125
 3648SOL    HW222581   2.477   2.524  10.343 -1.9574  1.1605  2.5302
 3649SOL     OW22582   3.876   4.542   6.678  0.3741  0.3090 -0.4494
 3649SOL    HW122583   3.891   4.550   6.584 -0.6715 -2.5301 -0.8659
 3649SOL    HW222584   3.786   4.509   6.685  0.8534 -0.9987 -0.4256
 3650SOL     OW22585   1.496   4.440   1.951 -0.0629  0.1275  0.0360
 3650SOL    HW122586   1.461   4.355   1.923 -0.8494 -0.5533  3.1456
 3650SOL    HW222587   1.574   4.432   1.895 -0.0639  3.2977 -0.3966
 3651SOL     OW22588   1.864   3.319   6.475  0.1777 -0.4814  0.4766
 3651SOL    HW122589   1.900   3.256   6.412 -2.3260 -0.3708 -1.0591
 3651SOL    HW222590   1.829   3.385   6.415  0.0998  0.2284  1.3081
 3652SOL     OW22591   2.817   3.259  13.254 -0.6672 -0.5386 -0.1351
 3652SOL    HW122592   2.812   3.271  13.160  1.4148  0.1824 -0.1488
 3652SOL    HW222593   2.731   3.217  13.264 -0.5065 -0.6418  0.8243
 3653SOL     OW22594   3.138   2.894   3.505 -0.3802 -0.7086 -0.2279
 3653SOL    HW122595   3.058   2.927   3.544  0.4160  3.1399 -1.8333
 3653SOL    HW222596   3.193   2.890   3.584  2.7403  0.0744 -2.3464
 3654SOL     OW22597   3.185   1.825   4.794 -0.0439  0.8390  0.3409
 3654SOL    HW122598   3.094   1.836   4.820  0.5389  2.1330  1.7777
 3654SOL    HW222599   3.208   1.760   4.861  2.4054  2.0664  0.6782
 3655SOL     OW22600   2.448   3.237   9.930  0.1941 -0.3468  0.7384
 3655SOL    HW122601   2.472   3.323   9.964  0.0886 -0.2817  0.6455
 3655SOL    HW222602   2.517   3.224   9.865 -0.3346 -1.3424  0.3850
 3656SOL     OW22603   0.921   0.550  17.526  0.4947  0.3036 -0.0937
 3656SOL    HW122604   0.947   0.622  17.584 -0.8454  0.3308  0.4605
 3656SOL    HW222605   0.853   0.586  17.469  0.2816  0.3484  0.1899
 3657SOL     OW22606   1.643   1.007  16.074 -0.4988  0.0207 -0.1355
 3657SOL    HW122607   1.597   1.036  15.996 -1.6855  1.7547  1.1990
 3657SOL    HW222608   1.733   0.995  16.042 -0.3372 -1.7298  0.9697
 3658SOL     OW22609   1.586   3.656   4.716  0.1082  0.1340 -0.3891
 3658SOL    HW122610   1.574   3.602   4.638 -1.1576  0.6441 -0.5591
 3658SOL    HW222611   1.542   3.595   4.777 -1.8229  1.7383 -0.1651
 3659SOL     OW22612   2.491   1.511   2.530  0.0911 -0.3833  0.0164
 3659SOL    HW122613   2.475   1.514   2.436 -2.2695  0.8382  0.4435
 3659SOL    HW222614   2.473   1.418   2.543  0.2515 -0.6461 -1.7153
 3660SOL     OW22615   1.991   2.269   6.859  0.1215  0.4969  0.3956
 3660SOL    HW122616   1.957   2.193   6.812  0.8661  1.2398 -1.3679
 3660SOL    HW222617   1.946   2.343   6.818 -0.3149  0.9773  1.7638
 3661SOL     OW22618   1.523   0.042   7.865  0.4773 -0.0546 -0.3375
 3661SOL    HW122619   1.606   0.088   7.872  0.2533  0.2776  0.1014
 3661SOL    HW222620   1.470   0.121   7.873  1.0724  0.0421  2.7122
 3662SOL     OW22621   2.660   2.004   6.883  0.0383  0.2540 -0.1294
 3662SOL    HW122622   2.744   1.958   6.885 -0.2888 -0.3023  0.7560
 3662SOL    HW222623   2.681   2.076   6.942  1.7094 -0.8976  0.6683
 3663SOL     OW22624   3.717   1.799   7.433 -0.3556  0.5830  0.2158
 3663SOL    HW122625   3.647   1.783   7.497  0.7589 -2.9503  0.5756
 3663SOL    HW222626   3.671   1.816   7.351  1.3049  0.5875 -0.7226
 3664SOL     OW22627   2.210   2.570  13.924 -0.7384 -0.2895  0.0515
 3664SOL    HW122628   2.220   2.490  13.873 -0.8758 -0.3147  0.0664
 3664SOL    HW222629   2.137   2.621  13.890  1.1271  2.4077  0.0368
 3665SOL     OW22630   3.470   0.795   4.031  0.0635 -0.0599  0.2178
 3665SOL    HW122631   3.461   0.837   4.116 -1.1117  0.2520 -0.0579
 3665SOL    HW222632   3.447   0.869   3.975 -1.1053 -0.8853 -0.4082
 3666SOL     OW22633   2.081   3.960   7.078 -0.2080  0.2221 -0.0226
 3666SOL    HW122634   2.080   3.883   7.135 -1.8135  1.3830  1.5123
 3666SOL    HW222635   1.988   3.950   7.058 -0.4041 -0.0487  1.0515
 3667SOL     OW22636   2.371   0.586  16.833  0.3732 -0.2458 -0.7099
 3667SOL    HW122637   2.299   0.568  16.772 -0.5328 -2.0443  0.8776
 3667SOL    HW222638   2.449   0.548  16.792  1.3456 -0.9679  1.8546
 3668SOL     OW22639   3.787   1.080  17.618  0.0566 -0.9672 -0.4034
 3668SOL    HW122640   3.782   1.007  17.681  1.4890  2.0915  3.2597
 3668SOL    HW222641   3.858   1.135  17.651  0.0361 -1.8716  1.1799
 3669SOL     OW22642   2.321   3.047   3.671  0.2397  0.0427  0.4195
 3669SOL    HW122643   2.382   2.976   3.649  0.5391  0.8280 -1.2348
 3669SOL    HW222644   2.243   3.000   3.701  0.1181  0.0185  0.0535
 3670SOL     OW22645   1.321   2.591  12.018 -0.3514 -0.1208  0.1761
 3670SOL    HW122646   1.359   2.671  11.981 -3.1915  1.8172  1.4652
 3670SOL    HW222647   1.315   2.540  11.938 -1.3250  1.6421 -0.8829
 3671SOL     OW22648   4.234   4.026   2.855 -0.6239  0.3946  0.3707
 3671SOL    HW122649   4.185   4.107   2.840  1.0221  1.6900  2.0696
 3671SOL    HW222650   4.194   3.959   2.799  0.0867  0.3242 -0.0463
 3672SOL     OW22651   4.473   1.779   5.585  0.0270 -0.3493 -0.2814
 3672SOL    HW122652   4.511   1.866   5.599  1.6643 -1.2715  0.9511
 3672SOL    HW222653   4.404   1.804   5.523  1.3402  0.2897 -1.4908
 3673SOL     OW22654   4.318   4.129   5.941  0.4750 -0.4042  0.3714
 3673SOL    HW122655   4.357   4.074   5.873 -2.7505 -2.5619  0.2745
 3673SOL    HW222656   4.383   4.199   5.947  0.0196 -0.0657  1.2272
 3674SOL     OW22657   4.555   0.237   3.746  0.6572 -0.4048 -0.5058
 3674SOL    HW122658   4.544   0.187   3.828  3.5847 -3.0035 -1.6785
 3674SOL    HW222659   4.648   0.259   3.742  0.7777 -0.7844  0.0543
 3675SOL     OW22660   1.330   3.199  14.822 -0.2858 -0.5172 -0.1030
 3675SOL    HW122661   1.244   3.190  14.864 -0.7248 -1.7666 -1.2726
 3675SOL    HW222662   1.379   3.164  14.896 -0.9054 -0.3076  0.4126
 3676SOL     OW22663   3.944   1.310   8.216 -0.3834  0.0484  0.1774
 3676SOL    HW122664   3.948   1.241   8.283 -2.4616  0.5396  0.8100
 3676SOL    HW222665   4.038   1.304   8.203 -0.2887 -1.9884  1.6901
 3677SOL     OW22666   2.208   0.404   3.137  0.0166  0.0481 -0.3656
 3677SOL    HW122667   2.241   0.469   3.075 -1.9191  0.4401 -1.0136
 3677SOL    HW222668   2.127   0.446   3.167 -0.4632 -1.4133  0.3723
 3678SOL     OW22669   2.323   3.876   4.848  0.5483  0.0898 -0.3671
 3678SOL    HW122670   2.360   3.948   4.899  0.7116  0.1716 -0.5984
 3678SOL    HW222671   2.349   3.916   4.765  1.1697 -1.1800 -0.7885
 3679SOL     OW22672   4.006   4.127   7.672  0.3717  0.7095  0.0720
 3679SOL    HW122673   3.927   4.075   7.658 -0.4826  2.6723 -2.4024
 3679SOL    HW222674   4.050   4.130   7.587 -1.3568  0.0446 -0.8358
 3680SOL     OW22675   1.093   0.102   4.876 -0.1104 -0.1226 -0.2734
 3680SOL    HW122676   1.159   0.106   4.806  0.1023 -2.7443 -0.2266
 3680SOL    HW222677   1.125   0.166   4.940 -0.7659 -1.6382  1.5487
 3681SOL     OW22678   1.914   0.704   5.684  0.0398 -0.2269  0.2192
 3681SOL    HW122679   1.841   0.762   5.664 -1.6750 -2.4576  0.0356
 3681SOL    HW222680   1.956   0.707   5.598  0.6759 -3.8680  0.4012
 3682SOL     OW22681   4.524   0.828  10.087 -0.9438  0.2387 -0.1626
 3682SOL    HW122682   4.582   0.881  10.032 -2.3031  1.8480 -0.0511
 3682SOL    HW222683   4.594   0.783  10.134  0.1782  0.5711 -1.5486
 3683SOL     OW22684   4.675   3.127   4.902 -0.1580 -0.0488 -0.0742
 3683SOL    HW122685   4.731   3.117   4.824 -0.5040 -0.7776 -0.2299
 3683SOL    HW222686   4.665   3.038   4.936 -0.9802 -0.4840 -1.4488
 3684SOL     OW22687   0.265   1.196   7.839 -0.8386  0.3414  0.0582
 3684SOL    HW122688   0.340   1.175   7.783 -0.1426 -0.6704  1.3872
 3684SOL    HW222689   0.278   1.288   7.859 -1.0297 -0.3442  3.2940
 3685SOL     OW22690   1.980   3.775   8.701 -0.0999 -0.7049 -0.6196
 3685SOL    HW122691   2.020   3.749   8.618  0.5592  2.5428 -1.2934
 3685SOL    HW222692   2.038   3.740   8.769  1.0982  1.1662 -0.6985
 3686SOL     OW22693   4.040   1.831   7.245  0.1332 -0.2602 -0.3484
 3686SOL    HW122694   3.987   1.885   7.304  0.5123 -0.4734  0.1833
 3686SOL    HW222695   4.111   1.894   7.232 -0.1115 -0.1610 -1.2170
 3687SOL     OW22696   0.445   4.287  15.798 -0.5605  0.7904  0.0774
 3687SOL    HW122697   0.392   4.283  15.718 -1.1050  0.8617  0.4364
 3687SOL    HW222698   0.454   4.193  15.816 -0.6274  1.2945  2.6661
 3688SOL     OW22699   0.319   0.379   8.681  0.7792 -0.2172 -0.5134
 3688SOL    HW122700   0.395   0.322   8.670 -0.1993 -1.3321 -1.4790
 3688SOL    HW222701   0.326   0.449   8.616 -0.0215 -0.6035 -1.0197
 3689SOL     OW22702   0.432   2.612   3.938  0.2295 -0.2104  0.0616
 3689SOL    HW122703   0.465   2.548   3.874  1.0415  1.3831 -1.1221
 3689SOL    HW222704   0.413   2.695   3.894  0.8892 -0.6209 -1.0357
 3690SOL     OW22705   3.991   3.094   9.732  0.1128 -0.3558  0.5873
 3690SOL    HW122706   3.988   3.000   9.749  0.3517 -0.3186  0.8269
 3690SOL    HW222707   3.939   3.128   9.804 -2.0371  1.5635 -1.8652
 3691SOL     OW22708   4.318   0.400  12.521 -0.1309 -0.8107  0.1485
 3691SOL    HW122709   4.344   0.314  12.489  2.1760 -0.2401  0.4798
 3691SOL    HW222710   4.278   0.439  12.443  0.8171  0.3892  0.2696
 3692SOL     OW22711   4.590   3.302   5.226  0.1311 -0.5802 -0.3850
 3692SOL    HW122712   4.629   3.359   5.293 -0.7524  0.7840 -1.0197
 3692SOL    HW222713   4.525   3.363   5.191 -1.4710 -1.8923  0.3090
 3693SOL     OW22714   3.021   4.419   6.800 -0.6077  0.3198  0.0719
 3693SOL    HW122715   2.943   4.362   6.800 -0.1038 -0.3882 -1.9809
 3693SOL    HW222716   3.032   4.414   6.705 -1.9659  0.3506 -0.0951
 3694SOL     OW22717   1.466   3.283   8.215  0.0701  0.1431  0.2284
 3694SOL    HW122718   1.558   3.261   8.210  0.2359  0.3322  2.3978
 3694SOL    HW222719   1.452   3.330   8.133 -1.1664 -1.3610 -0.4304
 3695SOL     OW22720   3.148   0.001   3.821  0.6955  0.5596  0.3152
 3695SOL    HW122721   3.219   0.043   3.868  1.9971  2.3105 -3.2193
 3695SOL    HW222722   3.098   0.068   3.774  2.5318  0.9829 -1.0223
 3696SOL     OW22723   0.573   4.309   2.552  0.1778 -0.9514 -0.6973
 3696SOL    HW122724   0.642   4.327   2.489  1.5340  1.1638  1.3863
 3696SOL    HW222725   0.509   4.251   2.511 -0.8350 -0.5858  0.3348
 3697SOL     OW22726   4.088   2.739   2.356 -0.4422  0.0460  0.0233
 3697SOL    HW122727   4.027   2.805   2.389  0.8269 -0.0269  2.5406
 3697SOL    HW222728   4.025   2.680   2.316 -0.2886  0.2432 -0.5191
 3698SOL     OW22729   2.892   0.317   8.107  0.2371  0.8122 -0.2714
 3698SOL    HW122730   2.869   0.354   8.193 -0.8255 -0.4643 -0.0007
 3698SOL    HW222731   2.912   0.397   8.059  2.1282  0.3865 -0.1660
 3699SOL     OW22732   0.649   0.330   4.410  0.3614 -0.1012 -0.5208
 3699SOL    HW122733   0.716   0.262   4.410  1.5270  1.0345  0.0198
 3699SOL    HW222734   0.572   0.285   4.444 -0.4748 -0.8627 -3.4103
 3700SOL     OW22735   1.306   1.621   7.326 -0.2140 -0.8419 -0.5600
 3700SOL    HW122736   1.336   1.590   7.241  1.2489 -0.1128 -0.3070
 3700SOL    HW222737   1.369   1.691   7.341 -0.9963 -0.2281 -0.0957
 3701SOL     OW22738   4.612   4.249   4.516  0.5764  0.1213 -0.2405
 3701SOL    HW122739   4.628   4.278   4.426 -3.8327  3.0233 -0.1061
 3701SOL    HW222740   4.677   4.303   4.561 -0.1820  2.6137 -2.1072
 3702SOL     OW22741   3.625   2.192   3.075  0.2390 -0.1587 -0.1623
 3702SOL    HW122742   3.579   2.261   3.027 -1.0712  0.0719  1.4347
 3702SOL    HW222743   3.549   2.148   3.113 -0.0427  1.9612  1.7469
 3703SOL     OW22744   1.265   0.572   1.258  0.4235  0.1063 -0.6017
 3703SOL    HW122745   1.310   0.496   1.292 -0.8846 -0.1996  0.4394
 3703SOL    HW222746   1.221   0.535   1.181  1.2613 -0.1310 -0.9631
 3704SOL     OW22747   2.147   2.203   7.845  0.6740  0.1305  0.5191
 3704SOL    HW122748   2.207   2.132   7.822  1.1809  0.7933 -0.2126
 3704SOL    HW222749   2.201   2.247   7.911 -1.2344  2.9449  0.1974
 3705SOL     OW22750   3.075   1.075   5.494 -0.3794  0.2767 -0.4894
 3705SOL    HW122751   3.097   1.167   5.512 -0.3705  0.1018  0.4011
 3705SOL    HW222752   3.115   1.031   5.569 -0.5537 -0.4300 -0.8154
 3706SOL     OW22753   0.271   0.667   5.726  0.0113  0.5571  0.2394
 3706SOL    HW122754   0.178   0.666   5.707 -0.4270 -1.6526  2.5362
 3706SOL    HW222755   0.298   0.737   5.785 -1.0948  0.6744  0.5988
 3707SOL     OW22756   2.543   2.476   4.137 -0.6405  0.2424 -0.2672
 3707SOL    HW122757   2.525   2.570   4.143 -1.5255  0.0701 -0.3403
 3707SOL    HW222758   2.588   2.468   4.052 -0.0920 -0.1273  0.0609
 3708SOL     OW22759   2.353   0.661  14.649  0.2321  0.2227 -0.6846
 3708SOL    HW122760   2.304   0.580  14.643 -0.5795  0.6782 -0.2311
 3708SOL    HW222761   2.338   0.691  14.739  1.4997 -0.0643 -0.3713
 3709SOL     OW22762   2.080   0.122  13.947 -0.1644  0.1290 -0.7664
 3709SOL    HW122763   2.154   0.087  13.898 -0.5978  1.0380 -2.0636
 3709SOL    HW222764   2.068   0.208  13.906 -1.1782  0.4447  0.1791
 3710SOL     OW22765   4.320   4.576   6.992 -0.1765  0.0887  0.2260
 3710SOL    HW122766   4.316   4.603   6.901  3.8098 -2.7471 -0.7959
 3710SOL    HW222767   4.232   4.544   7.010  0.5006 -0.8070  1.9930
 3711SOL     OW22768   3.959   1.752  14.882  0.4289  0.9180 -0.3875
 3711SOL    HW122769   3.911   1.836  14.882 -1.6550 -0.2710  0.9990
 3711SOL    HW222770   3.893   1.693  14.847 -1.3969  1.8318  1.5030
 3712SOL     OW22771   2.423   3.227   7.135 -0.1012  0.1777 -0.2396
 3712SOL    HW122772   2.460   3.313   7.116  0.0929  0.0220 -0.5617
 3712SOL    HW222773   2.374   3.216   7.054 -0.3695  1.2313 -0.2235
 3713SOL     OW22774   3.480   2.227   7.029 -0.0972 -0.5230 -0.1284
 3713SOL    HW122775   3.529   2.192   7.104 -0.9606  0.9589  1.1268
 3713SOL    HW222776   3.418   2.286   7.070  0.7403  0.3567 -0.1177
 3714SOL     OW22777   0.319   3.173   8.346  0.7118 -0.0917  0.4587
 3714SOL    HW122778   0.258   3.125   8.289  0.0895  2.4533 -0.9914
 3714SOL    HW222779   0.394   3.173   8.287 -0.1899  1.7730 -0.6790
 3715SOL     OW22780   3.687   3.157  15.680 -0.2397  0.5154  0.5909
 3715SOL    HW122781   3.774   3.128  15.649 -1.3256  0.8926 -2.8076
 3715SOL    HW222782   3.651   3.196  15.600  0.2765 -1.1657 -0.4662
 3716SOL     OW22783   1.930   1.854  16.381  0.0759  0.0514 -0.3787
 3716SOL    HW122784   1.850   1.862  16.330 -1.0337  0.4272  1.4313
 3716SOL    HW222785   1.995   1.892  16.321  0.9039 -0.8194 -0.0329
 3717SOL     OW22786   2.257   4.228   8.308  0.7336 -0.7457 -0.4395
 3717SOL    HW122787   2.256   4.281   8.229  0.9433  1.2814  0.9304
 3717SOL    HW222788   2.178   4.269   8.344  2.2103  0.9503  0.9029
 3718SOL     OW22789   1.267   3.187   2.739 -0.4981  0.0901 -0.3497
 3718SOL    HW122790   1.229   3.171   2.653  0.6362 -0.6943 -0.7050
 3718SOL    HW222791   1.237   3.109   2.786  0.9021 -1.1160 -1.4523
 3719SOL     OW22792   0.347   3.874  10.608 -0.5338  0.7890  0.3440
 3719SOL    HW122793   0.354   3.968  10.623 -0.5194  1.3678 -3.3440
 3719SOL    HW222794   0.304   3.879  10.523 -1.0198 -0.2208  0.5249
 3720SOL     OW22795   4.363   4.294   6.666  0.0314  0.8060  0.0527
 3720SOL    HW122796   4.300   4.301   6.595 -1.6139  3.2281  1.7783
 3720SOL    HW222797   4.412   4.215   6.640  1.8093  1.9215 -0.0119
 3721SOL     OW22798   0.940   2.910   5.939 -0.2951 -0.0619 -0.6217
 3721SOL    HW122799   0.874   2.979   5.946  1.4176  1.4128  0.9470
 3721SOL    HW222800   0.957   2.917   5.845  2.0374 -1.9322 -0.3386
 3722SOL     OW22801   1.312   2.210   0.317  0.2606 -0.3774 -0.0266
 3722SOL    HW122802   1.358   2.293   0.306  0.7949 -0.7502 -0.5669
 3722SOL    HW222803   1.362   2.153   0.260  0.3775 -0.8202  0.5149
 3723SOL     OW22804   4.486   4.506   2.648 -0.0973 -0.1576  0.3646
 3723SOL    HW122805   4.438   4.588   2.643 -1.4440 -0.7767  2.8321
 3723SOL    HW222806   4.551   4.535   2.712 -1.5560 -1.7513  2.5887
 3724SOL     OW22807   2.082   0.755   1.685 -0.4172  0.1970  0.1153
 3724SOL    HW122808   1.994   0.779   1.655 -0.5861  2.1042  2.0895
 3724SOL    HW222809   2.067   0.712   1.768  2.4076  0.5058  0.8078
 3725SOL     OW22810   4.661   4.283   2.181  0.0229 -0.0504  0.2310
 3725SOL    HW122811   4.634   4.283   2.273 -0.8556 -1.0183 -0.0282
 3725SOL    HW222812   4.579   4.317   2.145 -0.6253  0.4193  2.1762
 3726SOL     OW22813   0.438   0.160   7.631  0.0188  0.2105  0.1443
 3726SOL    HW122814   0.365   0.175   7.572  0.6387 -2.3347 -1.2585
 3726SOL    HW222815   0.514   0.182   7.577 -0.8928 -1.9608 -2.0052
 3727SOL     OW22816   2.249   2.760   3.016 -0.0043 -0.5881  0.1088
 3727SOL    HW122817   2.168   2.805   3.040  0.3855 -0.9470  2.1375
 3727SOL    HW222818   2.300   2.821   2.962  0.2019  0.0449  1.0077
 3728SOL     OW22819   1.998   2.150   8.451  0.2217  0.0689 -0.0211
 3728SOL    HW122820   2.017   2.153   8.357  0.9497 -1.1930  0.0803
 3728SOL    HW222821   2.076   2.101   8.475 -0.4483 -0.5819  0.8333
 3729SOL     OW22822   2.257   2.879   5.020 -0.0226 -0.5089 -0.2174
 3729SOL    HW122823   2.305   2.826   5.084 -1.3580 -0.0075  1.2065
 3729SOL    HW222824   2.170   2.870   5.059 -0.1293 -3.1131 -1.0645
 3730SOL     OW22825   4.111   0.006   6.236 -0.0293  0.0301  0.3502
 3730SOL    HW122826   4.206   0.012   6.241  0.1373 -0.3455 -2.2822
 3730SOL    HW222827   4.084   0.086   6.281  0.1661  0.1109  0.3233
 3731SOL     OW22828   0.347   2.651  11.603  0.0245 -0.0417 -0.0311
 3731SOL    HW122829   0.372   2.644  11.695  0.9796 -0.0093 -0.2846
 3731SOL    HW222830   0.255   2.677  11.611 -0.1606 -0.6540 -0.1600
 3732SOL     OW22831   3.036   1.171   1.041 -0.1193 -1.4718 -0.0859
 3732SOL    HW122832   2.977   1.136   0.974  0.6671 -1.6295 -0.6899
 3732SOL    HW222833   2.979   1.178   1.118 -0.0448  2.5483 -0.3955
 3733SOL     OW22834   1.442   1.714   3.916 -0.3018  0.4413  0.1100
 3733SOL    HW122835   1.455   1.670   4.000 -3.7478  0.8698  0.8371
 3733SOL    HW222836   1.515   1.695   3.857 -1.9851  0.9662 -2.1474
 3734SOL     OW22837   3.379   2.344   2.998 -0.1768 -0.5931  0.1270
 3734SOL    HW122838   3.314   2.371   2.933  0.8056 -1.9944 -1.4271
 3734SOL    HW222839   3.342   2.259   3.024  2.0315 -2.1395 -1.7895
 3735SOL     OW22840   4.182   4.153  17.220  0.1517  0.3269  0.7086
 3735SOL    HW122841   4.185   4.243  17.188 -0.7351  0.6595  1.5594
 3735SOL    HW222842   4.109   4.121  17.168  0.1521  2.6777 -0.7412
 3736SOL     OW22843   1.116   0.273  16.680 -0.2208  0.0920  0.5172
 3736SOL    HW122844   1.125   0.368  16.689 -0.3124  0.1858 -0.3673
 3736SOL    HW222845   1.208   0.245  16.689 -0.1808  0.1031  0.1118
 3737SOL     OW22846   2.313   0.419   6.478  0.4062  0.3032 -0.4318
 3737SOL    HW122847   2.247   0.465   6.530 -0.1830 -1.9233  0.7847
 3737SOL    HW222848   2.340   0.350   6.538  0.2314  1.6029  1.1363
 3738SOL     OW22849   2.398   0.778   3.113  0.7974  0.2453 -0.0222
 3738SOL    HW122850   2.388   0.744   3.203  1.1127  2.0073  0.6768
 3738SOL    HW222851   2.376   0.715   3.044  1.7688 -0.8507  0.6726
 3739SOL     OW22852   0.818   3.165   8.154 -0.4860 -0.0660 -0.4347
 3739SOL    HW122853   0.805   3.242   8.100 -2.2117 -0.2658 -0.2938
 3739SOL    HW222854   0.909   3.162   8.184 -0.0185 -5.0214 -2.3056
 3740SOL     OW22855   0.530   1.698   8.222  0.4483  0.5992 -0.0981
 3740SOL    HW122856   0.609   1.721   8.271 -0.1033 -1.0953  1.5771
 3740SOL    HW222857   0.485   1.654   8.294  1.1077 -0.3362 -0.2421
 3741SOL     OW22858   0.816   1.166   8.376  0.0649 -0.0130  0.6639
 3741SOL    HW122859   0.868   1.213   8.442  2.0178 -0.4076 -0.5733
 3741SOL    HW222860   0.742   1.132   8.427 -0.1753  0.4098  0.5994
 3742SOL     OW22861   2.572   2.732   1.596 -0.2536  0.1846  0.1677
 3742SOL    HW122862   2.490   2.768   1.631  0.6793  1.8492  0.6407
 3742SOL    HW222863   2.619   2.814   1.582 -0.4657  0.4803  1.1850
 3743SOL     OW22864   0.577   3.695   7.298 -0.2297  0.0913  0.1560
 3743SOL    HW122865   0.538   3.687   7.211 -0.9775 -0.5029  0.5490
 3743SOL    HW222866   0.566   3.790   7.307 -2.0843 -0.3039  1.9565
 3744SOL     OW22867   1.760   2.500   6.502  0.2441 -0.4987 -0.3015
 3744SOL    HW122868   1.823   2.565   6.470  0.0624  0.3778  1.1441
 3744SOL    HW222869   1.683   2.536   6.458  1.1170  1.4179 -0.2613
 3745SOL     OW22870   0.564   2.715   4.129 -0.2056 -0.6185 -0.0030
 3745SOL    HW122871   0.656   2.688   4.134  0.1604  0.4949 -0.8320
 3745SOL    HW222872   0.532   2.665   4.054 -1.0530  0.8066 -0.5967
 3746SOL     OW22873   3.770   4.134   8.396 -0.1271 -0.2099  0.0778
 3746SOL    HW122874   3.784   4.039   8.394  3.5917  0.2824  1.5520
 3746SOL    HW222875   3.862   4.158   8.411 -0.8259  4.0262 -2.4219
 3747SOL     OW22876   1.964   3.045   6.794  0.0055  0.3174 -0.2065
 3747SOL    HW122877   1.912   3.124   6.808 -2.6407 -1.0892 -2.1208
 3747SOL    HW222878   1.908   2.971   6.817  1.3983 -0.3139  1.1495
 3748SOL     OW22879   0.376   3.787   8.173  0.0492 -0.2337 -0.8596
 3748SOL    HW122880   0.469   3.808   8.187 -0.1455 -0.6690  1.0394
 3748SOL    HW222881   0.375   3.692   8.174  0.4375 -0.2324 -0.4095
 3749SOL     OW22882   1.846   1.646   2.820 -0.3567 -0.0975  0.1673
 3749SOL    HW122883   1.766   1.608   2.785  0.5362 -0.0236 -1.9352
 3749SOL    HW222884   1.915   1.602   2.771 -0.4524  0.2430 -0.2711
 3750SOL     OW22885   1.249   3.968   6.558  0.2073  0.3294  0.8262
 3750SOL    HW122886   1.286   4.030   6.620 -0.9039 -2.3813  4.1680
 3750SOL    HW222887   1.186   3.928   6.617  0.1614 -1.0090 -0.1185
 3751SOL     OW22888   1.615   2.616   6.135 -0.0587 -0.5574  0.1546
 3751SOL    HW122889   1.703   2.651   6.144 -0.5208  1.1802 -1.9567
 3751SOL    HW222890   1.606   2.563   6.214  0.6109  1.7204  1.7455
 3752SOL     OW22891   3.800   3.940   4.829 -0.6966  0.5056  0.8356
 3752SOL    HW122892   3.846   3.893   4.898  0.0005 -1.6104 -1.0433
 3752SOL    HW222893   3.757   3.863   4.791  0.6614 -0.2705  0.8827
 3753SOL     OW22894   1.180   0.303  15.732 -0.2452 -0.0559 -0.0500
 3753SOL    HW122895   1.086   0.287  15.730  0.0181 -1.3144 -1.8884
 3753SOL    HW222896   1.193   0.357  15.810  0.3644 -1.4021  0.7931
 3754SOL     OW22897   4.433   3.062   9.430 -0.4574 -0.2986 -0.3405
 3754SOL    HW122898   4.421   3.013   9.512 -0.3865  0.6544  0.2293
 3754SOL    HW222899   4.358   3.037   9.375 -1.2247  0.7839  0.2071
 3755SOL     OW22900   0.896   3.999   8.078 -0.0470  0.5128 -0.3467
 3755SOL    HW122901   0.955   4.040   8.015  1.1663 -1.6121 -0.5838
 3755SOL    HW222902   0.842   4.073   8.108  1.7198  1.7595 -0.2452
 3756SOL     OW22903   0.629   3.557   0.913  0.2743  0.3942  0.3405
 3756SOL    HW122904   0.621   3.630   0.852  0.2929  0.5842  0.5663
 3756SOL    HW222905   0.537   3.542   0.936  1.2708 -1.6558  3.0688
 3757SOL     OW22906   3.556   3.388  12.944  0.3727  0.3811 -0.0767
 3757SOL    HW122907   3.518   3.330  12.878 -2.4539  1.1328  0.8720
 3757SOL    HW222908   3.550   3.329  13.019  3.3851  0.0652 -0.1080
 3758SOL     OW22909   1.524   3.352   3.937 -0.1868  0.1396  0.3274
 3758SOL    HW122910   1.608   3.399   3.933 -0.0784 -0.0995 -0.1539
 3758SOL    HW222911   1.536   3.317   4.026  1.2929  1.9157  0.8405
 3759SOL     OW22912   3.617   0.310   7.441  0.7872  0.2130  0.0861
 3759SOL    HW122913   3.683   0.257   7.484  1.1162  1.1767  0.7742
 3759SOL    HW222914   3.667   0.377   7.393  0.9480  0.4211  0.5446
 3760SOL     OW22915   3.014   3.473   0.204  0.6888  0.8391  0.0623
 3760SOL    HW122916   3.101   3.496   0.173  0.7772  2.1408  1.2584
 3760SOL    HW222917   3.010   3.382   0.177  0.3005  0.5445  1.1112
 3761SOL     OW22918   4.708   1.985   2.088  0.1986  0.4789  0.6952
 3761SOL    HW122919   0.010   1.900   2.104  0.6387 -0.0623 -3.4135
 3761SOL    HW222920   0.041   2.046   2.103 -0.0036  0.4609  1.7411
 3762SOL     OW22921   4.311   0.125   4.610 -0.4732  0.2548 -0.0401
 3762SOL    HW122922   4.365   0.196   4.576 -0.7475 -1.1332 -3.3655
 3762SOL    HW222923   4.280   0.085   4.529 -1.5954  0.5145  0.2574
 3763SOL     OW22924   1.324   3.336   6.926 -0.4620 -0.2041  0.1964
 3763SOL    HW122925   1.329   3.428   6.952  1.2689  0.3062 -1.9637
 3763SOL    HW222926   1.230   3.317   6.930 -1.6069  4.9022 -1.7829
 3764SOL     OW22927   4.167   4.254   5.334  0.1016 -0.2230  0.5571
 3764SOL    HW122928   4.154   4.305   5.415  2.7367 -0.3703  1.0547
 3764SOL    HW222929   4.194   4.175   5.380  0.3598  0.0276  0.8346
 3765SOL     OW22930   0.670   0.508   7.679  0.2153  0.1128 -0.4399
 3765SOL    HW122931   0.694   0.428   7.727  0.9655 -0.5464 -1.9120
 3765SOL    HW222932   0.737   0.568   7.711  1.4976 -1.7028  0.2818
 3766SOL     OW22933   0.986   2.069   4.361 -0.9820 -0.3072 -0.1475
 3766SOL    HW122934   0.938   2.030   4.288 -1.0399  0.0923 -0.3206
 3766SOL    HW222935   1.044   2.122   4.307  1.7495 -2.4519  0.6836
 3767SOL     OW22936   2.145   4.160   5.598  0.9777 -0.3153  0.4475
 3767SOL    HW122937   2.148   4.064   5.603  0.5807 -0.3015  0.9967
 3767SOL    HW222938   2.235   4.187   5.614 -0.0484  1.8315  2.4747
 3768SOL     OW22939   2.794   2.529   4.966  0.1510  0.4115 -0.2624
 3768SOL    HW122940   2.848   2.451   4.953 -0.7927 -0.1336 -0.9555
 3768SOL    HW222941   2.780   2.557   4.876 -0.8518 -1.2060 -0.6206
 3769SOL     OW22942   0.377   0.824  16.529 -0.1035  0.5182  0.0408
 3769SOL    HW122943   0.407   0.777  16.606 -1.4153  0.1215  0.3163
 3769SOL    HW222944   0.413   0.911  16.545 -0.2992  0.2371  1.9311
 3770SOL     OW22945   0.486   3.795   4.430  0.1646 -0.2346 -0.1425
 3770SOL    HW122946   0.488   3.700   4.429 -1.0514 -0.2475 -0.5453
 3770SOL    HW222947   0.436   3.799   4.512  0.1616  1.4246 -0.2248
 3771SOL     OW22948   3.646   1.040   5.747 -0.7211 -0.3446 -0.3042
 3771SOL    HW122949   3.672   1.061   5.658  0.1341  0.1784  0.0694
 3771SOL    HW222950   3.694   1.103   5.802  1.1894  0.4116 -2.8326
 3772SOL     OW22951   3.216   4.088   7.368  0.3016 -0.7846  0.1053
 3772SOL    HW122952   3.296   4.141   7.378  0.0641 -0.7644  1.8697
 3772SOL    HW222953   3.182   4.112   7.282  0.9769  3.2729  0.9882
 3773SOL     OW22954   1.838   1.410  16.687 -0.1490 -1.0975  0.2331
 3773SOL    HW122955   1.873   1.478  16.628 -2.7949  1.0104  1.0903
 3773SOL    HW222956   1.911   1.388  16.745 -0.1986  1.7614  1.3939
 3774SOL     OW22957   3.051   1.371   5.461  0.0396 -0.5033  0.2092
 3774SOL    HW122958   2.963   1.368   5.498  0.0293 -1.2589  0.1195
 3774SOL    HW222959   3.041   1.447   5.403  1.4314  0.0158  0.6295
 3775SOL     OW22960   1.228   4.075  10.975  0.0439 -1.0633 -0.3208
 3775SOL    HW122961   1.316   4.099  10.946 -0.3470 -0.3578 -0.9244
 3775SOL    HW222962   1.220   3.993  10.926  1.1443 -1.9849  1.0124
 3776SOL     OW22963   0.979   3.191  17.745 -0.1516 -0.3785  0.6691
 3776SOL    HW122964   0.893   3.167   0.025  0.6905 -3.0001  0.9204
 3776SOL    HW222965   1.010   3.251   0.057  1.6518  0.2346 -0.6911
 3777SOL     OW22966   2.072   3.270   1.726  0.6298 -0.3961 -0.3419
 3777SOL    HW122967   2.157   3.264   1.682  1.5839  0.3469  1.4020
 3777SOL    HW222968   2.023   3.328   1.669  1.0008  1.0019  0.7744
 3778SOL     OW22969   3.661   3.093   3.286 -0.0432  0.3066  0.0931
 3778SOL    HW122970   3.619   3.015   3.251  0.9292 -0.9436  1.6795
 3778SOL    HW222971   3.593   3.155   3.312  0.2369  1.4134 -1.8607
 3779SOL     OW22972   4.094   3.009   4.594  0.3892 -0.3035  0.0367
 3779SOL    HW122973   4.159   2.958   4.643  0.7398 -0.2057 -0.3262
 3779SOL    HW222974   4.040   3.032   4.670 -0.6585 -1.1790 -0.4490
 3780SOL     OW22975   4.022   1.160   5.403  0.4396 -0.3245 -0.5410
 3780SOL    HW122976   3.938   1.116   5.395  0.4721 -0.7736  1.4523
 3780SOL    HW222977   4.071   1.082   5.430  0.6001  0.5895  1.8580
 3781SOL     OW22978   2.588   0.296   0.980  0.8061 -0.1080  0.3387
 3781SOL    HW122979   2.608   0.217   0.931 -0.9723  0.6593 -1.6598
 3781SOL    HW222980   2.593   0.261   1.069  0.4739  0.0776  0.4348
 3782SOL     OW22981   1.574   1.912  14.451 -0.6895 -0.4427  0.3862
 3782SOL    HW122982   1.615   1.826  14.460  1.4815  0.6191  0.4543
 3782SOL    HW222983   1.505   1.915  14.518  0.4182 -0.0986  1.5100
 3783SOL     OW22984   3.963   1.049  12.080 -0.6541  0.3383  0.6035
 3783SOL    HW122985   3.966   1.144  12.076 -0.0343  0.3376  1.1268
 3783SOL    HW222986   3.869   1.035  12.070 -0.7533  0.3996  1.4100
 3784SOL     OW22987   3.523   2.541   1.274  0.2440  0.1845 -0.4375
 3784SOL    HW122988   3.557   2.572   1.190  0.9265 -0.1994 -0.3033
 3784SOL    HW222989   3.524   2.450   1.245  0.8956 -0.1658  0.7091
 3785SOL     OW22990   2.810   1.143  10.341 -0.6161  0.2141  0.7667
 3785SOL    HW122991   2.808   1.239  10.345 -3.2633  0.2865 -1.6067
 3785SOL    HW222992   2.826   1.116  10.431 -1.1771 -0.8152  0.5605
 3786SOL     OW22993   2.599   1.530   1.501  0.4212 -0.0132 -0.2080
 3786SOL    HW122994   2.640   1.609   1.467 -0.7829  0.5486 -0.3364
 3786SOL    HW222995   2.512   1.569   1.508  1.0922  0.8757  3.1540
 3787SOL     OW22996   2.637   0.412   2.919  0.4455  0.1117 -0.9495
 3787SOL    HW122997   2.645   0.328   2.964 -0.7397 -1.3240 -3.3847
 3787SOL    HW222998   2.703   0.463   2.966  0.3721 -1.5619  0.9756
 3788SOL     OW22999   3.722   0.645  14.518  0.0098 -0.1786  0.0625
 3788SOL    HW123000   3.793   0.669  14.458 -0.6384 -0.5947 -0.8689
 3788SOL    HW223001   3.760   0.679  14.598  1.8076  0.2643 -0.9788
 3789SOL     OW23002   3.231   3.264   4.469 -0.4768 -0.2663 -0.5590
 3789SOL    HW123003   3.156   3.261   4.410 -1.0971  1.4439  0.1462
 3789SOL    HW223004   3.197   3.334   4.524 -0.3421  1.7728 -3.0522
 3790SOL     OW23005   1.075   1.333   7.051 -0.1888 -0.1261  0.1765
 3790SOL    HW123006   1.035   1.391   6.985  3.1549  0.9378 -0.9417
 3790SOL    HW223007   1.138   1.395   7.089  1.8079 -1.9988 -0.0847
 3791SOL     OW23008   4.419   3.763   2.185  0.3008 -0.1812  0.2261
 3791SOL    HW123009   4.432   3.838   2.127  3.5450 -0.1888  0.9387
 3791SOL    HW223010   4.448   3.692   2.127 -0.2283  0.0310 -0.2979
 3792SOL     OW23011   1.784   0.289   3.657 -0.0659  0.0039  0.3049
 3792SOL    HW123012   1.823   0.375   3.642 -0.4387  0.0996 -0.0996
 3792SOL    HW223013   1.693   0.314   3.642 -0.2258 -1.4082 -1.0989
 3793SOL     OW23014   2.894   0.899   6.009  0.1929 -0.3766 -0.0796
 3793SOL    HW123015   2.906   0.987   5.973 -2.2048 -0.0405 -0.0745
 3793SOL    HW223016   2.860   0.839   5.943 -2.1260 -0.9089  1.5831
 3794SOL     OW23017   2.025   2.952   2.454  0.1144 -0.1365  0.0048
 3794SOL    HW123018   2.114   2.928   2.427  0.7157  0.7385  1.2182
 3794SOL    HW223019   2.032   3.048   2.448 -0.3762  0.0604  2.6106
 3795SOL     OW23020   1.492   2.048   7.076 -0.2824  0.0097 -0.0124
 3795SOL    HW123021   1.581   2.058   7.040  0.3368  1.1062  1.8170
 3795SOL    HW223022   1.488   1.954   7.063  1.5323  0.1090 -1.4173
 3796SOL     OW23023   3.666   3.156   6.866 -0.3101 -0.0634 -0.5529
 3796SOL    HW123024   3.715   3.095   6.812  0.6704 -0.4561  0.7766
 3796SOL    HW223025   3.639   3.217   6.797 -0.3933  0.0981 -0.3785
 3797SOL     OW23026   4.125   1.464  15.971  0.0408  0.5442  0.1918
 3797SOL    HW123027   4.202   1.431  15.924 -0.8735 -0.2359 -0.7600
 3797SOL    HW223028   4.157   1.509  16.049  0.5123 -0.7841  0.7568
 3798SOL     OW23029   2.714   1.061   2.896 -0.4065  0.1827 -0.1367
 3798SOL    HW123030   2.701   0.997   2.967  0.1445  2.8713  2.3734
 3798SOL    HW223031   2.693   1.017   2.814 -1.6151  1.0497 -0.2981
 3799SOL     OW23032   1.470   3.805   1.057  0.4286 -0.0048 -0.1770
 3799SOL    HW123033   1.560   3.836   1.069  1.0777 -1.2003 -2.0160
 3799SOL    HW223034   1.496   3.712   1.056 -0.1254 -0.1547 -0.4809
 3800SOL     OW23035   3.924   3.521  17.030  0.3299 -0.1988 -0.0034
 3800SOL    HW123036   3.860   3.542  16.962 -0.2061  0.1755  0.6112
 3800SOL    HW223037   3.915   3.426  17.030  1.5124 -0.2941  1.0092
 3801SOL     OW23038   0.688   1.146  12.744  0.0071  0.1834  0.2631
 3801SOL    HW123039   0.692   1.226  12.796  1.8435  1.2394 -1.4537
 3801SOL    HW223040   0.615   1.160  12.684 -0.9621  0.3940  1.5147
 3802SOL     OW23041   2.275   1.503   9.352  0.2528  0.6370  0.3029
 3802SOL    HW123042   2.202   1.469   9.300  0.2874 -1.0512  1.3436
 3802SOL    HW223043   2.230   1.551   9.421 -0.9101  1.1981 -0.8358
 3803SOL     OW23044   1.881   1.065   5.438 -0.3868 -0.4552  0.3364
 3803SOL    HW123045   1.847   1.148   5.405 -1.4786 -0.6302  1.0364
 3803SOL    HW223046   1.957   1.104   5.481  1.2795 -0.6831 -2.4152
 3804SOL     OW23047   0.851   1.337   6.025 -0.2445  0.5359 -0.1295
 3804SOL    HW123048   0.934   1.290   6.017  1.7751  4.0819  0.0966
 3804SOL    HW223049   0.879   1.427   6.010  1.8226 -0.0238  0.3466
 3805SOL     OW23050   4.549   2.144   1.918  0.4778 -0.2168  0.8881
 3805SOL    HW123051   4.624   2.195   1.887 -0.2067  0.2049 -0.0873
 3805SOL    HW223052   4.589   2.094   1.989  0.6222 -1.0385  0.2250
 3806SOL     OW23053   2.975   1.138   8.408 -0.2408  0.4602 -0.3597
 3806SOL    HW123054   2.940   1.061   8.363  0.5915 -0.4678  0.5950
 3806SOL    HW223055   2.974   1.099   8.495 -1.8700  0.6211 -0.3039
 3807SOL     OW23056   2.960   2.246   5.788  0.0152  0.3678  0.0810
 3807SOL    HW123057   3.033   2.192   5.815  0.5048  1.8457  1.7065
 3807SOL    HW223058   2.931   2.213   5.703  2.8191 -2.2094  0.1756
 3808SOL     OW23059   2.443   2.580   2.422  0.4508 -0.4944  0.3016
 3808SOL    HW123060   2.440   2.551   2.331  1.0491  0.2648  0.0442
 3808SOL    HW223061   2.476   2.501   2.466  0.7053 -0.6963 -0.2566
 3809SOL     OW23062   0.320   3.012   1.698  0.3430  0.1516 -0.0096
 3809SOL    HW123063   0.347   3.101   1.721  0.9135  0.2584 -1.0788
 3809SOL    HW223064   0.256   2.990   1.766 -1.3977  1.3339 -1.2331
 3810SOL     OW23065   2.885   2.207   2.632  0.9288 -0.0631  0.0260
 3810SOL    HW123066   2.849   2.273   2.574 -0.5177 -0.3756  0.5725
 3810SOL    HW223067   2.956   2.175   2.576  1.7758  1.6020  0.1421
 3811SOL     OW23068   2.770   3.625   7.436  0.2097 -0.0911  0.0166
 3811SOL    HW123069   2.681   3.625   7.471 -0.8709  2.0706 -2.7424
 3811SOL    HW223070   2.790   3.707   7.391  3.1906  0.2563  1.9555
 3812SOL     OW23071   3.087   0.885   6.802  0.1596 -0.4067 -0.3774
 3812SOL    HW123072   3.083   0.837   6.719 -0.1304 -0.5084 -0.3078
 3812SOL    HW223073   3.179   0.910   6.810 -0.2581  0.1652  2.6919
 3813SOL     OW23074   0.751   3.408   2.369  0.2261  0.5928  0.4666
 3813SOL    HW123075   0.711   3.474   2.425  1.3328  0.6225  1.2304
 3813SOL    HW223076   0.674   3.390   2.316 -0.1729  1.5096  0.7431
 3814SOL     OW23077   1.619   1.865   4.923  0.0396 -0.4905 -0.4197
 3814SOL    HW123078   1.622   1.897   4.832 -0.0236 -0.9759 -0.5940
 3814SOL    HW223079   1.526   1.877   4.943  0.4069  1.1018  0.2357
 3815SOL     OW23080   2.654   1.536   3.035 -0.3650  0.0489 -0.3201
 3815SOL    HW123081   2.635   1.461   2.978  3.4584 -0.7780 -0.5170
 3815SOL    HW223082   2.610   1.488   3.105 -1.2036 -1.7785 -2.0800
 3816SOL     OW23083   2.662   0.589   5.461  0.2192  0.1354 -0.1393
 3816SOL    HW123084   2.741   0.553   5.421  0.5371  1.1886 -0.4643
 3816SOL    HW223085   2.599   0.524   5.430 -0.0329 -0.1607  0.9790
 3817SOL     OW23086   3.626   1.882  17.127 -0.1553  0.0390 -0.3775
 3817SOL    HW123087   3.565   1.911  17.060 -0.6475  0.0763  0.0862
 3817SOL    HW223088   3.666   1.966  17.148  2.1858 -1.3801  0.9143
 3818SOL     OW23089   0.838   1.863  16.703  0.3701  0.1569  0.5105
 3818SOL    HW123090   0.894   1.895  16.774  0.6602 -1.1319  0.8738
 3818SOL    HW223091   0.896   1.880  16.629 -2.0266 -0.7535 -1.5643
 3819SOL     OW23092   0.902   2.828   2.545  0.2754  0.2867  0.3510
 3819SOL    HW123093   0.851   2.848   2.624  1.0654 -0.1592  0.9634
 3819SOL    HW223094   0.854   2.865   2.471 -0.2271  1.8632  1.4532
 3820SOL     OW23095   1.875   2.516   2.287 -0.0731  0.4644 -0.0140
 3820SOL    HW123096   1.907   2.542   2.200 -0.0721  2.2661  0.5271
 3820SOL    HW223097   1.857   2.604   2.321  2.1391  0.7753  0.3718
 3821SOL     OW23098   0.798   2.294   3.125 -0.4492 -0.1764 -0.0785
 3821SOL    HW123099   0.887   2.309   3.155  0.1157 -2.0952 -0.7802
 3821SOL    HW223100   0.799   2.345   3.044  1.5956  0.1633  0.1630
 3822SOL     OW23101   4.013   4.653   7.565 -0.0048 -0.0421  0.3471
 3822SOL    HW123102   4.078   4.582   7.563 -1.4255 -1.3285  0.3860
 3822SOL    HW223103   4.025   4.679   7.656 -1.9340  0.8616  0.3295
 3823SOL     OW23104   4.438   3.163   6.280  0.0751  0.0532 -0.4484
 3823SOL    HW123105   4.524   3.201   6.301 -0.4852 -0.6274  3.1698
 3823SOL    HW223106   4.371   3.229   6.267 -1.1391 -1.6505 -2.8028
 3824SOL     OW23107   0.001   2.298   0.783  0.0641 -0.2597 -0.3988
 3824SOL    HW123108   0.038   2.306   0.696 -0.5374  0.4156 -0.5996
 3824SOL    HW223109   4.712   2.390   0.787  0.2334 -0.1389 -2.2175
 3825SOL     OW23110   4.239   1.483  14.635  0.0235 -0.1485  0.4071
 3825SOL    HW123111   4.254   1.499  14.541 -0.0090 -1.1651  0.2308
 3825SOL    HW223112   4.268   1.567  14.671  0.5422  1.2875 -3.2950
 3826SOL     OW23113   3.573   0.808   6.800 -0.1346  0.0471  0.0497
 3826SOL    HW123114   3.628   0.872   6.756  1.1101 -0.7650  0.4101
 3826SOL    HW223115   3.636   0.737   6.815 -1.0429 -1.0311 -1.2223
 3827SOL     OW23116   3.807   1.677   6.890  1.0137  0.2400  0.0763
 3827SOL    HW123117   3.883   1.699   6.944  0.2740  0.4853  1.0240
 3827SOL    HW223118   3.784   1.595   6.933  1.4354  0.4486  0.7006
 3828SOL     OW23119   0.185   1.300   1.320 -0.3470  0.1928 -0.1721
 3828SOL    HW123120   0.134   1.381   1.323 -1.3852 -0.4884  0.9042
 3828SOL    HW223121   0.272   1.340   1.320  0.1996 -1.0084  0.8367
 3829SOL     OW23122   1.641   0.975  17.266 -0.2581 -0.0057 -0.8855
 3829SOL    HW123123   1.627   0.999  17.175 -0.5447 -2.4978 -1.4917
 3829SOL    HW223124   1.708   0.908  17.257 -0.2154 -0.1394  0.3616
 3830SOL     OW23125   4.460   2.181   1.360  0.3345 -0.3265  0.3022
 3830SOL    HW123126   4.365   2.167   1.356 -0.3301  3.5686  1.8974
 3830SOL    HW223127   4.452   2.270   1.326 -0.0410 -0.6865 -0.5410
 3831SOL     OW23128   0.628   0.273   9.681  0.0159 -0.0070  0.0852
 3831SOL    HW123129   0.577   0.304   9.606 -0.3294 -0.6704  0.0429
 3831SOL    HW223130   0.605   0.328   9.755 -1.4682  0.2318 -0.5443
 3832SOL     OW23131   2.027   4.454   7.791  0.5881 -0.1651  0.4612
 3832SOL    HW123132   1.962   4.434   7.724 -0.2630 -0.8521  1.4679
 3832SOL    HW223133   2.110   4.470   7.746  0.8256  0.1498  1.0114
 3833SOL     OW23134   0.031   0.052  16.379 -0.4622 -0.0748 -0.3864
 3833SOL    HW123135   4.700   0.029  16.319 -1.5866  2.2064  0.0245
 3833SOL    HW223136   4.739   0.019  16.463  1.8993 -0.2176  0.4398
 3834SOL     OW23137   1.061   0.305  17.429  0.4762 -0.2247 -0.6817
 3834SOL    HW123138   1.103   0.316  17.515 -0.5843  0.7335 -0.2938
 3834SOL    HW223139   1.001   0.379  17.433  1.3131  0.5107 -1.5750
 3835SOL     OW23140   4.145   3.791   6.275  0.3410  0.0685 -0.1880
 3835SOL    HW123141   4.223   3.791   6.220 -1.8390 -0.4260 -3.2509
 3835SOL    HW223142   4.090   3.725   6.233 -1.1958  3.5522 -3.5722
 3836SOL     OW23143   1.286   0.932   3.372 -0.3641 -0.1329 -0.3386
 3836SOL    HW123144   1.214   0.873   3.353  0.6554 -1.2577 -0.7285
 3836SOL    HW223145   1.241   0.967   3.449  1.2406 -2.2370  1.5406
 3837SOL     OW23146   2.163   2.477   1.875 -0.2659 -0.3281  0.1185
 3837SOL    HW123147   2.121   2.395   1.900  1.2214 -0.8395  0.9222
 3837SOL    HW223148   2.198   2.455   1.789 -0.3693 -0.7592  0.1880
 3838SOL     OW23149   3.943   4.357   7.010 -0.2537 -0.3854  0.2478
 3838SOL    HW123150   4.020   4.400   7.048 -1.1580  0.8082  0.7241
 3838SOL    HW223151   3.889   4.436   7.015 -0.8314 -0.7497 -0.2971
 3839SOL     OW23152   2.957   2.404  16.286  0.5403  0.2262 -0.2718
 3839SOL    HW123153   2.967   2.493  16.250 -0.5771  1.3874  2.2696
 3839SOL    HW223154   2.979   2.357  16.205  0.0246  0.9474 -0.8288
 3840SOL     OW23155   2.646   4.375  11.040 -0.0449 -0.3470 -0.7356
 3840SOL    HW123156   2.700   4.405  10.966  0.9101 -0.2811 -0.0085
 3840SOL    HW223157   2.711   4.337  11.099 -0.7599  1.1462  1.0327
 3841SOL     OW23158   4.200   4.278   1.264 -0.1924 -0.0306  0.1646
 3841SOL    HW123159   4.175   4.352   1.208  0.9106  0.1665 -0.0690
 3841SOL    HW223160   4.132   4.295   1.329  1.1179  2.3462  0.8933
 3842SOL     OW23161   2.992   4.416   1.580  0.0291  0.0149  0.1858
 3842SOL    HW123162   3.070   4.454   1.619  0.5889  0.1273 -1.0323
 3842SOL    HW223163   2.952   4.374   1.656 -2.8210  1.0060 -0.7437
 3843SOL     OW23164   1.253   3.320   5.243 -0.5030 -0.2087  0.0906
 3843SOL    HW123165   1.270   3.373   5.165 -0.4911  1.2194  1.0842
 3843SOL    HW223166   1.290   3.236   5.215  0.2105 -0.3080  1.3408
 3844SOL     OW23167   3.832   0.163   3.354 -0.9989  0.4908  0.3220
 3844SOL    HW123168   3.913   0.196   3.393 -0.4634 -3.5302  2.5848
 3844SOL    HW223169   3.871   0.107   3.287 -0.5780  0.6188  0.4635
 3845SOL     OW23170   0.751   3.796   0.618  0.3127 -0.5501  0.2408
 3845SOL    HW123171   0.768   3.862   0.552 -1.7064  1.7272  2.0095
 3845SOL    HW223172   0.667   3.761   0.588  1.9612 -1.8367 -2.9206
 3846SOL     OW23173   2.144   2.242  12.348 -0.0774  0.0168  0.7751
 3846SOL    HW123174   2.211   2.258  12.282  1.7490  0.6014  2.7618
 3846SOL    HW223175   2.190   2.264  12.429 -2.5354  0.8455  1.9227
 3847SOL     OW23176   4.557   3.676  17.269 -0.0536  0.1726  0.7874
 3847SOL    HW123177   4.605   3.740  17.215  0.1216 -1.7171 -1.2881
 3847SOL    HW223178   4.464   3.701  17.268 -0.0627  0.1330  0.5177
 3848SOL     OW23179   1.825   3.247  11.246 -0.4645 -0.1917  0.2925
 3848SOL    HW123180   1.732   3.260  11.230 -0.1188  0.9757 -0.8235
 3848SOL    HW223181   1.862   3.272  11.161  0.3750 -1.6582  0.2281
 3849SOL     OW23182   0.949   4.174   8.944 -0.1225  0.1407  0.2360
 3849SOL    HW123183   0.921   4.131   8.864 -2.2645 -1.3793  1.8165
 3849SOL    HW223184   0.999   4.109   8.994 -0.4674  0.5157  1.0588
 3850SOL     OW23185   0.797   0.606   5.210  0.5121  0.2867  0.1148
 3850SOL    HW123186   0.793   0.702   5.215 -2.1627  0.2033 -0.2868
 3850SOL    HW223187   0.826   0.608   5.118 -0.2401 -1.1698 -0.1550
 3851SOL     OW23188   2.659   3.482   9.431  0.1580  0.0225  0.2016
 3851SOL    HW123189   2.637   3.501   9.339 -1.2845  1.2100  0.7920
 3851SOL    HW223190   2.584   3.506   9.485 -0.1887 -1.8771  0.5618
 3852SOL     OW23191   3.513   1.287   8.666  0.1891 -0.6573  0.0209
 3852SOL    HW123192   3.580   1.287   8.597 -1.6580 -2.8559 -1.7831
 3852SOL    HW223193   3.474   1.373   8.649  0.6139 -0.4672 -0.0155
 3853SOL     OW23194   4.458   3.961   2.986  0.5076  0.1492  0.3838
 3853SOL    HW123195   4.378   3.991   2.943  1.0014  0.1589 -0.5396
 3853SOL    HW223196   4.426   3.875   3.013 -0.6558 -0.1621 -1.9246
 3854SOL     OW23197   4.175   0.730  13.437 -0.4158 -0.4111  0.2431
 3854SOL    HW123198   4.202   0.641  13.413 -0.8710 -0.7739  1.0599
 3854SOL    HW223199   4.108   0.711  13.503 -3.3545 -1.1166 -2.9300
 3855SOL     OW23200   1.028   2.319   9.442  0.1534 -0.1297 -0.3012
 3855SOL    HW123201   0.993   2.385   9.382 -0.3671 -0.0286  0.1106
 3855SOL    HW223202   1.110   2.300   9.396  0.0884 -2.8009  0.6628
 3856SOL     OW23203   0.531   2.838   9.520  0.5408  0.0432  0.5146
 3856SOL    HW123204   0.575   2.768   9.473 -2.6259 -0.6432 -1.4370
 3856SOL    HW223205   0.440   2.808   9.522  1.0709 -1.5200  1.5370
 3857SOL     OW23206   4.643   4.047  17.673  0.3822  0.6095  0.6529
 3857SOL    HW123207   4.660   4.047  17.578 -0.8609  1.6235  0.4223
 3857SOL    HW223208   4.725   4.091  17.696  0.4539  0.9517 -0.2330
 3858SOL     OW23209   3.513   2.372   8.211  0.1722 -0.1371 -0.4199
 3858SOL    HW123210   3.460   2.393   8.135  1.3615  0.6072 -1.0427
 3858SOL    HW223211   3.555   2.290   8.183 -0.1121  0.2184 -1.8296
 3859SOL     OW23212   1.412   3.699   7.978  0.1466  0.1940  0.3393
 3859SOL    HW123213   1.503   3.683   7.951  0.9972  2.4222  1.8832
 3859SOL    HW223214   1.363   3.684   7.897  0.9241 -0.5615  0.0016
 3860SOL     OW23215   0.037   2.768  16.829  0.3660 -0.2892  0.2345
 3860SOL    HW123216   4.703   2.819  16.863 -0.6148 -0.6238 -1.3916
 3860SOL    HW223217   0.001   2.689  16.788  1.0363 -0.3990 -0.1423
 3861SOL     OW23218   4.478   1.205  12.419  0.0894 -0.1295 -0.1979
 3861SOL    HW123219   4.565   1.232  12.389  0.7377  0.3373  2.1421
 3861SOL    HW223220   4.482   1.231  12.511  2.3907  1.8978 -0.8913
 3862SOL     OW23221   3.951   2.388  14.275  0.1682 -0.5571  0.1799
 3862SOL    HW123222   3.941   2.428  14.189  1.0737 -0.1625  0.2515
 3862SOL    HW223223   3.905   2.452  14.328 -0.5014 -1.8186  1.1112
 3863SOL     OW23224   3.355   2.605   2.358 -0.1633 -0.0305 -0.6625
 3863SOL    HW123225   3.281   2.606   2.297  0.1230  0.2193 -1.0090
 3863SOL    HW223226   3.380   2.514   2.372  1.6851  0.5869  0.0298
 3864SOL     OW23227   2.232   0.254   6.225 -0.2211 -0.1710  0.5374
 3864SOL    HW123228   2.266   0.306   6.298 -0.0132 -2.5989  2.1526
 3864SOL    HW223229   2.257   0.165   6.248  0.4523 -0.5075 -1.5147
 3865SOL     OW23230   3.951   3.860  15.306  0.3282 -0.1922  0.1675
 3865SOL    HW123231   3.993   3.851  15.391  1.3085 -0.3272 -0.3299
 3865SOL    HW223232   3.867   3.815  15.316  0.2860 -0.1213  0.1375
 3866SOL     OW23233   2.719   1.486   7.152  0.1562  0.0891  0.3174
 3866SOL    HW123234   2.641   1.437   7.126  0.1841 -1.8191  3.8481
 3866SOL    HW223235   2.690   1.575   7.133 -1.6881 -0.1904  1.8519
 3867SOL     OW23236   0.678   0.992   4.133 -0.3530  0.8362  0.8596
 3867SOL    HW123237   0.606   0.929   4.135  1.4025 -1.2251 -1.5234
 3867SOL    HW223238   0.706   0.995   4.224  0.5413  0.4968  0.5882
 3868SOL     OW23239   1.955   0.944  17.017  0.0135 -0.0593 -0.0767
 3868SOL    HW123240   1.957   0.850  16.999  0.2221 -0.3618  1.5965
 3868SOL    HW223241   1.863   0.961  17.040 -0.3672 -2.0910 -0.0838
 3869SOL     OW23242   1.237   2.453   8.251  0.1629  0.7370  0.0109
 3869SOL    HW123243   1.243   2.489   8.340  0.4352  0.0722  0.2627
 3869SOL    HW223244   1.202   2.529   8.206 -1.0006 -0.1194 -0.5311
 3870SOL     OW23245   3.685   2.575  14.958  0.1645  0.7171 -0.1753
 3870SOL    HW123246   3.590   2.587  14.964  0.0540  0.6371 -1.6771
 3870SOL    HW223247   3.702   2.607  14.869  1.2389  1.0088  0.1400
 3871SOL     OW23248   1.329   0.241  17.289  0.1775  0.3377  0.2055
 3871SOL    HW123249   1.270   0.193  17.346  0.8122  0.0311  0.5951
 3871SOL    HW223250   1.276   0.248  17.210  0.7019  1.7273 -0.0278
 3872SOL     OW23251   3.944   3.038   6.035  0.2260 -0.1914  0.2935
 3872SOL    HW123252   3.946   3.130   6.062  0.3361  0.6594 -2.6153
 3872SOL    HW223253   4.035   3.009   6.040 -0.7281 -2.5983  4.4265
 3873SOL     OW23254   1.791   2.978   3.857 -0.6140 -0.0103  0.3772
 3873SOL    HW123255   1.778   2.963   3.764  3.0049 -1.4591  0.1006
 3873SOL    HW223256   1.742   3.061   3.856  0.6427  0.8014  3.2536
 3874SOL     OW23257   0.819   3.334  13.986  0.3597  0.1684 -0.5277
 3874SOL    HW123258   0.808   3.267  14.053  2.6744  0.1190 -0.2028
 3874SOL    HW223259   0.737   3.382  13.995  1.2045  1.3894  0.6372
 3875SOL     OW23260   3.880   1.983   0.139  0.3021  0.1757  0.2064
 3875SOL    HW123261   3.970   2.010   0.122  0.0434  0.0121 -1.4296
 3875SOL    HW223262   3.899   1.956   0.229 -1.7161 -2.1632 -0.0368
 3876SOL     OW23263   2.541   0.928   7.962 -0.2877  0.0520  0.1446
 3876SOL    HW123264   2.617   0.985   7.976  2.5493 -3.4603 -1.0856
 3876SOL    HW223265   2.485   0.945   8.038 -0.8690 -0.8239 -0.0867
 3877SOL     OW23266   1.695   0.386   3.917  1.0069 -0.1311 -0.3712
 3877SOL    HW123267   1.671   0.308   3.968  1.3064 -0.5429 -0.8587
 3877SOL    HW223268   1.749   0.343   3.851 -0.7544 -2.2517 -0.4507
 3878SOL     OW23269   4.111   2.460   5.893 -0.0324  0.1786  0.3297
 3878SOL    HW123270   4.113   2.552   5.865 -1.0047  0.1475  0.1595
 3878SOL    HW223271   4.090   2.474   5.985 -1.5610 -0.6573  0.1162
 3879SOL     OW23272   0.969   0.765   7.404  0.2594 -0.0969  0.3825
 3879SOL    HW123273   1.035   0.831   7.382 -0.4598  0.3469 -0.4710
 3879SOL    HW223274   1.015   0.683   7.388  2.1348  1.0971 -0.3121
 3880SOL     OW23275   2.735   3.745   3.560 -0.1813  0.0188 -0.3100
 3880SOL    HW123276   2.683   3.699   3.625  0.1287  0.4708  0.2607
 3880SOL    HW223277   2.817   3.698   3.575 -0.4010 -0.9532 -2.1903
 3881SOL     OW23278   3.701   3.238  15.939 -0.6191 -0.3567  0.0276
 3881SOL    HW123279   3.624   3.290  15.915 -0.5242  0.8193  2.2026
 3881SOL    HW223280   3.705   3.171  15.872  0.8815  0.0385 -0.2788
 3882SOL     OW23281   4.612   1.645   3.086 -0.1741 -0.3003 -0.5097
 3882SOL    HW123282   4.640   1.729   3.049 -0.7403 -0.9711 -2.4053
 3882SOL    HW223283   4.656   1.648   3.171 -1.0584 -2.1404  0.0136
 3883SOL     OW23284   1.339   1.061   9.991  0.0532  0.1559  0.0310
 3883SOL    HW123285   1.393   0.992  10.029 -2.3702 -2.5783 -1.5659
 3883SOL    HW223286   1.338   1.114  10.071  0.0405  0.5360 -0.2198
 3884SOL     OW23287   3.552   0.571   8.935  0.1631  0.2031 -0.0902
 3884SOL    HW123288   3.542   0.614   9.020  0.9403  1.0632 -0.4431
 3884SOL    HW223289   3.645   0.589   8.928 -0.1232  1.3236 -0.9330
 3885SOL     OW23290   0.154   2.746   2.244  0.4326  0.0782 -0.1104
 3885SOL    HW123291   0.241   2.707   2.246  0.4523  0.2754  2.3192
 3885SOL    HW223292   0.175   2.836   2.218  2.3477 -0.3628 -0.1020
 3886SOL     OW23293   1.620   1.725   2.509 -0.0223 -0.1530  0.0950
 3886SOL    HW123294   1.697   1.689   2.466 -2.2179 -2.1571 -2.1614
 3886SOL    HW223295   1.664   1.804   2.540 -0.6170  0.5055 -0.7477
 3887SOL     OW23296   2.579   4.379   5.842  0.0906 -0.1057 -0.4187
 3887SOL    HW123297   2.651   4.317   5.854  1.6195  2.3006  2.5837
 3887SOL    HW223298   2.544   4.389   5.930  0.3666  0.6286 -0.3970
 3888SOL     OW23299   2.471   3.096   7.690  0.1868 -1.0444  0.0933
 3888SOL    HW123300   2.458   3.131   7.601 -1.5309 -0.0439  0.7520
 3888SOL    HW223301   2.430   3.010   7.678  0.4048 -1.2086  0.5068
 3889SOL     OW23302   4.318   0.113  16.072 -0.8224 -0.4177  0.2330
 3889SOL    HW123303   4.374   0.191  16.079 -0.2715 -0.9175  1.3874
 3889SOL    HW223304   4.378   0.054  16.117 -0.3087  1.0690  1.4963
 3890SOL     OW23305   3.931   1.326  16.086 -1.0757  0.0332 -0.3203
 3890SOL    HW123306   3.880   1.406  16.076  0.0561  0.6544 -1.1164
 3890SOL    HW223307   4.010   1.359  16.043  1.2200 -3.8322  0.8955
 3891SOL     OW23308   0.086   3.596   0.110  0.4068  0.0857  0.6004
 3891SOL    HW123309   4.737   3.633   0.098  0.4179  0.1763  0.8058
 3891SOL    HW223310   0.099   3.547   0.029 -0.4713  1.7084 -0.5236
 3892SOL     OW23311   0.286   0.709  13.276 -0.2952 -0.8874 -0.9422
 3892SOL    HW123312   0.340   0.788  13.277 -0.5961 -0.6907  1.2582
 3892SOL    HW223313   0.355   0.644  13.284 -2.2241 -2.8670 -0.4522
 3893SOL     OW23314   2.437   1.992   5.238 -0.1466 -0.2717 -0.1192
 3893SOL    HW123315   2.516   1.944   5.264 -0.6035 -0.9197  0.0810
 3893SOL    HW223316   2.393   1.993   5.323 -1.1838 -1.2462 -0.6410
 3894SOL     OW23317   2.970   1.711   6.215 -0.2736  0.1776  0.0485
 3894SOL    HW123318   2.912   1.661   6.273 -1.2018  0.4365 -0.6538
 3894SOL    HW223319   2.915   1.783   6.186 -0.1007 -0.4518 -1.8141
 3895SOL     OW23320   3.280   0.671   9.909 -0.3912 -0.0613  0.0268
 3895SOL    HW123321   3.331   0.734   9.960  1.3016 -2.2515  0.9972
 3895SOL    HW223322   3.235   0.622   9.978  2.0307 -1.7330  0.4155
 3896SOL     OW23323   4.163   1.647   6.108 -0.3230 -0.5839 -0.1777
 3896SOL    HW123324   4.180   1.680   6.020  1.1377  0.0068  0.3200
 3896SOL    HW223325   4.246   1.671   6.149  0.3361 -1.8917 -0.7602
 3897SOL     OW23326   0.800   3.249   7.267 -0.0358 -0.4046 -1.2726
 3897SOL    HW123327   0.887   3.286   7.279  0.1085 -0.5295 -1.9190
 3897SOL    HW223328   0.747   3.308   7.319  0.9148 -0.2650 -0.4707
 3898SOL     OW23329   3.343   0.470   3.126  0.0298  0.0671 -0.1204
 3898SOL    HW123330   3.349   0.402   3.192  0.3721  0.4946  0.2864
 3898SOL    HW223331   3.259   0.508   3.150 -0.6072 -2.0635  0.9907
 3899SOL     OW23332   1.992   2.283   1.514 -0.2549 -0.0827  0.4432
 3899SOL    HW123333   1.913   2.338   1.514 -1.6946 -2.1441  2.0199
 3899SOL    HW223334   2.047   2.331   1.453 -0.1764 -2.0237 -1.0086
 3900SOL     OW23335   1.112   2.530   6.123  0.0324  0.3479 -0.1314
 3900SOL    HW123336   1.032   2.485   6.149  0.1924  0.7283  1.0245
 3900SOL    HW223337   1.128   2.492   6.036  2.8856  0.2966  0.3965
 3901SOL     OW23338   2.675   2.539   1.848  0.4695 -0.1177  0.2177
 3901SOL    HW123339   2.623   2.574   1.776 -0.2803  0.0192  0.8281
 3901SOL    HW223340   2.759   2.583   1.838  1.7166 -2.2004  1.6879
 3902SOL     OW23341   2.185   0.270   8.921  0.5912  0.2272  0.0587
 3902SOL    HW123342   2.155   0.257   8.832 -1.2404  1.5766  0.5025
 3902SOL    HW223343   2.114   0.226   8.968 -0.3902  0.0235 -1.6363
 3903SOL     OW23344   0.261   1.156   6.188  0.5742 -0.3100 -0.0621
 3903SOL    HW123345   0.285   1.195   6.272 -0.0115 -0.5456  0.2112
 3903SOL    HW223346   0.193   1.092   6.210  0.9872 -0.6066  0.3450
 3904SOL     OW23347   3.899   4.005  11.864 -0.4191 -0.5694 -0.4623
 3904SOL    HW123348   3.929   3.978  11.777  1.4160 -1.3951  0.4331
 3904SOL    HW223349   3.806   4.027  11.850 -0.7939 -1.5657  0.4791
 3905SOL     OW23350   3.863   1.516   6.009 -0.0849 -0.0647  0.2932
 3905SOL    HW123351   3.904   1.548   5.929  0.4519  0.3409  0.7334
 3905SOL    HW223352   3.912   1.557   6.080  1.3888 -1.9706  0.3685
 3906SOL     OW23353   3.495   2.963  13.695 -0.6056  0.3428 -0.5541
 3906SOL    HW123354   3.537   3.048  13.704 -1.4144  0.6468  0.2866
 3906SOL    HW223355   3.572   2.908  13.678 -1.7279 -2.0461  2.0935
 3907SOL     OW23356   3.877   3.901   7.165  0.4410  0.4267 -0.1192
 3907SOL    HW123357   3.890   3.996   7.167  0.4792  0.4236 -0.2678
 3907SOL    HW223358   3.966   3.872   7.186 -0.4670 -1.9895  0.4756
 3908SOL     OW23359   1.634   4.673   3.579  0.5475 -0.3887  0.0185
 3908SOL    HW123360   1.557   4.622   3.603  0.7381  0.1558  1.7867
 3908SOL    HW223361   1.645   4.650   3.486  1.8449  2.5428 -0.5487
 3909SOL     OW23362   2.263   1.147   7.797 -0.4032  0.4806 -0.4166
 3909SOL    HW123363   2.251   1.144   7.892  1.7858 -0.4847 -0.1758
 3909SOL    HW223364   2.177   1.138   7.757 -0.1516  2.1507 -1.3386
 3910SOL     OW23365   0.532   3.050   3.181  0.0333  0.3068 -0.0673
 3910SOL    HW123366   0.580   2.968   3.180 -1.5321 -0.5547 -2.5465
 3910SOL    HW223367   0.612   3.103   3.175  0.3972 -0.3846 -1.1970
 3911SOL     OW23368   0.962   0.945   2.620 -0.5417 -0.4030  0.2576
 3911SOL    HW123369   0.869   0.947   2.597 -0.1157 -0.3871 -1.5011
 3911SOL    HW223370   0.961   1.022   2.676  1.0917 -1.4211  1.6519
 3912SOL     OW23371   0.909   2.306   8.929 -0.4403  0.1452  0.2805
 3912SOL    HW123372   0.839   2.297   8.994  0.3718 -3.4933  0.6559
 3912SOL    HW223373   0.867   2.349   8.855  1.4057  1.2637 -0.1120
 3913SOL     OW23374   3.891   4.045  13.986 -0.1347 -0.2468  0.3053
 3913SOL    HW123375   3.843   4.035  13.904  0.1277 -0.0453  0.1270
 3913SOL    HW223376   3.821   4.073  14.044  1.0115 -1.1688  2.1643
 3914SOL     OW23377   4.194   2.097   1.314 -0.2342  0.4225 -0.1536
 3914SOL    HW123378   4.153   2.053   1.240  0.7723 -0.6000 -0.1044
 3914SOL    HW223379   4.119   2.131   1.362 -0.4139  0.9026 -0.7780
 3915SOL     OW23380   4.725   2.852  14.657  0.1560  0.4571  0.1272
 3915SOL    HW123381   4.640   2.861  14.614 -0.5499 -1.0006  1.2108
 3915SOL    HW223382   4.690   2.829  14.743  1.6173 -0.4841  0.4832
 3916SOL     OW23383   3.653   1.851  14.991  0.3550 -0.0633  0.9703
 3916SOL    HW123384   3.659   1.925  14.930 -0.1167 -0.9799 -0.1931
 3916SOL    HW223385   3.571   1.808  14.968 -0.8382  0.3428  4.5369
 3917SOL     OW23386   0.663   3.444   1.799 -0.3366  0.1881  0.0666
 3917SOL    HW123387   0.724   3.513   1.826 -0.6979  1.1580 -1.5729
 3917SOL    HW223388   0.661   3.457   1.704 -0.2226 -0.9608 -0.0942
 3918SOL     OW23389   1.254   3.718  11.576 -0.0918 -0.4044  0.0858
 3918SOL    HW123390   1.348   3.736  11.581  0.0330 -0.4056 -2.0106
 3918SOL    HW223391   1.217   3.766  11.650 -3.2461 -0.6771 -1.3180
 3919SOL     OW23392   2.263   0.522  17.067 -0.5084 -0.3311  0.7337
 3919SOL    HW123393   2.312   0.517  16.985 -1.8607  1.9209 -0.2138
 3919SOL    HW223394   2.340   0.513  17.122 -0.0593  1.0283  0.3415
 3920SOL     OW23395   2.849   0.907   8.304  0.1168  0.0364  0.3899
 3920SOL    HW123396   2.886   0.820   8.289 -1.0221 -0.6118  1.3833
 3920SOL    HW223397   2.758   0.893   8.279  0.4233  1.7517 -1.7918
 3921SOL     OW23398   3.044   0.709   9.491 -0.0572  0.1007 -0.4983
 3921SOL    HW123399   3.112   0.740   9.550  0.4139  0.0121 -0.9973
 3921SOL    HW223400   2.964   0.753   9.521  0.8929  0.9964  0.7272
 3922SOL     OW23401   3.851   2.215   3.463 -0.3691  0.0384 -0.8478
 3922SOL    HW123402   3.784   2.186   3.402 -1.7242  2.9530 -0.7642
 3922SOL    HW223403   3.907   2.271   3.409 -1.6387  3.0974  0.9661
 3923SOL     OW23404   3.775   0.752   2.392  0.0973 -0.5087 -0.1764
 3923SOL    HW123405   3.763   0.677   2.451 -1.4498 -1.3658 -1.5518
 3923SOL    HW223406   3.706   0.811   2.423  0.0690 -1.1379  0.9361
 3924SOL     OW23407   3.829   2.978   3.110  0.6145 -0.0671  0.1751
 3924SOL    HW123408   3.813   3.028   3.030  1.7148  0.4962  0.3117
 3924SOL    HW223409   3.787   3.029   3.179 -1.0786  1.0381 -1.6702
 3925SOL     OW23410   0.170   4.248  10.589  0.0633 -0.0706  0.2832
 3925SOL    HW123411   0.097   4.299  10.625  0.5408  1.0227 -0.3113
 3925SOL    HW223412   0.215   4.223  10.670  2.9868 -0.4866 -1.4903
 3926SOL     OW23413   1.188   4.659   3.682 -0.0494  0.0683  0.0032
 3926SOL    HW123414   1.180   4.682   3.589  1.0134 -1.5661 -0.4863
 3926SOL    HW223415   1.283   4.666   3.680 -0.0971  0.8929  0.5276
 3927SOL     OW23416   1.867   0.528   3.586  0.2764  0.0050 -0.2255
 3927SOL    HW123417   1.803   0.599   3.589  0.4410  0.1227  0.3844
 3927SOL    HW223418   1.948   0.574   3.606 -0.9806  1.6276  1.0940
 3928SOL     OW23419   0.251   3.687   4.309 -0.1472  0.0133 -0.0315
 3928SOL    HW123420   0.199   3.688   4.390 -0.9086  1.0921 -0.5396
 3928SOL    HW223421   0.225   3.770   4.270  1.3085  0.8682  0.8029
 3929SOL     OW23422   2.045   2.304  17.047  0.2958 -0.3290  0.0288
 3929SOL    HW123423   2.053   2.354  16.965  1.0379  3.4830  2.4454
 3929SOL    HW223424   2.006   2.368  17.105  2.6090  1.2730 -0.1798
 3930SOL     OW23425   1.263   1.353  16.561  0.3874  0.6007 -0.5557
 3930SOL    HW123426   1.217   1.308  16.490  0.2836 -2.7193  1.6185
 3930SOL    HW223427   1.262   1.283  16.626 -0.7473  0.0438 -1.1740
 3931SOL     OW23428   0.265   2.705   3.315  0.1398 -0.4309 -0.0289
 3931SOL    HW123429   0.346   2.657   3.327 -0.6310 -1.3080  1.6029
 3931SOL    HW223430   0.286   2.779   3.372 -1.6116  0.4991 -0.5562
 3932SOL     OW23431   0.353   4.682   7.775 -0.5588  0.2006  0.2095
 3932SOL    HW123432   0.299   4.701   7.851  0.9408 -4.4946  2.4918
 3932SOL    HW223433   0.411   0.019   7.769 -0.7788  0.1676 -2.3217
 3933SOL     OW23434   2.238   2.630  14.196 -0.6828 -0.0731  0.3283
 3933SOL    HW123435   2.314   2.575  14.216 -0.0622  0.6051 -0.1941
 3933SOL    HW223436   2.227   2.612  14.103 -0.0450  2.7636 -0.2798
 3934SOL     OW23437   3.096   2.771  13.701  0.2484 -0.3053  0.3184
 3934SOL    HW123438   3.175   2.733  13.663  0.3167 -0.2082  0.3622
 3934SOL    HW223439   3.022   2.737  13.651 -1.3549  1.8059  1.2394
 3935SOL     OW23440   3.180   1.420   6.640 -0.1310  0.2975  0.4855
 3935SOL    HW123441   3.213   1.336   6.672 -0.6608  0.0519  0.4035
 3935SOL    HW223442   3.253   1.458   6.592  0.0652 -1.4782 -0.6058
 3936SOL     OW23443   4.387   4.670   6.302 -0.4381 -0.3005  0.2690
 3936SOL    HW123444   4.390   4.578   6.327 -1.5418  0.1403  2.0551
 3936SOL    HW223445   4.435   4.679   6.220  0.7613 -2.5501  0.7592
 3937SOL     OW23446   0.705   2.086   3.768  0.2472 -0.1037 -0.3951
 3937SOL    HW123447   0.743   2.018   3.823 -0.3871 -1.5856 -1.7618
 3937SOL    HW223448   0.663   2.142   3.832 -0.7695 -0.2327 -0.9408
 3938SOL     OW23449   1.659   0.927   6.345  0.2036 -0.1983  0.6703
 3938SOL    HW123450   1.685   0.840   6.315  0.0304 -0.1757  0.4564
 3938SOL    HW223451   1.575   0.905   6.385 -0.2457 -1.5613 -1.0109
 3939SOL     OW23452   0.107   1.878  10.220 -0.6126 -0.4994 -0.0662
 3939SOL    HW123453   0.148   1.806  10.267 -1.4335 -0.0198  1.3807
 3939SOL    HW223454   0.026   1.839  10.187 -0.1053  0.0208 -1.9301
 3940SOL     OW23455   0.774   2.321  12.983  0.1593 -0.2219  0.3386
 3940SOL    HW123456   0.751   2.374  12.907  0.3865  0.2495  0.5961
 3940SOL    HW223457   0.853   2.275  12.955 -0.4876 -1.4331  0.5278
 3941SOL     OW23458   4.204   0.230   3.293 -0.2436 -0.1385 -0.1144
 3941SOL    HW123459   4.291   0.240   3.253 -0.3684  1.2306 -0.0433
 3941SOL    HW223460   4.233   0.204   3.380 -2.3054 -0.7663  0.3804
 3942SOL     OW23461   3.954   4.679  14.029 -0.0671 -0.3797 -0.1355
 3942SOL    HW123462   3.870   4.646  13.996 -0.4761  1.0210 -0.4989
 3942SOL    HW223463   4.021   4.624  13.989 -0.2931 -1.1413  0.5394
 3943SOL     OW23464   1.688   3.716   5.624  0.7798 -0.1519  0.0388
 3943SOL    HW123465   1.615   3.753   5.674  1.4242 -0.9204  1.5486
 3943SOL    HW223466   1.711   3.797   5.578  1.7492 -1.4631 -1.7981
 3944SOL     OW23467   4.711   0.627   5.677  0.3529  0.1595 -0.5449
 3944SOL    HW123468   4.656   0.676   5.615 -0.6305  1.0554  1.0317
 3944SOL    HW223469   4.640   0.589   5.730  0.1911  0.1751 -0.7517
 3945SOL     OW23470   4.663   2.780   7.910 -0.0895  0.2730 -0.1541
 3945SOL    HW123471   4.576   2.816   7.890 -0.6512 -0.8686  0.2170
 3945SOL    HW223472   4.699   2.860   7.948 -0.7760  1.3274 -1.6991
 3946SOL     OW23473   3.894   1.889   2.467  0.0715 -0.2022  0.0805
 3946SOL    HW123474   3.811   1.899   2.421 -0.4350  2.1577  1.4736
 3946SOL    HW223475   3.902   1.966   2.524 -0.6761 -0.3738  0.4125
 3947SOL     OW23476   3.708   3.999   1.218  0.8618  0.3898  0.1688
 3947SOL    HW123477   3.793   4.020   1.181  2.2080 -2.0682  1.8203
 3947SOL    HW223478   3.647   4.026   1.150  1.6487 -1.7340 -1.3832
 3948SOL     OW23479   1.480   0.347   0.306  0.3927 -0.2505 -0.0290
 3948SOL    HW123480   1.399   0.375   0.349  0.7103  3.1043 -1.5522
 3948SOL    HW223481   1.450   0.390   0.226  0.4553  1.7929  1.0432
 3949SOL     OW23482   2.485   0.809   3.647 -0.2901 -0.2388 -0.0232
 3949SOL    HW123483   2.520   0.895   3.624 -0.2504  0.5271  2.8642
 3949SOL    HW223484   2.411   0.849   3.691  0.6132 -0.0939  1.3630
 3950SOL     OW23485   0.844   0.428   2.168  0.3107 -0.1729  0.0263
 3950SOL    HW123486   0.873   0.376   2.094 -1.7450 -1.1745 -0.0876
 3950SOL    HW223487   0.923   0.406   2.218  1.7099 -0.6544 -2.4316
 3951SOL     OW23488   3.103   4.727  10.595  0.3105 -0.2232 -0.6127
 3951SOL    HW123489   3.090   4.654  10.534 -0.7952 -0.6699  0.1617
 3951SOL    HW223490   3.068   4.681  10.671  0.1563 -0.0470 -0.5774
 3952SOL     OW23491   4.035   2.694   7.919 -0.0340  0.7695  0.0902
 3952SOL    HW123492   4.049   2.683   7.824 -0.7199  0.0422  0.0698
 3952SOL    HW223493   4.113   2.743   7.942  1.0696  0.0095 -2.0157
 3953SOL     OW23494   0.630   3.268  17.473  0.5081 -0.3893 -0.1710
 3953SOL    HW123495   0.634   3.183  17.518 -2.5063  0.2689  1.3008
 3953SOL    HW223496   0.614   3.245  17.382 -0.1392  1.7132 -0.5724
 3954SOL     OW23497   2.878   3.619   2.066  0.2278 -0.1080  0.9153
 3954SOL    HW123498   2.800   3.578   2.104 -0.4740 -0.0597 -0.4499
 3954SOL    HW223499   2.943   3.574   2.118  1.0257 -0.2480 -0.2027
 3955SOL     OW23500   0.336   3.816   4.686  0.2394  0.1230 -0.0096
 3955SOL    HW123501   0.414   3.772   4.719  0.7948 -0.4822 -2.0960
 3955SOL    HW223502   0.295   3.863   4.758 -0.8346 -0.6918 -0.0813
 3956SOL     OW23503   2.755   3.629   2.942 -0.0458  0.4192 -0.8555
 3956SOL    HW123504   2.774   3.536   2.934 -2.5007  0.0368 -2.5288
 3956SOL    HW223505   2.659   3.621   2.943  0.0825 -1.0578 -1.0967
 3957SOL     OW23506   1.499   0.482   8.295 -0.8431  0.5931  0.0368
 3957SOL    HW123507   1.539   0.399   8.320  1.2874  1.1931 -1.3666
 3957SOL    HW223508   1.536   0.543   8.358 -0.0372 -0.2161  0.3463
 3958SOL     OW23509   0.010   2.127   5.471  0.0956  0.4026 -0.2643
 3958SOL    HW123510   4.724   2.181   5.396 -0.3923 -0.8798 -1.0319
 3958SOL    HW223511   4.661   2.094   5.485  0.5410 -0.6876  0.0237
 3959SOL     OW23512   0.879   0.004  12.724 -0.0320  0.3897 -0.2410
 3959SOL    HW123513   0.914   4.712  12.808  0.7432  1.5005 -0.1420
 3959SOL    HW223514   0.899   4.668  12.668  1.6448  0.1123  0.7160
 3960SOL     OW23515   3.288   0.560  14.542  0.0369 -0.0392 -0.6196
 3960SOL    HW123516   3.354   0.498  14.511 -0.6513 -0.2252 -1.6986
 3960SOL    HW223517   3.257   0.510  14.617  0.6665  0.7044  0.1446
 3961SOL     OW23518   3.244   0.289   1.991  0.1919  0.0327 -0.5624
 3961SOL    HW123519   3.171   0.234   2.019 -2.4416  2.7625 -2.0427
 3961SOL    HW223520   3.299   0.220   1.953  0.7642  0.2429 -0.1053
 3962SOL     OW23521   3.947   2.349   4.402 -0.4790 -0.3755  0.7832
 3962SOL    HW123522   3.868   2.368   4.351  0.6791  1.9184 -0.1636
 3962SOL    HW223523   3.920   2.270   4.449  0.6667 -1.9432 -1.2104
 3963SOL     OW23524   4.288   3.132   3.605 -0.8928 -0.4897  0.4082
 3963SOL    HW123525   4.332   3.136   3.520 -3.0625 -1.0310 -0.7435
 3963SOL    HW223526   4.279   3.225   3.628 -1.3985 -0.2695 -0.7194
 3964SOL     OW23527   1.035   0.352  11.616 -0.4722  0.1358 -0.0418
 3964SOL    HW123528   1.003   0.413  11.549 -2.3254 -2.4459 -1.4932
 3964SOL    HW223529   1.100   0.293  11.578 -0.9235  0.7946 -1.8707
 3965SOL     OW23530   1.466   4.463  17.282  0.1977 -0.0489 -0.0110
 3965SOL    HW123531   1.436   4.527  17.218 -0.6889 -0.8758 -0.4220
 3965SOL    HW223532   1.415   4.389  17.250 -0.2951  0.1682  0.2651
 3966SOL     OW23533   0.918   3.915  12.438 -0.3701 -0.9052  0.0467
 3966SOL    HW123534   0.890   3.964  12.515  0.5194 -1.3876  0.6696
 3966SOL    HW223535   0.926   3.979  12.367  0.4185 -0.5617  0.4547
 3967SOL     OW23536   1.885   4.131   2.903 -0.2353  1.1010 -0.0455
 3967SOL    HW123537   1.861   4.079   2.826  0.8740 -1.5566  1.3718
 3967SOL    HW223538   1.955   4.079   2.942  2.5382  2.5206 -3.2457
 3968SOL     OW23539   4.689   0.481   6.581  0.5616 -0.6577 -0.0037
 3968SOL    HW123540   0.025   0.539   6.581 -0.3384  0.4946 -0.6585
 3968SOL    HW223541   4.677   0.478   6.676  2.3466 -1.0241  0.2061
 3969SOL     OW23542   2.830   4.549  15.114 -0.7037 -0.0896  0.1011
 3969SOL    HW123543   2.880   4.589  15.044 -1.5162 -0.5466 -0.7370
 3969SOL    HW223544   2.765   4.496  15.067 -0.6832 -0.4518  0.4811
 3970SOL     OW23545   1.340   0.878   5.958 -0.1823 -0.1862 -0.0339
 3970SOL    HW123546   1.428   0.853   5.983 -1.0641 -1.0797  2.1640
 3970SOL    HW223547   1.360   0.958   5.910 -1.1165  0.0375 -0.0607
 3971SOL     OW23548   2.538   4.157   6.036 -0.1056 -0.1450  0.8987
 3971SOL    HW123549   2.620   4.121   6.071  1.7295  1.3405 -1.8481
 3971SOL    HW223550   2.508   4.079   5.990 -0.0927  0.4296 -0.0744
 3972SOL     OW23551   1.059   2.940   9.176 -0.5291  0.7233 -0.1968
 3972SOL    HW123552   1.152   2.927   9.192 -0.8114  1.6341  2.1443
 3972SOL    HW223553   1.030   2.991   9.251 -2.2987  1.0781 -1.1087
 3973SOL     OW23554   2.659   2.926  10.936 -0.5010  0.0700 -0.0980
 3973SOL    HW123555   2.728   2.945  11.000  0.9980 -3.4534 -0.6974
 3973SOL    HW223556   2.725   2.925  10.867  0.2477  1.5454  0.5793
 3974SOL     OW23557   0.248   0.287   9.351 -0.1626 -0.4327 -0.0691
 3974SOL    HW123558   0.291   0.370   9.330 -1.1712  0.3580  1.0300
 3974SOL    HW223559   0.260   0.300   9.445 -4.3739 -1.0652  0.5363
 3975SOL     OW23560   2.832   3.234   4.405  0.1667  0.1593 -0.5759
 3975SOL    HW123561   2.769   3.162   4.402  0.7167 -0.4144  1.3382
 3975SOL    HW223562   2.852   3.231   4.499  0.0190 -2.5104 -0.6464
 3976SOL     OW23563   3.568   2.674   8.848 -0.4593 -0.3845  0.2169
 3976SOL    HW123564   3.473   2.676   8.833 -0.2652 -1.4860 -1.0721
 3976SOL    HW223565   3.602   2.588   8.826 -1.4739 -0.7597  0.1336
 3977SOL     OW23566   3.711   1.571  17.081 -0.2083 -0.8294  0.1255
 3977SOL    HW123567   3.693   1.615  16.998 -1.8740  2.6841  2.3515
 3977SOL    HW223568   3.804   1.548  17.076  0.0325 -0.5713  3.2098
 3978SOL     OW23569   1.139   2.654   8.123  0.4062 -0.0443 -0.3491
 3978SOL    HW123570   1.088   2.626   8.047  1.8493  1.1712 -1.7851
 3978SOL    HW223571   1.164   2.737   8.082  2.4478 -0.4060  0.1533
 3979SOL     OW23572   4.391   2.070  10.858 -0.4814 -0.3572 -0.5979
 3979SOL    HW123573   4.412   2.013  10.932 -1.1642  0.5662  0.3107
 3979SOL    HW223574   4.452   2.046  10.788 -0.4161  0.6923 -0.8999
 3980SOL     OW23575   2.316   0.105   8.042  0.4590 -0.1874 -0.5850
 3980SOL    HW123576   2.265   0.048   8.100 -0.1153  1.0448  0.1144
 3980SOL    HW223577   2.360   0.039   7.988  0.5934 -0.2319 -0.4195
 3981SOL     OW23578   2.141   2.548   2.822 -0.0188 -0.0449 -0.3107
 3981SOL    HW123579   2.056   2.537   2.865  0.2256 -0.3722  0.0854
 3981SOL    HW223580   2.191   2.590   2.892 -0.4327 -0.0439 -0.0131
 3982SOL     OW23581   3.863   4.491   8.924 -0.3254  0.2746 -0.0030
 3982SOL    HW123582   3.940   4.459   8.877 -0.5997  0.6027 -0.6901
 3982SOL    HW223583   3.809   4.501   8.846 -0.0017 -0.0876 -0.2718
 3983SOL     OW23584   2.484   3.984   7.589 -0.4512  0.1102  0.2501
 3983SOL    HW123585   2.565   4.035   7.596 -0.2180  0.0110 -1.7631
 3983SOL    HW223586   2.449   4.022   7.508  0.1886  0.8884  0.3350
 3984SOL     OW23587   3.236   0.887  13.885 -0.1608  0.2155  0.3224
 3984SOL    HW123588   3.286   0.835  13.822 -0.7370 -0.9635  0.8443
 3984SOL    HW223589   3.150   0.881  13.844 -0.3636 -0.4114  0.8273
 3985SOL     OW23590   0.988   4.168  17.064 -0.0712  0.1125 -0.0914
 3985SOL    HW123591   1.000   4.261  17.044  0.1505  0.1582  0.2663
 3985SOL    HW223592   1.072   4.123  17.073 -1.4120 -1.9704  1.8621
 3986SOL     OW23593   4.611   2.814   1.866  0.3655 -0.1430 -0.6056
 3986SOL    HW123594   4.660   2.776   1.793 -1.3909 -1.0822 -1.3189
 3986SOL    HW223595   4.545   2.746   1.879  0.7419 -1.2398 -4.3587
 3987SOL     OW23596   4.276   4.185   0.545 -0.5727 -0.2025 -0.1339
 3987SOL    HW123597   4.299   4.157   0.633 -2.4794  2.2720  1.1567
 3987SOL    HW223598   4.275   4.097   0.508  0.4322 -0.6549  0.9259
 3988SOL     OW23599   2.058   3.473   1.320  0.1965  0.3065  0.1202
 3988SOL    HW123600   2.139   3.501   1.277  1.3541 -1.8861  0.8870
 3988SOL    HW223601   2.025   3.419   1.248  0.4712  0.2570  0.0299
 3989SOL     OW23602   4.516   0.439  10.083  0.4902 -0.0634  0.4103
 3989SOL    HW123603   4.516   0.344  10.088  1.1669 -0.0389  0.8987
 3989SOL    HW223604   4.609   0.458  10.072  0.5927  1.3370  3.7375
 3990SOL     OW23605   1.529   0.924   3.978 -0.0255 -0.6571 -0.4123
 3990SOL    HW123606   1.588   0.898   3.907  1.0651  0.4931  0.0657
 3990SOL    HW223607   1.523   0.839   4.020 -2.0958  1.8316  4.2376
 3991SOL     OW23608   3.679   3.080   5.031  0.2614 -0.0717  0.3573
 3991SOL    HW123609   3.655   3.171   5.020 -1.4768 -0.6536 -0.6641
 3991SOL    HW223610   3.691   3.053   4.940 -0.2253  0.9714 -0.0030
 3992SOL     OW23611   2.709   4.325   2.509  0.6092 -0.5490 -0.3278
 3992SOL    HW123612   2.635   4.379   2.481  1.2997  0.3931 -0.3388
 3992SOL    HW223613   2.763   4.330   2.429 -1.1017  0.0477 -1.4431
 3993SOL     OW23614   4.395   3.784  14.458 -0.7195  0.3547 -0.0631
 3993SOL    HW123615   4.368   3.874  14.440 -0.9476  0.2193 -0.3825
 3993SOL    HW223616   4.393   3.790  14.554  4.0027 -0.6889  0.0927
 3994SOL     OW23617   2.826   4.256  16.255  0.4161 -0.4963 -0.3551
 3994SOL    HW123618   2.806   4.296  16.170 -0.8979  0.3386  0.3309
 3994SOL    HW223619   2.745   4.280  16.300  0.3528  1.4679 -1.5366
 3995SOL     OW23620   1.912   3.410   8.861  0.3914 -0.3519 -0.3204
 3995SOL    HW123621   1.981   3.463   8.901 -1.0716  0.5993  0.9774
 3995SOL    HW223622   1.890   3.476   8.795 -3.4843 -1.3380 -0.0221
 3996SOL     OW23623   0.188   3.904   4.181 -0.0624  0.2989 -0.4630
 3996SOL    HW123624   0.112   3.961   4.194  0.5156  0.8932  0.2838
 3996SOL    HW223625   0.260   3.967   4.188  1.8124 -1.8130 -0.5570
 3997SOL     OW23626   4.243   2.522   9.698  0.2675  0.6126  0.4451
 3997SOL    HW123627   4.160   2.477   9.682  1.1359 -0.4812 -1.0187
 3997SOL    HW223628   4.304   2.448   9.699 -1.1364 -0.5226  2.0813
 3998SOL     OW23629   0.332   1.845  13.502  0.3583 -0.3178  0.5905
 3998SOL    HW123630   0.427   1.838  13.498  0.4581  1.2573  0.4222
 3998SOL    HW223631   0.308   1.753  13.520 -0.5891 -0.2753 -0.4710
 3999SOL     OW23632   1.488   1.182   4.089 -0.1279 -0.3506 -0.1239
 3999SOL    HW123633   1.565   1.145   4.133  0.7408  0.1238 -1.2651
 3999SOL    HW223634   1.478   1.098   4.044 -0.4813 -0.4550  0.1457
 4000SOL     OW23635   2.234   2.734   6.155 -0.0985  0.3215  0.4274
 4000SOL    HW123636   2.255   2.663   6.216  0.1735 -0.9670 -1.1419
 4000SOL    HW223637   2.304   2.727   6.090  1.4056 -0.8528  2.1451
 4001SOL     OW23638   2.670   4.644  14.494 -0.2800  0.4355  0.1222
 4001SOL    HW123639   2.694   4.735  14.481  2.8180 -0.3931 -0.0885
 4001SOL    HW223640   2.625   4.638  14.410 -0.3874 -0.9216  0.2647
 4002SOL     OW23641   3.190   4.406   5.646 -0.4949 -0.0700  0.3997
 4002SOL    HW123642   3.225   4.474   5.588 -0.9392 -0.6385 -0.5393
 4002SOL    HW223643   3.265   4.347   5.648 -1.4614 -1.1693  3.3853
 4003SOL     OW23644   1.590   4.101   1.276 -0.5823 -0.1974  0.0754
 4003SOL    HW123645   1.510   4.130   1.233  0.1823 -0.2201 -1.3461
 4003SOL    HW223646   1.611   4.180   1.325  0.6452 -0.1282 -0.5725
 4004SOL     OW23647   4.677   1.718   6.039  0.0855 -0.3982 -0.5310
 4004SOL    HW123648   4.677   1.645   5.977  0.6400 -0.3627 -0.5761
 4004SOL    HW223649   4.694   1.791   5.979  0.3675 -1.0193 -1.2135
 4005SOL     OW23650   4.226   4.580   8.000  0.2344  0.3636 -0.3290
 4005SOL    HW123651   4.155   4.553   8.058 -0.6887  1.3147 -1.0217
 4005SOL    HW223652   4.288   4.627   8.056  1.7723 -0.5062 -1.3269
 4006SOL     OW23653   2.736   0.904   5.663  0.0948 -0.1105  0.1058
 4006SOL    HW123654   2.654   0.892   5.710 -0.1674  1.2667 -0.0012
 4006SOL    HW223655   2.794   0.846   5.712 -1.1157 -1.0267  0.4548
 4007SOL     OW23656   3.748   3.039  17.100 -0.6447 -0.6136 -0.7001
 4007SOL    HW123657   3.687   2.969  17.123 -1.4520  0.0825 -0.7553
 4007SOL    HW223658   3.822   2.977  17.102 -0.8372 -0.8542 -1.0211
 4008SOL     OW23659   3.115   4.601   6.408  0.4762 -0.2928  0.1202
 4008SOL    HW123660   3.106   4.514   6.448 -2.5254  1.0685  2.3591
 4008SOL    HW223661   3.207   4.622   6.426  1.3290 -4.0493  0.1061
 4009SOL     OW23662   3.942   0.692   9.651  0.1495 -0.1660 -0.2575
 4009SOL    HW123663   4.026   0.736   9.662 -0.5889  0.6437  2.0106
 4009SOL    HW223664   3.901   0.734   9.727  1.0244 -2.5519  1.4997
 4010SOL     OW23665   3.693   0.139  14.541  0.2882 -0.3902  0.6423
 4010SOL    HW123666   3.683   0.205  14.472 -0.0235  0.3506  1.3932
 4010SOL    HW223667   3.781   0.150  14.578  0.2156  2.2139  0.0469
 4011SOL     OW23668   2.103   2.856   2.135 -0.5969  0.3385  0.0195
 4011SOL    HW123669   2.129   2.817   2.218 -1.0027 -4.8625 -2.2621
 4011SOL    HW223670   2.181   2.830   2.086  0.6445  1.5266  1.3950
 4012SOL     OW23671   2.958   0.796   7.040 -0.4090  0.9747 -0.0152
 4012SOL    HW123672   2.993   0.708   7.054  1.8459  1.7737 -0.7803
 4012SOL    HW223673   3.012   0.831   6.970 -0.0151 -1.5413 -0.9966
 4013SOL     OW23674   0.376   4.044   5.374 -0.4909 -0.5482 -0.0314
 4013SOL    HW123675   0.340   4.007   5.293  0.0004  3.1514 -1.9629
 4013SOL    HW223676   0.453   4.092   5.345 -0.0880 -1.2238 -0.0646
 4014SOL     OW23677   4.240   1.698   1.038  0.0250  0.2844  0.2501
 4014SOL    HW123678   4.227   1.645   1.116 -0.4252 -2.4756 -1.7045
 4014SOL    HW223679   4.333   1.685   1.017 -0.2313  0.6977 -1.1781
 4015SOL     OW23680   0.064   3.838   3.573 -0.0740 -0.4682  0.1628
 4015SOL    HW123681   0.097   3.768   3.629  1.7776 -0.2620 -0.6605
 4015SOL    HW223682   4.711   3.817   3.557  0.0164  1.8585 -3.3330
 4016SOL     OW23683   1.442   1.901   2.817 -0.5818  0.2533  0.5103
 4016SOL    HW123684   1.368   1.875   2.872 -1.4216  2.0845  0.2191
 4016SOL    HW223685   1.407   1.971   2.762  0.2471  0.6591  0.4944
 4017SOL     OW23686   1.436   1.286   8.697 -0.5760 -0.0071 -0.1090
 4017SOL    HW123687   1.380   1.222   8.653 -0.1554  0.8472 -1.9003
 4017SOL    HW223688   1.526   1.251   8.693 -0.5294  0.2087 -0.9259
 4018SOL     OW23689   0.970   1.050   8.659 -0.0787 -0.0976  0.6348
 4018SOL    HW123690   0.913   1.053   8.736 -1.2733  1.1665 -0.2820
 4018SOL    HW223691   0.980   0.957   8.640 -1.6946  0.2445 -1.8822
 4019SOL     OW23692   2.824   0.961   4.269 -0.0991 -0.0796 -0.2320
 4019SOL    HW123693   2.875   0.930   4.194  0.5538  0.6927 -0.1130
 4019SOL    HW223694   2.792   0.873   4.286 -3.8682  1.2462 -0.5467
 4020SOL     OW23695   1.937   4.318   1.839 -0.2101 -0.7019 -0.7096
 4020SOL    HW123696   1.901   4.255   1.777 -0.8640 -0.7548 -0.2688
 4020SOL    HW223697   2.031   4.305   1.827  0.1139  0.3869  0.6719
 4021SOL     OW23698   4.204   0.401  15.397  0.5554 -0.2419 -0.0164
 4021SOL    HW123699   4.197   0.496  15.400 -1.2862 -0.4299  1.7344
 4021SOL    HW223700   4.157   0.387  15.315 -1.1193  0.8501  0.7490
 4022SOL     OW23701   4.381   0.540   3.491 -0.1464  0.2191  0.6249
 4022SOL    HW123702   4.332   0.603   3.545  1.2980  0.3337  1.7781
 4022SOL    HW223703   4.455   0.596   3.468  0.6580 -0.4096  1.7624
 4023SOL     OW23704   1.766   4.508   5.922  0.0789  0.1871  0.3505
 4023SOL    HW123705   1.740   4.591   5.882 -3.4046 -1.5644 -1.0460
 4023SOL    HW223706   1.814   4.465   5.850 -1.3447  0.2443 -0.6349
 4024SOL     OW23707   3.038   3.397   8.333 -0.2203 -0.1831  0.1152
 4024SOL    HW123708   3.092   3.400   8.254 -1.0165 -0.5910 -0.4519
 4024SOL    HW223709   3.107   3.368   8.392  0.5021  2.9069  0.7648
 4025SOL     OW23710   1.528   3.203  12.962 -0.0973 -0.7115  0.5668
 4025SOL    HW123711   1.545   3.110  12.947 -1.3323 -0.5947 -1.3835
 4025SOL    HW223712   1.607   3.222  13.014  0.5573  2.1057 -1.4522
 4026SOL     OW23713   0.960   3.649   3.804  0.0195  0.5996  0.8125
 4026SOL    HW123714   0.997   3.678   3.721 -0.4630 -1.9771 -0.2844
 4026SOL    HW223715   0.866   3.664   3.795 -0.0279  1.4717  2.6960
 4027SOL     OW23716   2.273   0.874   7.359  0.9386  0.3651 -0.2285
 4027SOL    HW123717   2.330   0.933   7.309  2.2594 -2.9645 -2.6775
 4027SOL    HW223718   2.295   0.914   7.443  1.3705  0.3386 -0.3294
 4028SOL     OW23719   1.748   1.220   8.707  0.1832  0.2467 -0.3403
 4028SOL    HW123720   1.820   1.162   8.681 -0.4557 -0.4519 -0.5374
 4028SOL    HW223721   1.771   1.236   8.798 -1.1373 -0.0228  0.0389
 4029SOL     OW23722   0.320   0.482   1.410  0.0156 -0.0989 -0.3211
 4029SOL    HW123723   0.277   0.465   1.326  1.6950 -3.1196 -0.5816
 4029SOL    HW223724   0.248   0.469   1.471  0.5836 -3.4726 -0.4081
 4030SOL     OW23725   0.515   3.879   5.539  0.4055  0.1133 -0.1768
 4030SOL    HW123726   0.463   3.940   5.487  1.7184 -0.0397 -1.6555
 4030SOL    HW223727   0.488   3.793   5.506  0.2076 -0.7556  2.3107
 4031SOL     OW23728   0.653   0.800  13.600  0.2248  0.1777 -0.1788
 4031SOL    HW123729   0.584   0.852  13.642 -0.1060 -0.9285  0.6510
 4031SOL    HW223730   0.710   0.776  13.673  0.0603  1.6776  0.4345
 4032SOL     OW23731   1.606   0.334  14.023 -0.6046  0.0622 -0.6449
 4032SOL    HW123732   1.570   0.422  14.032 -0.6846 -0.0107 -0.2620
 4032SOL    HW223733   1.581   0.338  13.931 -0.5213  1.7850 -0.5976
 4033SOL     OW23734   0.146   2.043   7.529 -0.8908  0.1177 -0.5435
 4033SOL    HW123735   0.071   2.071   7.582 -0.5102 -3.5136  1.8782
 4033SOL    HW223736   0.219   2.102   7.546  0.0460 -1.0756 -0.3838
 4034SOL     OW23737   1.361   0.649   9.098 -0.0328 -0.4745  0.0021
 4034SOL    HW123738   1.364   0.685   9.187 -0.5151 -0.6273  0.0783
 4034SOL    HW223739   1.324   0.562   9.112 -1.6006 -0.3272 -3.3344
 4035SOL     OW23740   4.340   4.566   6.720  0.1438  0.1628 -0.1276
 4035SOL    HW123741   4.360   4.476   6.694 -0.2970 -0.3796  1.4176
 4035SOL    HW223742   4.247   4.569   6.697  0.6252 -1.5697 -2.3716
 4036SOL     OW23743   0.433   4.138   2.381  0.0376  0.3579 -0.1465
 4036SOL    HW123744   0.453   4.051   2.415 -0.9227  1.1166  2.3886
 4036SOL    HW223745   0.347   4.131   2.342 -0.1014 -0.1630  0.2524
 4037SOL     OW23746   1.391   0.913  13.359  0.4366 -0.3993  0.5287
 4037SOL    HW123747   1.312   0.858  13.359 -0.2529  0.5974 -1.4049
 4037SOL    HW223748   1.347   0.998  13.353  0.7010 -0.1175  2.7277
 4038SOL     OW23749   2.479   0.044   4.513 -0.4613 -0.0124  0.0404
 4038SOL    HW123750   2.512   4.722   4.578 -0.5524 -1.0675 -0.8968
 4038SOL    HW223751   2.516   0.005   4.433 -2.3001 -2.9084  0.6087
 4039SOL     OW23752   2.877   2.396   0.876  0.3549  0.4050  0.6183
 4039SOL    HW123753   2.941   2.397   0.947 -2.3113  0.0337  3.0442
 4039SOL    HW223754   2.796   2.368   0.919  0.4476  0.2580  0.6971
 4040SOL     OW23755   4.250   4.375   7.364  0.6873  0.4085 -0.2861
 4040SOL    HW123756   4.221   4.405   7.450  0.0314 -0.5733 -0.1670
 4040SOL    HW223757   4.343   4.386   7.381  0.1323  3.0871  1.0266
 4041SOL     OW23758   0.804   2.494   5.044  0.2107 -0.2776 -0.0945
 4041SOL    HW123759   0.862   2.446   4.985  1.4523  1.4947 -0.3450
 4041SOL    HW223760   0.813   2.579   4.999 -2.3020  0.0819  0.0700
 4042SOL     OW23761   0.333   0.195   2.477  0.5161 -0.9537  0.5095
 4042SOL    HW123762   0.328   0.237   2.391 -1.1788  1.8412  1.9678
 4042SOL    HW223763   0.415   0.236   2.505  2.2070 -3.5837 -0.5870
 4043SOL     OW23764   2.034   1.420   1.144  0.1380  0.0070  1.0305
 4043SOL    HW123765   2.037   1.346   1.205 -1.3229 -2.4399 -1.8167
 4043SOL    HW223766   2.093   1.485   1.182 -0.5950  1.1403  0.2172
 4044SOL     OW23767   0.039   1.439   6.338  0.2587  0.1196 -0.0607
 4044SOL    HW123768   4.687   1.410   6.342  0.0137  0.8174 -0.5023
 4044SOL    HW223769   0.052   1.430   6.244  0.9411  4.3614 -0.3948
 4045SOL     OW23770   3.025   4.299   5.177 -0.0905 -0.2714  0.4452
 4045SOL    HW123771   3.070   4.259   5.251 -0.5742 -1.5368  0.0523
 4045SOL    HW223772   3.090   4.291   5.108 -0.1675 -1.4226  0.5086
 4046SOL     OW23773   2.969   4.171   0.386  0.0065  0.0563 -0.1356
 4046SOL    HW123774   2.984   4.260   0.416 -0.8695  0.3072 -0.4410
 4046SOL    HW223775   2.890   4.176   0.332  0.5832  0.0080 -0.9753
 4047SOL     OW23776   3.353   2.310   8.661  0.1033  0.3619  0.1106
 4047SOL    HW123777   3.437   2.346   8.636  1.4144 -2.5652  0.3144
 4047SOL    HW223778   3.311   2.311   8.575 -1.2115 -1.5864  0.7207
 4048SOL     OW23779   1.336   1.488   5.008  0.0195 -0.0434  0.3080
 4048SOL    HW123780   1.421   1.471   4.969 -0.2281  1.1718 -0.7387
 4048SOL    HW223781   1.281   1.450   4.940 -1.1120  2.1778 -0.0194
 4049SOL     OW23782   1.342   3.898   5.061 -0.0406  0.0164 -0.1887
 4049SOL    HW123783   1.327   3.932   4.972 -0.8660  1.2409  0.4279
 4049SOL    HW223784   1.427   3.938   5.079  0.1658 -0.2038 -0.6524
 4050SOL     OW23785   1.691   2.968  17.603 -0.5663 -0.3976  0.4940
 4050SOL    HW123786   1.741   2.886  17.598  0.1342  0.0364  0.4432
 4050SOL    HW223787   1.740   3.004  17.676 -0.3102  1.2027 -0.4591
 4051SOL     OW23788   1.944   2.036   6.347  0.8045 -0.0373  0.0584
 4051SOL    HW123789   1.872   2.029   6.285 -1.5758  1.7202  2.6055
 4051SOL    HW223790   1.992   2.106   6.304 -0.6343  0.3256 -0.9408
 4052SOL     OW23791   4.398   2.011  14.856 -0.4496  0.3733 -0.0988
 4052SOL    HW123792   4.377   2.088  14.909  2.8017  1.9209 -1.0550
 4052SOL    HW223793   4.479   1.974  14.891 -0.6706  0.7129  0.7706
 4053SOL     OW23794   0.443   3.248   2.909  0.2087 -0.3521 -0.2536
 4053SOL    HW123795   0.437   3.250   3.004  0.5466 -1.0690 -0.2164
 4053SOL    HW223796   0.355   3.272   2.880 -0.4264 -2.1975  0.1194
 4054SOL     OW23797   2.656   2.999   1.515 -0.1919 -0.5784 -0.1366
 4054SOL    HW123798   2.616   2.991   1.428 -0.6873 -1.3170  0.1645
 4054SOL    HW223799   2.622   3.080   1.553 -1.1401  0.4705 -3.2100
 4055SOL     OW23800   4.510   3.309   7.550  0.2792 -0.1790 -0.3172
 4055SOL    HW123801   4.562   3.389   7.551  0.2802 -0.1623 -2.7796
 4055SOL    HW223802   4.577   3.244   7.529 -0.2034 -0.7226 -0.1689
 4056SOL     OW23803   2.182   3.141   9.537 -0.4282  0.1218  0.5206
 4056SOL    HW123804   2.199   3.188   9.620 -0.7868  0.1555  0.5746
 4056SOL    HW223805   2.251   3.171   9.478  0.5841 -0.2778  1.5008
 4057SOL     OW23806   4.538   2.724   3.798  0.6131  0.2118 -0.2733
 4057SOL    HW123807   4.470   2.657   3.804 -1.4907  2.2881 -0.5468
 4057SOL    HW223808   4.514   2.782   3.725 -0.6715 -1.1879 -0.9642
 4058SOL     OW23809   4.199   4.282  17.457  0.3540 -0.1488  0.7353
 4058SOL    HW123810   4.291   4.288  17.430 -0.0577 -1.8857 -1.0460
 4058SOL    HW223811   4.166   4.214  17.398  0.9486  0.8066 -0.6884
 4059SOL     OW23812   2.029   3.432   6.096 -0.0619 -0.0563  0.2092
 4059SOL    HW123813   1.989   3.424   6.010 -0.7550 -2.2775  0.7529
 4059SOL    HW223814   1.954   3.410   6.151 -0.3630  0.6553  0.0858
 4060SOL     OW23815   1.669   2.298  12.713  0.2264  0.2908  0.3067
 4060SOL    HW123816   1.748   2.244  12.705 -1.0776 -1.4105 -1.1340
 4060SOL    HW223817   1.707   2.381  12.683  2.2571 -0.4077  0.9127
 4061SOL     OW23818   1.415   2.371   8.724  0.1522  0.6171  0.0653
 4061SOL    HW123819   1.380   2.284   8.705  0.4274  0.6872 -0.7918
 4061SOL    HW223820   1.376   2.416   8.648 -1.4326  0.7784  0.9771
 4062SOL     OW23821   3.046   1.841   2.826  0.3404  0.4430  0.0536
 4062SOL    HW123822   3.094   1.776   2.878  1.1586 -0.0760 -1.3453
 4062SOL    HW223823   2.956   1.810   2.839  0.1626  0.8456 -0.2211
 4063SOL     OW23824   0.460   3.766   5.068 -0.0041  0.2120  0.4786
 4063SOL    HW123825   0.513   3.801   4.996  1.6355 -2.2612  0.5195
 4063SOL    HW223826   0.373   3.786   5.032 -1.0016 -2.9912  1.1537
 4064SOL     OW23827   4.440   4.409   0.526 -0.5684  0.0124  0.2114
 4064SOL    HW123828   4.532   4.386   0.520 -0.5819 -0.6775  2.5007
 4064SOL    HW223829   4.389   4.328   0.534 -0.2050 -0.0585  1.8002
 4065SOL     OW23830   1.974   4.571   4.245 -0.1267  0.2702  0.0061
 4065SOL    HW123831   1.999   4.531   4.162  0.9057 -0.2111  0.5474
 4065SOL    HW223832   1.955   4.661   4.220 -0.0521  0.8752  2.1180
 4066SOL     OW23833   4.233   1.573   8.526  0.0438  0.2644 -0.3464
 4066SOL    HW123834   4.240   1.547   8.434  0.0407 -1.9297  0.2759
 4066SOL    HW223835   4.316   1.536   8.555  0.5316  1.2756 -0.4746
 4067SOL     OW23836   3.930   3.881   3.095  0.1465  0.2965  0.1227
 4067SOL    HW123837   3.914   3.811   3.031  3.1560 -0.4499  0.2006
 4067SOL    HW223838   3.881   3.858   3.174 -0.5788 -1.9642 -0.9812
 4068SOL     OW23839   3.936   0.151  14.681  0.3245 -0.2280  0.2747
 4068SOL    HW123840   4.020   0.108  14.665 -0.5600 -2.0018  0.3780
 4068SOL    HW223841   3.960   0.243  14.688 -0.8671  0.2637 -1.9391
 4069SOL     OW23842   1.197   0.922   6.562  0.3296  0.4963  0.2544
 4069SOL    HW123843   1.281   0.901   6.603  1.5373  0.5204 -2.1933
 4069SOL    HW223844   1.139   0.876   6.623  0.2303 -1.1943 -1.0920
 4070SOL     OW23845   0.053   3.004  15.735 -0.1306  0.6666  0.2421
 4070SOL    HW123846   4.722   3.034  15.678  0.2660 -1.1430 -1.2224
 4070SOL    HW223847   0.057   2.910  15.717  0.1610  0.7910 -0.3393
 4071SOL     OW23848   2.609   1.048   6.423 -0.1369  0.1670  0.2159
 4071SOL    HW123849   2.704   1.039   6.417 -0.2093 -0.7033  0.4337
 4071SOL    HW223850   2.586   1.060   6.331  1.6036 -1.2792 -0.3780
 4072SOL     OW23851   4.416   2.194   6.596 -0.0631  0.4410 -0.9620
 4072SOL    HW123852   4.485   2.145   6.642 -1.8888 -2.8823 -1.7974
 4072SOL    HW223853   4.339   2.185   6.651  0.8947 -1.9361 -0.0122
 4073SOL     OW23854   2.996   4.474  16.320  0.0932  0.2723  0.4257
 4073SOL    HW123855   2.920   4.524  16.289  0.2545  0.8818  1.0167
 4073SOL    HW223856   2.955   4.388  16.312  0.8884 -0.3361  2.9387
 4074SOL     OW23857   3.244   2.274  10.025  0.2924  0.4148 -0.1203
 4074SOL    HW123858   3.180   2.215  10.066  0.6013 -1.2682 -2.0954
 4074SOL    HW223859   3.326   2.231  10.052 -0.3832 -1.0316 -0.3833
 4075SOL     OW23860   1.441   2.443   0.225 -0.2973 -0.1260  0.4830
 4075SOL    HW123861   1.513   2.380   0.228 -0.7907 -0.7154 -0.2516
 4075SOL    HW223862   1.499   2.515   0.199  2.1754 -0.4467  5.0544
 4076SOL     OW23863   2.529   0.331  10.475  0.4447  0.1250 -0.4601
 4076SOL    HW123864   2.554   0.332  10.567  1.0416 -1.9623 -0.5951
 4076SOL    HW223865   2.435   0.317  10.465  0.4143 -0.4413  0.5985
 4077SOL     OW23866   2.890   2.345  12.635 -0.7047 -0.3013 -0.5498
 4077SOL    HW123867   2.874   2.253  12.656 -0.6554 -0.9604 -3.4486
 4077SOL    HW223868   2.970   2.367  12.682 -1.3955  1.3103 -0.1176
 4078SOL     OW23869   2.801   4.218   6.712  0.2408  0.0891 -0.1790
 4078SOL    HW123870   2.776   4.283   6.647 -2.0212  2.2287  2.8790
 4078SOL    HW223871   2.796   4.143   6.652 -1.1497  0.5899 -0.6703
 4079SOL     OW23872   2.060   2.932   3.765 -0.3527  0.2669  0.1111
 4079SOL    HW123873   1.990   2.942   3.830 -0.5322 -0.8281  0.0879
 4079SOL    HW223874   2.049   2.839   3.749 -0.7465  0.0680  1.5308
 4080SOL     OW23875   1.407   2.044   8.895  0.0021 -0.1467  0.1886
 4080SOL    HW123876   1.462   2.031   8.817 -1.1610  3.4999 -1.2628
 4080SOL    HW223877   1.403   1.959   8.939 -1.0226  1.2739  2.7769
 4081SOL     OW23878   2.553   4.117   2.604  0.0542  0.0295  0.0235
 4081SOL    HW123879   2.639   4.149   2.578 -0.1502  0.2867 -0.3335
 4081SOL    HW223880   2.546   4.048   2.538  0.0013 -2.4459  2.5997
 4082SOL     OW23881   1.444   0.287   5.591  0.3990  0.2388 -0.4254
 4082SOL    HW123882   1.490   0.328   5.664  0.9918 -0.0960 -0.6126
 4082SOL    HW223883   1.358   0.304   5.631  0.4656 -2.5572  0.8755
 4083SOL     OW23884   4.153   4.466  14.187  0.3975  0.0686 -0.0029
 4083SOL    HW123885   4.153   4.445  14.094 -0.8848 -0.6705  0.1704
 4083SOL    HW223886   4.067   4.433  14.213  1.5420 -1.3451  2.0135
 4084SOL     OW23887   0.559   2.354   7.797  0.1707  0.0293 -0.0334
 4084SOL    HW123888   0.493   2.288   7.817  0.8805 -0.7210 -0.1504
 4084SOL    HW223889   0.559   2.414   7.872  2.2692  0.2760 -0.2303
 4085SOL     OW23890   0.105   2.526   0.517 -0.2662 -0.5670 -0.3230
 4085SOL    HW123891   0.049   2.451   0.499 -0.6180 -0.4006  0.0677
 4085SOL    HW223892   0.134   2.550   0.429  1.0983 -0.0442  0.2794
 4086SOL     OW23893   0.215   2.986  15.098  0.1806 -0.4779 -0.4410
 4086SOL    HW123894   0.201   2.928  15.173  0.1839 -1.2001 -1.0014
 4086SOL    HW223895   0.199   3.069  15.143  0.8818  0.2332 -1.5176
 4087SOL     OW23896   0.259   2.928   7.899 -0.1300  0.0421  0.3050
 4087SOL    HW123897   0.216   3.011   7.920 -0.7770 -0.2215  0.0213
 4087SOL    HW223898   0.308   2.949   7.819  2.8810  0.1378  2.1869
 4088SOL     OW23899   1.703   1.105   5.750 -0.1100 -0.4047  0.2115
 4088SOL    HW123900   1.713   1.117   5.845  0.0132  1.6022 -0.0569
 4088SOL    HW223901   1.758   1.172   5.711  0.1142 -1.9769 -2.1666
 4089SOL     OW23902   2.712   2.997  10.010  0.2125 -0.4471  0.0541
 4089SOL    HW123903   2.689   2.999  10.103 -0.9449  0.5016 -0.2361
 4089SOL    HW223904   2.678   3.083   9.984  0.4047 -0.5363 -0.4699
 4090SOL     OW23905   3.776   0.144   5.474  0.4734  0.2579  0.0936
 4090SOL    HW123906   3.821   0.162   5.556 -1.8144 -1.6451  1.7907
 4090SOL    HW223907   3.836   0.082   5.433 -1.1318 -0.5469 -1.0710
 4091SOL     OW23908   3.460   2.266  10.877 -0.4436  0.2513 -0.0969
 4091SOL    HW123909   3.379   2.311  10.902 -0.4615 -0.3955  0.9955
 4091SOL    HW223910   3.439   2.233  10.790 -0.3797  0.8886 -0.3554
 4092SOL     OW23911   2.315   2.245   9.100 -0.4931 -0.0382 -0.1561
 4092SOL    HW123912   2.298   2.204   9.184 -0.3294  0.4444  0.1097
 4092SOL    HW223913   2.255   2.319   9.108 -2.4601 -1.7855  0.9933
 4093SOL     OW23914   3.087   3.219   2.159  0.2245 -0.3404 -0.0976
 4093SOL    HW123915   3.157   3.200   2.097 -0.0183 -3.0887  0.4943
 4093SOL    HW223916   3.015   3.169   2.119  0.9815 -1.1471 -0.4563
 4094SOL     OW23917   3.170   4.021   1.113  0.3176 -0.9179 -0.6128
 4094SOL    HW123918   3.222   3.994   1.189  1.1599  1.3804 -0.3844
 4094SOL    HW223919   3.108   4.076   1.160  0.1465 -1.0463 -0.6881
 4095SOL     OW23920   2.210   0.235   3.883  0.1373 -0.4883 -0.1752
 4095SOL    HW123921   2.185   0.152   3.841 -0.3545 -0.6871  0.5092
 4095SOL    HW223922   2.302   0.238   3.858  0.8031  0.3141  2.3744
 4096SOL     OW23923   2.989   2.634  16.758  0.1687 -0.0073  0.3031
 4096SOL    HW123924   3.042   2.669  16.687  2.7742 -2.0190  1.2887
 4096SOL    HW223925   3.031   2.670  16.836 -0.5009  2.9630 -0.7163
 4097SOL     OW23926   2.375   1.984   6.492 -0.2113 -0.6899  0.1192
 4097SOL    HW123927   2.381   2.053   6.559 -2.0752 -1.5816  1.2083
 4097SOL    HW223928   2.345   2.035   6.416  1.3585  0.1404  0.0706
 4098SOL     OW23929   0.763   4.714   3.798 -0.2900  0.7513  0.5438
 4098SOL    HW123930   0.808   0.059   3.809  1.4077 -0.2122  1.0713
 4098SOL    HW223931   0.832   4.652   3.825 -0.7483 -1.2772 -2.8688
 4099SOL     OW23932   1.753   3.929  10.769 -0.6387 -0.3848  0.6358
 4099SOL    HW123933   1.730   3.840  10.741  0.5750 -0.6639  0.5326
 4099SOL    HW223934   1.818   3.926  10.839  0.4123  0.4757 -0.3062
 4100SOL     OW23935   4.077   3.569   3.082  0.0515 -0.1045 -0.2904
 4100SOL    HW123936   4.040   3.607   3.003 -1.3239  0.4010  0.5916
 4100SOL    HW223937   4.153   3.628   3.083  1.0749 -1.4311  2.5548
 4101SOL     OW23938   4.703   3.057   7.938 -0.5904 -0.1518  0.2726
 4101SOL    HW123939   4.707   3.133   7.879  0.1893  0.6748  1.3780
 4101SOL    HW223940   4.610   3.047   7.956 -0.8035  1.8705  0.3408
 4102SOL     OW23941   0.413   0.339   6.256 -0.6567 -0.1878 -0.5816
 4102SOL    HW123942   0.439   0.309   6.168  0.9588 -3.5447  1.0573
 4102SOL    HW223943   0.393   0.254   6.296  0.9249  0.0382  0.6673
 4103SOL     OW23944   2.426   1.451  17.149 -0.2578 -0.4083  0.7847
 4103SOL    HW123945   2.463   1.494  17.072 -0.9970 -1.6100 -0.2389
 4103SOL    HW223946   2.391   1.531  17.188  1.5934 -0.1147  1.8664
 4104SOL     OW23947   1.002   3.698   7.618 -0.2026 -0.6429 -0.1035
 4104SOL    HW123948   0.963   3.785   7.630 -0.3843 -0.7888  0.3594
 4104SOL    HW223949   0.971   3.661   7.701 -0.6823  0.5807  0.2711
 4105SOL     OW23950   1.311   2.791   3.175 -0.1140 -0.0116 -0.3578
 4105SOL    HW123951   1.350   2.738   3.245  0.6894 -0.2407 -0.9723
 4105SOL    HW223952   1.379   2.850   3.142  0.5775 -0.5633  0.0881
 4106SOL     OW23953   1.669   1.430   6.140 -0.5400  0.1159 -0.6907
 4106SOL    HW123954   1.630   1.344   6.160 -2.7908  0.4393 -3.7123
 4106SOL    HW223955   1.725   1.430   6.218  0.0521  0.9596 -1.1318
 4107SOL     OW23956   3.756   1.576  11.226 -0.4281  0.4726  0.1157
 4107SOL    HW123957   3.810   1.551  11.301 -2.2873 -0.4159  1.1366
 4107SOL    HW223958   3.819   1.558  11.156 -0.9342  1.4108 -0.5828
 4108SOL     OW23959   3.927   3.035   9.085 -0.2958 -0.1206 -0.2285
 4108SOL    HW123960   3.874   3.106   9.122 -1.1967  0.2541 -2.2373
 4108SOL    HW223961   3.916   2.974   9.158 -0.7265 -0.0606 -0.2477
 4109SOL     OW23962   4.403   1.467   7.198 -0.1188  0.3102 -0.2015
 4109SOL    HW123963   4.391   1.502   7.286  2.1459  1.6599 -0.4186
 4109SOL    HW223964   4.439   1.380   7.217 -1.3583 -0.3709 -1.0102
 4110SOL     OW23965   2.261   3.819   6.635  0.2760 -0.3691 -0.2040
 4110SOL    HW123966   2.349   3.841   6.605 -0.4694  2.0115 -0.6711
 4110SOL    HW223967   2.280   3.806   6.728  2.0263  0.5346 -0.4411
 4111SOL     OW23968   2.809   0.605  15.049 -0.0948  0.0076  0.2109
 4111SOL    HW123969   2.801   0.538  14.980 -1.2288 -0.0515  0.3987
 4111SOL    HW223970   2.784   0.565  15.132 -0.9174 -0.6435 -0.3469
 4112SOL     OW23971   0.131   2.459  11.341 -0.2901  0.6091 -0.3966
 4112SOL    HW123972   0.135   2.555  11.344  0.6714  0.5285  0.4467
 4112SOL    HW223973   0.158   2.449  11.249  1.0967  1.4607 -0.0699
 4113SOL     OW23974   1.523   2.606   6.431 -0.1740  0.1092  0.2780
 4113SOL    HW123975   1.515   2.697   6.402 -2.1123 -0.6107 -1.5111
 4113SOL    HW223976   1.440   2.574   6.395  0.1471 -0.1731 -0.2227
 4114SOL     OW23977   1.961   2.170  15.120  0.1439 -0.2688  0.1461
 4114SOL    HW123978   1.938   2.244  15.063  1.1962 -1.5705 -1.9852
 4114SOL    HW223979   2.056   2.163  15.105 -0.0547 -1.7193 -0.4531
 4115SOL     OW23980   1.152   0.174   5.876  0.8724 -0.2357 -0.6412
 4115SOL    HW123981   1.137   0.233   5.802 -3.2377  1.0077  1.1788
 4115SOL    HW223982   1.067   0.176   5.920  0.2226 -0.0676 -1.9248
 4116SOL     OW23983   1.333   1.083  14.985 -0.0452  0.2235  0.0055
 4116SOL    HW123984   1.361   1.092  15.076 -3.1380 -0.0783  1.0097
 4116SOL    HW223985   1.331   1.176  14.961  0.4409  0.2942  0.2350
 4117SOL     OW23986   0.900   3.656   7.345 -0.0457  0.8196 -0.3180
 4117SOL    HW123987   0.921   3.675   7.436  3.6647 -0.3688 -0.9184
 4117SOL    HW223988   0.804   3.660   7.341 -0.1426 -1.8914 -0.6744
 4118SOL     OW23989   2.468   1.999   2.445  0.0495 -0.1485 -0.1027
 4118SOL    HW123990   2.557   1.997   2.482  1.2503 -0.5451 -3.0441
 4118SOL    HW223991   2.427   1.931   2.499  0.0369  1.2775  1.6894
 4119SOL     OW23992   1.229   1.861   5.284 -0.4055  0.1571  0.0541
 4119SOL    HW123993   1.216   1.775   5.244 -1.5971  1.0706 -1.4986
 4119SOL    HW223994   1.274   1.834   5.364 -1.8481 -3.8711 -0.4849
 4120SOL     OW23995   0.072   0.729   3.176 -0.8138 -0.8087 -0.0255
 4120SOL    HW123996   0.056   0.804   3.118 -1.7256  0.6108  2.0819
 4120SOL    HW223997   0.148   0.690   3.134  1.2447  1.1529  1.8898
 4121SOL     OW23998   0.329   3.187   3.955 -0.2205  0.7083  0.5943
 4121SOL    HW123999   0.352   3.277   3.979  0.8439  0.1125  1.8036
 4121SOL    HW224000   0.316   3.146   4.040  2.4420  1.0648  1.1632
 4122SOL     OW24001   3.437   4.462   2.627  0.0926 -0.4044  0.1538
 4122SOL    HW124002   3.485   4.392   2.582 -1.3141 -0.2226 -1.6040
 4122SOL    HW224003   3.409   4.407   2.700 -1.5703  0.1366 -0.0845
 4123SOL     OW24004   0.094   0.666   1.930  0.0295  0.0988  0.4096
 4123SOL    HW124005   0.031   0.689   1.998  0.0200  1.0610  0.0674
 4123SOL    HW224006   0.038   0.651   1.853  0.8052  1.3761 -0.3890
 4124SOL     OW24007   0.515   3.982  17.684  0.1873 -0.3992  0.0164
 4124SOL    HW124008   0.552   3.961  17.598  0.0930 -1.0032  0.1273
 4124SOL    HW224009   0.443   3.919  17.682 -1.1434  1.1289 -0.9169
 4125SOL     OW24010   1.284   2.141   2.214 -0.0586  0.4634 -0.0620
 4125SOL    HW124011   1.211   2.133   2.152 -0.9273  0.8233  0.9162
 4125SOL    HW224012   1.358   2.162   2.157 -0.2183  0.2801 -0.3353
 4126SOL     OW24013   3.423   3.690  10.148 -0.6281 -0.4572  0.4416
 4126SOL    HW124014   3.415   3.785  10.160  1.4441 -0.4452  1.7435
 4126SOL    HW224015   3.503   3.671  10.198 -0.0118  1.2812  0.1196
 4127SOL     OW24016   0.302   3.991   1.705  0.7737 -0.2315  0.0973
 4127SOL    HW124017   0.303   3.998   1.800 -0.3654 -0.0714  0.0994
 4127SOL    HW224018   0.207   4.004   1.702  0.5722 -1.4764  1.1590
 4128SOL     OW24019   3.613   2.463   2.483 -0.0645  0.1980 -0.5418
 4128SOL    HW124020   3.559   2.383   2.480  0.1271  0.1109 -2.0275
 4128SOL    HW224021   3.645   2.465   2.572  1.5781  0.8669 -1.1630
 4129SOL     OW24022   1.949   2.745   6.455  0.7583  0.4601  0.1532
 4129SOL    HW124023   1.936   2.753   6.361 -3.5433 -2.0147  0.5322
 4129SOL    HW224024   2.024   2.686   6.457  0.7193  0.4189  0.5665
 4130SOL     OW24025   3.870   3.699   7.415 -0.0151  0.0411 -0.2145
 4130SOL    HW124026   3.852   3.788   7.446  0.2750  0.4648 -1.2585
 4130SOL    HW224027   3.918   3.720   7.335  2.5388  0.4459  1.4339
 4131SOL     OW24028   1.091   2.950   5.269 -0.1529 -0.4544 -0.2122
 4131SOL    HW124029   1.040   2.931   5.190 -1.2114  1.7802 -0.0595
 4131SOL    HW224030   1.030   2.947   5.343  0.4855  2.9025  0.4290
 4132SOL     OW24031   4.516   2.270   8.949  0.1908 -0.0560 -0.1641
 4132SOL    HW124032   4.468   2.268   8.866  2.1738  2.8882 -1.3948
 4132SOL    HW224033   4.513   2.176   8.965  0.0191  0.2763  1.6900
 4133SOL     OW24034   1.061   2.204  11.090 -0.4056 -0.0219  0.2998
 4133SOL    HW124035   1.025   2.274  11.035 -0.1274  1.1710  1.6436
 4133SOL    HW224036   1.037   2.234  11.178 -1.9657 -0.3205 -0.0232
 4134SOL     OW24037   2.631   0.827   6.185 -0.0183  0.3334  0.1375
 4134SOL    HW124038   2.685   0.902   6.159  1.4489 -1.2358 -1.2953
 4134SOL    HW224039   2.697   0.757   6.179 -0.1786  0.2455 -0.6480
 4135SOL     OW24040   4.249   2.382  12.105  0.5578 -0.1913  0.0652
 4135SOL    HW124041   4.168   2.344  12.138  0.2667  1.7609  1.6223
 4135SOL    HW224042   4.232   2.476  12.107  0.7168 -0.1705  0.6590
 4136SOL     OW24043   0.565   2.587   6.465 -0.4749  0.1214  0.1857
 4136SOL    HW124044   0.640   2.646   6.456 -0.5856 -0.5364 -4.7180
 4136SOL    HW224045   0.517   2.636   6.531 -0.1765  1.4124 -0.5563
 4137SOL     OW24046   2.949   2.110  14.388  0.2565  0.4761 -0.2943
 4137SOL    HW124047   2.890   2.185  14.388  2.0113  1.8640  1.1791
 4137SOL    HW224048   2.919   2.068  14.307 -0.9023  0.6018  0.0727
 4138SOL     OW24049   0.570   2.099   1.891 -0.2950 -0.2258 -0.6183
 4138SOL    HW124050   0.639   2.038   1.916  0.7270  0.7856 -0.9527
 4138SOL    HW224051   0.532   2.042   1.823 -1.0562  0.1577 -0.5067
 4139SOL     OW24052   1.387   0.002   2.396 -0.2933 -0.1453  0.4328
 4139SOL    HW124053   1.430   4.692   2.326 -1.1995  0.4628 -0.5536
 4139SOL    HW224054   1.303   0.010   2.350 -0.6819 -2.1356  0.8021
 4140SOL     OW24055   0.736   0.969   5.034 -0.3905  0.7270  0.3525
 4140SOL    HW124056   0.694   1.046   5.071  2.7242  2.2351  0.7350
 4140SOL    HW224057   0.668   0.936   4.976 -0.3007 -0.6466  1.0118
 4141SOL     OW24058   3.760   3.783   9.634 -0.4335  0.2867 -0.1978
 4141SOL    HW124059   3.794   3.700   9.599  0.0985 -0.3926  1.9534
 4141SOL    HW224060   3.666   3.774   9.617 -0.9638  3.2725  1.2883
 4142SOL     OW24061   1.078   2.793   4.727  0.4338 -0.0006 -0.1597
 4142SOL    HW124062   0.997   2.832   4.757  1.1184  1.5005 -0.2807
 4142SOL    HW224063   1.057   2.769   4.637  0.0655  3.4108 -0.9718
 4143SOL     OW24064   3.294   2.400  17.611 -0.3449 -0.1467 -0.2571
 4143SOL    HW124065   3.313   2.387  17.704  0.9097  1.2869 -0.3169
 4143SOL    HW224066   3.222   2.341  17.590 -0.2858 -0.1424 -0.4639
 4144SOL     OW24067   1.912   1.586   0.057 -0.0527 -0.0759 -0.3319
 4144SOL    HW124068   1.963   1.654   0.100 -0.8042  1.5944 -2.0825
 4144SOL    HW224069   1.829   1.588   0.103 -1.4514  0.3635 -2.8619
 4145SOL     OW24070   4.218   0.386   4.378 -0.5982  0.3361  0.3628
 4145SOL    HW124071   4.142   0.349   4.424  0.6190 -1.4808  0.9256
 4145SOL    HW224072   4.252   0.316   4.322  0.3398 -0.6713  2.2064
 4146SOL     OW24073   0.689   3.788   3.266  0.3521 -0.0292  0.2301
 4146SOL    HW124074   0.702   3.880   3.243  2.5929 -0.5625 -0.6317
 4146SOL    HW224075   0.702   3.753   3.178  0.2674  0.1738  0.1374
 4147SOL     OW24076   2.857   1.396  15.063  0.1526 -0.4734  0.0420
 4147SOL    HW124077   2.864   1.457  14.989  0.5477 -0.6649 -0.0766
 4147SOL    HW224078   2.762   1.385  15.051 -0.0400  2.8248 -1.6482
 4148SOL     OW24079   0.420   1.818   7.377 -0.2718  0.0691  0.0582
 4148SOL    HW124080   0.406   1.911   7.357 -0.1247  0.4547  1.7442
 4148SOL    HW224081   0.434   1.786   7.288  0.0078 -0.8001  0.4212
 4149SOL     OW24082   0.886   4.481   1.127  0.0439  0.2098 -0.1898
 4149SOL    HW124083   0.866   4.571   1.102 -2.6782  0.7530  3.9155
 4149SOL    HW224084   0.828   4.471   1.202  0.3335 -0.9281 -0.1216
 4150SOL     OW24085   3.920   2.632   5.542  0.1620  0.2290 -0.0222
 4150SOL    HW124086   3.908   2.652   5.635 -2.1196  1.0030 -0.4703
 4150SOL    HW224087   4.013   2.648   5.524  0.1700 -2.0062 -1.8609
 4151SOL     OW24088   0.168   0.194   4.378  0.1374  0.0989 -0.6602
 4151SOL    HW124089   0.121   0.261   4.427  1.9679  1.0174 -0.1794
 4151SOL    HW224090   0.124   0.217   4.296  1.0699  1.9787 -0.6293
 4152SOL     OW24091   3.504   2.759  11.124 -0.1931 -0.0070  0.2079
 4152SOL    HW124092   3.541   2.803  11.200 -1.5032  0.3888  0.6231
 4152SOL    HW224093   3.458   2.699  11.182 -1.2718  0.4061 -0.2036
 4153SOL     OW24094   1.320   4.433   8.452 -0.0283 -0.4689 -0.2713
 4153SOL    HW124095   1.404   4.451   8.494  1.5485  0.2985 -3.6712
 4153SOL    HW224096   1.335   4.345   8.416 -0.8668 -0.4200 -0.7317
 4154SOL     OW24097   2.385   4.125   7.394  0.2322  0.0839  0.2541
 4154SOL    HW124098   2.446   4.166   7.332 -0.1204  0.5323  0.2015
 4154SOL    HW224099   2.307   4.113   7.340  1.2544  1.2578 -1.4644
 4155SOL     OW24100   2.891   2.103   5.567  0.2971  0.5169  0.0227
 4155SOL    HW124101   2.898   2.120   5.473 -2.3441 -2.1288 -0.6265
 4155SOL    HW224102   2.886   2.009   5.581 -1.6840  0.5527 -0.4334
 4156SOL     OW24103   0.242   0.810   0.484 -0.0009  0.1234 -0.2263
 4156SOL    HW124104   0.313   0.797   0.421  2.7048 -0.8699  3.0735
 4156SOL    HW224105   0.240   0.730   0.536 -0.5616  0.4631  0.2704
 4157SOL     OW24106   1.176   1.208   8.161 -0.5546 -0.2788 -0.3502
 4157SOL    HW124107   1.191   1.289   8.208  0.6182  1.3322 -3.5001
 4157SOL    HW224108   1.181   1.146   8.234  0.7537  0.5582  0.2509
 4158SOL     OW24109   0.747   1.328   8.149 -0.1692 -0.7796  0.5513
 4158SOL    HW124110   0.781   1.276   8.223  1.2304 -0.6034  0.0186
 4158SOL    HW224111   0.757   1.265   8.078 -0.9526 -0.5059  0.2054
 4159SOL     OW24112   1.341   1.723   6.373 -0.0976  0.2083  0.3532
 4159SOL    HW124113   1.404   1.668   6.420 -0.2980  0.1883  0.6003
 4159SOL    HW224114   1.347   1.686   6.285  1.2738  1.5925 -0.1254
 4160SOL     OW24115   0.913   0.994   7.009 -0.6778 -0.1052 -0.2621
 4160SOL    HW124116   0.987   0.935   7.019 -0.8480 -0.2009  0.4814
 4160SOL    HW224117   0.902   1.018   7.102 -0.2378  0.9489 -0.4808
 4161SOL     OW24118   4.262   1.692   1.965 -0.2285  0.7550  0.8655
 4161SOL    HW124119   4.339   1.748   1.972 -0.7963  1.4785  1.2686
 4161SOL    HW224120   4.233   1.668   2.053  0.2128  0.2421  0.8738
 4162SOL     OW24121   4.323   2.614   1.650 -0.1442  0.1790  0.5400
 4162SOL    HW124122   4.329   2.553   1.577  4.5692 -0.1339  1.2193
 4162SOL    HW224123   4.310   2.696   1.604  0.8466 -0.6816 -1.2800
 4163SOL     OW24124   3.136   1.138   9.479 -0.0380  0.3809 -0.3891
 4163SOL    HW124125   3.085   1.061   9.506 -0.4212  0.7127 -0.1537
 4163SOL    HW224126   3.107   1.170   9.394  0.9247  1.7490 -0.2145
 4164SOL     OW24127   2.545   4.539   8.995  0.2797  0.2424  0.1668
 4164SOL    HW124128   2.544   4.503   8.906 -0.4249 -1.0119  0.6823
 4164SOL    HW224129   2.456   4.521   9.024  1.0936 -1.1899  1.7735
 4165SOL     OW24130   4.355   2.496   6.088 -0.5565  0.0769  0.3253
 4165SOL    HW124131   4.361   2.574   6.144 -0.8381  2.3330 -2.7936
 4165SOL    HW224132   4.268   2.465   6.111 -0.9785  1.9510  1.3180
 4166SOL     OW24133   3.784   1.194   8.043  0.0413  0.2840 -0.0507
 4166SOL    HW124134   3.859   1.250   8.063  1.0012 -0.5198 -1.4070
 4166SOL    HW224135   3.803   1.150   7.960 -2.9579  0.7327 -0.9880
 4167SOL     OW24136   4.271   1.145   7.058  0.4597  0.2550  0.6383
 4167SOL    HW124137   4.273   1.049   7.056  0.3179  0.2742 -1.0243
 4167SOL    HW224138   4.358   1.160   7.097  1.3574  1.9281 -1.9776
 4168SOL     OW24139   3.373   1.006   3.611  0.1247  0.3516  0.9958
 4168SOL    HW124140   3.452   1.060   3.611  1.3303 -1.4103  0.2561
 4168SOL    HW224141   3.312   1.044   3.675 -0.2138  2.3847 -0.5427
 4169SOL     OW24142   1.250   0.270  16.113 -0.4786 -0.2045 -0.0974
 4169SOL    HW124143   1.294   0.206  16.167  3.1303 -0.7017 -3.5863
 4169SOL    HW224144   1.172   0.287  16.166  0.0937 -1.3272  1.0883
 4170SOL     OW24145   0.140   2.479   3.572  0.7641 -0.5055 -0.2343
 4170SOL    HW124146   0.100   2.544   3.629 -1.5639 -1.3127 -0.9535
 4170SOL    HW224147   0.227   2.487   3.611  1.9340  0.1552 -2.9625
 4171SOL     OW24148   0.870   2.240   4.045  0.0735  0.1038  0.2375
 4171SOL    HW124149   0.798   2.274   4.097 -0.7594  0.8220 -1.3872
 4171SOL    HW224150   0.869   2.152   4.084  1.4303 -0.8577 -1.8368
 4172SOL     OW24151   0.907   1.189   2.736  0.2117 -0.0861 -0.0292
 4172SOL    HW124152   0.911   1.271   2.686  0.0920 -1.0419 -1.6271
 4172SOL    HW224153   0.831   1.211   2.790 -0.2370  1.6828 -1.3867
 4173SOL     OW24154   0.729   0.417   6.377  0.4741 -0.6411 -0.2407
 4173SOL    HW124155   0.763   0.503   6.401 -1.1645  0.6422 -2.5960
 4173SOL    HW224156   0.658   0.440   6.318  0.4428  1.1153  0.4997
 4174SOL     OW24157   0.391   4.718   5.202  0.7226 -0.0843  0.0833
 4174SOL    HW124158   0.410   4.705   5.109 -0.9830 -3.9139  0.2720
 4174SOL    HW224159   0.476   4.696   5.241  0.9072 -1.9220 -1.3666
 4175SOL     OW24160   4.631   0.634   4.552 -0.1541  0.1037 -0.1713
 4175SOL    HW124161   4.538   0.639   4.528 -0.3298  1.8436  0.9130
 4175SOL    HW224162   4.658   0.720   4.521  1.2042 -0.2057  0.1361
 4176SOL     OW24163   1.215   0.622  13.670 -0.3686 -0.2006  0.3139
 4176SOL    HW124164   1.198   0.572  13.590 -0.1148  0.6861 -0.2815
 4176SOL    HW224165   1.137   0.590  13.717  0.5917 -2.0911  0.6352
 4177SOL     OW24166   2.957   0.919   3.691  0.0258  0.3444  0.1082
 4177SOL    HW124167   2.942   0.825   3.698 -0.4555  0.4932  1.2112
 4177SOL    HW224168   2.923   0.937   3.604  0.6480 -0.5869 -0.3229
 4178SOL     OW24169   0.137   0.756  12.763  0.5163  0.3813 -0.0428
 4178SOL    HW124170   0.213   0.801  12.802 -0.6855  2.0455  0.3909
 4178SOL    HW224171   0.184   0.673  12.760  0.5577  0.3269  2.1031
 4179SOL     OW24172   3.723   3.612   8.277 -0.6065 -0.0285  0.2303
 4179SOL    HW124173   3.644   3.590   8.228 -0.2939 -1.0872  0.1956
 4179SOL    HW224174   3.793   3.602   8.213 -1.3791 -1.0822 -0.4376
 4180SOL     OW24175   0.726   2.122  16.458 -0.1531 -0.5871 -0.0359
 4180SOL    HW124176   0.729   2.153  16.549 -0.6524  0.6499 -0.4389
 4180SOL    HW224177   0.812   2.142  16.421 -0.1479  1.5555  1.1408
 4181SOL     OW24178   2.405   2.448   2.189 -0.1254 -0.2212 -0.7576
 4181SOL    HW124179   2.351   2.372   2.213  1.3674 -0.9592  0.2144
 4181SOL    HW224180   2.483   2.406   2.155  1.2293  2.6924 -1.1971
 4182SOL     OW24181   3.204   3.064   6.303  0.3964 -0.0933  0.5329
 4182SOL    HW124182   3.211   2.973   6.330 -2.0109  0.2406  2.3177
 4182SOL    HW224183   3.286   3.078   6.256 -0.2148  0.6511 -0.2991
 4183SOL     OW24184   3.302   1.465   8.595  0.3736 -0.4387 -0.1601
 4183SOL    HW124185   3.286   1.375   8.564  2.0700 -1.5262  2.1281
 4183SOL    HW224186   3.237   1.479   8.663 -2.6780  0.9023 -3.3368
 4184SOL     OW24187   2.679   1.612   6.015  0.0743 -0.2059  0.0915
 4184SOL    HW124188   2.640   1.643   5.933  0.8509  0.7859  0.0927
 4184SOL    HW224189   2.683   1.694   6.065 -0.0688 -0.9901  1.3943
 4185SOL     OW24190   3.382   2.262   1.575  0.4818  0.1832  0.4354
 4185SOL    HW124191   3.356   2.354   1.582 -0.5821 -0.0129 -0.7180
 4185SOL    HW224192   3.307   2.211   1.542 -0.9565  2.6085 -0.0805
 4186SOL     OW24193   4.576   1.512  10.604  0.8215 -0.5174 -0.3545
 4186SOL    HW124194   4.609   1.599  10.579  0.1389 -0.1552  0.0237
 4186SOL    HW224195   4.632   1.488  10.678 -0.2583 -0.2658  0.5342
 4187SOL     OW24196   4.611   3.459   1.136 -0.6708  0.5016 -0.2072
 4187SOL    HW124197   4.522   3.448   1.170 -1.0292  0.7183 -1.0952
 4187SOL    HW224198   4.587   3.550   1.118  1.2903  0.9968 -0.2916
 4188SOL     OW24199   1.839   1.973  12.886 -0.1578 -0.1669  0.1577
 4188SOL    HW124200   1.902   1.916  12.931 -0.3597 -0.7622 -0.3076
 4188SOL    HW224201   1.753   1.936  12.907  0.4430  0.0649  2.9566
 4189SOL     OW24202   2.184   0.871   6.273 -0.1008 -0.0178  0.0714
 4189SOL    HW124203   2.219   0.851   6.186 -0.2036  0.3749 -0.0634
 4189SOL    HW224204   2.262   0.858   6.326 -1.0949  1.6154  1.9359
 4190SOL     OW24205   1.178   0.806   4.275 -0.2869 -0.6610  0.2148
 4190SOL    HW124206   1.147   0.820   4.186 -0.8257 -0.2471  0.4674
 4190SOL    HW224207   1.274   0.812   4.267 -0.4017 -1.4819 -1.8143
 4191SOL     OW24208   3.437   2.722   6.736  0.0695 -0.1180  0.3522
 4191SOL    HW124209   3.406   2.810   6.716  1.5598  0.3939  0.2521
 4191SOL    HW224210   3.431   2.724   6.831 -1.4690  2.6497  0.1830
 4192SOL     OW24211   4.350   0.297   0.656 -0.2588 -0.1882  0.2954
 4192SOL    HW124212   4.260   0.265   0.662 -1.0539  1.9825  0.2854
 4192SOL    HW224213   4.338   0.392   0.645 -0.8061 -0.1570  1.1868
 4193SOL     OW24214   2.639   2.089   8.870 -0.1507  0.6046 -0.4397
 4193SOL    HW124215   2.656   2.006   8.914 -0.0336  0.6515 -0.3968
 4193SOL    HW224216   2.703   2.088   8.799  0.3737  1.0823  0.0178
 4194SOL     OW24217   0.723   2.869   5.229  0.1848 -0.0260  0.2337
 4194SOL    HW124218   0.802   2.905   5.188 -1.2826  1.0568 -1.5934
 4194SOL    HW224219   0.759   2.782   5.242  1.3572  0.8475  2.8340
 4195SOL     OW24220   2.064   2.798   7.480 -0.3161  0.4585  0.0515
 4195SOL    HW124221   2.049   2.855   7.556  2.8261  3.8256 -1.8557
 4195SOL    HW224222   2.033   2.862   7.416  0.9663 -0.6996 -1.7425
 4196SOL     OW24223   1.766   2.069  16.604 -0.1089 -0.1907 -0.4097
 4196SOL    HW124224   1.787   2.088  16.695  1.0589  1.4637 -1.0167
 4196SOL    HW224225   1.752   1.975  16.608 -2.1033  0.0609 -1.2638
 4197SOL     OW24226   2.434   2.734   3.296 -0.2995 -0.0678  0.7943
 4197SOL    HW124227   2.496   2.793   3.254  0.0421 -0.3985  0.8335
 4197SOL    HW224228   2.498   2.670   3.328  2.4907  0.9491 -2.7770
 4198SOL     OW24229   1.399   4.166  12.018 -0.5282  0.4614  0.1756
 4198SOL    HW124230   1.381   4.259  12.033  0.4853  0.7603 -0.5280
 4198SOL    HW224231   1.491   4.171  12.042 -0.7577  1.6751  0.7883
 4199SOL     OW24232   3.722   0.657   1.630  0.0471 -0.2341 -0.0393
 4199SOL    HW124233   3.797   0.599   1.617 -1.5515 -1.3901 -3.8936
 4199SOL    HW224234   3.723   0.668   1.725  0.7282 -0.8399  0.0229
 4200SOL     OW24235   1.919   3.654   2.313 -0.0319 -0.2843  0.6020
 4200SOL    HW124236   1.954   3.659   2.225 -1.9533  1.9930 -0.0408
 4200SOL    HW224237   1.861   3.730   2.315  1.2063  0.6370  0.9211
 4201SOL     OW24238   0.302   2.763   9.812  0.4939 -0.0915 -0.0172
 4201SOL    HW124239   0.291   2.750   9.718  0.4366  1.4669 -0.2202
 4201SOL    HW224240   0.261   2.683   9.846  0.1376  1.1151  2.3610
 4202SOL     OW24241   1.017   3.103   6.723  0.0494 -0.4994 -0.1138
 4202SOL    HW124242   1.055   3.172   6.777  1.5287 -0.0412 -1.7028
 4202SOL    HW224243   0.978   3.052   6.793 -0.1266  1.7271  1.4056
 4203SOL     OW24244   1.938   3.668   5.767  0.6878 -0.6854 -0.3413
 4203SOL    HW124245   1.970   3.740   5.821  1.7410 -1.3798 -0.0351
 4203SOL    HW224246   1.851   3.701   5.743  0.2565 -0.1733  1.9347
 4204SOL     OW24247   4.718   1.024   3.345 -0.2820 -0.6665  0.5351
 4204SOL    HW124248   4.629   1.032   3.379 -0.8649 -0.7003 -0.9542
 4204SOL    HW224249   4.728   1.100   3.288  2.8305 -1.4746  0.0074
 4205SOL     OW24250   0.680   4.076   1.366 -0.4967  0.1687  0.1044
 4205SOL    HW124251   0.610   4.037   1.419  0.2032  1.5287  2.0280
 4205SOL    HW224252   0.658   4.042   1.279 -2.3038 -2.7474  1.7048
 4206SOL     OW24253   3.986   2.984   1.690  0.7928 -0.0313 -0.5621
 4206SOL    HW124254   3.987   2.990   1.595  0.6692 -0.4919 -0.5909
 4206SOL    HW224255   4.010   2.892   1.698 -0.5640 -0.4189 -0.9446
 4207SOL     OW24256   4.284   1.595   0.186  0.3846 -0.3624  0.0961
 4207SOL    HW124257   4.369   1.630   0.215 -0.8282  1.6758  1.2049
 4207SOL    HW224258   4.317   1.543   0.113  2.1491  0.0060  0.6163
 4208SOL     OW24259   2.044   4.541   5.281  0.4868  0.4267  0.1156
 4208SOL    HW124260   2.041   4.501   5.194 -1.6083  1.5728 -0.3343
 4208SOL    HW224261   2.068   4.463   5.331 -1.0280 -1.0733 -1.5094
 4209SOL     OW24262   0.575   0.156  12.963 -0.9150  0.4892 -0.8926
 4209SOL    HW124263   0.559   0.086  12.899  1.2372 -0.9666  0.1618
 4209SOL    HW224264   0.573   0.100  13.040 -0.9301  1.9565  0.1743
 4210SOL     OW24265   3.757   1.969  14.609 -0.1994 -0.2580 -1.1736
 4210SOL    HW124266   3.769   1.874  14.618  2.7903  0.3165  0.8276
 4210SOL    HW224267   3.849   1.994  14.615 -0.6130  0.4069  2.3279
 4211SOL     OW24268   0.199   0.883   4.385 -0.1342 -0.0798 -0.1250
 4211SOL    HW124269   0.197   0.968   4.341 -1.6653 -0.1936 -0.3086
 4211SOL    HW224270   0.107   0.885   4.412 -0.2297  1.9469 -0.5847
 4212SOL     OW24271   3.223   2.392  10.941 -0.4656  0.2092 -0.2173
 4212SOL    HW124272   3.225   2.379  11.036  2.2749 -2.1041 -0.5884
 4212SOL    HW224273   3.136   2.356  10.924 -0.8169  1.9372 -2.1581
 4213SOL     OW24274   1.118   1.359   3.781  0.3421 -0.2795  0.4701
 4213SOL    HW124275   1.188   1.355   3.847 -0.8661  1.0639  1.8247
 4213SOL    HW224276   1.164   1.413   3.717 -1.9345 -0.2872 -1.1447
 4214SOL     OW24277   3.347   0.278   8.360 -0.0782 -0.0306 -0.0385
 4214SOL    HW124278   3.372   0.367   8.337 -3.1139  0.9421  0.4735
 4214SOL    HW224279   3.387   0.267   8.446  1.5098  3.8397 -0.2975
 4215SOL     OW24280   1.860   0.064   4.109  0.7500  0.3806  0.1561
 4215SOL    HW124281   1.766   0.075   4.121  0.9466 -0.5166  2.6229
 4215SOL    HW224282   1.891   0.153   4.088 -0.9203  0.8938 -0.1020
 4216SOL     OW24283   3.339   0.950   7.863 -0.3246  0.3372  0.2331
 4216SOL    HW124284   3.368   1.034   7.826  0.6509 -0.5710 -1.0499
 4216SOL    HW224285   3.334   0.905   7.779 -1.0005 -0.3807  0.6603
 4217SOL     OW24286   4.583   1.970   1.233  0.8868 -0.0187 -0.1554
 4217SOL    HW124287   4.632   1.978   1.315 -0.3721  1.4520  0.4346
 4217SOL    HW224288   4.515   2.036   1.245  0.2470 -0.3036 -2.3057
 4218SOL     OW24289   2.045   1.700   2.015 -0.8430  0.3549 -0.2875
 4218SOL    HW124290   2.057   1.608   1.991  1.7183  0.4683  0.4975
 4218SOL    HW224291   2.134   1.731   1.994 -0.0795 -1.5831  0.1464
 4219SOL     OW24292   2.456   2.173   7.797  0.3834 -0.2815 -0.0784
 4219SOL    HW124293   2.437   2.200   7.887 -0.0005 -0.2502 -0.1661
 4219SOL    HW224294   2.431   2.247   7.742  1.4066 -0.8173 -1.2402
 4220SOL     OW24295   4.468   1.565   8.772  0.3913 -0.3986 -0.3912
 4220SOL    HW124296   4.495   1.655   8.753 -1.8927  0.0024 -1.6649
 4220SOL    HW224297   4.375   1.573   8.795  0.3218 -2.5965  0.1287
 4221SOL     OW24298   3.091   2.080   1.744 -0.4155  0.1829 -0.1162
 4221SOL    HW124299   3.145   2.050   1.670  1.3646  3.8472 -0.3244
 4221SOL    HW224300   3.016   2.022   1.740 -0.8575  0.6830  1.1215
 4222SOL     OW24301   1.828   1.895   3.796 -0.3637 -0.0946  0.4437
 4222SOL    HW124302   1.889   1.864   3.863  1.2433 -0.1031 -1.0007
 4222SOL    HW224303   1.873   1.976   3.771 -1.6438  0.7049  0.7065
 4223SOL     OW24304   1.663   3.891   4.045  0.2141 -0.3900  0.4202
 4223SOL    HW124305   1.698   3.849   4.124  0.3426 -0.4539  0.3289
 4223SOL    HW224306   1.609   3.955   4.092 -0.8794 -2.1578  1.5885
 4224SOL     OW24307   0.008   2.185   4.155 -0.0334  0.5766  0.0178
 4224SOL    HW124308   0.035   2.275   4.136 -2.6602  1.6148  1.2045
 4224SOL    HW224309   4.655   2.208   4.161 -0.3914 -0.5922 -0.9696
 4225SOL     OW24310   0.924   2.906   5.483 -0.3408  0.3283 -0.1773
 4225SOL    HW124311   0.874   2.984   5.507  1.8559  1.4187  0.7950
 4225SOL    HW224312   0.959   2.883   5.568 -1.7901 -0.5808  0.1732
 4226SOL     OW24313   3.645   1.854   4.897  0.5384 -0.4828  0.1051
 4226SOL    HW124314   3.701   1.807   4.835  0.4388  0.0077 -0.3584
 4226SOL    HW224315   3.657   1.798   4.973  0.3039 -0.6120  0.0480
 4227SOL     OW24316   1.666   0.169   2.790 -0.4670  0.3181  0.1577
 4227SOL    HW124317   1.624   0.087   2.812 -1.7905  1.2727  1.1371
 4227SOL    HW224318   1.714   0.145   2.710  0.6055  1.1370  0.5488
 4228SOL     OW24319   1.028   0.798   5.695  0.6727  0.3169 -0.3211
 4228SOL    HW124320   0.995   0.711   5.716  1.8444 -1.0377 -4.0614
 4228SOL    HW224321   1.085   0.768   5.625  3.0037  0.4722  1.5191
 4229SOL     OW24322   2.266   1.460  13.851 -0.1985  0.5355 -0.0904
 4229SOL    HW124323   2.342   1.507  13.887  0.2934 -0.9359  0.8170
 4229SOL    HW224324   2.260   1.380  13.904  1.4685  0.2100 -0.3682
 4230SOL     OW24325   3.008   0.756  15.976 -0.9403  0.0622 -0.8934
 4230SOL    HW124326   3.008   0.824  15.909 -3.1290  2.3187  1.3834
 4230SOL    HW224327   3.099   0.760  16.005 -0.7862 -1.9342 -1.1290
 4231SOL     OW24328   3.534   0.348   8.652  0.3165  0.6589  0.3014
 4231SOL    HW124329   3.596   0.329   8.722  0.0749  0.5184  0.4776
 4231SOL    HW224330   3.540   0.262   8.609  3.2351  0.2954  1.4247
 4232SOL     OW24331   1.654   0.907   8.193  0.0016 -0.8657 -0.0689
 4232SOL    HW124332   1.727   0.885   8.134  0.1861  1.8753 -0.8540
 4232SOL    HW224333   1.669   0.854   8.271 -0.2917  0.8158  1.1211
 4233SOL     OW24334   0.724   0.676   2.463  0.4873 -0.2287 -0.4267
 4233SOL    HW124335   0.701   0.608   2.527  1.2293  1.0345  1.1771
 4233SOL    HW224336   0.684   0.749   2.510  1.9727  0.9235 -0.9867
 4234SOL     OW24337   3.904   3.243   5.376 -0.1660 -0.0510  0.4784
 4234SOL    HW124338   3.957   3.198   5.442 -0.4810 -0.9812  0.1036
 4234SOL    HW224339   3.973   3.303   5.345  0.1815 -0.6289  0.1209
 4235SOL     OW24340   0.626   3.362   9.535  0.1068  0.3476 -0.3191
 4235SOL    HW124341   0.719   3.359   9.513 -0.2581  0.2731 -1.8788
 4235SOL    HW224342   0.612   3.455   9.517  1.7012  0.2411 -2.1341
 4236SOL     OW24343   2.967   0.401   3.194  0.4924 -0.0134 -0.1710
 4236SOL    HW124344   2.901   0.407   3.124 -0.0578  2.7578  0.5770
 4236SOL    HW224345   3.003   0.488   3.177 -1.5962  0.7635 -0.7416
 4237SOL     OW24346   0.845   1.062   4.677 -0.2097  0.4041  0.1178
 4237SOL    HW124347   0.857   0.967   4.684  1.7164  0.6306 -0.0061
 4237SOL    HW224348   0.840   1.071   4.582 -0.1139 -1.0380 -0.0231
 4238SOL     OW24349   2.776   4.132   5.811  0.2259 -0.0877  0.3523
 4238SOL    HW124350   2.778   4.088   5.726 -2.9322  1.6242 -0.6211
 4238SOL    HW224351   2.810   4.218   5.788  1.2108 -0.4141  0.6052
 4239SOL     OW24352   0.189   4.183  15.654  0.2653 -0.2647  0.3729
 4239SOL    HW124353   0.123   4.216  15.715  0.3284  0.5806 -0.0094
 4239SOL    HW224354   0.171   4.090  15.670 -1.9024  0.5029  2.4634
 4240SOL     OW24355   2.631   2.635   5.595 -0.2673  0.4368 -0.1239
 4240SOL    HW124356   2.648   2.600   5.507 -0.3824 -0.7131  0.3034
 4240SOL    HW224357   2.619   2.728   5.579 -1.3864  0.1461 -0.9971
 4241SOL     OW24358   2.888   3.037  17.070  0.0653  0.1446 -0.0873
 4241SOL    HW124359   2.961   3.079  17.025  0.6690  0.2356  0.9785
 4241SOL    HW224360   2.817   3.035  17.006 -0.3711  1.2651  0.3672
 4242SOL     OW24361   2.052   3.785   7.271  0.3520  0.0421 -0.0042
 4242SOL    HW124362   1.963   3.805   7.299  0.9124  1.7665  0.5536
 4242SOL    HW224363   2.045   3.690   7.259  1.8245 -0.1591  0.7800
 4243SOL     OW24364   0.800   0.096  13.663 -0.3549 -0.4814  0.0576
 4243SOL    HW124365   0.870   0.135  13.715 -0.5980  0.1294 -0.0742
 4243SOL    HW224366   0.789   0.010  13.704  0.3740  0.3797  2.0503
 4244SOL     OW24367   4.166   3.233   1.477 -0.6715  0.3106  0.2205
 4244SOL    HW124368   4.243   3.180   1.496 -0.7817  0.5844  1.4239
 4244SOL    HW224369   4.096   3.171   1.453 -2.1216  2.0271  0.0381
 4245SOL     OW24370   0.301   1.280  14.491 -0.0732 -0.5350 -0.2955
 4245SOL    HW124371   0.349   1.228  14.427  1.9816 -0.3091  1.0615
 4245SOL    HW224372   0.309   1.230  14.572  1.2172 -0.2450 -0.2409
 4246SOL     OW24373   0.897   4.472   8.207  0.3083  0.1238 -0.4307
 4246SOL    HW124374   0.962   4.417   8.250  1.3536  1.7153  0.0239
 4246SOL    HW224375   0.899   4.552   8.261 -0.8978 -0.6056  0.6966
 4247SOL     OW24376   4.036   0.458   2.290  0.0475 -0.2129 -0.0162
 4247SOL    HW124377   4.070   0.499   2.210  2.0692 -2.9982 -0.5848
 4247SOL    HW224378   3.946   0.434   2.269 -0.1878 -1.1115  2.0650
 4248SOL     OW24379   1.222   2.959  13.863  0.0984  0.2019 -0.4288
 4248SOL    HW124380   1.215   3.051  13.887  0.9008  0.1439  0.0188
 4248SOL    HW224381   1.157   2.913  13.917  1.0522  1.6410  1.9339
 4249SOL     OW24382   0.753   1.486   4.648  0.2660 -0.0756 -0.3734
 4249SOL    HW124383   0.804   1.492   4.568 -0.8717  0.4832 -1.0519
 4249SOL    HW224384   0.778   1.564   4.697  0.7954  0.7575 -1.9880
 4250SOL     OW24385   0.405   0.573   2.526 -0.0118 -0.0413 -0.0471
 4250SOL    HW124386   0.412   0.663   2.555 -0.0892 -0.4241  1.1646
 4250SOL    HW224387   0.314   0.543   2.528 -0.0265 -0.1225 -1.5969
 4251SOL     OW24388   1.703   2.281   4.644  0.1645 -0.1616  0.0955
 4251SOL    HW124389   1.791   2.252   4.619 -1.4817 -1.3706 -4.2049
 4251SOL    HW224390   1.649   2.245   4.574 -0.3214 -0.9217  0.8611
 4252SOL     OW24391   4.064   2.372   3.401  0.5286  0.5724  0.8843
 4252SOL    HW124392   4.151   2.357   3.364  0.4192  0.2556  0.7573
 4252SOL    HW224393   4.027   2.407   3.321  4.5715  1.0506 -0.7949
 4253SOL     OW24394   0.034   4.501  12.013 -0.1372 -0.2066  0.5545
 4253SOL    HW124395   0.124   4.508  12.043 -0.0478  2.1116 -0.2611
 4253SOL    HW224396   0.006   4.591  11.995  0.7512 -0.3337 -1.4722
 4254SOL     OW24397   4.623   1.881   4.863  0.0168  0.3550 -0.5567
 4254SOL    HW124398   4.609   1.817   4.794 -3.8247  1.0538 -0.4460
 4254SOL    HW224399   4.701   1.851   4.908 -0.5969  0.6346  0.6923
 4255SOL     OW24400   0.274   1.541   7.340  0.5397 -0.0894  0.2044
 4255SOL    HW124401   0.308   1.629   7.322  1.0545 -0.5270 -0.9716
 4255SOL    HW224402   0.303   1.482   7.270 -0.1435 -1.4469  1.0807
 4256SOL     OW24403   3.288   2.330   4.940  0.5592 -0.0148 -0.3320
 4256SOL    HW124404   3.285   2.411   4.990  0.3168 -0.4633  0.3811
 4256SOL    HW224405   3.284   2.368   4.852  1.6820  0.0716 -0.3495
 4257SOL     OW24406   1.807   1.577   9.858  0.7942 -0.4136 -0.0250
 4257SOL    HW124407   1.874   1.549   9.920  1.6594  0.6278 -0.4845
 4257SOL    HW224408   1.835   1.668   9.842 -0.6389  0.1773  0.8183
 4258SOL     OW24409   4.638   0.159   2.776 -0.0706  0.4021  0.2349
 4258SOL    HW124410   4.691   0.208   2.713  1.2990 -2.6866 -0.9698
 4258SOL    HW224411   4.669   0.069   2.768 -2.9106 -0.5758  0.4279
 4259SOL     OW24412   2.902   1.957   7.725 -0.3396 -0.2835 -0.6818
 4259SOL    HW124413   2.913   1.870   7.685  0.1943 -0.2068 -0.7018
 4259SOL    HW224414   2.891   1.943   7.819 -0.1506 -0.6252 -0.7103
 4260SOL     OW24415   4.299   3.487   4.850 -0.0082  0.0699  0.2578
 4260SOL    HW124416   4.343   3.497   4.935  2.3413  2.0631 -1.1800
 4260SOL    HW224417   4.369   3.446   4.800  0.2464  1.5435 -0.6129
 4261SOL     OW24418   1.696   2.606   6.873  0.4908 -0.3984  0.4871
 4261SOL    HW124419   1.616   2.659   6.866  1.0624  0.8346  3.3612
 4261SOL    HW224420   1.660   2.528   6.915  0.7399 -0.3497  0.7863
 4262SOL     OW24421   1.783   1.304   5.353  0.3630 -0.0911  0.0145
 4262SOL    HW124422   1.779   1.393   5.388 -0.4192 -0.3576  0.5926
 4262SOL    HW224423   1.836   1.319   5.274  0.6725 -0.1594  0.2084
 4263SOL     OW24424   2.753   1.850   6.426 -0.1146  0.3062 -0.5982
 4263SOL    HW124425   2.828   1.871   6.481 -1.9255  1.3894  1.4995
 4263SOL    HW224426   2.684   1.828   6.489  1.7937  0.4795  1.5472
 4264SOL     OW24427   1.602   2.565   4.656  0.0873  0.0124  0.4109
 4264SOL    HW124428   1.530   2.573   4.594 -0.3337  0.4559  0.9644
 4264SOL    HW224429   1.607   2.482   4.704 -1.3902 -0.4112 -0.1774
 4265SOL     OW24430   2.418   0.880   1.096  0.0745  0.4645 -0.1821
 4265SOL    HW124431   2.500   0.924   1.072  0.5254 -2.7840 -4.6425
 4265SOL    HW224432   2.442   0.789   1.075  0.2691  0.5736 -0.4365
 4266SOL     OW24433   0.617   0.213   6.547 -0.1716  0.2533 -0.1157
 4266SOL    HW124434   0.672   0.221   6.625  0.1153 -1.9587 -0.0957
 4266SOL    HW224435   0.646   0.290   6.498  0.7189 -0.4644 -0.7125
 4267SOL     OW24436   3.842   1.581   6.329  0.0243 -0.6386  0.5580
 4267SOL    HW124437   3.917   1.521   6.336  0.6492 -0.0886 -1.3916
 4267SOL    HW224438   3.858   1.628   6.411  1.3271 -1.4680  0.7887
 4268SOL     OW24439   1.864   1.268   3.847  0.8709  0.1154 -0.0310
 4268SOL    HW124440   1.864   1.333   3.918 -0.9355 -0.6788  0.7038
 4268SOL    HW224441   1.897   1.320   3.774  0.2870  1.6405  0.7890
 4269SOL     OW24442   3.137   3.355   5.315  0.9646 -0.2487 -0.1612
 4269SOL    HW124443   3.187   3.379   5.393  0.2606 -0.8527  0.4739
 4269SOL    HW224444   3.067   3.420   5.315 -0.5313 -1.8567 -0.0756
 4270SOL     OW24445   4.716   1.181   3.092 -0.2964  0.6953  0.0878
 4270SOL    HW124446   4.739   1.247   3.028  1.5377 -0.5095 -0.5059
 4270SOL    HW224447   4.627   1.162   3.060  0.4036 -1.3925 -0.6221
 4271SOL     OW24448   1.160   4.409   1.330 -0.3597  0.4805  0.0789
 4271SOL    HW124449   1.189   4.495   1.358 -3.3780  0.2913  3.7397
 4271SOL    HW224450   1.076   4.437   1.292 -0.2868  0.1606 -0.3237
 4272SOL     OW24451   2.505   3.937   3.501  0.0253 -1.1180 -0.9545
 4272SOL    HW124452   2.554   3.860   3.528  1.0875 -0.5891 -1.3310
 4272SOL    HW224453   2.480   3.905   3.414 -2.1778  3.0974 -1.8818
 4273SOL     OW24454   0.213   3.243   4.408 -0.9188 -0.2669 -0.1813
 4273SOL    HW124455   0.204   3.169   4.468 -1.0787 -0.6998 -0.7494
 4273SOL    HW224456   0.292   3.278   4.449 -1.4101 -2.5946  2.8370
 4274SOL     OW24457   3.355   2.824  10.558 -0.7212 -0.4463  0.4203
 4274SOL    HW124458   3.358   2.913  10.521 -0.1411  0.1978  2.0172
 4274SOL    HW224459   3.403   2.838  10.640 -0.3782  0.6405  0.0435
 4275SOL     OW24460   2.780   0.366   8.603 -0.2736 -0.8097  0.5338
 4275SOL    HW124461   2.783   0.280   8.645  3.0063 -0.4932  0.9664
 4275SOL    HW224462   2.810   0.425   8.672 -0.9643 -1.0750  1.0588
 4276SOL     OW24463   4.643   3.332  17.253 -0.8307 -0.0565  0.3212
 4276SOL    HW124464   4.730   3.362  17.280 -1.0920  0.1017  0.9751
 4276SOL    HW224465   4.614   3.407  17.202 -0.3672 -0.7863 -1.0099
 4277SOL     OW24466   0.181   1.580   5.883  0.4415 -0.4455 -0.0320
 4277SOL    HW124467   0.207   1.625   5.803  2.2973  0.3705  1.0208
 4277SOL    HW224468   0.192   1.635   5.960 -0.2971 -1.0866  0.5278
 4278SOL     OW24469   1.217   0.102   8.373 -0.2636 -0.2103 -0.0666
 4278SOL    HW124470   1.286   0.094   8.438 -1.6674 -1.5449  1.2714
 4278SOL    HW224471   1.150   0.157   8.414  0.3129  0.2945  0.1894
 4279SOL     OW24472   0.804   4.713   5.704 -0.1247  0.5668  0.8524
 4279SOL    HW124473   0.834   4.629   5.739 -2.1622 -1.8862 -3.3586
 4279SOL    HW224474   0.711   4.694   5.695 -0.2498  1.3811  0.5023
 4280SOL     OW24475   1.880   3.305   2.619 -0.0865  0.4013 -0.0635
 4280SOL    HW124476   1.901   3.292   2.712  1.3350 -3.4441 -0.9507
 4280SOL    HW224477   1.956   3.357   2.593  0.3558 -0.5479 -0.6670
 4281SOL     OW24478   3.344   1.180  11.372  0.2509 -0.6123  0.1144
 4281SOL    HW124479   3.412   1.180  11.304  0.0543  2.5906 -0.0750
 4281SOL    HW224480   3.345   1.090  11.406  0.7941 -0.6828 -0.0915
 4282SOL     OW24481   1.654   4.352   2.782 -0.1369 -0.0413  0.7196
 4282SOL    HW124482   1.747   4.328   2.788 -0.0545  0.3218  0.9115
 4282SOL    HW224483   1.662   4.433   2.731  0.0336  0.9247  2.2900
 4283SOL     OW24484   3.551   3.191  13.975  0.2595 -0.0385 -0.2816
 4283SOL    HW124485   3.485   3.124  13.993  0.7100 -0.1439  0.9888
 4283SOL    HW224486   3.542   3.193  13.880  0.7713 -2.0116 -0.3642
 4284SOL     OW24487   4.681   2.294   3.652 -0.1495 -0.8060  0.6875
 4284SOL    HW124488   4.716   2.206   3.665  1.1170 -0.7187 -2.0032
 4284SOL    HW224489   0.014   2.353   3.631 -1.0484  0.6974  1.8906
 4285SOL     OW24490   1.014   0.181   3.079 -0.4924  0.5516 -0.8207
 4285SOL    HW124491   1.053   0.223   3.156 -2.0784  0.6146 -0.0700
 4285SOL    HW224492   0.968   0.110   3.123 -0.3058  0.4541 -0.7830
 4286SOL     OW24493   3.998   4.272   8.553 -0.0303 -0.2929  0.4240
 4286SOL    HW124494   4.092   4.275   8.571 -0.1433  2.3571  0.6158
 4286SOL    HW224495   3.966   4.248   8.640 -2.3891  0.4735 -0.2255
 4287SOL     OW24496   2.233   0.980   0.734 -0.4727 -0.1850  0.7053
 4287SOL    HW124497   2.174   0.912   0.702 -0.3878  0.6229 -1.1213
 4287SOL    HW224498   2.215   0.973   0.828  0.6814 -4.1864  0.6099
 4288SOL     OW24499   3.101   4.432   0.765  0.2114 -0.2923 -0.2248
 4288SOL    HW124500   3.078   4.349   0.723 -0.8869  0.6342 -1.4343
 4288SOL    HW224501   3.181   4.460   0.720  0.1071  1.7519  0.8515
 4289SOL     OW24502   2.125   0.702   3.530 -0.0934  0.6822 -0.4040
 4289SOL    HW124503   2.104   0.743   3.614  1.2645 -0.3719  0.4471
 4289SOL    HW224504   2.132   0.775   3.469 -1.4975  0.6925 -0.5524
 4290SOL     OW24505   3.059   2.498   4.388 -0.2037 -0.6078  0.7515
 4290SOL    HW124506   3.094   2.437   4.323 -3.1497 -1.1290 -0.3572
 4290SOL    HW224507   3.015   2.448   4.456 -0.4917 -1.2127  0.1211
 4291SOL     OW24508   4.653   3.824   1.777 -0.5119 -0.4819 -0.2465
 4291SOL    HW124509   4.688   3.805   1.690 -1.6528  1.6230 -1.1730
 4291SOL    HW224510   4.563   3.796   1.760 -0.4497 -0.1792 -1.0830
 4292SOL     OW24511   0.963   0.232  11.853 -0.4721 -0.3071 -0.1431
 4292SOL    HW124512   0.994   0.260  11.767 -3.1045 -2.5089 -1.7868
 4292SOL    HW224513   1.012   0.294  11.908  0.3084 -1.7341  0.7653
 4293SOL     OW24514   1.939   0.514   1.047  0.1420  0.2643  0.0052
 4293SOL    HW124515   1.975   0.456   0.981 -0.4531 -1.6479  1.3482
 4293SOL    HW224516   2.023   0.527   1.092  0.1530  1.4246 -0.3519
 4294SOL     OW24517   3.578   1.118  15.744 -0.0841  0.1298 -0.5070
 4294SOL    HW124518   3.488   1.140  15.719 -0.7309 -1.1002  0.7652
 4294SOL    HW224519   3.585   1.183  15.814  4.3908 -1.5976  0.6542
 4295SOL     OW24520   2.024   1.093   1.193 -0.1593 -0.0737 -0.0574
 4295SOL    HW124521   2.099   1.033   1.185  0.6748  0.9649  0.0619
 4295SOL    HW224522   1.950   1.044   1.159  0.2019 -0.0244 -0.9055
 4296SOL     OW24523   3.376   2.998   5.752 -0.1194  0.1439  0.4513
 4296SOL    HW124524   3.348   2.963   5.667 -0.2655  2.6071 -0.5158
 4296SOL    HW224525   3.418   3.079   5.725  1.5786 -1.6703 -2.3489
 4297SOL     OW24526   0.093   0.951   0.725  0.4196  0.1793 -0.3428
 4297SOL    HW124527   0.152   0.877   0.736  0.9899  0.5109 -1.1763
 4297SOL    HW224528   0.148   1.013   0.677  0.5526 -0.4862 -1.0602
 4298SOL     OW24529   4.640   1.561   9.171 -0.3032 -0.7336  0.1358
 4298SOL    HW124530   4.654   1.480   9.220 -0.2788 -1.9381 -1.8599
 4298SOL    HW224531   4.560   1.536   9.125 -0.8408  0.3047  0.5080
 4299SOL     OW24532   0.439   2.303   5.416 -0.1624  0.3809 -0.5025
 4299SOL    HW124533   0.416   2.326   5.506  1.5324  2.0459 -0.5148
 4299SOL    HW224534   0.436   2.388   5.373 -3.9012 -0.4140 -1.8466
 4300SOL     OW24535   3.066   4.004   4.110 -0.4178  0.2310 -0.2503
 4300SOL    HW124536   3.015   4.055   4.048  0.6546 -0.1475 -1.4239
 4300SOL    HW224537   3.100   3.928   4.063  0.8921  0.9141 -0.3959
 4301SOL     OW24538   1.161   0.412   5.329 -0.1418 -0.1854  0.3082
 4301SOL    HW124539   1.245   0.414   5.376 -1.0339  1.4857  1.8174
 4301SOL    HW224540   1.174   0.492   5.279  0.6815 -0.7428 -0.3734
 4302SOL     OW24541   2.893   1.549   7.341 -0.8754 -0.6112 -0.1795
 4302SOL    HW124542   2.842   1.540   7.260  1.8344 -0.8137 -1.8394
 4302SOL    HW224543   2.817   1.537   7.398 -1.4235 -1.9349 -1.1832
 4303SOL     OW24544   2.521   2.776   4.905 -0.6868 -0.0482  0.0035
 4303SOL    HW124545   2.529   2.743   4.994 -1.6071 -0.0151  0.0939
 4303SOL    HW224546   2.474   2.705   4.862  0.2006 -0.1105 -0.8633
 4304SOL     OW24547   2.412   3.050  10.131  0.0207 -0.4515 -0.2523
 4304SOL    HW124548   2.443   3.095  10.052  1.4268 -2.2384 -0.7137
 4304SOL    HW224549   2.330   3.025  10.091  0.0185 -1.3220  0.3099
 4305SOL     OW24550   3.421   4.004  10.619  0.0759 -0.6492 -0.3534
 4305SOL    HW124551   3.481   3.931  10.614  1.1805  0.3400 -1.5380
 4305SOL    HW224552   3.339   3.954  10.619 -0.3752  0.0841 -0.6398
 4306SOL     OW24553   2.042   2.480   7.040  0.1277 -0.2939  0.1159
 4306SOL    HW124554   2.134   2.461   7.053  0.8970  2.6247 -1.1201
 4306SOL    HW224555   2.025   2.401   6.989 -1.2526 -1.0302  1.7304
 4307SOL     OW24556   2.585   4.573  10.785  0.1795 -0.4975 -0.0726
 4307SOL    HW124557   2.568   4.479  10.789  0.0160 -0.4595  0.1285
 4307SOL    HW224558   2.498   4.604  10.811  0.1944 -0.1080 -0.4839
 4308SOL     OW24559   1.939   4.358   6.821 -0.2181 -0.1345 -0.2717
 4308SOL    HW124560   1.979   4.442   6.842 -0.0240 -0.8928  2.3648
 4308SOL    HW224561   2.015   4.307   6.794 -0.4857 -2.2772  2.9626
 4309SOL     OW24562   0.124   3.321  11.942  0.1536 -0.0671 -0.2748
 4309SOL    HW124563   0.145   3.405  11.984  2.0660 -1.0853  0.8165
 4309SOL    HW224564   0.116   3.273  12.025  0.9759 -0.0194 -0.1652
 4310SOL     OW24565   4.327   0.275   3.536 -0.9200 -1.0321 -0.3151
 4310SOL    HW124566   4.364   0.249   3.620 -1.1796 -0.2256  0.0538
 4310SOL    HW224567   4.347   0.367   3.523 -0.7689 -1.3164 -2.0873
 4311SOL     OW24568   1.231   1.188   5.571  0.5488 -0.1341 -0.2494
 4311SOL    HW124569   1.140   1.189   5.601  0.3642  1.8181 -0.9123
 4311SOL    HW224570   1.229   1.159   5.480 -1.5621 -2.1303  0.4370
 4312SOL     OW24571   0.606   1.853   6.536  0.6846  0.6012 -0.3009
 4312SOL    HW124572   0.651   1.795   6.474 -0.6568 -1.1905  0.3934
 4312SOL    HW224573   0.675   1.914   6.561  0.8510  0.1387  0.3623
 4313SOL     OW24574   1.994   1.342   8.431  0.1977 -0.2880 -0.0091
 4313SOL    HW124575   2.070   1.284   8.432 -0.1126 -0.6671  2.2095
 4313SOL    HW224576   1.977   1.353   8.525 -1.7658 -0.6016 -0.3322
 4314SOL     OW24577   0.510   3.436   0.156 -0.0736  0.3165 -0.4011
 4314SOL    HW124578   0.560   3.516   0.176 -0.4979  0.2623  0.9162
 4314SOL    HW224579   0.556   3.407   0.078 -1.1904 -0.8816 -0.6099
 4315SOL     OW24580   4.544   0.981   7.954 -0.0713 -0.2869  0.3118
 4315SOL    HW124581   4.538   1.072   7.982  0.5714  0.0997 -0.8136
 4315SOL    HW224582   4.595   0.947   8.027 -0.6643 -1.0922  0.3630
 4316SOL     OW24583   0.638   4.533   5.927 -0.1769  0.6026 -0.4276
 4316SOL    HW124584   0.615   4.599   5.993  1.2526 -0.2425  0.9133
 4316SOL    HW224585   0.613   4.575   5.845 -2.2616  1.9883  0.9078
 4317SOL     OW24586   1.703   3.393   0.002  0.6277 -0.2764  0.2717
 4317SOL    HW124587   1.670   3.482   0.015 -0.8870 -1.0375  1.6734
 4317SOL    HW224588   1.636   3.330   0.031  0.2420  0.1291  0.2629
 4318SOL     OW24589   1.621   3.981   1.784  0.4873  0.2920  0.3855
 4318SOL    HW124590   1.598   4.024   1.867 -0.1297 -0.1210  0.4311
 4318SOL    HW224591   1.543   3.996   1.730  0.5373  1.4832  0.6517
 4319SOL     OW24592   3.817   0.586   8.885 -1.0672  0.2256 -0.1822
 4319SOL    HW124593   3.889   0.615   8.830 -3.0530  1.2281 -2.2682
 4319SOL    HW224594   3.798   0.497   8.855 -2.7108  1.1141 -1.7879
 4320SOL     OW24595   0.303   1.307   5.739  0.1795  0.2363 -0.3419
 4320SOL    HW124596   0.264   1.384   5.780 -0.5086 -0.3022  0.0121
 4320SOL    HW224597   0.251   1.311   5.659  1.1970 -2.5012 -1.1321
 4321SOL     OW24598   4.577   0.819   8.427  0.2881 -0.1479 -0.1821
 4321SOL    HW124599   4.618   0.852   8.507  0.4564  0.5331 -0.5531
 4321SOL    HW224600   4.542   0.895   8.382 -0.7627 -0.1430  0.6443
 4322SOL     OW24601   4.240   1.592   3.795  0.4996 -0.1752 -0.0269
 4322SOL    HW124602   4.296   1.619   3.868 -0.7824  2.6367 -0.0608
 4322SOL    HW224603   4.225   1.675   3.749  0.2651  0.8702  1.9275
 4323SOL     OW24604   4.723   3.150   5.535 -0.2745  0.0092  0.2527
 4323SOL    HW124605   4.732   3.150   5.440 -2.2225  3.1173  0.0794
 4323SOL    HW224606   0.071   3.121   5.560 -0.5953 -1.5199 -0.4106
 4324SOL     OW24607   1.902   1.644   2.444  0.0727 -0.3239  0.6393
 4324SOL    HW124608   1.981   1.687   2.412 -0.3335 -0.3362 -0.3887
 4324SOL    HW224609   1.934   1.605   2.525  2.0107  0.7151  0.3729
 4325SOL     OW24610   3.332   1.441   4.255  0.5350 -0.2540 -0.6648
 4325SOL    HW124611   3.305   1.524   4.216  1.7421  0.7619  0.6483
 4325SOL    HW224612   3.262   1.434   4.320  1.4039 -2.5973  0.0257
 4326SOL     OW24613   0.133   3.343  14.742  0.0088 -0.6340  0.2043
 4326SOL    HW124614   0.102   3.253  14.750 -0.7723 -0.2765  1.2448
 4326SOL    HW224615   0.185   3.333  14.822  1.9414 -0.5494 -1.0504
 4327SOL     OW24616   2.117   2.294   7.572  0.3009 -0.2924  0.2471
 4327SOL    HW124617   2.106   2.276   7.665 -1.0024  1.3743  0.4163
 4327SOL    HW224618   2.067   2.375   7.561 -2.4527 -1.5563  3.5668
 4328SOL     OW24619   4.265   3.752   1.882 -0.2652 -0.2038 -0.2676
 4328SOL    HW124620   4.301   3.665   1.868  0.4300 -0.1418  1.1728
 4328SOL    HW224621   4.223   3.750   1.796 -2.4757 -3.2096  0.8961
 4329SOL     OW24622   3.940   1.134   9.304 -0.2824 -0.3832 -0.0729
 4329SOL    HW124623   3.850   1.159   9.329 -0.7056 -0.8465 -1.1602
 4329SOL    HW224624   3.929   1.141   9.209 -1.3683  0.3907  0.0965
 4330SOL     OW24625   3.271   1.946   5.220  0.2855 -0.2223 -0.0668
 4330SOL    HW124626   3.282   2.040   5.237 -1.7824 -0.1605  0.8931
 4330SOL    HW224627   3.295   1.950   5.127  0.6639  1.2623  0.0953
 4331SOL     OW24628   1.356   4.190   5.334 -0.0265  0.3746 -0.4480
 4331SOL    HW124629   1.355   4.254   5.263 -1.0070 -1.4561 -2.1200
 4331SOL    HW224630   1.266   4.185   5.368 -0.3800  1.2812 -1.2491
 4332SOL     OW24631   0.658   0.910   6.918 -0.4897 -0.2327  0.0524
 4332SOL    HW124632   0.669   0.905   6.823  1.3699 -0.2926  0.2628
 4332SOL    HW224633   0.739   0.952   6.947 -0.3510  1.5227 -2.9013
 4333SOL     OW24634   4.177   1.915  13.817  0.6756 -0.6131  0.2179
 4333SOL    HW124635   4.244   1.977  13.788  0.8884 -0.2800  1.4270
 4333SOL    HW224636   4.135   1.967  13.886  2.1460  0.0700  0.5955
 4334SOL     OW24637   0.546   3.375   2.107  0.0140  0.2475 -0.3195
 4334SOL    HW124638   0.615   3.319   2.069  1.8080  0.3817  2.7592
 4334SOL    HW224639   0.469   3.318   2.115  0.0228 -0.1121 -2.8568
 4335SOL     OW24640   1.825   0.679   4.789 -0.8030  0.1560 -0.1468
 4335SOL    HW124641   1.733   0.680   4.815 -1.0453 -1.9305 -0.8818
 4335SOL    HW224642   1.828   0.752   4.728 -0.9898  0.1121 -0.2082
 4336SOL     OW24643   3.286   2.963   7.177 -0.2316  0.0555  0.4436
 4336SOL    HW124644   3.351   2.930   7.239  1.6311 -0.6349 -1.8649
 4336SOL    HW224645   3.323   2.935   7.093 -2.3230 -0.0801 -0.4216
 4337SOL     OW24646   3.056   3.225   4.244  0.0021  0.7578 -0.1566
 4337SOL    HW124647   3.047   3.257   4.154 -0.5285  1.5227  0.1678
 4337SOL    HW224648   2.975   3.241   4.292 -0.9875  0.2665 -1.6690
 4338SOL     OW24649   1.795   3.937   8.818  0.2182  0.0212 -0.1133
 4338SOL    HW124650   1.761   3.868   8.874 -1.4117  0.2214 -0.8747
 4338SOL    HW224651   1.836   3.873   8.759 -1.4056 -1.8836  0.8326
 4339SOL     OW24652   0.799   3.742   5.501 -0.1507  0.0264  0.1895
 4339SOL    HW124653   0.811   3.658   5.456 -2.6987 -0.8168  1.0723
 4339SOL    HW224654   0.752   3.780   5.427  0.9871  1.1601  0.0502
 4340SOL     OW24655   2.769   4.108   0.227  0.1780  0.1125  0.0337
 4340SOL    HW124656   2.681   4.144   0.223  1.3689  3.1088  0.4675
 4340SOL    HW224657   2.766   4.015   0.209 -0.6156  0.1404  0.0226
 4341SOL     OW24658   3.286   1.105   4.352  0.1063  0.2945  0.4213
 4341SOL    HW124659   3.247   1.192   4.346  1.6215  0.9367  0.0340
 4341SOL    HW224660   3.287   1.091   4.447 -0.1886  0.9453  0.5189
 4342SOL     OW24661   1.563   3.930  17.113  0.1701 -0.4963 -0.0131
 4342SOL    HW124662   1.632   3.957  17.174 -1.9412  3.4499  0.6310
 4342SOL    HW224663   1.569   3.834  17.115 -2.5089 -0.6377  1.2450
 4343SOL     OW24664   1.156   1.042   3.589 -0.4495  0.2388 -0.1133
 4343SOL    HW124665   1.092   0.994   3.642  1.9991 -1.4666  1.3057
 4343SOL    HW224666   1.217   1.078   3.653 -2.8825  3.4910  0.3615
 4344SOL     OW24667   2.662   0.283  12.693  0.1078 -0.0611 -0.2202
 4344SOL    HW124668   2.746   0.240  12.706  2.2639  3.8083 -1.2564
 4344SOL    HW224669   2.612   0.208  12.724 -0.4282  0.2584 -0.3141
 4345SOL     OW24670   4.030   0.371  14.297 -0.0222  0.1769  0.4873
 4345SOL    HW124671   4.090   0.403  14.365 -0.2272  0.0015  0.7533
 4345SOL    HW224672   4.073   0.384  14.213 -0.5500 -0.3680  0.1447
 4346SOL     OW24673   3.582   4.553   1.759  0.6900  0.7806  0.1286
 4346SOL    HW124674   3.534   4.636   1.760  0.5876  0.7078  1.3116
 4346SOL    HW224675   3.601   4.538   1.666 -0.7808 -3.1520  0.4527
 4347SOL     OW24676   0.302   2.906  11.800 -0.4328  1.1988 -0.3602
 4347SOL    HW124677   0.220   2.860  11.785  0.6714  0.5498 -4.3678
 4347SOL    HW224678   0.297   2.988  11.751  3.2254  0.6463 -1.6954
 4348SOL     OW24679   4.706   1.234  13.741 -0.2187 -0.5376 -0.2603
 4348SOL    HW124680   0.038   1.188  13.697  2.6102  1.8530  1.8356
 4348SOL    HW224681   4.661   1.272  13.665  0.2529 -0.0870 -0.3129
 4349SOL     OW24682   4.609   1.149   8.821 -0.7106  0.0449  0.1003
 4349SOL    HW124683   4.580   1.075   8.767  0.8801 -1.2717  1.0509
 4349SOL    HW224684   4.568   1.218   8.770 -3.5898 -0.3365  1.8698
 4350SOL     OW24685   3.942   0.263   5.659  0.6769  0.3693  0.8282
 4350SOL    HW124686   4.006   0.325   5.624  0.0863  1.0345  0.9054
 4350SOL    HW224687   3.881   0.324   5.701 -0.7654 -0.0473 -0.6059
 4351SOL     OW24688   0.413   3.198   2.454 -0.0654  0.3632 -0.2627
 4351SOL    HW124689   0.376   3.280   2.422  0.1816  1.1050  1.3634
 4351SOL    HW224690   0.373   3.189   2.540 -0.5132 -1.6419 -0.6823
 4352SOL     OW24691   1.625   3.765  11.474  0.7453  0.1071  0.1393
 4352SOL    HW124692   1.660   3.788  11.560  2.0266 -1.2887 -0.0179
 4352SOL    HW224693   1.688   3.705  11.434  1.5901  2.2553 -1.7408
 4353SOL     OW24694   0.561   3.975  13.643 -0.2639 -0.2038  0.3173
 4353SOL    HW124695   0.656   3.961  13.640  0.3602  4.3043 -1.8183
 4353SOL    HW224696   0.556   4.026  13.724 -0.4281  2.4967 -1.3844
 4354SOL     OW24697   2.197   2.312   3.218 -0.2102 -0.0973  0.0423
 4354SOL    HW124698   2.126   2.283   3.161 -0.5003  3.2976 -1.2837
 4354SOL    HW224699   2.163   2.399   3.240  0.0835 -0.2571  1.1495
 4355SOL     OW24700   2.295   2.977   5.397 -0.4110  0.2332  0.3679
 4355SOL    HW124701   2.390   2.984   5.397 -0.4878  1.4054 -4.0226
 4355SOL    HW224702   2.288   2.892   5.355 -1.3259 -1.0406  3.0629
 4356SOL     OW24703   0.941   3.724   5.273 -0.2754 -0.6384 -0.4033
 4356SOL    HW124704   0.945   3.806   5.224 -1.8631  1.5326  3.0845
 4356SOL    HW224705   0.858   3.683   5.250 -0.9721 -0.5225  1.9745
 4357SOL     OW24706   1.175   2.212   4.225 -0.0365  0.3014 -0.1178
 4357SOL    HW124707   1.247   2.264   4.262 -0.2376  0.6792 -0.2480
 4357SOL    HW224708   1.173   2.256   4.140  3.0587  1.5623  0.4551
 4358SOL     OW24709   1.780   2.662  13.878  0.2301  0.1779 -0.2651
 4358SOL    HW124710   1.750   2.748  13.908  0.7435  0.2876 -0.0730
 4358SOL    HW224711   1.811   2.684  13.790  0.4833  1.5168  0.1660
 4359SOL     OW24712   3.343   2.673  12.307  0.5964 -0.4129 -0.4135
 4359SOL    HW124713   3.426   2.631  12.287  0.2290  0.0789 -2.9261
 4359SOL    HW224714   3.354   2.721  12.389  0.2173 -1.4967  0.2765
 4360SOL     OW24715   2.083   4.694   8.227 -0.4685 -0.5918  0.8685
 4360SOL    HW124716   2.034   4.633   8.172  1.5808 -1.6782  0.2449
 4360SOL    HW224717   2.159   4.641   8.251  1.6686  2.6244  1.3080
 4361SOL     OW24718   2.093   4.469  13.636 -0.0245  0.3112  0.0451
 4361SOL    HW124719   2.047   4.483  13.553 -1.2220  1.3472  0.8973
 4361SOL    HW224720   2.088   4.373  13.638  1.9892  0.1574 -1.3904
 4362SOL     OW24721   4.081   1.993   3.089  0.3592 -0.3781 -0.2849
 4362SOL    HW124722   4.089   1.933   3.163  0.5133 -1.1914 -0.9547
 4362SOL    HW224723   4.001   2.044   3.102  0.6319 -0.0270  0.0386
 4363SOL     OW24724   0.619   0.180  10.035  0.1866 -0.3295 -0.3077
 4363SOL    HW124725   0.684   0.202  10.102 -0.2055 -1.2617  0.3844
 4363SOL    HW224726   0.570   0.123  10.095  0.5559 -0.7991 -0.4520
 4364SOL     OW24727   1.438   2.415   1.772  0.0365 -0.5897  0.2324
 4364SOL    HW124728   1.458   2.323   1.754 -0.7053 -0.9891  1.4247
 4364SOL    HW224729   1.418   2.441   1.682  1.3660 -2.3619 -0.5750
 4365SOL     OW24730   4.235   0.483   3.200 -0.0444 -0.2200  0.1268
 4365SOL    HW124731   4.270   0.513   3.284 -0.7735 -0.8948  0.6836
 4365SOL    HW224732   4.188   0.402   3.220  0.8900 -1.0306 -0.9594
 4366SOL     OW24733   2.181   0.969   9.031 -0.3181  0.2759  0.2745
 4366SOL    HW124734   2.110   0.906   9.015  0.4385 -0.8152  1.2666
 4366SOL    HW224735   2.178   0.969   9.127 -2.6142  2.1507  0.1928
 4367SOL     OW24736   1.452   3.603   3.550 -0.2828 -0.3478  0.2271
 4367SOL    HW124737   1.406   3.661   3.489  3.5164  0.4266 -1.8637
 4367SOL    HW224738   1.438   3.649   3.633  0.5336 -0.3186  0.3411
 4368SOL     OW24739   3.163   1.360   4.466 -0.0303 -0.4786  0.3558
 4368SOL    HW124740   3.193   1.412   4.541 -0.2177 -1.0161  0.8055
 4368SOL    HW224741   3.070   1.382   4.459 -0.0111 -0.2128  0.8746
 4369SOL     OW24742   4.369   1.612   1.334 -0.1311 -0.5203  0.2988
 4369SOL    HW124743   4.334   1.689   1.379  0.9800  1.1088 -1.6585
 4369SOL    HW224744   4.461   1.635   1.343  0.1922 -1.6735 -0.0239
 4370SOL     OW24745   3.832   1.931   1.376 -0.5445  0.0118 -0.0198
 4370SOL    HW124746   3.827   1.850   1.326 -0.3590 -0.3057  0.4671
 4370SOL    HW224747   3.892   1.898   1.443 -1.7715 -2.9341 -0.3706
 4371SOL     OW24748   1.002   3.475  14.439 -0.7231 -0.0921  0.0557
 4371SOL    HW124749   0.998   3.480  14.344  2.0427 -0.7327 -0.0874
 4371SOL    HW224750   0.909   3.456  14.454 -0.2670 -1.8836  0.6409
 4372SOL     OW24751   0.038   1.673   3.296 -0.2307  0.2712 -0.2443
 4372SOL    HW124752   0.102   1.742   3.278 -0.9669  0.8035 -0.8491
 4372SOL    HW224753   0.089   1.593   3.287 -2.1701 -1.1431  1.1909
 4373SOL     OW24754   4.051   3.906   8.892  0.0032  0.2556  0.9958
 4373SOL    HW124755   4.012   3.830   8.935 -0.6599  0.8744  1.5081
 4373SOL    HW224756   4.053   3.872   8.803 -0.6136 -0.3167  1.1976
 4374SOL     OW24757   1.746   2.926   5.563 -0.2032 -0.9342 -1.1368
 4374SOL    HW124758   1.764   3.007   5.516 -0.1150 -0.0979  0.3434
 4374SOL    HW224759   1.830   2.900   5.600 -0.9669 -0.8327  0.6576
 4375SOL     OW24760   0.616   1.922  14.731 -0.6043 -0.0435  0.0834
 4375SOL    HW124761   0.661   1.851  14.776  0.2535  0.0925 -0.5461
 4375SOL    HW224762   0.689   1.978  14.702 -2.6409  2.1292 -0.8815
 4376SOL     OW24763   3.937   0.105   9.425  0.7172  0.3838 -0.7784
 4376SOL    HW124764   3.943   0.027   9.370 -0.8134  0.8803 -1.6342
 4376SOL    HW224765   4.006   0.162   9.392  1.8630 -1.8358 -2.2671
 4377SOL     OW24766   2.411   0.592   1.264  0.2334  0.1232  0.2615
 4377SOL    HW124767   2.484   0.591   1.202  0.4446 -0.2675  0.5168
 4377SOL    HW224768   2.438   0.644   1.340 -0.2309 -0.7966  1.0599
 4378SOL     OW24769   2.602   1.578   0.877 -0.1224  0.2534  0.1763
 4378SOL    HW124770   2.691   1.593   0.910  0.1370  0.2271 -0.4968
 4378SOL    HW224771   2.582   1.492   0.913 -2.0534  1.2559  1.4924
 4379SOL     OW24772   2.764   2.455  11.894  0.1735 -0.5703 -0.1968
 4379SOL    HW124773   2.794   2.382  11.949 -1.8922 -2.1696 -1.2212
 4379SOL    HW224774   2.690   2.430  11.840 -1.6088  3.2719  0.4185
 4380SOL     OW24775   1.872   2.300  13.439 -0.3429 -0.2203  0.0694
 4380SOL    HW124776   1.904   2.226  13.492  0.2980  0.9235  1.2893
 4380SOL    HW224777   1.831   2.253  13.367  0.3480  0.3348 -0.6738
 4381SOL     OW24778   1.069   0.990  13.580 -0.5138 -0.4729  0.0602
 4381SOL    HW124779   1.160   1.020  13.582 -1.3163  2.0457 -0.1772
 4381SOL    HW224780   1.079   0.930  13.506  0.7683  1.9300 -1.7534
 4382SOL     OW24781   3.034   3.216   7.211  0.0481 -0.2326 -0.5096
 4382SOL    HW124782   3.029   3.136   7.263 -1.1888 -0.4424 -0.9574
 4382SOL    HW224783   3.030   3.186   7.120 -1.8849 -1.2656 -0.0740
 4383SOL     OW24784   4.509   4.185  14.734 -0.2832  0.2036  0.4482
 4383SOL    HW124785   4.438   4.240  14.701 -2.5880 -2.8146  0.3985
 4383SOL    HW224786   4.522   4.215  14.824 -2.5634  0.0440  0.8335
 4384SOL     OW24787   1.642   3.296   5.728 -0.6558 -0.0103 -0.2482
 4384SOL    HW124788   1.577   3.225   5.722 -1.2728  0.6371 -1.2333
 4384SOL    HW224789   1.642   3.332   5.639  1.0549 -2.1090 -1.0991
 4385SOL     OW24790   1.010   0.768  11.322 -0.2733 -0.0275  0.0408
 4385SOL    HW124791   1.060   0.844  11.291  2.4542 -1.7954  0.1831
 4385SOL    HW224792   0.925   0.813  11.328  0.4140  1.3377 -0.3030
 4386SOL     OW24793   0.312   1.579  16.008 -0.5349  0.5236  0.7469
 4386SOL    HW124794   0.277   1.610  15.924  0.7425 -1.8324 -0.6859
 4386SOL    HW224795   0.280   1.654  16.057  4.0536  1.8035  1.7702
 4387SOL     OW24796   1.903   0.388  15.103  0.4809 -0.0753  0.0296
 4387SOL    HW124797   1.927   0.357  15.016  0.8550  2.2190 -0.6809
 4387SOL    HW224798   1.901   0.483  15.101 -0.2796 -0.0680  0.8170
 4388SOL     OW24799   2.598   3.082   5.340  0.6487  0.2623  0.1317
 4388SOL    HW124800   2.521   3.126   5.303  1.2038  0.3753 -0.8894
 4388SOL    HW224801   2.663   3.085   5.269 -1.4077 -1.3899 -1.8412
 4389SOL     OW24802   3.618   0.729   0.515  0.3582  0.0861 -0.0934
 4389SOL    HW124803   3.711   0.713   0.527  0.7358  0.5051 -2.4048
 4389SOL    HW224804   3.613   0.825   0.512  1.7026  0.1275 -0.9310
 4390SOL     OW24805   0.841   0.273   5.741  0.0509  0.7892 -0.2490
 4390SOL    HW124806   0.747   0.289   5.734 -0.0499  0.1908 -0.1975
 4390SOL    HW224807   0.847   0.183   5.710 -1.0052  1.0281 -1.1488
 4391SOL     OW24808   4.627   2.999   1.649  0.0808  0.0746  0.2972
 4391SOL    HW124809   4.598   2.980   1.739  1.0340 -0.2730  0.5360
 4391SOL    HW224810   4.663   2.913   1.628  1.7281  0.6131  0.8668
 4392SOL     OW24811   0.973   0.258   5.464  0.2376  0.3258 -0.4366
 4392SOL    HW124812   0.895   0.255   5.409 -0.6002  1.9645  0.6300
 4392SOL    HW224813   1.030   0.311   5.409  2.5252 -0.5382  1.0924
 4393SOL     OW24814   0.290   2.801   4.225  0.2719 -0.5122 -0.3996
 4393SOL    HW124815   0.252   2.767   4.306 -0.1296 -0.2226 -0.4624
 4393SOL    HW224816   0.371   2.750   4.227  0.9936  0.6201 -0.7236
 4394SOL     OW24817   1.072   3.196   3.395  0.2713  0.1492 -0.5406
 4394SOL    HW124818   1.065   3.203   3.300 -1.8872  0.4701 -0.3760
 4394SOL    HW224819   1.033   3.280   3.418 -0.0576  0.3020 -1.6732
 4395SOL     OW24820   2.883   2.619   0.725  0.7623  0.0120  0.6749
 4395SOL    HW124821   2.873   2.681   0.798 -1.9997  1.2346 -0.7109
 4395SOL    HW224822   2.887   2.543   0.783  0.3750 -0.3048  0.2873
 4396SOL     OW24823   2.364   1.610   6.384  0.3522 -0.4174  0.0970
 4396SOL    HW124824   2.384   1.675   6.316 -0.0326 -0.6137 -0.2052
 4396SOL    HW224825   2.446   1.590   6.430  0.5709  0.5752  0.1450
 4397SOL     OW24826   0.512   0.973  15.626 -0.6836  0.3740 -0.4126
 4397SOL    HW124827   0.577   1.034  15.662 -1.3758  0.8570  0.0049
 4397SOL    HW224828   0.539   0.984  15.535 -1.5234 -2.3773 -0.9911
 4398SOL     OW24829   0.664   0.032  16.180 -0.6961 -0.1470  0.5092
 4398SOL    HW124830   0.730   0.056  16.244 -0.5672 -0.2989  0.4349
 4398SOL    HW224831   0.714   4.718  16.118  1.3225 -0.1298  2.1171
 4399SOL     OW24832   3.432   2.601  14.944  0.6989  0.6280  0.9405
 4399SOL    HW124833   3.362   2.537  14.932  1.2793  0.4233 -1.2414
 4399SOL    HW224834   3.379   2.680  14.937 -1.9678 -1.4317 -1.9264
 4400SOL     OW24835   4.466   0.245   6.974 -0.3681  0.1606 -0.0972
 4400SOL    HW124836   4.448   0.216   6.885 -0.5649  0.6907 -0.2330
 4400SOL    HW224837   4.505   0.167   7.014 -0.1599 -0.4243 -1.4568
 4401SOL     OW24838   4.139   2.641   9.922  1.1686  0.2922 -0.3688
 4401SOL    HW124839   4.183   2.606   9.845  1.1086 -1.4767  0.4007
 4401SOL    HW224840   4.171   2.592   9.998 -2.0784 -2.9168 -1.0720
 4402SOL     OW24841   2.886   1.454   6.331 -0.5810 -0.0596  0.2013
 4402SOL    HW124842   2.967   1.404   6.332 -0.3605  0.3320  1.3310
 4402SOL    HW224843   2.833   1.407   6.395 -0.8734 -0.9952 -0.7197
 4403SOL     OW24844   0.532   4.195   1.063 -0.1289 -0.2183  0.5134
 4403SOL    HW124845   0.470   4.196   0.990  0.0052  2.9012  0.4300
 4403SOL    HW224846   0.487   4.243   1.132 -0.7333  1.8480 -1.2988
 4404SOL     OW24847   1.264   4.261   1.867 -0.5413  0.2500 -0.1001
 4404SOL    HW124848   1.254   4.166   1.856 -0.0648  0.4080 -1.9575
 4404SOL    HW224849   1.250   4.291   1.777 -0.0029 -1.4329 -0.7506
 4405SOL     OW24850   2.442   0.048   1.388 -0.1605 -0.2906 -0.0232
 4405SOL    HW124851   2.385   0.125   1.395  1.9450  1.2768 -0.2793
 4405SOL    HW224852   2.391   4.718   1.430  1.1122 -0.3015  1.5059
 4406SOL     OW24853   1.505   1.328   2.373  0.1246  0.4546 -0.0087
 4406SOL    HW124854   1.467   1.242   2.356 -2.2469  1.0902  2.0335
 4406SOL    HW224855   1.429   1.387   2.377 -1.5128 -1.5624 -1.2925
 4407SOL     OW24856   3.257   3.970   8.454  0.3036  0.2339  0.0366
 4407SOL    HW124857   3.189   3.909   8.426 -0.2279  0.2548  1.2725
 4407SOL    HW224858   3.222   3.983   8.542 -2.5990  1.4732 -1.2948
 4408SOL     OW24859   0.980   1.347  10.281 -0.5031 -0.2052  0.2873
 4408SOL    HW124860   1.040   1.301  10.222 -0.2157  0.3768  0.1220
 4408SOL    HW224861   1.033   1.366  10.358  0.9912  0.5449 -0.9182
 4409SOL     OW24862   4.238   0.840  10.518  0.3032 -0.0589 -0.7019
 4409SOL    HW124863   4.319   0.845  10.570  1.3861  1.1450 -2.4790
 4409SOL    HW224864   4.186   0.779  10.570 -0.5849 -0.4811 -2.0971
 4410SOL     OW24865   1.645   2.553   7.297  0.4776  0.2711 -0.2558
 4410SOL    HW124866   1.687   2.639   7.305  0.1068  0.1837  2.8555
 4410SOL    HW224867   1.727   2.503   7.295  0.4755  0.2126  0.8689
 4411SOL     OW24868   1.439   4.464   5.695 -0.4310 -0.3046  0.3483
 4411SOL    HW124869   1.469   4.432   5.779  0.0848 -1.3853 -0.2517
 4411SOL    HW224870   1.368   4.523   5.722  0.2068  0.5484  0.1677
 4412SOL     OW24871   1.571   2.877   1.576 -0.2833 -0.2381  0.3338
 4412SOL    HW124872   1.512   2.809   1.609 -1.3104  1.0507  1.1533
 4412SOL    HW224873   1.532   2.951   1.623  0.5356  0.9792 -0.8936
 4413SOL     OW24874   2.895   3.950   4.342  0.1694  0.2748  0.3789
 4413SOL    HW124875   2.898   3.854   4.346  2.3458  0.2981 -0.7888
 4413SOL    HW224876   2.966   3.975   4.283  1.2507 -0.7997  1.2257
 4414SOL     OW24877   2.479   1.480   3.620 -0.3388 -0.7330 -0.2914
 4414SOL    HW124878   2.452   1.506   3.709 -0.0708 -1.2464 -0.0603
 4414SOL    HW224879   2.490   1.567   3.581 -1.3999 -0.7783 -0.6925
 4415SOL     OW24880   1.848   2.878  16.795 -0.1884  0.5132  0.0804
 4415SOL    HW124881   1.891   2.958  16.826  1.2860  0.0454 -0.7571
 4415SOL    HW224882   1.883   2.813  16.856  0.5701  0.9259  0.0866
 4416SOL     OW24883   0.220   4.588   6.913  0.0253  0.6409  0.1843
 4416SOL    HW124884   0.314   4.598   6.929 -0.4979  0.5922  3.2269
 4416SOL    HW224885   0.211   4.533   6.835 -0.0755  0.1924  0.5135
 4417SOL     OW24886   0.540   4.313   9.364  0.2729  0.2184  0.3542
 4417SOL    HW124887   0.446   4.309   9.344  0.3747 -0.0670 -0.0595
 4417SOL    HW224888   0.532   4.298   9.458  1.7812  0.2850  0.4941
 4418SOL     OW24889   4.237   4.301   2.773 -0.1291 -0.0111 -0.0951
 4418SOL    HW124890   4.166   4.339   2.722  1.0698  2.3648  0.0242
 4418SOL    HW224891   4.306   4.299   2.707  0.0169  0.9579  0.0213
 4419SOL     OW24892   0.196   1.231  10.884  0.6669  1.0383 -0.2223
 4419SOL    HW124893   0.102   1.229  10.869  0.8607  1.6945 -1.5567
 4419SOL    HW224894   0.233   1.246  10.797 -0.7386 -0.9160 -1.1346
 4420SOL     OW24895   0.222   4.056   8.608 -0.0220  0.4471 -0.0245
 4420SOL    HW124896   0.157   4.053   8.538 -0.2979  1.9610  0.1663
 4420SOL    HW224897   0.221   3.961   8.621 -0.6774  0.6871  1.7200
 4421SOL     OW24898   4.317   4.551  13.214  0.2969 -0.0144 -0.6127
 4421SOL    HW124899   4.412   4.541  13.217  0.3933  1.2538  0.2450
 4421SOL    HW224900   4.301   4.535  13.307 -0.2518  1.3264 -0.4817
 4422SOL     OW24901   4.019   0.673   8.737  0.5094 -0.6903 -0.2923
 4422SOL    HW124902   4.024   0.684   8.642 -2.6413 -0.5087 -0.4489
 4422SOL    HW224903   4.045   0.762   8.760 -0.2339  0.1900 -2.8849
 4423SOL     OW24904   2.180   0.114   7.487  0.6909 -0.6237 -0.1381
 4423SOL    HW124905   2.248   0.172   7.452  0.5972  0.8962  2.1906
 4423SOL    HW224906   2.158   0.154   7.572 -0.4251 -2.9867  0.6841
 4424SOL     OW24907   3.636   1.291  15.961 -0.2629 -0.5577  0.0405
 4424SOL    HW124908   3.639   1.272  16.054  1.8847  0.5153  0.1871
 4424SOL    HW224909   3.704   1.357  15.943 -0.5001 -0.0409  1.0965
 4425SOL     OW24910   1.461   2.727   1.779 -0.0406 -0.0665  0.1655
 4425SOL    HW124911   1.463   2.632   1.784  0.6046 -0.0924 -0.5032
 4425SOL    HW224912   1.479   2.750   1.870 -3.8381 -1.9470  1.3795
 4426SOL     OW24913   3.107   1.300   6.339  0.0111 -0.0357  0.0522
 4426SOL    HW124914   3.188   1.319   6.291  1.1723 -1.5583  1.4578
 4426SOL    HW224915   3.127   1.215   6.377 -0.7630 -0.3263 -0.1770
 4427SOL     OW24916   1.317   0.987  14.594  0.1652  0.2375 -0.3241
 4427SOL    HW124917   1.371   0.995  14.515 -0.7815  2.0593 -0.7670
 4427SOL    HW224918   1.384   0.982  14.662 -1.2831 -1.2164  1.0063
 4428SOL     OW24919   1.860   1.879   7.111 -0.1172  0.2239  0.1182
 4428SOL    HW124920   1.876   1.826   7.189 -1.9883 -0.2747  0.1696
 4428SOL    HW224921   1.886   1.963   7.149 -0.0834  0.1435  0.2745
 4429SOL     OW24922   4.101   1.832   3.326 -0.6983  0.5792 -0.0466
 4429SOL    HW124923   4.122   1.889   3.399 -0.3905 -0.4766  0.6900
 4429SOL    HW224924   4.071   1.752   3.368 -1.8373  0.9810 -0.1033
 4430SOL     OW24925   1.111   1.811  10.707  0.3160 -0.1576  0.3108
 4430SOL    HW124926   1.187   1.780  10.756  0.6442 -0.7802 -0.5737
 4430SOL    HW224927   1.133   1.902  10.689 -1.1587  0.1042 -0.1355
 4431SOL     OW24928   4.565   1.261   4.393 -0.2734 -0.5254 -0.2275
 4431SOL    HW124929   4.480   1.272   4.350  0.2719  1.2065 -0.8496
 4431SOL    HW224930   4.624   1.230   4.324  0.2210  1.8417 -0.8768
 4432SOL     OW24931   0.161   0.058   8.961 -0.1285 -0.0120 -0.4819
 4432SOL    HW124932   0.127   0.146   8.943  0.3972  0.1296 -0.7711
 4432SOL    HW224933   0.209   0.081   9.040 -1.8688  0.3141  0.4870
 4433SOL     OW24934   4.576   0.247   7.996 -0.0301 -1.0365  0.7087
 4433SOL    HW124935   4.499   0.236   7.941  0.8477  0.1132 -0.7529
 4433SOL    HW224936   4.539   0.247   8.085  0.3816  2.9637  0.8935
 4434SOL     OW24937   1.428   3.098  10.226  0.2500  0.1887 -0.0285
 4434SOL    HW124938   1.368   3.039  10.181  2.1373 -0.1277 -2.1438
 4434SOL    HW224939   1.508   3.046  10.222 -0.6122 -1.0970 -0.6854
 4435SOL     OW24940   3.381   1.022   3.926  0.1792 -0.5973 -0.1731
 4435SOL    HW124941   3.288   1.005   3.913 -0.0268  0.0199  0.5444
 4435SOL    HW224942   3.380   1.094   3.989  1.4148 -0.1652 -0.6461
 4436SOL     OW24943   0.421   3.494  16.829 -0.7295  0.4745  0.0564
 4436SOL    HW124944   0.479   3.557  16.786 -2.3034  1.4814 -0.5766
 4436SOL    HW224945   0.366   3.459  16.759  0.8680 -0.0776 -0.9236
 4437SOL     OW24946   3.766   2.895   6.782  0.1914  1.0051 -0.2094
 4437SOL    HW124947   3.812   2.821   6.742  1.3581  1.7906 -0.2952
 4437SOL    HW224948   3.811   2.902   6.866 -0.4155 -0.1962  0.2244
 4438SOL     OW24949   2.559   2.122   8.219 -0.1958 -0.3995  0.1355
 4438SOL    HW124950   2.588   2.209   8.246  0.1126 -1.2287  2.5174
 4438SOL    HW224951   2.642   2.093   8.181  0.7188 -0.1641  1.9404
 4439SOL     OW24952   2.496   2.809   4.074  0.7943 -0.1825 -0.0867
 4439SOL    HW124953   2.414   2.802   4.122  0.5261 -1.6825 -0.7929
 4439SOL    HW224954   2.556   2.823   4.148  0.8476 -1.7610  0.1685
 4440SOL     OW24955   0.452   4.564  10.353 -0.3233  0.1196 -0.3125
 4440SOL    HW124956   0.399   4.500  10.305  0.9750  0.3461 -2.0486
 4440SOL    HW224957   0.477   4.506  10.426 -1.6944 -1.2472 -0.9308
 4441SOL     OW24958   1.389   1.400   1.958 -0.2550  0.0919  0.0786
 4441SOL    HW124959   1.384   1.459   1.883  0.5689  1.2823  0.9688
 4441SOL    HW224960   1.304   1.360   1.975 -0.4913  1.0955  1.2708
 4442SOL     OW24961   4.206   0.468  14.467  0.2802  0.8646 -0.0617
 4442SOL    HW124962   4.208   0.533  14.537 -2.8284  1.6323 -0.6795
 4442SOL    HW224963   4.293   0.430  14.465  0.2999  0.9261 -0.3421
 4443SOL     OW24964   3.372   3.154   3.139  0.6164  0.3805 -0.5422
 4443SOL    HW124965   3.326   3.175   3.058 -0.0125  3.7725  0.7042
 4443SOL    HW224966   3.341   3.222   3.198 -0.2245  1.1813 -1.9136
 4444SOL     OW24967   1.687   1.343   2.594  0.1682  0.4929 -0.0400
 4444SOL    HW124968   1.648   1.317   2.511  1.3322 -0.1687 -0.3792
 4444SOL    HW224969   1.771   1.362   2.553  0.5240 -0.1875  0.3633
 4445SOL     OW24970   4.209   3.680   4.706  0.1836  0.4303  0.1833
 4445SOL    HW124971   4.254   3.614   4.759 -1.4542 -0.4475  0.4871
 4445SOL    HW224972   4.257   3.755   4.740  1.5091 -0.7150  0.8178
 4446SOL     OW24973   0.053   3.552   1.310 -0.1980 -0.7713 -0.0157
 4446SOL    HW124974   0.117   3.482   1.300 -1.4510 -2.3998  3.3935
 4446SOL    HW224975   4.726   3.524   1.247  0.1336 -0.4626 -0.4969
 4447SOL     OW24976   0.034   2.251   8.278  0.0005 -0.8192 -0.1322
 4447SOL    HW124977   0.076   2.293   8.202 -1.3500 -0.7193 -0.8272
 4447SOL    HW224978   0.030   2.158   8.256  0.8893 -1.4380  2.3713
 4448SOL     OW24979   2.554   3.220   0.163 -0.8803 -0.0368  0.4570
 4448SOL    HW124980   2.552   3.304   0.209  0.4104  0.7244 -0.8457
 4448SOL    HW224981   2.459   3.210   0.157 -1.0032  1.7396 -0.5356
 4449SOL     OW24982   2.307   2.311   8.028 -0.2511  0.2736 -0.4608
 4449SOL    HW124983   2.386   2.364   8.035 -1.4507  1.7524  1.8973
 4449SOL    HW224984   2.254   2.377   8.073 -1.8948 -0.5324 -1.2275
 4450SOL     OW24985   0.674   2.734  14.513  0.1588  0.3941  0.5666
 4450SOL    HW124986   0.718   2.805  14.468  1.2407 -0.7165 -0.1255
 4450SOL    HW224987   0.585   2.767  14.520  0.3936  1.0222  0.5721
 4451SOL     OW24988   1.224   3.861   5.325 -0.4773  0.6285  0.2152
 4451SOL    HW124989   1.265   3.914   5.256 -3.2024 -1.1578 -2.8067
 4451SOL    HW224990   1.205   3.787   5.267 -1.5870  1.1605 -0.1066
 4452SOL     OW24991   1.599   0.963  11.191  0.5027 -0.2024  0.7813
 4452SOL    HW124992   1.539   0.956  11.116  1.9263 -0.6121 -0.3244
 4452SOL    HW224993   1.675   1.009  11.156  0.0817  0.4836  0.7789
 4453SOL     OW24994   2.280   2.234   9.786 -0.0654  0.2051 -0.0230
 4453SOL    HW124995   2.296   2.173   9.714  2.8609  0.9488 -0.0131
 4453SOL    HW224996   2.363   2.281   9.785 -0.7075  1.3338 -0.9269
 4454SOL     OW24997   1.731   4.211   8.790 -0.4404 -0.3149 -0.5100
 4454SOL    HW124998   1.705   4.179   8.703 -2.0243  1.2775 -0.6221
 4454SOL    HW224999   1.754   4.132   8.839  2.3026  1.7988  1.5384
 4455SOL     OW25000   3.235   4.089   7.101 -0.0868 -0.1553  0.4436
 4455SOL    HW125001   3.203   4.021   7.042 -2.9512  0.2320  1.5482
 4455SOL    HW225002   3.322   4.112   7.069 -0.9367  0.8516 -1.1601
 4456SOL     OW25003   4.202   0.170   2.264 -0.1718 -0.0364  0.4388
 4456SOL    HW125004   4.220   0.104   2.196 -0.4592 -0.3696  0.6855
 4456SOL    HW225005   4.122   0.214   2.234  0.4900  0.5728 -0.4301
 4457SOL     OW25006   2.450   3.600   5.943 -0.2879 -0.0130 -0.7735
 4457SOL    HW125007   2.382   3.581   5.879 -0.2745 -2.4296 -0.0614
 4457SOL    HW225008   2.426   3.687   5.975 -1.2822 -1.2530  1.7981
 4458SOL     OW25009   2.347   2.314   0.683  0.2627 -0.1436 -0.0834
 4458SOL    HW125010   2.290   2.386   0.710  2.2663  1.3805  0.1475
 4458SOL    HW225011   2.285   2.259   0.635 -0.0249  0.6526 -0.6220
 4459SOL     OW25012   0.983   1.768   1.492  0.1325  0.2657 -0.0793
 4459SOL    HW125013   0.980   1.675   1.514  1.2852  0.4834  1.0265
 4459SOL    HW225014   0.894   1.773   1.458  0.7453  1.8240 -1.4361
 4460SOL     OW25015   2.106   1.803   5.596 -0.1954 -0.0783 -0.3166
 4460SOL    HW125016   2.107   1.721   5.546  0.1805 -0.2972  0.0446
 4460SOL    HW225017   2.109   1.758   5.681  0.7640  1.7671  0.6168
 4461SOL     OW25018   3.618   2.397   8.880  0.6221 -0.5610  0.5605
 4461SOL    HW125019   3.561   2.377   8.954  2.2547 -0.0646  1.9590
 4461SOL    HW225020   3.667   2.315   8.873  0.8857 -0.3910  0.3766
 4462SOL     OW25021   4.672   1.816   0.739  0.2878 -0.0485 -0.6449
 4462SOL    HW125022   4.705   1.827   0.828 -0.3691 -4.1609  0.1150
 4462SOL    HW225023   4.635   1.902   0.720 -0.5008 -0.1126  0.6702
 4463SOL     OW25024   0.499   2.654   4.947  0.4269  0.3410 -0.4618
 4463SOL    HW125025   0.413   2.694   4.933  0.2626  0.4784  0.9610
 4463SOL    HW225026   0.544   2.654   4.863 -0.2859 -0.6181 -0.8390
 4464SOL     OW25027   3.576   1.022   8.925  0.2287 -0.0178 -0.1033
 4464SOL    HW125028   3.512   0.959   8.959  1.1658 -1.7647 -1.5315
 4464SOL    HW225029   3.549   1.097   8.977  2.1196  0.3084  0.4165
 4465SOL     OW25030   3.109   3.447   1.434  0.2004 -0.3184 -0.2234
 4465SOL    HW125031   3.121   3.537   1.403 -1.8347 -0.3876 -1.2219
 4465SOL    HW225032   3.162   3.398   1.372  1.9930 -1.5291  2.2884
 4466SOL     OW25033   2.674   1.733   7.509  0.2945  0.1450  0.0463
 4466SOL    HW125034   2.604   1.774   7.457 -0.6955 -0.7260  0.6992
 4466SOL    HW225035   2.657   1.641   7.489  0.0533  0.6111 -1.9639
 4467SOL     OW25036   4.159   2.307  16.277 -0.2085  0.1820 -0.5899
 4467SOL    HW125037   4.071   2.285  16.245 -0.9908  0.7651  1.1536
 4467SOL    HW225038   4.159   2.242  16.347  1.0038  1.1829  0.3314
 4468SOL     OW25039   4.532   0.450   9.139 -0.0662 -0.1972  1.0620
 4468SOL    HW125040   4.529   0.438   9.045 -1.7821 -2.0186  1.3466
 4468SOL    HW225041   4.552   0.359   9.162 -1.4764 -1.0719 -1.2274
 4469SOL     OW25042   1.874   3.855   5.308 -0.6631  0.2852  0.5415
 4469SOL    HW125043   1.863   3.843   5.213  0.6432  1.6232  0.2147
 4469SOL    HW225044   1.866   3.950   5.317  0.2933  0.4182  0.0639
 4470SOL     OW25045   2.726   4.738   6.355 -0.3024  0.7074  0.3593
 4470SOL    HW125046   2.762   4.671   6.296  0.0527  1.0335  0.2081
 4470SOL    HW225047   2.698   0.057   6.284  0.2930 -0.8331 -1.1530
 4471SOL     OW25048   0.800   3.206  15.753  0.2074 -1.0488  0.1098
 4471SOL    HW125049   0.735   3.256  15.803  1.2560 -0.5373  0.9516
 4471SOL    HW225050   0.812   3.252  15.670  1.2640  0.2694  1.0034
 4472SOL     OW25051   2.292   3.651  14.044 -0.5265  0.4925 -0.2161
 4472SOL    HW125052   2.200   3.667  14.020 -0.2411 -1.0471 -2.3266
 4472SOL    HW225053   2.323   3.592  13.974  0.0976 -0.4985  0.8991
 4473SOL     OW25054   2.550   3.989   6.847  0.4241  0.4316 -0.9854
 4473SOL    HW125055   2.625   3.975   6.905 -2.0109  0.5866  2.1864
 4473SOL    HW225056   2.521   4.077   6.871 -3.6004 -1.0120 -0.6391
 4474SOL     OW25057   4.256   2.689  14.283  0.1589 -0.2932  0.1196
 4474SOL    HW125058   4.208   2.753  14.230  1.4113  1.1786  0.7700
 4474SOL    HW225059   4.346   2.721  14.279 -0.3549  1.2201  0.3457
 4475SOL     OW25060   2.683   0.060   8.405  0.4531 -0.0970  0.1030
 4475SOL    HW125061   2.649   0.135   8.356  0.6384  0.0135  0.1453
 4475SOL    HW225062   2.700   0.007   8.328  0.1123 -0.4180  0.2474
 4476SOL     OW25063   0.990   2.981  11.965  1.2452 -0.6711 -0.3211
 4476SOL    HW125064   1.018   2.898  12.004 -0.8051 -1.2535 -0.0875
 4476SOL    HW225065   0.912   2.961  11.915  1.8614 -1.7837 -0.8263
 4477SOL     OW25066   1.551   3.368   5.427 -0.5470 -0.2468 -0.1091
 4477SOL    HW125067   1.501   3.310   5.370 -0.2588 -2.0930  1.5094
 4477SOL    HW225068   1.482   3.411   5.478  0.4442  0.0383  0.9989
 4478SOL     OW25069   0.811   3.200   4.766 -0.0555 -0.0161  0.0963
 4478SOL    HW125070   0.745   3.258   4.805  1.0391  1.0061  0.4311
 4478SOL    HW225071   0.842   3.257   4.696  0.1425  0.5754  0.6611
 4479SOL     OW25072   0.836   4.035   2.411 -0.2893 -0.0696 -0.6523
 4479SOL    HW125073   0.896   4.061   2.482 -0.5421  0.6020 -0.6801
 4479SOL    HW225074   0.839   3.940   2.414 -0.0144 -0.1075 -2.4559
 4480SOL     OW25075   4.337   2.134  16.161 -0.4002  0.3018 -0.2448
 4480SOL    HW125076   4.304   2.209  16.210 -2.7907 -0.5837 -0.4701
 4480SOL    HW225077   4.409   2.114  16.220 -0.6827 -0.0152 -0.0031
 4481SOL     OW25078   3.882   4.211   7.925 -0.3078  0.1787 -0.1656
 4481SOL    HW125079   3.824   4.147   7.883 -0.5348  0.0145  0.4127
 4481SOL    HW225080   3.929   4.253   7.852  1.1167 -1.3809 -0.1402
 4482SOL     OW25081   2.869   1.607   3.723 -0.6504  0.0692  0.3807
 4482SOL    HW125082   2.863   1.513   3.740  0.9764  0.7996  4.9223
 4482SOL    HW225083   2.884   1.604   3.628 -1.4839  1.6188  0.2131
 4483SOL     OW25084   1.134   1.834   6.930 -0.6233 -0.4637 -0.4007
 4483SOL    HW125085   1.195   1.838   6.856 -0.5114 -1.3283 -0.3530
 4483SOL    HW225086   1.144   1.912   6.985 -0.0598 -1.4461  0.8756
 4484SOL     OW25087   0.322   1.785   2.856  0.1678 -0.2647 -0.1793
 4484SOL    HW125088   0.303   1.865   2.905  1.8016 -2.6241  4.3675
 4484SOL    HW225089   0.236   1.763   2.819  0.0132 -0.8255  0.5009
 4485SOL     OW25090   4.298   1.830   7.549  0.6808 -0.0558 -0.1734
 4485SOL    HW125091   4.312   1.816   7.455 -0.7167  1.5204 -0.6168
 4485SOL    HW225092   4.376   1.868   7.591  1.0326  0.8323 -1.6124
 4486SOL     OW25093   2.243   3.029  10.428 -0.4684 -0.7109  0.2406
 4486SOL    HW125094   2.303   3.016  10.354 -0.1484  1.6954  0.0810
 4486SOL    HW225095   2.211   3.119  10.429 -1.6914 -1.1504  1.1469
 4487SOL     OW25096   3.223   0.562   4.308  0.4841 -0.5458 -0.1860
 4487SOL    HW125097   3.164   0.490   4.285  1.8552 -1.3153 -1.3387
 4487SOL    HW225098   3.166   0.637   4.325 -1.3562 -2.0717  0.3182
 4488SOL     OW25099   2.558   3.795   9.001 -0.0719  0.2765  0.2632
 4488SOL    HW125100   2.583   3.875   8.956 -1.3962  0.2935 -0.4238
 4488SOL    HW225101   2.629   3.739   8.971 -2.1575 -1.2631 -1.7289
 4489SOL     OW25102   2.368   1.197   5.546  0.6735  0.1469 -0.1041
 4489SOL    HW125103   2.378   1.113   5.501 -3.4511  0.1133 -0.9236
 4489SOL    HW225104   2.403   1.190   5.636 -0.0237  0.0598  0.1558
 4490SOL     OW25105   0.472   4.503   4.178 -0.2964  0.4260 -0.5603
 4490SOL    HW125106   0.480   4.438   4.248 -0.6761  0.1778 -0.7466
 4490SOL    HW225107   0.526   4.467   4.107  0.4202  0.1079  0.1448
 4491SOL     OW25108   2.320   3.445   1.186 -0.1358 -0.2209 -0.2450
 4491SOL    HW125109   2.267   3.431   1.108 -0.5360 -1.6128  0.2736
 4491SOL    HW225110   2.400   3.403   1.156  0.3483  0.4260  0.1384
 4492SOL     OW25111   3.413   3.966   7.735  0.2677  0.3532  0.0339
 4492SOL    HW125112   3.379   3.922   7.812  0.6945  0.2580  0.1693
 4492SOL    HW225113   3.342   4.027   7.716 -0.3748 -0.3354  0.2170
 4493SOL     OW25114   4.718   3.025   7.217  0.2231  0.5843  0.0813
 4493SOL    HW125115   0.049   3.089   7.205  0.4373  0.2901 -0.2765
 4493SOL    HW225116   4.697   3.042   7.309 -0.0671  0.1725  0.0945
 4494SOL     OW25117   3.934   4.625   4.719 -0.3464  0.0789  0.4238
 4494SOL    HW125118   3.907   4.588   4.803  0.8867  0.1003  0.8328
 4494SOL    HW225119   4.018   4.578   4.709 -0.7597 -0.1670 -1.8673
 4495SOL     OW25120   1.987   3.195   8.569  0.2268  0.4385 -0.2870
 4495SOL    HW125121   2.063   3.170   8.516  0.3530 -0.0202  0.1108
 4495SOL    HW225122   2.005   3.289   8.577  2.4073  0.1752 -2.1400
 4496SOL     OW25123   4.501   3.125   1.891  0.1265  0.2248 -0.0767
 4496SOL    HW125124   4.544   3.041   1.906  0.2179  0.2692 -0.0951
 4496SOL    HW225125   4.515   3.172   1.973  0.2247  1.4279 -0.7811
 4497SOL     OW25126   1.453   3.173   6.745 -0.0664  0.0072  0.1482
 4497SOL    HW125127   1.399   3.220   6.808  0.7903 -0.7255  1.4211
 4497SOL    HW225128   1.438   3.079   6.751 -3.5661  0.5225 -0.6297
 4498SOL     OW25129   3.271   4.397   8.071 -0.1562 -0.5386  0.2679
 4498SOL    HW125130   3.283   4.492   8.073  0.2093 -0.5966  0.7921
 4498SOL    HW225131   3.204   4.390   8.004  1.8183 -1.4326 -1.6233
 4499SOL     OW25132   3.778   3.306   3.649  0.1137 -0.2116 -0.1711
 4499SOL    HW125133   3.716   3.379   3.638  0.8234  0.3686 -0.3150
 4499SOL    HW225134   3.862   3.351   3.642  0.8070 -1.5177 -0.0374
 4500SOL     OW25135   1.813   0.899   7.978  0.0282  0.8424  0.2175
 4500SOL    HW125136   1.815   0.837   7.905 -0.4233  1.2900 -0.1681
 4500SOL    HW225137   1.794   0.983   7.938  1.0854  1.1749  0.4238
 4501SOL     OW25138   4.027   3.251   6.540  0.4043  0.0736  0.1173
 4501SOL    HW125139   4.001   3.224   6.628 -0.2141 -0.2859 -0.1700
 4501SOL    HW225140   4.103   3.194   6.530 -1.8740 -3.2638  1.8342
 4502SOL     OW25141   3.781   2.975  12.394 -0.2116  0.3437  0.2320
 4502SOL    HW125142   3.749   2.904  12.338 -1.1372  0.5600  0.4773
 4502SOL    HW225143   3.871   2.948  12.413 -1.0859 -2.2900  0.5834
 4503SOL     OW25144   2.587   3.045   3.377 -0.2276  0.1841  0.1436
 4503SOL    HW125145   2.514   3.019   3.434 -0.2595 -0.8462 -0.3661
 4503SOL    HW225146   2.666   3.040   3.430  1.2386  1.7966 -1.8909
 4504SOL     OW25147   2.389   2.013   7.175  0.4178 -0.5001 -1.0014
 4504SOL    HW125148   2.481   2.011   7.150  0.2427 -0.7725 -1.6560
 4504SOL    HW225149   2.347   2.044   7.095  0.9939 -1.7315 -1.7913
 4505SOL     OW25150   0.024   4.655   7.517  0.3139  0.0162  0.2133
 4505SOL    HW125151   4.736   4.640   7.426  1.9407 -0.6833 -0.1606
 4505SOL    HW225152   0.048   4.567   7.548  0.4916  0.3575  1.0376
 4506SOL     OW25153   1.852   4.141   1.667 -0.3083 -0.3510 -0.4108
 4506SOL    HW125154   1.798   4.062   1.668  1.3248 -1.4137  1.2925
 4506SOL    HW225155   1.931   4.107   1.626  1.6964  0.4228  2.8617
 4507SOL     OW25156   2.263   3.091   2.722  0.2552 -0.5985 -0.4369
 4507SOL    HW125157   2.243   3.112   2.814 -2.0852  1.4599 -1.4396
 4507SOL    HW225158   2.223   3.163   2.674  2.4731  0.5101 -0.6398
 4508SOL     OW25159   0.023   4.101   3.708  0.2532 -0.1430  0.3746
 4508SOL    HW125160   0.036   4.017   3.664 -1.3435 -0.1253 -0.1319
 4508SOL    HW225161   0.103   4.100   3.760 -0.4587 -2.6099  1.4017
 4509SOL     OW25162   2.501   4.297  10.721  0.2783 -0.3596 -0.1035
 4509SOL    HW125163   2.412   4.329  10.705 -0.0819 -1.2514  0.1355
 4509SOL    HW225164   2.528   4.304  10.629  0.7636  1.2865  0.1685
 4510SOL     OW25165   1.310   2.817   5.190  0.8535  0.1788  0.3297
 4510SOL    HW125166   1.270   2.741   5.146  1.2373  0.5685 -0.7005
 4510SOL    HW225167   1.230   2.852   5.228  1.1810  2.6576 -1.2770
 4511SOL     OW25168   4.171   1.461   2.188 -0.1031 -0.2360 -0.0812
 4511SOL    HW125169   4.266   1.454   2.186  0.0190  1.6043 -1.1145
 4511SOL    HW225170   4.143   1.413   2.111 -1.3337  0.7406 -0.2590
 4512SOL     OW25171   1.343   2.447   6.249 -0.5582  0.4116  0.0563
 4512SOL    HW125172   1.264   2.498   6.230  0.2652  1.7716  0.2511
 4512SOL    HW225173   1.355   2.410   6.162 -1.7801  0.2412 -0.0442
 4513SOL     OW25174   3.870   3.815   6.592 -0.3616 -0.2526 -0.8864
 4513SOL    HW125175   3.858   3.737   6.645  0.9987  1.3974  1.8709
 4513SOL    HW225176   3.892   3.769   6.512  2.4531 -0.7372  0.1586
 4514SOL     OW25177   2.966   1.448   7.928  0.1813  0.0960  0.3262
 4514SOL    HW125178   3.057   1.422   7.941 -0.2114 -1.8072 -0.8162
 4514SOL    HW225179   2.935   1.402   7.850  1.3967  2.7930 -1.7892
 4515SOL     OW25180   3.007   2.610   7.827  0.5671  0.8030  0.0075
 4515SOL    HW125181   2.950   2.597   7.902  1.7084 -0.3400  0.6872
 4515SOL    HW225182   3.031   2.519   7.811 -1.8646  0.0311  0.8065
 4516SOL     OW25183   0.624   4.473  15.836 -0.1126  0.3892 -0.0139
 4516SOL    HW125184   0.565   4.398  15.828  0.7340 -0.2160 -0.5536
 4516SOL    HW225185   0.635   4.493  15.744  2.6807 -1.0987  0.0015
 4517SOL     OW25186   2.001   0.678   5.401  0.5142  0.6292 -0.1583
 4517SOL    HW125187   1.917   0.697   5.359  0.7492  0.1267 -0.8631
 4517SOL    HW225188   2.041   0.612   5.343 -1.7545 -1.9632  1.1948
 4518SOL     OW25189   3.065   1.781   7.407  0.4966  0.0816 -0.1012
 4518SOL    HW125190   3.012   1.847   7.362  0.4524 -0.4368 -0.8091
 4518SOL    HW225191   3.027   1.701   7.371  0.1141 -0.0456  0.5878
 4519SOL     OW25192   2.805   1.950   7.426 -0.4232 -0.4419 -0.8278
 4519SOL    HW125193   2.729   2.008   7.434 -1.1372 -1.8609  2.5555
 4519SOL    HW225194   2.774   1.865   7.457 -0.4578 -0.2889 -0.4481
 4520SOL     OW25195   3.078   0.321  12.863  0.3441  0.0557 -0.4411
 4520SOL    HW125196   3.124   0.371  12.930  0.6026 -2.1612  1.0641
 4520SOL    HW225197   3.135   0.243  12.862 -1.6763 -1.4453  2.3651
 4521SOL     OW25198   4.668   2.950  13.257 -0.4622 -0.2452 -0.4186
 4521SOL    HW125199   4.591   2.901  13.286 -0.7952  0.7112  0.3123
 4521SOL    HW225200   4.735   2.881  13.254 -0.7953 -0.6315  0.7635
 4522SOL     OW25201   3.442   1.505   8.063 -0.1432 -0.5427 -0.4277
 4522SOL    HW125202   3.505   1.561   8.107  0.3675 -0.5668 -1.1342
 4522SOL    HW225203   3.479   1.425   8.100  0.0838 -0.8253 -1.2528
 4523SOL     OW25204   0.914   2.124   2.289 -0.6998 -0.6537 -0.0479
 4523SOL    HW125205   0.946   2.102   2.202 -3.0203 -2.7202 -0.3815
 4523SOL    HW225206   0.844   2.059   2.298 -0.8072 -0.6097 -0.5629
 4524SOL     OW25207   3.946   2.587  15.313 -0.5481 -0.0296  0.0771
 4524SOL    HW125208   4.000   2.536  15.373  1.6801 -0.2669 -2.1435
 4524SOL    HW225209   3.863   2.575  15.360 -0.0264 -1.5787  0.6009
 4525SOL     OW25210   4.487   2.215   4.143 -0.5115 -0.2773  0.0451
 4525SOL    HW125211   4.418   2.254   4.197  1.6559  0.2749  2.4597
 4525SOL    HW225212   4.458   2.205   4.053 -3.1476  0.5582  0.8137
 4526SOL     OW25213   4.275   0.090  10.832  0.0851  0.2797  0.2760
 4526SOL    HW125214   4.240   0.086  10.921  0.4541 -1.0187  0.3553
 4526SOL    HW225215   4.192   0.083  10.785 -0.4111  1.3296  0.9716
 4527SOL     OW25216   0.873   0.202   4.997  0.4454  0.7530 -0.3793
 4527SOL    HW125217   0.827   0.273   4.951 -1.2584 -0.6646 -0.8691
 4527SOL    HW225218   0.936   0.172   4.931 -0.0418  4.2815 -2.4306
 4528SOL     OW25219   2.775   3.572  13.252  0.0136 -0.7040 -0.5518
 4528SOL    HW125220   2.780   3.477  13.266  0.1145 -0.3414  1.9161
 4528SOL    HW225221   2.684   3.587  13.229  0.2698 -0.0673 -1.1201
 4529SOL     OW25222   0.698   2.015  12.792 -0.0889 -0.1241 -0.4455
 4529SOL    HW125223   0.761   2.084  12.813 -0.2229 -0.3999  0.8344
 4529SOL    HW225224   0.740   1.983  12.712 -0.7601  0.6932 -1.1224
 4530SOL     OW25225   0.229   1.529  10.084 -0.3035 -0.3871  0.8511
 4530SOL    HW125226   0.202   1.455  10.139 -0.7814  0.0838  1.2539
 4530SOL    HW225227   0.323   1.517  10.079 -0.3221  0.7330 -2.5352
 4531SOL     OW25228   1.467   1.735   7.796 -0.0227 -0.3625  0.0076
 4531SOL    HW125229   1.540   1.771   7.745  1.1959  0.2520  2.1916
 4531SOL    HW225230   1.512   1.717   7.879  1.2410  2.1998 -0.1321
 4532SOL     OW25231   1.442   3.930   8.641 -0.1714  0.2922 -0.3738
 4532SOL    HW125232   1.396   3.911   8.559 -0.3128 -1.4324  0.1041
 4532SOL    HW225233   1.433   3.842   8.677 -0.6832  0.4253 -0.1805
 4533SOL     OW25234   2.089   4.442   4.993 -0.6930  0.1925  0.2795
 4533SOL    HW125235   2.177   4.440   5.031 -0.7752 -0.0235  0.4558
 4533SOL    HW225236   2.111   4.490   4.912 -2.0654 -0.2788 -0.3710
 4534SOL     OW25237   0.303   1.723   5.714  0.3072 -0.3628  0.6326
 4534SOL    HW125238   0.371   1.768   5.664  0.9737 -1.1675  0.8122
 4534SOL    HW225239   0.249   1.797   5.741  3.2878  2.6216 -1.6987
 4535SOL     OW25240   1.423   2.964   6.941 -0.5053 -0.2257 -0.4853
 4535SOL    HW125241   1.427   2.876   6.904 -0.0689  0.1712 -1.3751
 4535SOL    HW225242   1.384   2.937   7.024 -0.9854 -1.7001 -1.1925
 4536SOL     OW25243   1.601   2.627   2.566  0.3179  0.1227  0.0981
 4536SOL    HW125244   1.646   2.585   2.493 -0.4209 -1.0055  0.2870
 4536SOL    HW225245   1.620   2.719   2.551 -0.8177  0.6755  1.9576
 4537SOL     OW25246   4.686   2.737  17.185 -0.5304 -0.0250 -0.0958
 4537SOL    HW125247   4.613   2.748  17.245 -0.2451 -2.0148  0.6308
 4537SOL    HW225248   4.637   2.698  17.112 -2.0342  1.2881  0.2263
 4538SOL     OW25249   2.997   2.499  15.596 -0.0861 -0.1142  0.0129
 4538SOL    HW125250   2.942   2.565  15.555 -0.6430  0.0925  1.0759
 4538SOL    HW225251   3.077   2.551  15.603 -1.0174  1.5646 -1.9927
 4539SOL     OW25252   3.848   3.528  15.242 -0.3514  0.6452  0.4096
 4539SOL    HW125253   3.774   3.588  15.231 -2.3857 -1.6602  1.6300
 4539SOL    HW225254   3.810   3.457  15.190  2.0707 -0.9825  0.8417
 4540SOL     OW25255   3.734   1.608  11.583 -0.2574 -0.4591  0.0998
 4540SOL    HW125256   3.665   1.572  11.640  0.8422 -0.7463  1.2449
 4540SOL    HW225257   3.789   1.662  11.639  2.5456 -0.0923 -3.0432
 4541SOL     OW25258   1.230   4.507   6.346 -0.0243 -0.1871 -0.4740
 4541SOL    HW125259   1.141   4.526   6.377 -0.9350 -3.0138 -1.3299
 4541SOL    HW225260   1.226   4.414   6.368 -2.0666 -0.4127 -1.7709
 4542SOL     OW25261   1.553   0.398   6.643  0.3877  0.7698  0.3131
 4542SOL    HW125262   1.512   0.368   6.725 -0.9418  0.8621 -0.3223
 4542SOL    HW225263   1.467   0.403   6.601 -0.4999 -0.1654  2.0166
 4543SOL     OW25264   1.545   2.941  16.004 -0.6802  0.8947  0.3294
 4543SOL    HW125265   1.506   2.977  15.925  0.8682 -0.8405 -1.2283
 4543SOL    HW225266   1.582   3.021  16.041 -0.9389  1.5140 -0.7587
 4544SOL     OW25267   1.997   2.112   4.599 -0.1079 -0.5394  0.0125
 4544SOL    HW125268   2.021   2.056   4.673 -2.1290 -1.0088  0.2941
 4544SOL    HW225269   2.010   2.052   4.525 -1.7788  0.2428 -0.9102
 4545SOL     OW25270   2.405   4.060   4.606 -0.5879 -0.0272  0.4125
 4545SOL    HW125271   2.468   4.074   4.536 -0.1728 -0.4442  0.7056
 4545SOL    HW225272   2.357   4.143   4.613 -1.4512 -0.5506  0.7657
 4546SOL     OW25273   3.594   1.376   6.751  0.0107 -0.4943  0.6190
 4546SOL    HW125274   3.541   1.448   6.784  0.2068 -0.4248  0.7812
 4546SOL    HW225275   3.670   1.384   6.809 -0.0585  0.0785  0.6244
 4547SOL     OW25276   2.368   4.353   7.828 -0.2987 -0.1022 -0.0957
 4547SOL    HW125277   2.305   4.321   7.762  1.1348  0.1960 -1.6146
 4547SOL    HW225278   2.450   4.315   7.795 -1.5507 -4.2110  1.4936
 4548SOL     OW25279   1.527   2.007  15.078  0.4509 -0.0099  0.5027
 4548SOL    HW125280   1.606   2.026  15.028  0.2019 -1.8021 -0.5604
 4548SOL    HW225281   1.565   2.015  15.166  2.1596  2.8827 -0.4880
 4549SOL     OW25282   4.072   3.378   8.005  0.9166 -0.2294 -0.9310
 4549SOL    HW125283   4.101   3.360   7.916  0.2188 -2.4003 -0.7193
 4549SOL    HW225284   4.077   3.290   8.044 -1.4496  0.8824  1.8391
 4550SOL     OW25285   2.784   0.415   8.334 -0.1489 -0.2659  0.1139
 4550SOL    HW125286   2.775   0.422   8.429 -0.7114  1.6365 -0.0747
 4550SOL    HW225287   2.697   0.433   8.300  0.5320  0.3852 -1.2821
 4551SOL     OW25288   2.455   3.940   5.878 -0.0546 -0.7232  0.5856
 4551SOL    HW125289   2.396   3.948   5.803 -0.7248 -2.5035  0.9226
 4551SOL    HW225290   2.527   3.881   5.853  0.1612 -0.2867  0.1911
 4552SOL     OW25291   2.856   2.605   2.344  0.7462  0.5059 -0.2142
 4552SOL    HW125292   2.884   2.632   2.431  1.3656 -0.6108 -0.0641
 4552SOL    HW225293   2.798   2.533   2.370  0.3421  0.7967 -0.3235
 4553SOL     OW25294   1.326   1.186   2.606  0.6225  0.1388  0.2919
 4553SOL    HW125295   1.311   1.195   2.512  2.2292 -0.0803  0.0118
 4553SOL    HW225296   1.346   1.277   2.626 -0.3584 -0.1506  2.5693
 4554SOL     OW25297   2.425   1.968   4.654 -0.2173  0.5064  0.2797
 4554SOL    HW125298   2.450   2.029   4.723 -2.1882  0.0600  1.3622
 4554SOL    HW225299   2.478   2.007   4.584  2.7704 -1.9709  1.1716
 4555SOL     OW25300   1.688   1.095   2.121 -0.4862  0.5779 -0.6562
 4555SOL    HW125301   1.771   1.109   2.168 -0.5811 -0.2963 -0.2329
 4555SOL    HW225302   1.643   1.170   2.159  0.3617  1.7284 -1.9162
 4556SOL     OW25303   3.137   3.964  10.963 -0.3471  0.2754  0.1057
 4556SOL    HW125304   3.187   3.898  11.011 -2.2841  1.0065  3.1342
 4556SOL    HW225305   3.128   3.933  10.872 -0.1262  0.3226  0.0667
 4557SOL     OW25306   3.555   3.234  13.178 -0.5223 -0.2749 -0.4274
 4557SOL    HW125307   3.555   3.173  13.253  1.8018  1.8996  1.3348
 4557SOL    HW225308   3.645   3.226  13.148 -1.5091 -1.8236 -2.9148
 4558SOL     OW25309   0.184   3.510   4.978 -0.1449 -0.1890 -0.1270
 4558SOL    HW125310   0.141   3.520   5.063  0.4294  3.3686 -0.2746
 4558SOL    HW225311   0.244   3.437   4.994 -1.2704 -1.0507  0.1857
 4559SOL     OW25312   2.940   0.633   2.621  0.2580 -0.1737  0.1270
 4559SOL    HW125313   3.004   0.576   2.578 -0.7631 -2.1919  1.3131
 4559SOL    HW225314   2.867   0.617   2.562  0.5231  0.2718 -0.3292
 4560SOL     OW25315   1.276   3.286   6.539  0.0973 -0.2958  0.0912
 4560SOL    HW125316   1.233   3.210   6.501 -0.1574 -0.0464 -0.1097
 4560SOL    HW225317   1.319   3.244   6.615  1.5734  0.6411 -0.2239
 4561SOL     OW25318   0.559   0.365   5.226  0.0584  0.2467 -0.1795
 4561SOL    HW125319   0.628   0.431   5.223  0.7260 -0.4798 -0.6968
 4561SOL    HW225320   0.490   0.411   5.178 -1.9069 -0.9002  1.5417
 4562SOL     OW25321   4.678   4.600   5.728  0.2518 -0.2324  0.0619
 4562SOL    HW125322   4.694   4.647   5.810  1.3061 -2.6381  1.2252
 4562SOL    HW225323   0.027   4.564   5.721  0.3012 -0.4593  1.7675
 4563SOL     OW25324   0.332   1.656   8.400 -0.2123 -0.2663  0.0492
 4563SOL    HW125325   0.339   1.733   8.456 -0.8178 -0.1072 -0.0907
 4563SOL    HW225326   0.299   1.593   8.465 -1.0990 -1.8730 -1.9446
 4564SOL     OW25327   0.890   2.972   7.955 -0.0045  0.2491 -0.9682
 4564SOL    HW125328   0.862   3.010   8.039  1.0952 -0.9278 -0.0646
 4564SOL    HW225329   0.814   2.921   7.929 -0.5263  1.4665 -1.8420
 4565SOL     OW25330   2.358   3.695   8.191 -0.2145 -0.3468 -0.2303
 4565SOL    HW125331   2.379   3.689   8.285 -0.0738  1.5330 -0.1328
 4565SOL    HW225332   2.339   3.789   8.183  0.4038 -0.1679  0.3878
 4566SOL     OW25333   2.590   4.295   3.838 -0.8217  0.8389  0.0007
 4566SOL    HW125334   2.608   4.245   3.759  0.7501  0.3608  0.6653
 4566SOL    HW225335   2.587   4.227   3.906 -2.7921  0.8383 -0.0686
 4567SOL     OW25336   1.777   4.709   8.271  0.0061 -0.5794  0.5165
 4567SOL    HW125337   1.871   4.725   8.262 -0.2482  1.1361  0.8774
 4567SOL    HW225338   1.762   4.615   8.257 -0.2359 -0.4329 -0.1965
 4568SOL     OW25339   1.094   4.499   9.386  0.3734 -0.4524  0.0750
 4568SOL    HW125340   1.053   4.474   9.303  1.6934  0.3923 -0.8537
 4568SOL    HW225341   1.077   4.593   9.395  0.2665 -0.2799 -1.8629
 4569SOL     OW25342   2.320   4.398   6.686 -0.1113  0.4229  0.6920
 4569SOL    HW125343   2.238   4.444   6.700  0.1947  0.9520  0.7485
 4569SOL    HW225344   2.367   4.450   6.620  1.6546  2.3743  3.5288
 4570SOL     OW25345   3.698   3.723   4.669  0.0121 -0.5549 -0.1129
 4570SOL    HW125346   3.621   3.670   4.650 -1.2845  2.3033 -2.6826
 4570SOL    HW225347   3.767   3.661   4.644 -0.4263 -0.7979 -0.7164
 4571SOL     OW25348   0.498   0.517  13.221 -0.4335 -0.2238 -0.7870
 4571SOL    HW125349   0.463   0.476  13.142  0.7986 -1.5697 -0.6389
 4571SOL    HW225350   0.575   0.553  13.177  0.3691 -1.2274 -0.2110
 4572SOL     OW25351   1.902   0.992   0.943  0.0288 -0.2429  0.1575
 4572SOL    HW125352   1.868   0.939   0.871 -0.9978 -0.6480  0.9343
 4572SOL    HW225353   1.977   0.939   0.968  0.2230  0.0544  0.2023
 4573SOL     OW25354   3.428   3.434   1.936  1.0897 -0.3717  0.2906
 4573SOL    HW125355   3.510   3.448   1.983  1.2934  0.7024 -0.3688
 4573SOL    HW225356   3.373   3.501   1.977 -2.1723 -2.5832 -0.4842
 4574SOL     OW25357   3.217   2.705   9.513 -0.2805  0.1502 -0.3456
 4574SOL    HW125358   3.140   2.748   9.551  2.0383  1.6496  2.6669
 4574SOL    HW225359   3.196   2.616   9.539  1.1316  0.0494  0.4568
 4575SOL     OW25360   2.802   2.269  16.447  0.5692 -0.4304  0.2097
 4575SOL    HW125361   2.847   2.308  16.373  2.2844 -0.8300  1.0264
 4575SOL    HW225362   2.877   2.282  16.506 -0.5247 -0.0813  1.5134
 4576SOL     OW25363   0.980   1.108   6.302 -0.0013  0.1995  0.2131
 4576SOL    HW125364   0.903   1.164   6.297  0.0305  0.1393 -0.8220
 4576SOL    HW225365   0.982   1.060   6.219  2.4716  0.4298  0.1336
 4577SOL     OW25366   0.388   1.097   1.465 -0.4827  0.9174  0.0502
 4577SOL    HW125367   0.322   1.038   1.430 -0.3720  0.8367 -0.0219
 4577SOL    HW225368   0.468   1.060   1.428  1.1594  1.5802  2.8915
 4578SOL     OW25369   1.100   3.478  13.163 -0.6928 -0.4121 -0.4033
 4578SOL    HW125370   1.168   3.443  13.107 -1.1977 -2.4456  0.2687
 4578SOL    HW225371   1.114   3.573  13.172  1.5978 -0.6836 -1.2754
 4579SOL     OW25372   0.468   4.226   3.360 -0.4669  0.6357 -0.6749
 4579SOL    HW125373   0.413   4.304   3.360 -3.0212 -1.1480  1.5614
 4579SOL    HW225374   0.473   4.219   3.265  0.7928  0.1362 -0.5742
 4580SOL     OW25375   0.839   0.477   9.992 -0.0391 -0.5732  0.3149
 4580SOL    HW125376   0.840   0.406  10.056  0.3432 -0.8416  0.0111
 4580SOL    HW225377   0.899   0.546  10.021 -0.0873 -0.5941  0.4615
 4581SOL     OW25378   3.195   1.350   8.057  0.1816  0.0612 -0.4015
 4581SOL    HW125379   3.162   1.261   8.042  0.4664  0.2298 -2.0041
 4581SOL    HW225380   3.277   1.353   8.008  0.6392  2.3183  0.5125
 4582SOL     OW25381   0.268   3.371  16.633 -0.5578  0.1273 -0.0140
 4582SOL    HW125382   0.205   3.353  16.563  3.0844 -2.1382 -2.6935
 4582SOL    HW225383   0.331   3.304  16.609  1.1175  1.1322  1.5284
 4583SOL     OW25384   3.373   4.563   4.135 -0.3127 -0.3055  0.3453
 4583SOL    HW125385   3.341   4.544   4.223  0.8427  1.0146  1.0580
 4583SOL    HW225386   3.322   4.641   4.114  0.1477 -0.1732 -0.2816
 4584SOL     OW25387   2.737   0.549   8.810 -0.0436  0.0749 -0.1513
 4584SOL    HW125388   2.756   0.497   8.887 -2.2452 -0.2573  0.1663
 4584SOL    HW225389   2.651   0.576   8.842 -0.4388  0.9509 -1.9573
 4585SOL     OW25390   2.539   0.050   4.999 -0.3773  0.3601  0.2541
 4585SOL    HW125391   2.609   4.724   4.997  0.3666  1.1326  1.5714
 4585SOL    HW225392   2.532   0.064   4.904  2.7360 -1.8473 -0.3073
 4586SOL     OW25393   2.715   3.187   7.813 -0.0942  0.4311  0.1674
 4586SOL    HW125394   2.660   3.143   7.749  0.5051  1.8237 -1.3120
 4586SOL    HW225395   2.662   3.263   7.835 -2.4941 -1.1903 -0.1207
 4587SOL     OW25396   2.170   3.201   7.757 -0.1011  0.3526  0.2548
 4587SOL    HW125397   2.264   3.212   7.746 -0.7271  3.3433 -2.0910
 4587SOL    HW225398   2.167   3.203   7.853  2.7529 -2.0034  0.3879
 4588SOL     OW25399   2.599   0.545   6.909  0.0852 -0.2081 -0.4339
 4588SOL    HW125400   2.599   0.624   6.964 -0.5317 -1.2584  1.0583
 4588SOL    HW225401   2.689   0.511   6.912  1.0734  2.1773 -2.4903
 4589SOL     OW25402   1.555   0.400   7.909  0.4212  0.0484 -0.0122
 4589SOL    HW125403   1.567   0.491   7.879  2.4482 -0.1050  0.3025
 4589SOL    HW225404   1.601   0.402   7.994  0.9921  0.6583 -0.3325
 4590SOL     OW25405   0.824   3.045   2.785 -1.4546 -0.0568  0.5456
 4590SOL    HW125406   0.743   3.011   2.821 -1.1747  0.1969  1.4195
 4590SOL    HW225407   0.788   3.114   2.729  0.1638  1.2565  1.1001
 4591SOL     OW25408   2.547   4.640   6.971  0.7331  0.1842  0.0076
 4591SOL    HW125409   2.481   4.702   6.939 -0.5611 -0.0233  2.2624
 4591SOL    HW225410   2.498   4.569   7.011  0.1570 -0.0236 -1.0786
 4592SOL     OW25411   4.546   0.595   8.811 -0.0826 -0.0921  0.0093
 4592SOL    HW125412   4.460   0.561   8.836 -0.2477  0.1530 -0.2284
 4592SOL    HW225413   4.539   0.594   8.715  0.0331 -0.2683  0.0014
 4593SOL     OW25414   3.236   4.179  10.774  0.3744  0.1606  0.2546
 4593SOL    HW125415   3.198   4.149  10.856 -0.1169  1.5584  0.5407
 4593SOL    HW225416   3.314   4.126  10.757 -0.3624 -1.2231  1.1809
 4594SOL     OW25417   2.606   2.342   2.054 -0.0119 -0.1060  0.1779
 4594SOL    HW125418   2.698   2.314   2.053  0.4313  1.3117  1.5063
 4594SOL    HW225419   2.603   2.387   1.970  1.9099  0.5293  0.4607
 4595SOL     OW25420   4.601   4.643   8.330 -0.5909  0.0220  0.5553
 4595SOL    HW125421   4.647   4.646   8.246  1.4773  1.2813  1.7383
 4595SOL    HW225422   4.653   4.572   8.368  0.5305  0.4927 -0.1183
 4596SOL     OW25423   1.493   1.072   6.749 -0.3588 -0.2465  0.2805
 4596SOL    HW125424   1.474   0.984   6.716 -1.1999  0.1274 -0.2292
 4596SOL    HW225425   1.588   1.082   6.746 -0.2235 -1.8279 -0.6787
 4597SOL     OW25426   4.432   0.669   2.299  0.0268  0.2034  0.2036
 4597SOL    HW125427   4.349   0.670   2.348 -0.9275  2.0242 -1.4502
 4597SOL    HW225428   4.404   0.677   2.208  1.8210 -0.6448 -0.4333
 4598SOL     OW25429   0.225   3.858   4.957  0.0803  0.1230 -0.2778
 4598SOL    HW125430   0.147   3.835   5.008  1.4266 -1.7990  0.9442
 4598SOL    HW225431   0.193   3.940   4.921 -0.3126 -0.2129 -0.7000
 4599SOL     OW25432   3.922   3.827   0.037  0.4939  0.1143  0.1731
 4599SOL    HW125433   4.006   3.826   0.083  0.4697 -2.3784  0.1491
 4599SOL    HW225434   3.935   3.907  17.740 -0.4066 -0.6485 -1.2154
 4600SOL     OW25435   3.374   2.905   4.554  0.7485 -0.1778  0.1834
 4600SOL    HW125436   3.385   2.814   4.582 -1.0667 -1.0600 -1.9762
 4600SOL    HW225437   3.426   2.904   4.474 -0.6734 -0.9872 -0.7167
 4601SOL     OW25438   2.417   1.157  12.209  0.3373  0.4626 -0.2930
 4601SOL    HW125439   2.493   1.209  12.235  1.3071 -2.4134  2.6290
 4601SOL    HW225440   2.453   1.071  12.231  0.7477  0.6536 -0.1980
 4602SOL     OW25441   1.925   3.005   8.034  0.1983 -0.2128 -0.0970
 4602SOL    HW125442   1.868   3.008   7.957 -0.5286 -1.7440  0.3875
 4602SOL    HW225443   1.968   2.923   8.008  0.9332  0.0425  0.2973
 4603SOL     OW25444   1.659   0.182   5.206  0.0893  0.0297 -0.1174
 4603SOL    HW125445   1.734   0.122   5.210  0.4589  0.5238  0.3608
 4603SOL    HW225446   1.701   0.255   5.161  0.3259  0.6917  1.1533
 4604SOL     OW25447   3.775   0.379   7.805  0.2193  0.1914  0.1868
 4604SOL    HW125448   3.816   0.346   7.885  0.9960 -0.2026 -0.3822
 4604SOL    HW225449   3.822   0.463   7.794 -0.2902  0.3340 -0.8703
 4605SOL     OW25450   1.651   1.745   8.009 -0.1111 -0.2504  0.1880
 4605SOL    HW125451   1.725   1.778   7.957 -0.6337  1.7271  0.7062
 4605SOL    HW225452   1.688   1.726   8.095  0.8878  0.4914 -0.0816
 4606SOL     OW25453   1.958   2.518   3.428  0.4029 -0.5033  0.1851
 4606SOL    HW125454   1.883   2.481   3.381 -0.1379 -0.2412  0.8267
 4606SOL    HW225455   1.989   2.584   3.366 -0.2724 -1.2000 -0.8943
 4607SOL     OW25456   4.145   0.039   5.761 -0.4420 -0.1974 -0.2918
 4607SOL    HW125457   4.224   4.726   5.773 -1.1599 -1.0153  0.9217
 4607SOL    HW225458   4.150   0.074   5.673  0.1542 -0.6723 -0.4405
 4608SOL     OW25459   2.299   0.180   3.388 -0.2331 -0.5744  0.5730
 4608SOL    HW125460   2.212   0.193   3.424 -0.3372 -2.8751  1.1995
 4608SOL    HW225461   2.341   0.139   3.464  0.4801 -1.2374 -0.1664
 4609SOL     OW25462   3.485   3.377  16.191 -0.5496  0.2061  0.2164
 4609SOL    HW125463   3.495   3.296  16.142 -1.0619  0.8156 -0.8887
 4609SOL    HW225464   3.431   3.428  16.130 -0.0966  2.4502  1.7077
 4610SOL     OW25465   1.708   4.597  14.942  0.2576 -0.4560 -0.5032
 4610SOL    HW125466   1.742   4.509  14.958 -0.9308 -0.6371  1.0206
 4610SOL    HW225467   1.649   4.578  14.870  0.4237 -0.7343 -0.5673
 4611SOL     OW25468   1.108   0.234  15.215 -0.2221 -0.0740  0.1771
 4611SOL    HW125469   1.042   0.295  15.247  1.0751  1.4734 -0.0865
 4611SOL    HW225470   1.105   0.235  15.120 -0.4841 -1.6039  0.1775
 4612SOL     OW25471   1.238   2.294   0.581 -0.1427  0.0059  0.3168
 4612SOL    HW125472   1.263   2.260   0.495 -0.0544  2.4580 -0.6142
 4612SOL    HW225473   1.301   2.366   0.589 -0.8464  0.5035  1.5111
 4613SOL     OW25474   1.642   2.973   2.617 -0.3467  0.2882 -0.0435
 4613SOL    HW125475   1.586   3.018   2.681 -0.6699  1.8231 -1.3900
 4613SOL    HW225476   1.678   3.043   2.562  1.3072 -0.2562  0.3721
 4614SOL     OW25477   1.060   4.272   7.252 -0.5226  0.2754  0.1394
 4614SOL    HW125478   1.082   4.278   7.159  0.4492  1.2931  0.4334
 4614SOL    HW225479   1.101   4.189   7.277 -1.3770 -0.7062 -1.7399
 4615SOL     OW25480   1.594   4.297   0.343  0.3570 -0.3835  0.3851
 4615SOL    HW125481   1.688   4.294   0.323 -0.1558  0.0928 -2.0857
 4615SOL    HW225482   1.582   4.391   0.333  0.0662 -0.4540  0.1065
 4616SOL     OW25483   0.334   2.004   4.005  0.2901 -0.0750  0.7455
 4616SOL    HW125484   0.401   1.947   4.044  0.8460  0.6297  0.8208
 4616SOL    HW225485   0.257   1.965   4.047 -1.4514 -0.1234 -2.5771
 4617SOL     OW25486   3.733   1.672  14.743 -0.2097 -0.1274 -0.0869
 4617SOL    HW125487   3.735   1.599  14.681  0.7585  0.1709 -0.4082
 4617SOL    HW225488   3.640   1.688  14.754 -0.6076 -0.6950 -2.6021
 4618SOL     OW25489   0.010   4.092  17.440  0.3747  0.2457  0.5528
 4618SOL    HW125490   0.100   4.073  17.465 -0.2684 -3.1251  0.2887
 4618SOL    HW225491   0.035   4.155  17.373 -1.0552  0.4862  0.2460
 4619SOL     OW25492   3.663   2.941   6.520 -0.2567  0.1490  0.1111
 4619SOL    HW125493   3.615   2.861   6.497 -0.4393  0.5341 -0.8300
 4619SOL    HW225494   3.685   2.921   6.612 -0.8903  2.8528  0.8340
 4620SOL     OW25495   1.779   2.730  11.972 -0.5941 -0.4656  0.6217
 4620SOL    HW125496   1.750   2.730  11.881 -0.5180 -0.8716  0.5969
 4620SOL    HW225497   1.801   2.822  11.990  0.5889 -0.5580 -0.3370
 4621SOL     OW25498   0.363   1.502   3.305 -0.4362  0.3647 -0.2842
 4621SOL    HW125499   0.272   1.476   3.289 -0.5285  0.6208 -0.1661
 4621SOL    HW225500   0.364   1.569   3.237  2.1515 -0.7486 -1.3219
 4622SOL     OW25501   4.016   4.550  11.004  0.8509  0.4296  0.0558
 4622SOL    HW125502   4.028   4.616  10.935  0.4659 -1.2364 -1.6189
 4622SOL    HW225503   3.976   4.483  10.949  0.2986  0.4010  0.4953
 4623SOL     OW25504   3.840   3.345   1.772  0.2663  0.3366  1.1588
 4623SOL    HW125505   3.877   3.357   1.685 -0.2914 -0.9288  0.7463
 4623SOL    HW225506   3.843   3.432   1.811 -0.9036 -0.2510  2.5902
 4624SOL     OW25507   2.757   2.617   6.984 -0.3559  0.8106  0.1613
 4624SOL    HW125508   2.671   2.630   7.022 -0.0767  1.7207  0.4719
 4624SOL    HW225509   2.799   2.693   7.023 -1.2620  2.2293 -1.6247
 4625SOL     OW25510   0.456   1.240  13.505  0.6459 -0.0969 -0.5349
 4625SOL    HW125511   0.511   1.318  13.509  0.0900  0.3711 -1.8604
 4625SOL    HW225512   0.515   1.187  13.451  0.3976  0.7723 -1.6707
 4626SOL     OW25513   0.937   0.660   7.769  0.2641  0.5033 -0.0014
 4626SOL    HW125514   1.021   0.637   7.810 -1.0309 -2.3044  1.0693
 4626SOL    HW225515   0.967   0.730   7.711  0.5780  1.0076  0.7607
 4627SOL     OW25516   0.578   1.307   9.075  0.5833  0.4420 -0.0525
 4627SOL    HW125517   0.598   1.400   9.065  0.1236  0.3442 -1.8849
 4627SOL    HW225518   0.604   1.275   8.989 -1.0520  3.8002 -1.8158
 4628SOL     OW25519   2.341   0.857  16.891 -0.0539 -0.3306  0.2171
 4628SOL    HW125520   2.379   0.770  16.887  0.4611 -0.1303  0.7937
 4628SOL    HW225521   2.327   0.867  16.796 -0.4609 -1.4862  0.1590
 4629SOL     OW25522   4.542   1.981  15.459 -0.1877  0.2366 -0.0846
 4629SOL    HW125523   4.449   1.957  15.459  0.2601 -1.4697  0.8985
 4629SOL    HW225524   4.534   2.077  15.459 -0.5066  0.2057  0.5318
 4630SOL     OW25525   0.383   3.317  17.107  0.3399  0.1481 -0.0432
 4630SOL    HW125526   0.340   3.265  17.039 -0.2251  0.9831 -0.3273
 4630SOL    HW225527   0.310   3.336  17.167 -0.4981  2.5394 -1.8283
 4631SOL     OW25528   2.037   1.958   6.755 -0.6797  0.3357  0.0873
 4631SOL    HW125529   2.095   1.883   6.747  0.7766  1.5831 -1.2625
 4631SOL    HW225530   1.971   1.948   6.686 -0.6655 -1.2779  0.3079
 4632SOL     OW25531   1.130   3.616   6.802 -0.3037  0.1483 -0.0989
 4632SOL    HW125532   1.190   3.609   6.728 -1.0399  1.1709 -0.7960
 4632SOL    HW225533   1.189   3.598   6.876 -1.8218 -1.3737  0.7386
 4633SOL     OW25534   3.792   3.978   7.506 -0.2458  0.0938  0.4299
 4633SOL    HW125535   3.706   3.955   7.540 -0.4473 -0.8865 -0.7188
 4633SOL    HW225536   3.777   4.069   7.481  1.2335  0.4104  0.6915
 4634SOL     OW25537   3.081   1.891   4.441 -0.6119  0.3528  0.4455
 4634SOL    HW125538   3.025   1.960   4.405 -0.2784  0.4059  0.0290
 4634SOL    HW225539   3.036   1.814   4.407 -0.0829 -0.3877  1.4500
 4635SOL     OW25540   1.333   4.569   9.478  0.0868  0.1548  0.1060
 4635SOL    HW125541   1.244   4.537   9.462  0.0262 -0.1132  0.9981
 4635SOL    HW225542   1.375   4.498   9.429  0.0345  0.6323 -0.6302
 4636SOL     OW25543   0.770   3.989  13.345  0.3700  0.1647  0.1239
 4636SOL    HW125544   0.813   4.067  13.311  1.9371 -1.0373 -0.6898
 4636SOL    HW225545   0.824   3.919  13.307 -0.9009  0.9067 -3.0686
 4637SOL     OW25546   1.785   2.761   4.739  0.5321 -0.0722 -0.5581
 4637SOL    HW125547   1.722   2.699   4.703 -0.1586  1.4300 -1.9153
 4637SOL    HW225548   1.773   2.752   4.834 -2.5393 -1.6476 -1.0616
 4638SOL     OW25549   2.188   2.605   6.472 -0.1564 -0.0214  0.3750
 4638SOL    HW125550   2.219   2.692   6.497  0.2547  0.0939 -0.5141
 4638SOL    HW225551   2.246   2.573   6.402  1.2403  2.3939  0.4251
 4639SOL     OW25552   2.809   1.102  16.350  0.2200  0.1420 -0.0715
 4639SOL    HW125553   2.772   1.191  16.346 -1.1820 -0.4438 -0.1453
 4639SOL    HW225554   2.894   1.125  16.311 -0.4891  0.0447 -1.7113
 4640SOL     OW25555   4.497   2.817  14.247 -0.2236  0.2216 -0.1997
 4640SOL    HW125556   4.544   2.733  14.248  0.0854  0.3994  1.0577
 4640SOL    HW225557   4.551   2.869  14.188  0.1564  2.5933  2.2330
 4641SOL     OW25558   2.122   2.203  15.895 -0.4214 -0.1828 -0.1107
 4641SOL    HW125559   2.085   2.253  15.968  1.0228 -0.8399  1.0584
 4641SOL    HW225560   2.175   2.138  15.940  0.4991  0.6013 -0.0443
 4642SOL     OW25561   3.786   0.278  14.287 -0.2998 -0.2034 -0.0678
 4642SOL    HW125562   3.736   0.360  14.282 -0.3244 -0.1443  1.1013
 4642SOL    HW225563   3.877   0.307  14.283 -0.8894  1.3546 -2.0136
 4643SOL     OW25564   4.702   2.908   8.756  0.4018  0.1913 -0.1588
 4643SOL    HW125565   4.737   2.954   8.832  0.0664 -2.3125  1.5404
 4643SOL    HW225566   4.608   2.926   8.747 -0.1223 -1.9387  1.0404
 4644SOL     OW25567   3.448   4.735  14.620  0.0892  0.0429  0.1714
 4644SOL    HW125568   3.377   0.055  14.596  0.6826  0.0292 -1.6152
 4644SOL    HW225569   3.529   0.038  14.592 -1.2816  2.0376 -0.8132
 4645SOL     OW25570   4.253   2.736   4.193 -0.1274  0.5458  0.5200
 4645SOL    HW125571   4.302   2.660   4.162 -1.3341 -0.3716  0.8815
 4645SOL    HW225572   4.199   2.697   4.261  0.5533  0.1077  0.8112
 4646SOL     OW25573   1.968   4.361   7.239 -0.3580 -0.7453  0.7604
 4646SOL    HW125574   1.915   4.408   7.175  1.2184  1.1298  0.8586
 4646SOL    HW225575   1.983   4.422   7.311  0.9102  0.2443 -0.3519
 4647SOL     OW25576   2.075   0.427   0.830 -0.2688  0.4276  0.2293
 4647SOL    HW125577   2.059   0.358   0.765  2.3446  1.3291 -1.3701
 4647SOL    HW225578   2.167   0.418   0.854 -0.3375  0.2959  0.4519
 4648SOL     OW25579   2.634   2.456  16.529  0.0247  0.5172 -0.5489
 4648SOL    HW125580   2.646   2.455  16.624  2.2842 -0.7072 -0.8448
 4648SOL    HW225581   2.682   2.374  16.511 -1.0924 -0.6431  1.7507
 4649SOL     OW25582   4.096   2.503   2.618 -0.0613  0.2486  0.3951
 4649SOL    HW125583   4.066   2.422   2.661 -2.0855  1.6252  1.5497
 4649SOL    HW225584   4.032   2.512   2.547  0.5239  1.2430 -0.0050
 4650SOL     OW25585   2.018   2.604   8.765  0.0777 -0.2598  1.1290
 4650SOL    HW125586   2.001   2.649   8.682 -0.0887 -1.6605  0.4055
 4650SOL    HW225587   2.055   2.680   8.810 -2.4190  1.1402  0.8564
 4651SOL     OW25588   1.330   1.357   3.938  0.0199  0.0424 -0.0675
 4651SOL    HW125589   1.362   1.303   4.011 -0.4563 -0.5144 -0.2760
 4651SOL    HW225590   1.417   1.386   3.911  0.0487 -1.4790 -1.6076
 4652SOL     OW25591   0.602   3.659   4.713  0.0752  0.4916  0.1631
 4652SOL    HW125592   0.678   3.613   4.750 -0.2234  0.2924  0.5156
 4652SOL    HW225593   0.596   3.633   4.620 -1.5279 -1.6354  0.8620
 4653SOL     OW25594   3.590   3.566  17.633  0.2763 -0.0771 -0.5594
 4653SOL    HW125595   3.514   3.510  17.623 -0.6464  0.9293  0.7278
 4653SOL    HW225596   3.631   3.555  17.547  1.9063 -0.4340  0.2813
 4654SOL     OW25597   3.232   4.590   1.675  0.0628  0.1554 -0.0746
 4654SOL    HW125598   3.274   4.532   1.612  0.8346  1.3776 -0.7002
 4654SOL    HW225599   3.268   4.674   1.647  0.9976  0.2100  1.2661
 4655SOL     OW25600   4.110   3.440   5.333  0.5852  0.5163  0.2050
 4655SOL    HW125601   4.147   3.525   5.308  0.2201  0.7152  0.3393
 4655SOL    HW225602   4.092   3.450   5.427  0.7440  0.9372  0.1922
 4656SOL     OW25603   0.849   3.736   6.592 -0.2449 -0.2464  0.5287
 4656SOL    HW125604   0.867   3.763   6.502  1.5331  0.6049  1.1501
 4656SOL    HW225605   0.784   3.800   6.621  2.3114  1.5628  2.2523
 4657SOL     OW25606   2.600   1.728   5.777  0.3944 -0.3245 -0.5510
 4657SOL    HW125607   2.567   1.660   5.717  0.8010 -0.6970 -0.3502
 4657SOL    HW225608   2.540   1.802   5.771  0.1560 -0.5462 -0.9630
 4658SOL     OW25609   3.178   2.517   6.384 -0.7118  0.0474  0.0637
 4658SOL    HW125610   3.226   2.491   6.306 -2.2751 -0.1386 -0.8306
 4658SOL    HW225611   3.249   2.509   6.448  0.6950  0.4804 -1.4494
 4659SOL     OW25612   0.080   3.541   4.741 -0.5213  0.2439 -0.2095
 4659SOL    HW125613   0.108   3.532   4.832  1.4068  2.7255 -0.5323
 4659SOL    HW225614   0.091   3.451   4.712  0.6374  1.2094 -2.7871
 4660SOL     OW25615   0.660   4.027   9.162 -1.2800 -0.0616  0.1147
 4660SOL    HW125616   0.678   3.957   9.099  0.3166  1.1735 -0.8121
 4660SOL    HW225617   0.568   4.048   9.146 -1.1074  0.1085 -0.6549
 4661SOL     OW25618   0.150   4.499   5.481  0.5910 -0.3737  0.1989
 4661SOL    HW125619   0.188   4.415   5.455 -1.8299 -1.2084 -0.6809
 4661SOL    HW225620   0.056   4.482   5.478  0.0741  2.6517 -0.4384
 4662SOL     OW25621   2.085   2.177   5.230  0.2731  0.3770 -0.2811
 4662SOL    HW125622   2.103   2.091   5.269  0.7107 -0.1940 -1.7178
 4662SOL    HW225623   2.136   2.233   5.288  1.0455  2.0568 -2.5976
 4663SOL     OW25624   2.021   4.028   1.121  0.2810 -0.1497 -0.4262
 4663SOL    HW125625   2.074   4.077   1.184 -0.4939 -0.0150  0.1239
 4663SOL    HW225626   1.969   4.092   1.071  1.9330  0.7872 -0.9445
 4664SOL     OW25627   0.327   2.621   7.687 -0.2344 -0.2926 -0.1869
 4664SOL    HW125628   0.280   2.605   7.769  1.0182  0.7000  0.7098
 4664SOL    HW225629   0.269   2.684   7.643 -0.6898 -1.0823 -0.7185
 4665SOL     OW25630   3.390   2.703   4.183 -0.0973 -0.5224 -0.0546
 4665SOL    HW125631   3.331   2.637   4.146 -1.3080 -0.9339  2.5406
 4665SOL    HW225632   3.334   2.733   4.255 -2.1652 -2.1371 -0.9707
 4666SOL     OW25633   2.302   4.309   5.973  0.0467  0.3898  0.0459
 4666SOL    HW125634   2.364   4.242   6.001 -1.7192 -0.1900  2.5441
 4666SOL    HW225635   2.217   4.266   5.987  1.7815 -2.9888  0.2340
 4667SOL     OW25636   2.082   3.983   4.339 -0.5113 -0.1795  0.4407
 4667SOL    HW125637   2.076   3.946   4.251  0.1428 -0.4034  0.4939
 4667SOL    HW225638   1.990   4.007   4.348  0.0820  2.0586  0.4455
 4668SOL     OW25639   2.048   4.593   3.135 -0.8693  0.6183  0.1059
 4668SOL    HW125640   1.985   4.546   3.081 -0.6495 -0.2674  0.6027
 4668SOL    HW225641   2.101   4.515   3.154 -0.0226  1.0996 -0.2393
 4669SOL     OW25642   0.764   2.680   8.024  0.3904  0.4024 -0.7810
 4669SOL    HW125643   0.680   2.654   7.988 -0.0895 -0.1666  0.7655
 4669SOL    HW225644   0.818   2.666   7.945  0.3730  1.4379 -0.9805
 4670SOL     OW25645   4.332   4.145   6.238  0.5557  0.0713 -0.8009
 4670SOL    HW125646   4.393   4.097   6.293 -0.9728 -0.9999 -0.0252
 4670SOL    HW225647   4.325   4.111   6.149  0.1827 -0.8410 -0.4279
 4671SOL     OW25648   3.002   0.678  10.319  0.1638  0.3252 -0.2109
 4671SOL    HW125649   2.915   0.673  10.360  0.9275  0.5832  1.4549
 4671SOL    HW225650   2.989   0.727  10.238 -0.6494  3.7365  1.9489
 4672SOL     OW25651   1.477   2.028   0.169  0.4282 -0.3039  0.3757
 4672SOL    HW125652   1.481   1.961   0.101 -0.5385  1.6515 -1.6162
 4672SOL    HW225653   1.465   1.971   0.244  0.2618  0.5838  1.0319
 4673SOL     OW25654   3.568   0.833   3.379 -0.2686  0.2130  0.3505
 4673SOL    HW125655   3.498   0.894   3.401  0.6381  1.0788  0.7915
 4673SOL    HW225656   3.563   0.825   3.283 -1.5039 -0.2389  0.4480
 4674SOL     OW25657   3.863   0.810   7.320  0.6082  0.2638 -0.4711
 4674SOL    HW125658   3.901   0.730   7.356 -0.3492  0.1919  0.3971
 4674SOL    HW225659   3.941   0.853   7.284  0.6298 -0.2825 -1.0843
 4675SOL     OW25660   0.878   3.331   4.531  0.3839 -0.2642 -0.1475
 4675SOL    HW125661   0.856   3.249   4.487 -0.0479 -1.6948  2.7191
 4675SOL    HW225662   0.850   3.400   4.471  1.3861 -0.8218 -1.2698
 4676SOL     OW25663   2.203   1.202   5.070  0.2084  0.1806 -0.7433
 4676SOL    HW125664   2.187   1.194   4.976  3.0271  1.3428 -1.3151
 4676SOL    HW225665   2.210   1.113   5.104 -2.5655  0.0639 -0.4842
 4677SOL     OW25666   3.751   1.705   3.641 -0.3457  0.0133 -0.1195
 4677SOL    HW125667   3.830   1.703   3.586 -0.4132  1.1255 -0.2609
 4677SOL    HW225668   3.757   1.784   3.694  1.2918 -0.0599 -0.1992
 4678SOL     OW25669   4.240   3.379   3.756  0.5910 -0.1576 -0.3712
 4678SOL    HW125670   4.272   3.455   3.804 -0.2170  0.0316 -0.1221
 4678SOL    HW225671   4.153   3.369   3.795  0.3286 -0.1815 -0.9621
 4679SOL     OW25672   1.382   2.479  15.911  0.1141 -0.2720  0.4798
 4679SOL    HW125673   1.381   2.508  15.819  0.2364  1.2757  0.9582
 4679SOL    HW225674   1.455   2.532  15.944  0.5282  1.2763 -2.9243
 4680SOL     OW25675   1.251   3.785   7.739  0.0098 -0.6778 -0.3065
 4680SOL    HW125676   1.192   3.799   7.813  0.6288  2.6608 -0.4363
 4680SOL    HW225677   1.225   3.697   7.711  0.2068 -0.3256 -1.5831
 4681SOL     OW25678   4.012   4.149   1.447 -0.2424  0.2564 -0.3832
 4681SOL    HW125679   3.987   4.117   1.534  0.8526 -0.7847 -0.4473
 4681SOL    HW225680   4.042   4.237   1.469  1.5380 -0.0867 -1.4277
 4682SOL     OW25681   0.050   0.150  16.929  0.0708 -0.3649  0.2596
 4682SOL    HW125682   0.063   0.177  17.020  0.2230  0.1020  0.0994
 4682SOL    HW225683   0.084   0.061  16.940 -1.5975 -1.0230  0.0271
 4683SOL     OW25684   2.897   0.732   4.781 -0.5833  0.3102  0.1511
 4683SOL    HW125685   2.909   0.643   4.747  0.4577  0.8964 -1.0240
 4683SOL    HW225686   2.804   0.728   4.802 -0.8042  1.2515 -0.6563
 4684SOL     OW25687   0.651   1.852   6.916 -0.0934 -0.2128 -0.3206
 4684SOL    HW125688   0.677   1.935   6.876  1.4171 -0.9569 -0.8977
 4684SOL    HW225689   0.693   1.799   6.848 -0.1135 -0.3399 -0.2352
 4685SOL     OW25690   0.306   3.839   8.930 -0.1159  0.5714  0.0864
 4685SOL    HW125691   0.293   3.809   8.840  1.5380 -1.8569  0.6469
 4685SOL    HW225692   0.295   3.758   8.981  0.7622 -1.2250 -2.5958
 4686SOL     OW25693   2.833   0.941   0.207 -0.2423 -0.8547  0.2158
 4686SOL    HW125694   2.756   0.969   0.256 -0.7467 -0.5328 -0.7581
 4686SOL    HW225695   2.833   0.848   0.232  3.2239 -0.3149  2.2515
 4687SOL     OW25696   1.913   0.471  15.582 -0.2913  0.2015  0.2218
 4687SOL    HW125697   1.977   0.479  15.511 -0.0556  0.3734  0.4573
 4687SOL    HW225698   1.877   0.382  15.575  0.9620 -0.6430  4.8400
 4688SOL     OW25699   2.324   0.665   0.822  0.1513 -0.1311  0.1190
 4688SOL    HW125700   2.350   0.580   0.856 -0.6154 -0.8960 -1.2331
 4688SOL    HW225701   2.242   0.653   0.774  0.2924 -1.3329  0.1939
 4689SOL     OW25702   3.202   1.817   2.157 -0.4304 -0.1225  0.3205
 4689SOL    HW125703   3.228   1.774   2.075 -0.5359  0.9426 -0.2758
 4689SOL    HW225704   3.277   1.799   2.213  0.5457  1.1791 -0.5726
 4690SOL     OW25705   3.419   2.941   2.581  0.1099 -0.0983  0.2146
 4690SOL    HW125706   3.498   2.897   2.611 -0.5647  0.1517  2.3296
 4690SOL    HW225707   3.445   3.033   2.583  1.5097 -0.5325  1.6269
 4691SOL     OW25708   3.689   1.611  16.810  0.0278 -0.6360 -0.0197
 4691SOL    HW125709   3.676   1.706  16.810 -0.5238 -0.7051 -1.3879
 4691SOL    HW225710   3.650   1.600  16.723 -1.5262  1.8815  0.3546
 4692SOL     OW25711   4.338   0.512   7.675  0.3849 -0.0720  0.2185
 4692SOL    HW125712   4.421   0.517   7.723 -0.2171 -2.7275  1.5193
 4692SOL    HW225713   4.327   0.607   7.664  0.5738  0.3193  3.5175
 4693SOL     OW25714   2.013   2.471   8.440 -0.4841 -0.2944  0.8110
 4693SOL    HW125715   2.002   2.381   8.410 -0.1909 -1.1558  3.2279
 4693SOL    HW225716   1.925   2.476   8.478 -0.3889 -0.1854  1.0188
 4694SOL     OW25717   1.583   0.079   4.123  0.7211  0.1685 -0.1855
 4694SOL    HW125718   1.536   0.136   4.062  1.4810 -1.3800 -2.2356
 4694SOL    HW225719   1.536   0.084   4.206 -0.5694 -1.2308 -0.8234
 4695SOL     OW25720   3.421   2.635   2.004 -0.1071 -0.6498  0.1923
 4695SOL    HW125721   3.409   2.554   1.955  0.5788 -1.7463  1.8285
 4695SOL    HW225722   3.330   2.658   2.024  0.8426  2.9444  0.3112
 4696SOL     OW25723   3.885   2.969   7.017 -0.3297  0.3645 -0.0436
 4696SOL    HW125724   3.912   3.047   7.065  0.0430  1.7316 -2.4784
 4696SOL    HW225725   3.855   2.926   7.098  0.1114 -2.0809 -1.1805
 4697SOL     OW25726   2.528   2.718   8.945 -0.5153  0.3767 -0.4379
 4697SOL    HW125727   2.523   2.734   9.039 -0.6642  0.2205 -0.4199
 4697SOL    HW225728   2.522   2.622   8.940  1.8551  0.1704  0.8645
 4698SOL     OW25729   0.430   0.900   3.098 -0.4663  0.3238  0.1144
 4698SOL    HW125730   0.388   0.985   3.086  2.6086  1.5115 -1.9562
 4698SOL    HW225731   0.445   0.896   3.193  3.6604  0.3417 -0.5590
 4699SOL     OW25732   0.922   4.731   8.277  0.2270  0.5309  0.2517
 4699SOL    HW125733   0.977   0.022   8.349 -1.0970 -0.2089  1.5696
 4699SOL    HW225734   0.971   0.022   8.200 -0.0098 -1.1953 -0.5893
 4700SOL     OW25735   2.057   4.166   6.011  0.5559  0.6310  0.4900
 4700SOL    HW125736   2.015   4.173   5.925  2.5910 -0.6981 -0.6272
 4700SOL    HW225737   1.979   4.134   6.056  0.8817 -0.0640  0.5532
 4701SOL     OW25738   4.674   4.519   9.526 -0.4365 -0.0690 -0.0839
 4701SOL    HW125739   4.612   4.588   9.502 -1.5182 -0.4098  1.6824
 4701SOL    HW225740   4.721   4.551   9.603  1.6111 -0.6825 -1.0912
 4702SOL     OW25741   4.241   4.196   8.686 -0.1793 -0.0587 -0.2184
 4702SOL    HW125742   4.235   4.242   8.770  1.0138  0.9150 -0.6711
 4702SOL    HW225743   4.289   4.118   8.710 -0.0390  0.3009  0.6712
 4703SOL     OW25744   1.630   0.371  15.175  0.0792 -0.2007 -0.1202
 4703SOL    HW125745   1.718   0.380  15.139  0.2667 -1.2824  0.0877
 4703SOL    HW225746   1.632   0.291  15.226 -1.1499  0.1061  0.4161
 4704SOL     OW25747   1.270   1.565   7.878  0.6923 -0.5669 -0.1470
 4704SOL    HW125748   1.331   1.621   7.829 -0.6378 -0.5048 -1.7448
 4704SOL    HW225749   1.332   1.534   7.944  1.4443  0.1328 -0.5119
 4705SOL     OW25750   1.182   0.899   7.334 -0.9216 -0.5929  0.3165
 4705SOL    HW125751   1.236   0.978   7.338  1.0279 -1.8573 -0.6078
 4705SOL    HW225752   1.192   0.885   7.240 -1.7010  0.2812  0.1111
 4706SOL     OW25753   0.826   3.792  16.355 -0.2888 -0.8009  0.2561
 4706SOL    HW125754   0.802   3.721  16.296 -0.6556  1.1290 -1.9033
 4706SOL    HW225755   0.768   3.766  16.427  0.6109  0.8238  1.5753
 4707SOL     OW25756   0.636   3.160   8.593 -0.1883  0.0978  0.1641
 4707SOL    HW125757   0.684   3.233   8.553 -0.4826 -0.1947 -0.7398
 4707SOL    HW225758   0.559   3.146   8.538  0.9406 -1.5906 -1.0151
 4708SOL     OW25759   2.065   3.200   2.397  0.2378 -0.3219  0.1679
 4708SOL    HW125760   1.993   3.261   2.381 -1.0596 -1.3456  2.1783
 4708SOL    HW225761   2.146   3.249   2.382  0.1755  0.0844  1.1309
 4709SOL     OW25762   0.780   2.727   9.348 -0.0930  0.3571 -0.0212
 4709SOL    HW125763   0.703   2.743   9.293 -0.4042 -2.9562 -0.6038
 4709SOL    HW225764   0.735   2.664   9.405 -3.1094  1.0001 -1.6725
 4710SOL     OW25765   1.009   3.571   8.662 -1.0208 -0.4197  0.1431
 4710SOL    HW125766   1.059   3.571   8.580 -0.2055  0.5163  0.6305
 4710SOL    HW225767   1.058   3.638   8.711  0.2669  0.1128 -1.8461
 4711SOL     OW25768   0.305   4.302   6.217  0.8900  0.3401 -0.1681
 4711SOL    HW125769   0.238   4.286   6.151  0.9257 -0.1817 -0.0743
 4711SOL    HW225770   0.325   4.395   6.201 -1.0705  0.6174 -0.9679
 4712SOL     OW25771   1.110   2.593  17.342 -0.3245  0.0431 -0.5325
 4712SOL    HW125772   1.127   2.670  17.395  0.7719 -0.0634 -0.7305
 4712SOL    HW225773   1.164   2.616  17.266  0.0930  0.5422 -0.0819
 4713SOL     OW25774   0.489   0.340   0.923 -0.1650  0.1000 -0.3247
 4713SOL    HW125775   0.439   0.262   0.901 -0.5373 -0.7044  3.2985
 4713SOL    HW225776   0.578   0.306   0.915 -1.4827 -3.2778 -0.5424
 4714SOL     OW25777   4.091   1.806   8.482 -0.2248  0.2542 -0.3358
 4714SOL    HW125778   4.125   1.720   8.504 -0.2896  0.8056  1.9520
 4714SOL    HW225779   3.999   1.802   8.509 -0.3748  3.0404 -0.3876
 4715SOL     OW25780   1.456   3.179   4.484  0.4581 -0.5458  0.4014
 4715SOL    HW125781   1.375   3.214   4.521  1.2522  2.0194 -0.3143
 4715SOL    HW225782   1.519   3.200   4.553 -0.8479  0.3613  1.2980
 4716SOL     OW25783   3.365   1.259  15.688 -0.1400  0.3208  0.2862
 4716SOL    HW125784   3.338   1.288  15.776 -1.0103 -0.1150  0.1663
 4716SOL    HW225785   3.320   1.326  15.636 -2.2324 -1.2679  0.0282
 4717SOL     OW25786   1.651   1.183   6.280 -0.0185 -0.2998  0.4042
 4717SOL    HW125787   1.559   1.160   6.267 -0.4472  0.6315  1.8151
 4717SOL    HW225788   1.686   1.105   6.325  0.4556  0.5204  1.4633
 4718SOL     OW25789   0.283   3.406   1.323  0.3605  0.2271 -0.3020
 4718SOL    HW125790   0.358   3.439   1.272  2.4911 -2.5784  1.0248
 4718SOL    HW225791   0.314   3.423   1.411  0.0749 -0.6138 -0.0356
 4719SOL     OW25792   4.241   3.249   5.925 -0.1488  0.1960 -0.1288
 4719SOL    HW125793   4.260   3.168   5.970 -1.8457 -0.2981 -0.2933
 4719SOL    HW225794   4.270   3.222   5.838 -0.1537 -0.6739  0.1482
 4720SOL     OW25795   2.632   3.505   8.293  0.0445  0.4293 -0.5266
 4720SOL    HW125796   2.549   3.541   8.323  0.6865  0.4275  1.2494
 4720SOL    HW225797   2.604   3.451   8.219 -1.9174 -1.4912  1.6200
 4721SOL     OW25798   4.285   2.218  12.751  0.4692 -0.5305 -1.1555
 4721SOL    HW125799   4.341   2.168  12.691  2.0771 -0.5407  0.3614
 4721SOL    HW225800   4.330   2.179  12.826  0.5209  2.0219  0.1607
 4722SOL     OW25801   4.732   2.912   3.560 -0.1328 -0.5339  0.5169
 4722SOL    HW125802   4.711   2.838   3.502  0.5326 -0.3477  0.0374
 4722SOL    HW225803   4.644   2.937   3.588  0.0933  0.8529 -0.0236
 4723SOL     OW25804   0.766   0.263   6.774  0.4619 -0.1598 -0.2078
 4723SOL    HW125805   0.831   0.194   6.764 -1.1884 -1.6134 -0.9861
 4723SOL    HW225806   0.725   0.250   6.859  1.7977  1.0987  0.6203
 4724SOL     OW25807   2.014   3.597   4.833 -0.1663  0.3779  0.1352
 4724SOL    HW125808   1.987   3.678   4.788 -0.7848  0.8040  1.2797
 4724SOL    HW225809   2.074   3.626   4.902 -0.5668  1.5121  0.0037
 4725SOL     OW25810   3.503   2.156  16.714  0.0749 -0.1885 -0.0627
 4725SOL    HW125811   3.466   2.173  16.627  0.5665 -0.3632 -0.3028
 4725SOL    HW225812   3.597   2.161  16.698 -0.0858  0.4782 -0.7818
 4726SOL     OW25813   2.985   2.438   6.719  0.1034  0.5845  0.5103
 4726SOL    HW125814   2.968   2.394   6.802  3.3173 -0.6168  0.5294
 4726SOL    HW225815   2.898   2.469   6.693 -0.6320 -2.4902 -0.7016
 4727SOL     OW25816   3.548   0.309   5.199 -0.1877 -0.7892 -0.1899
 4727SOL    HW125817   3.493   0.233   5.179 -0.4997 -0.5334 -0.3185
 4727SOL    HW225818   3.634   0.278   5.170  0.3183 -0.7046  1.2190
 4728SOL     OW25819   2.108   4.222  12.931 -0.0279 -0.4107  0.2672
 4728SOL    HW125820   2.122   4.131  12.959 -0.4062 -0.1457  1.3312
 4728SOL    HW225821   2.158   4.231  12.850 -0.2082 -0.9255  0.0964
 4729SOL     OW25822   2.977   2.345   4.617  0.5866  0.1133  0.4782
 4729SOL    HW125823   2.970   2.272   4.678 -2.8398 -0.2590 -0.3304
 4729SOL    HW225824   3.070   2.362   4.628  0.7038  0.9542 -1.7423
 4730SOL     OW25825   4.095   3.945   8.395 -1.1241  0.4604  0.0504
 4730SOL    HW125826   4.077   3.926   8.303 -1.6589  2.0264 -0.1635
 4730SOL    HW225827   4.168   4.004   8.375 -1.5428  1.7076  2.2759
 4731SOL     OW25828   2.584   3.052  15.694  0.3698  0.1487 -0.7112
 4731SOL    HW125829   2.497   3.016  15.681 -0.1170  0.6310  1.1693
 4731SOL    HW225830   2.639   2.986  15.652  0.8519 -0.4746  0.8854
 4732SOL     OW25831   3.877   4.178  17.348  0.7362 -0.1158 -0.3950
 4732SOL    HW125832   3.917   4.188  17.262  0.8223  4.1463  0.1567
 4732SOL    HW225833   3.789   4.213  17.329  0.7775 -0.2991 -0.9220
 4733SOL     OW25834   2.510   2.875   3.640 -0.3245  0.4234 -0.2198
 4733SOL    HW125835   2.578   2.883   3.707 -0.0521 -3.6238 -0.0223
 4733SOL    HW225836   2.504   2.780   3.632 -0.8869  0.5587 -1.3032
 4734SOL     OW25837   4.614   0.988   2.255 -0.0318 -0.3160  0.0313
 4734SOL    HW125838   4.551   0.943   2.311 -0.3568 -0.5032 -0.4779
 4734SOL    HW225839   4.642   1.064   2.306  0.4294 -0.6705  0.3007
 4735SOL     OW25840   0.502   0.304  14.790 -0.1106  0.5838 -0.1471
 4735SOL    HW125841   0.494   0.381  14.733 -0.9654  0.7692  0.2236
 4735SOL    HW225842   0.429   0.249  14.761  0.5239  1.2738 -3.0560
 4736SOL     OW25843   2.853   3.506   6.609  0.6008 -0.3741  0.3765
 4736SOL    HW125844   2.944   3.525   6.630  0.6730 -1.0139  0.6636
 4736SOL    HW225845   2.832   3.575   6.545  2.1278 -2.1944 -2.0985
 4737SOL     OW25846   0.378   2.124   5.766  0.1329  0.4351  0.2160
 4737SOL    HW125847   0.385   2.209   5.723  1.4747 -0.5127 -1.4260
 4737SOL    HW225848   0.331   2.074   5.700 -2.2210  1.2475  1.2616
 4738SOL     OW25849   0.931   2.681  16.130  0.2491 -0.6419 -0.1224
 4738SOL    HW125850   1.001   2.664  16.066  0.1982 -0.3858 -0.2479
 4738SOL    HW225851   0.860   2.635  16.085  1.0748 -3.6045  1.6203
 4739SOL     OW25852   0.489   1.357   4.645  0.3335  0.0811  0.3097
 4739SOL    HW125853   0.415   1.385   4.699  0.6514 -0.0868  0.8288
 4739SOL    HW225854   0.570   1.396   4.678  0.9564 -0.7264 -0.2784
 4740SOL     OW25855   2.414   0.319   2.071  0.1528  0.0301  0.1624
 4740SOL    HW125856   2.366   0.391   2.029 -0.8739  0.1128  1.4803
 4740SOL    HW225857   2.484   0.294   2.010 -0.6042  1.6540 -1.3844
 4741SOL     OW25858   3.256   0.431  17.254 -0.0760  0.3346  0.0153
 4741SOL    HW125859   3.182   0.372  17.263  0.0286 -0.0787 -1.8127
 4741SOL    HW225860   3.278   0.430  17.347  1.3726 -1.6633 -0.3531
 4742SOL     OW25861   1.286   3.600   7.027 -0.2406  0.0340  0.4675
 4742SOL    HW125862   1.201   3.574   7.064 -0.2626  0.9638  1.0641
 4742SOL    HW225863   1.295   3.691   7.052  0.1225  0.0101  0.4207
 4743SOL     OW25864   1.433   0.456   2.206 -0.4927 -0.0439 -0.1726
 4743SOL    HW125865   1.410   0.416   2.122  1.6687 -3.0606  0.6435
 4743SOL    HW225866   1.398   0.544   2.195 -0.2858 -0.0392 -0.7943
 4744SOL     OW25867   2.179   2.447  11.012  0.1856 -0.3538 -0.0657
 4744SOL    HW125868   2.234   2.382  11.055 -1.0693 -1.2279  0.2469
 4744SOL    HW225869   2.213   2.447  10.923 -0.1060  0.4878 -0.1761
 4745SOL     OW25870   4.728   2.370  10.901  0.5849  0.8092 -0.0942
 4745SOL    HW125871   4.640   2.346  10.928  1.0525  1.2409  1.7697
 4745SOL    HW225872   0.006   2.310  10.828 -0.8486  0.6040 -0.2597
 4746SOL     OW25873   0.834   4.086   4.094  0.3560  0.5458  0.3034
 4746SOL    HW125874   0.793   4.020   4.149 -0.4186  0.7085 -0.0808
 4746SOL    HW225875   0.785   4.160   4.130  1.1189  1.3319 -0.2550
 4747SOL     OW25876   4.561   4.431   7.355  0.0650 -0.2113  0.5889
 4747SOL    HW125877   4.560   4.346   7.311 -3.0919 -0.5856  1.4240
 4747SOL    HW225878   4.613   4.484   7.294 -0.7345 -0.1740 -0.0529
 4748SOL     OW25879   2.737   2.181  17.598 -0.5397  0.6194 -0.2638
 4748SOL    HW125880   2.675   2.215  17.663  0.1081  0.0758  0.6386
 4748SOL    HW225881   2.808   2.148  17.653 -0.6741 -1.1796 -1.1820
 4749SOL     OW25882   4.399   1.040   8.333 -0.0137 -0.5664  0.4454
 4749SOL    HW125883   4.381   1.093   8.410 -0.0219 -0.6691  0.5137
 4749SOL    HW225884   4.429   1.110   8.275 -0.0302  0.3887  1.5839
 4750SOL     OW25885   0.749   2.076   6.778 -0.7462 -0.1806  0.0635
 4750SOL    HW125886   0.736   2.146   6.713  0.5702 -1.0240 -1.1119
 4750SOL    HW225887   0.802   2.121   6.844 -3.0203  1.3862  0.8190
 4751SOL     OW25888   4.209   1.284   4.558  0.1127  0.2780 -0.0203
 4751SOL    HW125889   4.122   1.308   4.525  0.3484  1.5233  0.2470
 4751SOL    HW225890   4.197   1.192   4.579 -2.1808  0.1717 -1.8071
 4752SOL     OW25891   2.396   3.897   7.123 -0.1923  0.1654 -0.3042
 4752SOL    HW125892   2.301   3.890   7.126 -0.1712  0.9717  2.0345
 4752SOL    HW225893   2.425   3.806   7.120 -0.7783 -0.0114 -0.7259
 4753SOL     OW25894   0.845   0.081   5.221 -0.1524 -0.2993 -0.2880
 4753SOL    HW125895   0.940   0.069   5.212  0.1187  2.7528 -1.5424
 4753SOL    HW225896   0.824   0.120   5.136 -0.8383 -0.1673 -0.0598
 4754SOL     OW25897   1.373   4.603   8.242 -0.0154  0.3232  0.0128
 4754SOL    HW125898   1.371   4.544   8.317  0.9867 -0.5515 -0.6569
 4754SOL    HW225899   1.353   4.684   8.290 -0.5435 -0.1315  0.5647
 4755SOL     OW25900   0.798   3.480   6.382 -0.3491  0.1602  0.9782
 4755SOL    HW125901   0.824   3.492   6.473  1.9949 -0.2489  0.3769
 4755SOL    HW225902   0.868   3.527   6.337  1.8878 -4.4686 -0.4143
 4756SOL     OW25903   0.258   4.309   9.364  0.2726 -0.1032  0.3737
 4756SOL    HW125904   0.264   4.221   9.399 -1.4741  0.1270  1.2772
 4756SOL    HW225905   0.162   4.312   9.361  0.4185  2.6677 -1.6390
 4757SOL     OW25906   1.442   1.948  17.470 -0.4601 -0.0570  0.2965
 4757SOL    HW125907   1.355   1.939  17.509 -0.3383  0.5003  0.7053
 4757SOL    HW225908   1.433   1.886  17.397 -0.6829  3.2244 -2.4728
 4758SOL     OW25909   1.727   3.546   5.072 -0.3384 -0.1371 -0.3745
 4758SOL    HW125910   1.700   3.496   4.994 -0.7256  0.5272 -0.6699
 4758SOL    HW225911   1.713   3.481   5.141 -1.4312 -0.2660 -0.7239
 4759SOL     OW25912   0.089   1.093   4.239  0.0492 -0.6645 -0.2736
 4759SOL    HW125913   0.166   1.131   4.197 -0.6075  0.8430 -0.0868
 4759SOL    HW225914   0.091   1.012   4.188 -0.8532  0.7862 -2.6032
 4760SOL     OW25915   4.558   3.888   4.677  0.3158  0.4459  0.0535
 4760SOL    HW125916   4.590   3.797   4.678 -0.1111  0.2944 -0.0448
 4760SOL    HW225917   4.581   3.917   4.765  1.7522 -1.0268  0.1560
 4761SOL     OW25918   2.149   1.854   0.423  0.4343  0.2219 -0.4288
 4761SOL    HW125919   2.236   1.814   0.431  0.2551  0.0246  0.4817
 4761SOL    HW225920   2.114   1.821   0.505  1.8436  1.0576  0.5174
 4762SOL     OW25921   0.952   2.597   4.052 -0.1528  0.1597 -0.2340
 4762SOL    HW125922   0.996   2.679   4.028 -2.2788  1.4673  0.3769
 4762SOL    HW225923   0.940   2.564   3.963 -0.8340 -1.1238  0.3464
 4763SOL     OW25924   3.618   3.837   6.148 -0.6540 -0.1098 -0.1162
 4763SOL    HW125925   3.687   3.838   6.081 -0.3961 -2.2986  0.1360
 4763SOL    HW225926   3.635   3.924   6.185  0.9011 -1.3814  2.0670
 4764SOL     OW25927   1.446   3.982   0.583  0.2999  0.3081 -0.0001
 4764SOL    HW125928   1.518   3.968   0.644  1.0836  0.6774 -0.8322
 4764SOL    HW225929   1.439   4.078   0.583  1.5375  0.4069 -2.2125
 4765SOL     OW25930   2.063   2.769   6.984  0.2940 -0.4937 -0.5850
 4765SOL    HW125931   2.064   2.674   6.993  1.1915 -0.4356 -0.1492
 4765SOL    HW225932   1.996   2.777   6.915  1.2499  2.2002 -1.2018
 4766SOL     OW25933   1.156   1.175   3.302  0.8063 -0.4226  0.1731
 4766SOL    HW125934   1.218   1.103   3.290  1.1841 -0.3619  1.7176
 4766SOL    HW225935   1.184   1.208   3.388 -0.2832  1.0962 -0.0543
 4767SOL     OW25936   1.839   0.313   8.064  0.6259 -0.4777 -0.1481
 4767SOL    HW125937   1.866   0.229   8.028 -1.1630 -1.2650  0.3559
 4767SOL    HW225938   1.871   0.381   8.004  1.0888 -1.5101 -1.0647
 4768SOL     OW25939   3.085   4.263  15.670 -0.6336  0.0132  0.1661
 4768SOL    HW125940   3.119   4.341  15.627  1.5104 -1.1364 -0.2194
 4768SOL    HW225941   3.161   4.205  15.675 -0.9745 -0.6441 -2.1682
 4769SOL     OW25942   1.707   3.634   7.049  0.0004 -0.2688  0.0782
 4769SOL    HW125943   1.643   3.679   6.993  1.2201  2.6727  1.0094
 4769SOL    HW225944   1.676   3.545   7.037  1.3584 -0.6568 -0.5414
 4770SOL     OW25945   0.481   3.957   7.198 -0.5535  0.6661 -0.2519
 4770SOL    HW125946   0.418   4.028   7.187 -1.0428  0.4036  0.9417
 4770SOL    HW225947   0.484   3.931   7.105  2.6405 -1.9621  0.5601
 4771SOL     OW25948   3.950   0.718   2.780  0.4498 -0.2771 -0.1660
 4771SOL    HW125949   3.994   0.671   2.851  0.1138 -2.2038 -1.2381
 4771SOL    HW225950   4.015   0.781   2.748 -0.3154  0.0151 -1.1446
 4772SOL     OW25951   1.214   4.028  12.337 -0.1832  0.5374 -0.0431
 4772SOL    HW125952   1.260   4.072  12.409 -0.1994 -0.3356  0.4999
 4772SOL    HW225953   1.122   4.052  12.337  0.0101  1.2594 -2.8378
 4773SOL     OW25954   0.824   0.961  12.592  0.1603 -0.3974  0.2669
 4773SOL    HW125955   0.794   1.023  12.658  0.3139 -1.1184  1.0166
 4773SOL    HW225956   0.880   0.906  12.647  2.1894  1.9020  0.5088
 4774SOL     OW25957   2.973   0.134   6.841  0.5341 -0.2358  0.2312
 4774SOL    HW125958   2.894   0.094   6.875  0.2883  0.6436  0.7045
 4774SOL    HW225959   2.988   0.190   6.918 -0.3189 -1.1838  1.0812
 4775SOL     OW25960   0.217   0.971   8.298  0.2002 -0.1446  0.1144
 4775SOL    HW125961   0.309   0.967   8.274  0.3050  2.4947 -0.0046
 4775SOL    HW225962   0.205   1.063   8.271 -0.8008  0.6647  3.2811
 4776SOL     OW25963   1.735   1.368   9.711  0.4308  0.6860 -0.6877
 4776SOL    HW125964   1.741   1.447   9.657  2.6277 -0.1273 -1.6593
 4776SOL    HW225965   1.716   1.401   9.799 -3.5911  0.7037 -1.5412
 4777SOL     OW25966   1.098   3.190   8.213  0.2385  0.0450  0.0353
 4777SOL    HW125967   1.128   3.276   8.185 -2.1899  0.2681 -1.9355
 4777SOL    HW225968   1.063   3.225   8.295  1.3616 -1.6052  1.2238
 4778SOL     OW25969   0.155   4.304  16.766 -0.0358  0.8333 -0.0544
 4778SOL    HW125970   0.062   4.296  16.748 -0.3084  1.3121  1.1172
 4778SOL    HW225971   0.184   4.318  16.676  0.2987  0.8702  0.0578
 4779SOL     OW25972   2.405   4.300   6.303 -0.2934 -0.3308  0.1216
 4779SOL    HW125973   2.402   4.218   6.254 -0.4039 -0.2315 -0.0338
 4779SOL    HW225974   2.319   4.303   6.344  0.4483 -0.5972  1.7429
 4780SOL     OW25975   2.249   1.408   6.549 -0.0014 -0.7761  0.8661
 4780SOL    HW125976   2.342   1.386   6.548 -0.1181 -1.2807  0.7985
 4780SOL    HW225977   2.213   1.320   6.559  0.1172 -0.9062  0.0948
 4781SOL     OW25978   0.456   0.852   0.885 -0.4717 -0.2437 -0.3327
 4781SOL    HW125979   0.498   0.881   0.804 -0.5544 -1.3938 -0.7851
 4781SOL    HW225980   0.440   0.761   0.862 -0.6415  0.2152 -2.0844
 4782SOL     OW25981   3.655   2.631   4.208  0.2067  0.5120 -0.0873
 4782SOL    HW125982   3.567   2.667   4.220 -0.5842 -1.2606 -0.5561
 4782SOL    HW225983   3.687   2.706   4.158 -1.3785  1.5713  0.4718
 4783SOL     OW25984   3.003   3.414   2.476  0.6505  0.1319 -0.0445
 4783SOL    HW125985   2.928   3.361   2.502  0.8838  0.3696  1.0936
 4783SOL    HW225986   3.017   3.470   2.552  0.3470 -1.4056  1.1489
 4784SOL     OW25987   2.507   2.478   1.560  0.2009 -0.1542 -0.6338
 4784SOL    HW125988   2.483   2.470   1.468 -0.1633  0.5374 -0.6050
 4784SOL    HW225989   2.530   2.571   1.566  1.6197 -0.5176 -0.5400
 4785SOL     OW25990   2.384   2.411   7.666  0.0697  0.0609 -0.0956
 4785SOL    HW125991   2.433   2.457   7.598  1.7005  1.6530  2.1335
 4785SOL    HW225992   2.321   2.371   7.606 -0.2394  1.0967 -0.4717
 4786SOL     OW25993   3.946   2.974  17.603  0.2656  0.0222  0.5691
 4786SOL    HW125994   3.918   2.901  17.658  2.9800 -1.0850  0.4736
 4786SOL    HW225995   3.921   2.936  17.519 -0.4502  2.0266 -0.1225
 4787SOL     OW25996   3.960   0.175  17.686  0.2216  0.7835 -0.0120
 4787SOL    HW125997   3.955   0.191  17.591  1.1450  0.3946 -0.1260
 4787SOL    HW225998   3.943   0.260  17.726  2.0575  0.9923  0.3292
 4788SOL     OW25999   3.819   4.138   6.910 -0.0568  0.1542  0.3869
 4788SOL    HW126000   3.901   4.095   6.936  0.2142  0.2356 -0.3190
 4788SOL    HW226001   3.837   4.230   6.925 -0.2109  0.1615  0.5267
 4789SOL     OW26002   0.670   3.829   5.262  0.4580  0.2959  0.3527
 4789SOL    HW126003   0.717   3.887   5.203  1.0056  1.1539  1.6518
 4789SOL    HW226004   0.592   3.802   5.212  0.9882  0.1413 -0.3991
 4790SOL     OW26005   2.186   2.745   4.746 -0.8503 -0.1896 -0.9698
 4790SOL    HW126006   2.248   2.672   4.748 -2.8926 -2.0022 -3.4047
 4790SOL    HW226007   2.185   2.776   4.836 -0.1457 -1.2884 -0.5812
 4791SOL     OW26008   3.892   3.862   2.345 -0.0520 -1.0568  0.6891
 4791SOL    HW126009   3.801   3.838   2.358 -0.0005 -1.2863  0.6216
 4791SOL    HW226010   3.916   3.815   2.264 -0.8572  1.8792 -1.2565
 4792SOL     OW26011   1.411   4.549   6.151 -0.4244  1.2057 -0.1062
 4792SOL    HW126012   1.354   4.515   6.220 -0.1024 -0.3869 -0.6150
 4792SOL    HW226013   1.453   4.626   6.189 -0.1189  0.6563  0.6881
 4793SOL     OW26014   0.934   3.334  16.504  0.6097 -0.4928 -0.0925
 4793SOL    HW126015   0.880   3.256  16.516 -1.2890  1.0259  1.3146
 4793SOL    HW226016   1.017   3.287  16.506  1.2009  0.6008  1.1464
 4794SOL     OW26017   2.851   3.887   7.240 -0.1880  0.0690  0.1812
 4794SOL    HW126018   2.835   3.827   7.168 -0.0731  1.1964 -0.7841
 4794SOL    HW226019   2.770   3.938   7.251  0.1127  0.3675  1.0458
 4795SOL     OW26020   0.110   2.269   4.829 -0.1865  0.2594  0.5132
 4795SOL    HW126021   0.036   2.218   4.864  1.1157 -2.1436 -0.1998
 4795SOL    HW226022   0.182   2.207   4.844  0.6471  1.3620  1.0393
 4796SOL     OW26023   4.338   4.299   3.014 -0.6787 -0.1203  0.2989
 4796SOL    HW126024   4.303   4.298   2.925 -0.4952  0.3149  0.2197
 4796SOL    HW226025   4.312   4.387   3.042  0.7542  0.3348  0.2072
 4797SOL     OW26026   0.946   3.204   3.708 -0.1941 -0.1779 -1.3588
 4797SOL    HW126027   0.924   3.294   3.730  0.2594 -0.7262  1.3131
 4797SOL    HW226028   0.961   3.219   3.614 -0.7771  2.7089 -0.9916
 4798SOL     OW26029   2.927   2.230  16.050  0.1633  0.3231  0.5306
 4798SOL    HW126030   3.003   2.207  15.997  2.1736  0.1336  3.5632
 4798SOL    HW226031   2.863   2.164  16.023  0.3397 -0.2482  1.5391
 4799SOL     OW26032   2.113   3.002   3.218  1.1911  0.4920 -0.4938
 4799SOL    HW126033   2.035   3.034   3.262  3.0942  3.1302  0.9783
 4799SOL    HW226034   2.152   2.956   3.293  0.3970 -1.5938 -1.3676
 4800SOL     OW26035   4.082   4.369   9.225  0.2026 -0.7641 -0.5606
 4800SOL    HW126036   4.046   4.338   9.308  0.1736 -1.3771 -0.8011
 4800SOL    HW226037   4.156   4.417   9.261 -1.0753 -0.2594  1.3514
 4801SOL     OW26038   4.632   2.749   0.419  0.0904 -0.0905  0.5242
 4801SOL    HW126039   4.705   2.767   0.479  1.0734  1.4779 -1.1276
 4801SOL    HW226040   4.604   2.837   0.393 -0.5861 -0.5420 -0.2516
 4802SOL     OW26041   1.599   3.872  12.012 -0.4729  0.1473  0.3420
 4802SOL    HW126042   1.525   3.908  12.061 -0.4636 -2.1431  1.9817
 4802SOL    HW226043   1.637   3.810  12.074  1.7554  3.3064  2.1539
 4803SOL     OW26044   2.570   0.308   1.249  0.5048  0.1828  0.4749
 4803SOL    HW126045   2.475   0.304   1.264  0.4891 -1.2709  0.0529
 4803SOL    HW226046   2.601   0.319   1.339  1.7453  0.1507  0.0532
 4804SOL     OW26047   0.888   3.840  12.050 -0.2185 -0.2102 -0.0026
 4804SOL    HW126048   0.958   3.903  12.031 -0.7184  1.0029  2.1176
 4804SOL    HW226049   0.837   3.834  11.970  0.3831  0.7606 -0.4557
 4805SOL     OW26050   4.481   0.295  16.597 -0.1307 -0.1530  0.3725
 4805SOL    HW126051   4.539   0.335  16.533 -0.4962 -0.2506 -0.0244
 4805SOL    HW226052   4.449   0.373  16.642  2.3396  1.6140 -1.0165
 4806SOL     OW26053   3.964   2.337   4.081 -0.6667  0.0730  0.2007
 4806SOL    HW126054   3.877   2.362   4.113  0.3880  1.0383  2.3553
 4806SOL    HW226055   4.004   2.423   4.064 -0.3989  0.0746  0.8287
 4807SOL     OW26056   2.204   1.662   5.847  0.4616 -0.4175  0.1242
 4807SOL    HW126057   2.214   1.608   5.926 -0.7133 -0.7119  0.0724
 4807SOL    HW226058   2.244   1.605   5.782  1.6297 -1.1372  1.4696
 4808SOL     OW26059   1.157   4.188  13.400  0.0544  0.0199  0.3079
 4808SOL    HW126060   1.175   4.185  13.494 -1.0963 -4.2137  0.4142
 4808SOL    HW226061   1.113   4.273  13.394 -1.1711 -0.6908 -1.1121
 4809SOL     OW26062   2.765   3.502  15.833 -0.1471 -0.4574 -0.1010
 4809SOL    HW126063   2.782   3.422  15.783  2.2124  1.1700 -1.9154
 4809SOL    HW226064   2.768   3.471  15.923 -0.4685 -1.8032 -0.5673
 4810SOL     OW26065   1.253   3.683   4.815  0.0029 -0.3249  0.1677
 4810SOL    HW126066   1.332   3.630   4.825 -0.8675 -1.5878  0.4238
 4810SOL    HW226067   1.180   3.626   4.840  2.0882 -3.5000 -0.9305
 4811SOL     OW26068   0.722   3.511   5.316 -0.0802 -0.0400  0.3459
 4811SOL    HW126069   0.737   3.420   5.341  1.5937  0.0100 -0.4601
 4811SOL    HW226070   0.646   3.506   5.259  0.8437 -0.0339 -0.9042
 4812SOL     OW26071   4.496   2.230   7.205  0.2099  0.5217 -0.1794
 4812SOL    HW126072   4.561   2.202   7.140 -0.9708  1.3731 -1.6968
 4812SOL    HW226073   4.470   2.143   7.237  1.0696 -0.3843 -1.9429
 4813SOL     OW26074   3.713   2.161   8.061  0.5879  0.0672  0.0014
 4813SOL    HW126075   3.742   2.233   8.004  2.6322 -0.4022  0.4783
 4813SOL    HW226076   3.782   2.159   8.126 -1.4830  0.2961  2.2100
 4814SOL     OW26077   2.485   1.964   5.688 -0.3217  0.5796 -0.1055
 4814SOL    HW126078   2.473   1.923   5.602 -3.4661 -0.4288  0.7807
 4814SOL    HW226079   2.527   2.047   5.668  1.2111 -0.3204 -0.6616
 4815SOL     OW26080   0.928   4.513   5.265 -0.6578 -0.0915 -0.1241
 4815SOL    HW126081   0.998   4.577   5.270 -0.1363 -0.6482 -0.3750
 4815SOL    HW226082   0.930   4.481   5.355  0.8152  2.1094  0.6039
 4816SOL     OW26083   0.736   3.569   8.154  0.2466 -0.2765  0.5311
 4816SOL    HW126084   0.808   3.552   8.215 -0.2134 -0.7094  0.9468
 4816SOL    HW226085   0.702   3.654   8.182  2.1465 -0.3190  2.9408
 4817SOL     OW26086   3.935   1.608   5.760  0.5162  0.6835  0.1574
 4817SOL    HW126087   3.954   1.683   5.704 -1.7026  0.9035 -0.3136
 4817SOL    HW226088   3.857   1.578   5.713 -0.4983  1.6035  1.2317
 4818SOL     OW26089   2.437   0.203   1.638  0.3085  0.3345  0.5848
 4818SOL    HW126090   2.511   0.160   1.681  0.4064 -1.1205 -0.9982
 4818SOL    HW226091   2.488   0.255   1.576 -0.0728 -0.4228 -0.3576
 4819SOL     OW26092   2.419   1.667   6.874 -0.1924 -0.1179  0.0861
 4819SOL    HW126093   2.441   1.575   6.856  0.7949  0.3124 -0.8529
 4819SOL    HW226094   2.400   1.655   6.967  0.2427 -0.8206  0.0937
 4820SOL     OW26095   1.248   2.885   9.442 -0.0486  0.6361  0.2780
 4820SOL    HW126096   1.306   2.872   9.367 -1.2569 -0.8706 -0.3739
 4820SOL    HW226097   1.238   2.980   9.431 -0.9322  0.3508 -1.2838
 4821SOL     OW26098   1.006   2.606   1.902  0.3783 -0.7819 -0.4585
 4821SOL    HW126099   0.973   2.696   1.911  0.4428 -0.9593  1.4795
 4821SOL    HW226100   0.926   2.557   1.885 -0.1250 -0.7888  1.9916
 4822SOL     OW26101   3.386   4.451   7.733 -0.2867 -0.1507 -0.5628
 4822SOL    HW126102   3.308   4.403   7.763 -0.7223  1.4306  0.8395
 4822SOL    HW226103   3.446   4.423   7.801 -1.0544 -2.8437 -0.9889
 4823SOL     OW26104   2.803   3.641  15.520 -0.6779 -0.8441  0.4615
 4823SOL    HW126105   2.872   3.661  15.583 -0.8486 -2.2395  1.1056
 4823SOL    HW226106   2.764   3.728  15.510 -0.6797 -0.9407 -0.3388
 4824SOL     OW26107   0.595   1.209   4.318 -0.1649  0.2764  0.3213
 4824SOL    HW126108   0.611   1.304   4.312  1.3493  0.0545  0.8696
 4824SOL    HW226109   0.684   1.179   4.301  0.1698  1.8518 -0.6963
 4825SOL     OW26110   1.482   0.144   8.942  0.4174  0.5831 -0.0543
 4825SOL    HW126111   1.430   0.125   8.863  3.0836 -1.8396 -1.2124
 4825SOL    HW226112   1.437   0.227   8.961  1.6650  0.8232  1.8023
 4826SOL     OW26113   0.009   2.591  14.505 -0.3109 -0.6832 -0.2185
 4826SOL    HW126114   4.702   2.589  14.421  0.5867  0.5293 -0.7364
 4826SOL    HW226115   0.032   2.683  14.517  0.2434 -0.9640  0.8984
 4827SOL     OW26116   1.187   1.202   1.295  0.7549 -0.1983  0.0067
 4827SOL    HW126117   1.102   1.182   1.334  1.0868  1.1933  1.5134
 4827SOL    HW226118   1.183   1.298   1.304  0.3832 -0.3660  1.7921
 4828SOL     OW26119   4.564   3.605  11.132  0.2859  0.2809 -0.0832
 4828SOL    HW126120   4.521   3.684  11.164 -0.2373  0.0567 -0.2380
 4828SOL    HW226121   4.537   3.591  11.041  0.6114 -0.1082 -0.1200
 4829SOL     OW26122   2.362   4.335  15.459 -0.6755  0.6072  0.1905
 4829SOL    HW126123   2.360   4.276  15.534 -2.0917 -0.8997 -1.0328
 4829SOL    HW226124   2.305   4.408  15.484 -1.6427 -0.5162  1.2200
 4830SOL     OW26125   1.435   4.031   6.137 -0.1975  0.0066  0.1926
 4830SOL    HW126126   1.424   3.936   6.140 -0.2242  0.0760  2.2233
 4830SOL    HW226127   1.450   4.045   6.231 -2.2708  1.4612  0.3276
 4831SOL     OW26128   3.377   3.014   7.736  0.2029 -0.0531 -0.0319
 4831SOL    HW126129   3.406   3.008   7.827 -1.0425  0.3921  0.3900
 4831SOL    HW226130   3.320   2.938   7.722 -1.3647  0.9453  0.9491
 4832SOL     OW26131   3.020   2.771   6.716 -0.2712 -0.4601  0.5013
 4832SOL    HW126132   3.043   2.709   6.786 -0.2346 -0.8713  0.1286
 4832SOL    HW226133   2.943   2.725   6.684  1.4533 -1.9423 -1.5569
 4833SOL     OW26134   3.289   2.469   6.678 -0.5249 -0.2370  0.5487
 4833SOL    HW126135   3.328   2.555   6.691 -2.8664  0.8660  0.2405
 4833SOL    HW226136   3.201   2.484   6.714 -0.1541  2.4606  0.3581
 4834SOL     OW26137   1.390   0.508   0.116 -0.5218 -0.2008 -0.2628
 4834SOL    HW126138   1.318   0.564   0.144  0.9816  1.7238 -0.2306
 4834SOL    HW226139   1.447   0.575   0.079 -0.0368 -1.0167 -1.0188
 4835SOL     OW26140   1.323   0.034  10.466 -0.0055 -0.3554 -0.7104
 4835SOL    HW126141   1.357   4.685  10.455  0.6855  0.1294 -2.5671
 4835SOL    HW226142   1.253   0.009  10.526 -1.6893  0.9971 -2.0921
 4836SOL     OW26143   3.521   0.846   3.087 -0.3998  0.0981  0.0335
 4836SOL    HW126144   3.607   0.873   3.055 -0.2688  0.0574  0.3529
 4836SOL    HW226145   3.485   0.793   3.016 -0.8385 -1.3596  1.3397
 4837SOL     OW26146   0.265   0.919  11.662  0.0931 -0.1765 -0.2160
 4837SOL    HW126147   0.278   1.014  11.661 -1.9727  0.1239  0.4417
 4837SOL    HW226148   0.172   0.933  11.681 -0.1674 -1.9863 -0.0899
 4838SOL     OW26149   0.059   2.482  13.550  0.1113 -0.2505 -0.7555
 4838SOL    HW126150   0.061   2.560  13.604 -0.3434 -0.7250 -0.0533
 4838SOL    HW226151   4.718   2.440  13.581  0.7881 -0.6889  0.3726
 4839SOL     OW26152   4.070   4.309   0.183 -0.7176 -0.0274 -0.1061
 4839SOL    HW126153   3.980   4.276   0.190 -0.4610 -0.1382  2.6661
 4839SOL    HW226154   4.077   4.309   0.088  0.7052  0.5200  0.0043
 4840SOL     OW26155   4.266   4.593  12.922 -0.4496 -0.4200 -0.0930
 4840SOL    HW126156   4.295   4.596  13.013  1.3497  1.6899 -0.7326
 4840SOL    HW226157   4.179   4.557  12.934 -1.2817  0.3995 -3.5423
 4841SOL     OW26158   2.732   2.249   2.856 -0.2495  0.1947 -0.2431
 4841SOL    HW126159   2.658   2.304   2.829  0.5621  0.8274 -1.1542
 4841SOL    HW226160   2.775   2.237   2.772 -0.2764  0.3322 -0.2778
 4842SOL     OW26161   2.317   3.631   7.371  0.2183  0.2150  0.1279
 4842SOL    HW126162   2.360   3.666   7.293 -0.2571 -0.0802 -0.2668
 4842SOL    HW226163   2.257   3.570   7.328 -1.3192  2.6537 -1.1746
 4843SOL     OW26164   3.596   1.229   3.597  0.1951  0.0835 -0.1196
 4843SOL    HW126165   3.652   1.161   3.635 -0.0842 -0.1091 -0.0552
 4843SOL    HW226166   3.567   1.271   3.678  1.4272 -0.4022  0.5682
 4844SOL     OW26167   1.738   1.549   7.511  0.3070  0.0149  0.7544
 4844SOL    HW126168   1.677   1.508   7.449  1.3748 -1.8129  0.8846
 4844SOL    HW226169   1.738   1.484   7.581 -0.9648  0.1606  0.8787
 4845SOL     OW26170   0.390   1.374   3.673 -0.0988 -0.2498  0.2646
 4845SOL    HW126171   0.365   1.462   3.702 -0.2220 -0.9775  2.3636
 4845SOL    HW226172   0.399   1.319   3.751  0.2110 -1.3825 -0.5802
 4846SOL     OW26173   2.971   3.914   3.767 -0.0156 -0.2341 -0.6706
 4846SOL    HW126174   3.065   3.917   3.750  0.0324 -0.9528 -0.5467
 4846SOL    HW226175   2.935   3.855   3.700  2.1701 -3.6912  1.1885
 4847SOL     OW26176   4.361   4.506   4.453 -0.1360 -0.4691  0.4206
 4847SOL    HW126177   4.322   4.432   4.406  1.1466  0.0386 -1.4488
 4847SOL    HW226178   4.450   4.501   4.419 -1.2931 -0.3888 -2.6657
 4848SOL     OW26179   1.313   3.141   7.859  0.4730 -0.0879 -0.0055
 4848SOL    HW126180   1.276   3.188   7.934  0.0126  1.2849 -1.0944
 4848SOL    HW226181   1.404   3.163   7.875 -0.2259  2.5151  0.4000
 4849SOL     OW26182   4.710   2.867   5.020  0.5533  0.3004  0.4415
 4849SOL    HW126183   4.654   2.805   5.066  0.8859  0.6350  1.3033
 4849SOL    HW226184   0.024   2.917   5.082 -0.1817  1.9987 -0.3113
 4850SOL     OW26185   0.854   0.234   7.185 -0.2619  0.1713  0.2752
 4850SOL    HW126186   0.789   0.291   7.144  2.1928  2.0332 -1.0177
 4850SOL    HW226187   0.861   0.280   7.269  0.6108  1.0948 -0.3053
 4851SOL     OW26188   3.206   2.950   2.800  0.4099  0.6253 -0.0730
 4851SOL    HW126189   3.290   2.907   2.783 -0.8789 -1.0185 -2.3863
 4851SOL    HW226190   3.148   2.885   2.760  0.8747 -0.7814  1.5356
 4852SOL     OW26191   2.438   4.243   6.875 -0.3047  0.3836  0.2565
 4852SOL    HW126192   2.464   4.311   6.937  3.5819  0.1293 -1.1001
 4852SOL    HW226193   2.415   4.287   6.793 -0.1892  0.5482  0.3123
 4853SOL     OW26194   4.219   4.276   4.401 -0.0180  0.3806  0.5155
 4853SOL    HW126195   4.176   4.295   4.318  1.4127 -1.9354 -0.7695
 4853SOL    HW226196   4.259   4.191   4.384 -0.3823  0.2653  0.2565
 4854SOL     OW26197   1.455   3.871   9.971 -0.6151  0.5725  0.1642
 4854SOL    HW126198   1.435   3.870   9.877 -0.0901  0.8945  0.0520
 4854SOL    HW226199   1.464   3.966   9.975 -0.6034  0.6592 -2.1580
 4855SOL     OW26200   3.854   2.914   7.482 -0.1335 -0.1612 -0.4048
 4855SOL    HW126201   3.891   3.000   7.463 -0.2820  0.4876  2.2839
 4855SOL    HW226202   3.924   2.851   7.467  0.9093  0.8509  0.2351
 4856SOL     OW26203   3.583   3.633  10.360  0.2200  0.3106 -0.4235
 4856SOL    HW126204   3.617   3.546  10.380  1.6345  1.2383  1.2236
 4856SOL    HW226205   3.630   3.668  10.435 -0.1104 -1.6199  0.6802
 4857SOL     OW26206   1.806   2.875   8.767  0.5539 -0.7777 -0.0994
 4857SOL    HW126207   1.896   2.909   8.774  0.5024 -0.8138  0.7368
 4857SOL    HW226208   1.759   2.957   8.784  0.2888 -0.7831 -0.8264
 4858SOL     OW26209   3.635   0.043   3.469  0.2985 -0.3701  0.2205
 4858SOL    HW126210   3.624   0.093   3.550 -0.9341 -0.3274  0.0218
 4858SOL    HW226211   3.705   0.090   3.424  0.3237 -1.3621 -0.7867
 4859SOL     OW26212   0.279   1.079   1.742 -0.0796 -0.4088  0.8630
 4859SOL    HW126213   0.266   1.172   1.760  0.9210  0.1454 -1.2889
 4859SOL    HW226214   0.290   1.077   1.647  0.7686 -2.2433  0.9926
 4860SOL     OW26215   3.458   2.224  11.246  0.0154  0.3856  0.2855
 4860SOL    HW126216   3.501   2.301  11.208  2.5987 -0.1891  2.0305
 4860SOL    HW226217   3.466   2.254  11.337 -1.9452  0.4838  0.4136
 4861SOL     OW26218   4.233   3.010   6.084  0.2092 -0.1968 -0.2929
 4861SOL    HW126219   4.303   2.957   6.047  0.3136  0.5727 -1.2084
 4861SOL    HW226220   4.265   3.032   6.171  0.0976  1.5619 -0.6965
 4862SOL     OW26221   1.008   0.627   8.091 -0.0445 -0.0818  0.1723
 4862SOL    HW126222   1.014   0.710   8.043 -0.4654  0.9580  1.9219
 4862SOL    HW226223   1.093   0.588   8.070  0.2703  1.5293 -1.5199
 4863SOL     OW26224   3.634   2.043  10.935 -0.6530  0.4392 -0.0076
 4863SOL    HW126225   3.710   2.063  10.881 -1.9041  2.5234 -1.0003
 4863SOL    HW226226   3.576   2.119  10.924 -2.1832 -1.2810 -3.9271
 4864SOL     OW26227   0.201   0.974   8.573  0.4680  0.6459 -0.2446
 4864SOL    HW126228   0.228   0.966   8.482  2.2392  0.3726  0.2990
 4864SOL    HW226229   0.126   0.916   8.585 -0.9037  2.6681  0.7977
 4865SOL     OW26230   1.064   3.271  14.863  1.0109  0.0668  0.0352
 4865SOL    HW126231   0.980   3.226  14.874  2.6287 -2.5431  1.7816
 4865SOL    HW226232   1.057   3.276  14.767  1.4886  0.5834  0.0293
 4866SOL     OW26233   3.587   2.615   4.612 -0.2290 -0.4998  0.3085
 4866SOL    HW126234   3.647   2.542   4.623  0.8336  0.0642 -1.5814
 4866SOL    HW226235   3.526   2.570   4.553  1.0838 -0.1141 -1.3677
 4867SOL     OW26236   0.066   1.914   5.874 -0.6246 -0.0295  0.1375
 4867SOL    HW126237   0.020   1.984   5.827  0.9068 -0.1669 -1.5748
 4867SOL    HW226238   0.106   1.956   5.950  2.9540 -1.8326 -0.7620
 4868SOL     OW26239   2.177   2.947  10.012 -0.0084 -0.2437 -0.0718
 4868SOL    HW126240   2.125   2.965   9.933 -0.0010  2.2050  0.4797
 4868SOL    HW226241   2.182   2.852  10.006 -1.3273 -0.4172  1.4815
 4869SOL     OW26242   4.068   0.739   4.502 -0.0281  0.4960  0.2421
 4869SOL    HW126243   4.122   0.670   4.540 -0.1683  0.4022  0.2686
 4869SOL    HW226244   3.979   0.704   4.508 -0.0344  0.0325 -2.3746
 4870SOL     OW26245   1.539   0.633   4.870 -0.4724  0.3073 -0.5507
 4870SOL    HW126246   1.464   0.692   4.865 -0.2239  0.5907 -0.9293
 4870SOL    HW226247   1.523   0.596   4.957 -5.2146 -0.8125 -1.8885
 4871SOL     OW26248   4.418   4.397   2.136 -0.4133  0.0887 -0.5329
 4871SOL    HW126249   4.368   4.331   2.184  0.0762  0.6294  0.7132
 4871SOL    HW226250   4.386   4.476   2.180  1.2296 -0.5224  1.7382
 4872SOL     OW26251   0.884   1.748  15.621  0.0298  0.0805  0.0472
 4872SOL    HW126252   0.977   1.756  15.641  0.2052 -1.0101 -0.2943
 4872SOL    HW226253   0.886   1.737  15.525  2.8529 -0.1296  0.1306
 4873SOL     OW26254   3.197   1.882   9.077  0.4756 -0.1790  0.9393
 4873SOL    HW126255   3.240   1.957   9.036  1.2663 -1.0213  0.2170
 4873SOL    HW226256   3.160   1.919   9.157 -1.3823  0.4527 -0.2173
 4874SOL     OW26257   0.106   2.132  13.547 -0.2922  0.3432  0.1173
 4874SOL    HW126258   0.167   2.071  13.588 -0.7978  1.1857  2.1031
 4874SOL    HW226259   0.026   2.134  13.600  0.3920 -0.4017  1.1809
 4875SOL     OW26260   2.271   0.337  15.578  0.0113  0.3925 -0.1663
 4875SOL    HW126261   2.186   0.328  15.535  0.7727 -0.1045 -1.5739
 4875SOL    HW226262   2.255   0.278  15.652  0.6534 -0.6038 -0.8259
 4876SOL     OW26263   0.457   2.217   6.687  0.2520 -0.5911  0.4314
 4876SOL    HW126264   0.450   2.271   6.767  1.0514  0.2004 -0.0418
 4876SOL    HW226265   0.368   2.214   6.651  0.0890  2.3638  0.5366
 4877SOL     OW26266   1.752   4.365   8.253 -0.5023 -0.3586 -0.4039
 4877SOL    HW126267   1.708   4.432   8.199  0.6114 -0.0772 -0.9782
 4877SOL    HW226268   1.697   4.289   8.270 -1.0319  0.2440  0.6051
 4878SOL     OW26269   1.228   3.579   4.541  0.1782 -0.2293 -0.0533
 4878SOL    HW126270   1.262   3.652   4.490 -2.3574  1.8077  1.1557
 4878SOL    HW226271   1.249   3.617   4.627  0.1000  0.3657 -0.3005
 4879SOL     OW26272   2.712   4.026  17.113 -0.9318 -0.1783 -0.0589
 4879SOL    HW126273   2.718   4.122  17.122  1.3748 -0.1857 -1.6770
 4879SOL    HW226274   2.796   3.996  17.146 -1.2057  0.0825  0.8928
 4880SOL     OW26275   4.066   3.456   7.474 -0.5455 -0.1017 -0.6053
 4880SOL    HW126276   4.039   3.534   7.523  0.9337 -0.0555  0.1154
 4880SOL    HW226277   3.979   3.420   7.454 -0.8740  0.9414 -1.0756
 4881SOL     OW26278   4.228   3.067   6.511  0.0402  0.2488  0.2427
 4881SOL    HW126279   4.156   3.007   6.493 -0.2043 -0.1657  2.6243
 4881SOL    HW226280   4.295   3.045   6.447 -0.7025  1.3625 -0.9401
 4882SOL     OW26281   3.284   0.724   2.427  0.4195  0.1215  0.2813
 4882SOL    HW126282   3.354   0.757   2.371  0.4996 -1.8916 -0.8341
 4882SOL    HW226283   3.206   0.774   2.402 -0.0838 -0.0567  1.5038
 4883SOL     OW26284   0.418   3.823   3.748  0.0763  0.3181  0.4596
 4883SOL    HW126285   0.505   3.844   3.782  1.3598 -2.6452 -0.9632
 4883SOL    HW226286   0.357   3.874   3.801 -0.9074 -0.2737 -0.1119
 4884SOL     OW26287   3.664   2.877   2.682 -0.0213  0.2942 -0.3314
 4884SOL    HW126288   3.694   2.959   2.723 -1.1760  0.9745 -0.8561
 4884SOL    HW226289   3.650   2.819   2.757 -1.3980  0.4717 -0.4631
 4885SOL     OW26290   1.855   4.307   6.561  0.2057  0.3052 -0.0882
 4885SOL    HW126291   1.908   4.319   6.640 -1.3025  1.8660  0.6898
 4885SOL    HW226292   1.823   4.396   6.547  0.2629 -0.0645 -2.5612
 4886SOL     OW26293   1.361   1.909   4.366 -0.6570 -0.3532 -0.0044
 4886SOL    HW126294   1.455   1.907   4.349 -0.8875  1.3061 -1.4223
 4886SOL    HW226295   1.359   1.984   4.426  1.6316  0.6671 -1.2263
 4887SOL     OW26296   2.311   2.489   6.966 -0.3407  0.2801 -0.5819
 4887SOL    HW126297   2.342   2.579   6.951  1.2166 -0.0090  0.9266
 4887SOL    HW226298   2.361   2.446   6.897 -0.7554  0.7820 -1.2008
 4888SOL     OW26299   0.976   0.780   9.829  0.0505 -0.5895  0.2574
 4888SOL    HW126300   0.891   0.754   9.792 -0.5249 -0.0879  1.2212
 4888SOL    HW226301   0.970   0.876   9.823 -0.4849 -0.7945 -2.8877
 4889SOL     OW26302   3.683   4.026   4.291  0.4937 -0.5418 -0.7948
 4889SOL    HW126303   3.597   4.017   4.249  0.4234 -2.0386 -0.3287
 4889SOL    HW226304   3.666   3.994   4.380 -2.0166  0.8598 -0.7575
 4890SOL     OW26305   0.078   2.005   3.629  0.2483 -0.1522  0.2569
 4890SOL    HW126306   0.120   2.042   3.552 -0.9310 -1.4216 -1.0101
 4890SOL    HW226307   0.032   1.933   3.586 -1.4672  1.1363 -0.0899
 4891SOL     OW26308   0.522   0.431   2.833  0.3718  0.9083 -0.0608
 4891SOL    HW126309   0.438   0.387   2.842  0.6669  0.3416 -0.1281
 4891SOL    HW226310   0.505   0.524   2.850 -1.4570  0.3778  1.0438
 4892SOL     OW26311   3.469   3.258  11.359  0.0891 -0.0244 -0.0865
 4892SOL    HW126312   3.386   3.300  11.338  0.6200 -0.4791 -3.1226
 4892SOL    HW226313   3.458   3.181  11.303 -0.0868 -1.7229  2.2944
 4893SOL     OW26314   3.421   4.687  14.885 -0.1137 -0.3990  0.0580
 4893SOL    HW126315   3.456   4.704  14.798 -0.4704  1.3213  0.2461
 4893SOL    HW226316   3.354   0.015  14.900 -0.3032 -0.4629 -0.5047
 4894SOL     OW26317   2.772   4.503   7.129 -0.0299 -0.1632 -0.8324
 4894SOL    HW126318   2.694   4.527   7.078  0.1916  0.9377 -0.6548
 4894SOL    HW226319   2.748   4.420   7.171  0.5205 -0.3184 -0.8270
 4895SOL     OW26320   3.448   4.030  12.231 -0.5760  0.1699  0.1185
 4895SOL    HW126321   3.468   4.083  12.154 -0.3135  1.6497  1.2010
 4895SOL    HW226322   3.461   4.096  12.300 -0.1242 -1.7364  1.8591
 4896SOL     OW26323   1.679   4.162   7.823  0.4876  0.2312 -0.6971
 4896SOL    HW126324   1.739   4.125   7.759  1.4927  1.6862 -0.5818
 4896SOL    HW226325   1.640   4.083   7.861  0.0969  0.7969  0.1128
 4897SOL     OW26326   0.625   0.177   8.520  0.2727  0.0167  0.0287
 4897SOL    HW126327   0.540   0.137   8.539  0.2322  0.0591 -0.0654
 4897SOL    HW226328   0.645   0.133   8.437 -0.1823  0.1536 -0.1562
 4898SOL     OW26329   0.722   3.328   7.719  0.1775 -0.0608 -0.1607
 4898SOL    HW126330   0.765   3.336   7.804  1.0216 -0.8974 -0.4971
 4898SOL    HW226331   0.756   3.241   7.696  1.7031  0.6867 -0.7456
 4899SOL     OW26332   3.573   1.747   4.540  0.4148  0.4935  0.5768
 4899SOL    HW126333   3.504   1.804   4.575  0.8509  1.4069 -0.0645
 4899SOL    HW226334   3.521   1.707   4.470 -0.6113 -0.0337  1.6365
 4900SOL     OW26335   3.846   0.826  16.211  0.3031 -0.0044 -0.0609
 4900SOL    HW126336   3.823   0.913  16.177 -1.4490  0.2426  1.7769
 4900SOL    HW226337   3.939   0.812  16.193  0.6717  1.4310  0.7266
 4901SOL     OW26338   4.399   0.425   1.585 -0.5584  0.6515  0.2217
 4901SOL    HW126339   4.388   0.330   1.587  0.4976  0.6198  3.5005
 4901SOL    HW226340   4.437   0.451   1.669  1.8669  0.0658 -0.6779
 4902SOL     OW26341   2.177   0.621   4.091 -0.1927  0.2533 -0.4025
 4902SOL    HW126342   2.196   0.531   4.119 -1.2725 -0.8321 -3.1354
 4902SOL    HW226343   2.200   0.610   3.999  1.2979  2.2775 -0.2809
 4903SOL     OW26344   1.945   1.385  10.890 -0.2303 -0.4467 -0.3099
 4903SOL    HW126345   1.979   1.433  10.966 -0.6474  0.0056 -0.4076
 4903SOL    HW226346   1.865   1.349  10.927 -0.5734  0.1640 -0.4493
 4904SOL     OW26347   3.976   1.500   7.271 -0.0205 -0.0665 -0.2065
 4904SOL    HW126348   4.003   1.582   7.313 -0.9257 -0.1434  0.5296
 4904SOL    HW226349   4.055   1.448   7.268  0.3767  0.6961 -2.4158
 4905SOL     OW26350   2.009   3.009   9.787  0.6283  0.1654 -0.0539
 4905SOL    HW126351   1.984   2.990   9.697 -1.2501 -1.7852  0.8768
 4905SOL    HW226352   2.035   3.101   9.792 -0.3634  0.5195 -1.6593
 4906SOL     OW26353   3.927   3.856  10.861  0.3002 -0.1257  0.0731
 4906SOL    HW126354   3.980   3.934  10.879 -0.7790  0.4861  0.6434
 4906SOL    HW226355   3.888   3.890  10.781 -1.0137 -1.2449  0.2305
 4907SOL     OW26356   1.214   3.679  11.317  0.5105  0.1480 -0.2178
 4907SOL    HW126357   1.125   3.714  11.309  0.9793  1.8161  1.7998
 4907SOL    HW226358   1.229   3.699  11.410 -1.1818  1.7371 -0.2880
 4908SOL     OW26359   1.839   0.745   7.750  0.1760  0.2622 -0.7947
 4908SOL    HW126360   1.912   0.764   7.690 -0.1064  0.9377 -0.9246
 4908SOL    HW226361   1.758   0.764   7.703  0.6153  0.0803 -1.6248
 4909SOL     OW26362   0.363   3.303   9.663 -0.1262  0.0133  0.4276
 4909SOL    HW126363   0.429   3.328   9.598 -0.2825  1.7740  0.9714
 4909SOL    HW226364   0.313   3.236   9.616 -0.8436 -0.2647  1.6122
 4910SOL     OW26365   3.471   2.846   3.803  0.5806  0.5959 -0.1925
 4910SOL    HW126366   3.489   2.880   3.716  0.2432  0.9041 -0.1410
 4910SOL    HW226367   3.377   2.861   3.807  0.6407 -0.0263  4.3307
 4911SOL     OW26368   1.103   1.474   4.609  0.1846  0.2796  0.0591
 4911SOL    HW126369   1.163   1.500   4.539 -2.0055  3.1535 -0.7639
 4911SOL    HW226370   1.028   1.473   4.549 -0.8674 -0.0408  1.3641
 4912SOL     OW26371   4.657   1.946   1.510  0.6044 -0.1947 -0.6040
 4912SOL    HW126372   4.717   1.875   1.487  1.3791  0.8791 -1.9181
 4912SOL    HW226373   4.707   1.996   1.574 -1.6131  1.0524  0.1416
 4913SOL     OW26374   1.061   1.384   9.927 -0.4783 -0.0226 -0.3766
 4913SOL    HW126375   1.156   1.386   9.944 -0.6402 -1.4573  0.6959
 4913SOL    HW226376   1.038   1.473   9.955 -0.4811 -0.5369  1.2355
 4914SOL     OW26377   2.270   0.645  15.725  0.3211  0.4515  0.3583
 4914SOL    HW126378   2.262   0.697  15.805  1.8892 -0.5362  1.1549
 4914SOL    HW226379   2.364   0.642  15.710  0.2743 -0.5427  0.2658
 4915SOL     OW26380   1.501   2.149   2.479 -0.6017 -0.1789 -0.1644
 4915SOL    HW126381   1.569   2.216   2.467  1.0635 -1.8465  0.0587
 4915SOL    HW226382   1.490   2.118   2.390 -0.7510 -0.2277 -0.1295
 4916SOL     OW26383   1.966   0.760   4.510 -0.2782  0.2120 -0.1578
 4916SOL    HW126384   1.978   0.666   4.527  1.8812  0.5954  0.4758
 4916SOL    HW226385   2.011   0.775   4.427 -1.8614  1.5218 -0.7777
 4917SOL     OW26386   1.369   1.131   6.301 -0.3343 -0.0942  0.1349
 4917SOL    HW126387   1.319   1.149   6.381  1.4882  0.5474  1.1184
 4917SOL    HW226388   1.381   1.037   6.313  0.9444 -0.0036 -0.4659
 4918SOL     OW26389   0.500   2.548   6.151 -0.3965  0.0193 -0.2137
 4918SOL    HW126390   0.508   2.505   6.236 -1.3485 -0.3479 -0.3096
 4918SOL    HW226391   0.584   2.588   6.129 -1.0183  1.4014 -0.1075
 4919SOL     OW26392   1.157   2.617   4.280  0.2781 -0.7015 -0.1294
 4919SOL    HW126393   1.200   2.553   4.336 -0.3223 -0.5158  0.5375
 4919SOL    HW226394   1.137   2.566   4.201 -2.4053 -2.9181  1.9743
 4920SOL     OW26395   0.844   2.650  13.043 -0.3197  0.2738 -0.2750
 4920SOL    HW126396   0.846   2.711  13.116 -0.8435 -1.4546  1.1864
 4920SOL    HW226397   0.788   2.582  13.081 -1.0066  0.3998 -1.0496
 4921SOL     OW26398   3.898   1.432  16.766 -0.5270 -0.6262 -0.4810
 4921SOL    HW126399   3.842   1.497  16.808  1.9801  0.3146  1.3213
 4921SOL    HW226400   3.857   1.346  16.779  2.3675 -1.8597  0.4195
 4922SOL     OW26401   0.265   0.364   1.884  0.1705 -0.4053 -0.3344
 4922SOL    HW126402   0.191   0.425   1.888 -0.2447 -1.0528  1.7539
 4922SOL    HW226403   0.243   0.302   1.953  1.2173 -1.8738 -1.3296
 4923SOL     OW26404   1.679   2.486   2.785 -0.3915 -0.0205  0.3305
 4923SOL    HW126405   1.652   2.535   2.707  0.5985 -1.3846 -0.8925
 4923SOL    HW226406   1.601   2.436   2.810 -0.1470 -0.8592 -0.5616
 4924SOL     OW26407   2.118   2.439   9.623 -0.3171  0.0735  0.1278
 4924SOL    HW126408   2.127   2.496   9.547 -1.7900  1.2258  0.8208
 4924SOL    HW226409   2.197   2.386   9.609 -1.0093 -1.0238  0.3170
 4925SOL     OW26410   3.773   0.750   8.283  0.3380 -0.0493  0.4030
 4925SOL    HW126411   3.778   0.784   8.193 -0.8132 -2.3749 -0.5309
 4925SOL    HW226412   3.711   0.813   8.319  0.7110 -0.5939  1.9637
 4926SOL     OW26413   0.401   1.134   4.515  0.0368  0.6087 -0.6753
 4926SOL    HW126414   0.419   1.205   4.577 -2.2050  0.2962  0.3322
 4926SOL    HW226415   0.444   1.173   4.439 -0.6681 -1.4247 -2.1104
 4927SOL     OW26416   0.941   0.534   5.708 -0.4219 -0.3947  1.0850
 4927SOL    HW126417   0.913   0.443   5.718 -2.1524 -0.0414 -0.6149
 4927SOL    HW226418   0.917   0.544   5.616  0.3434  0.4252  0.9699
 4928SOL     OW26419   2.269   1.294   2.539 -0.6464 -0.0557  0.4173
 4928SOL    HW126420   2.288   1.201   2.552  0.1003 -0.0375 -0.5155
 4928SOL    HW226421   2.240   1.286   2.448 -0.3276  3.4876 -0.0036
 4929SOL     OW26422   0.157   4.452  13.440  0.0485  0.1471 -0.2933
 4929SOL    HW126423   0.189   4.511  13.372  1.0614 -0.9822 -0.7931
 4929SOL    HW226424   0.213   4.375  13.429 -1.8071 -1.4829  1.6685
 4930SOL     OW26425   3.627   4.529   0.022 -0.3024  0.1226 -0.2206
 4930SOL    HW126426   3.651   4.533   0.115 -0.3089  0.7055 -0.2474
 4930SOL    HW226427   3.629   4.434   0.008  0.0227  0.2081 -0.7449
 4931SOL     OW26428   1.492   0.318   5.004 -0.5585 -0.5841 -0.4061
 4931SOL    HW126429   1.520   0.248   5.064  1.7398  0.5754 -0.1109
 4931SOL    HW226430   1.529   0.289   4.921 -1.7957 -1.6983 -0.5617
 4932SOL     OW26431   1.776   3.321  16.280 -0.1734 -0.1960  0.1388
 4932SOL    HW126432   1.701   3.378  16.261  0.4921  0.8967  0.7491
 4932SOL    HW226433   1.851   3.377  16.300  0.2646 -1.5515  2.2754
 4933SOL     OW26434   2.383   1.703   7.692  0.1835 -0.1547 -0.5813
 4933SOL    HW126435   2.364   1.614   7.663 -1.7195 -0.4127  1.5068
 4933SOL    HW226436   2.440   1.693   7.768 -0.2008 -2.5205 -0.6052
 4934SOL     OW26437   1.750   1.833   5.499 -0.3880  0.7053 -0.0904
 4934SOL    HW126438   1.717   1.907   5.549 -2.7157 -0.3212 -0.1275
 4934SOL    HW226439   1.690   1.820   5.426 -0.5701  0.8002  0.0429
 4935SOL     OW26440   4.118   4.510   7.152  0.3230  0.1011 -0.1312
 4935SOL    HW126441   4.180   4.464   7.209 -1.5042  1.2388  2.7679
 4935SOL    HW226442   4.067   4.560   7.215  1.4941  3.1285 -1.6122
 4936SOL     OW26443   3.120   1.412   4.822  0.3903  0.0390  0.0857
 4936SOL    HW126444   3.205   1.456   4.813 -0.5965  1.5282 -1.8376
 4936SOL    HW226445   3.102   1.418   4.916 -0.0715 -1.1656  0.0699
 4937SOL     OW26446   4.019   1.794  15.805 -0.3172  0.0948 -0.4849
 4937SOL    HW126447   4.007   1.844  15.886 -2.6040  0.2189 -0.8834
 4937SOL    HW226448   4.043   1.715  15.853  3.0561  0.4973 -1.5768
 4938SOL     OW26449   3.656   1.034   6.640  0.0292 -0.5764  0.4068
 4938SOL    HW126450   3.586   1.090   6.606 -0.8725 -1.8851  0.0931
 4938SOL    HW226451   3.726   1.038   6.575 -2.0814 -1.9402 -1.9409
 4939SOL     OW26452   1.278   3.439   0.548 -0.5701 -0.0379  0.2599
 4939SOL    HW126453   1.186   3.449   0.522  0.0730 -1.4146 -2.4550
 4939SOL    HW226454   1.316   3.511   0.498  1.2177 -0.5701  0.8491
 4940SOL     OW26455   0.135   1.209   4.478  0.0406 -0.2645 -0.2722
 4940SOL    HW126456   0.094   1.148   4.417  1.0498 -1.0082 -0.2040
 4940SOL    HW226457   0.224   1.178   4.492 -0.6564 -2.4228 -0.5886
 4941SOL     OW26458   4.601   2.962  16.589 -0.3232  0.6127 -0.0676
 4941SOL    HW126459   4.571   3.051  16.571  0.8589  0.6939 -1.6188
 4941SOL    HW226460   4.608   2.952  16.684 -1.2156 -2.5916 -0.3466
 4942SOL     OW26461   0.866   0.956   1.995  1.0125  0.1783  0.2795
 4942SOL    HW126462   0.772   0.940   1.991  1.1271 -1.0429  2.0701
 4942SOL    HW226463   0.889   0.985   1.907  1.3487 -0.5408  0.1287
 4943SOL     OW26464   3.068   4.427  11.078 -0.7056  0.1382  0.0335
 4943SOL    HW126465   2.987   4.381  11.101 -0.7178  0.5516  0.8295
 4943SOL    HW226466   3.109   4.439  11.164  1.0597  0.1552 -0.8160
 4944SOL     OW26467   1.935   0.348  12.647  0.2421 -0.4201  0.5206
 4944SOL    HW126468   1.947   0.433  12.690  1.6156  0.6122 -1.9280
 4944SOL    HW226469   1.989   0.363  12.569  1.5387 -2.4928  1.0235
 4945SOL     OW26470   1.593   1.559   2.725 -0.3931 -0.4536 -0.2515
 4945SOL    HW126471   1.595   1.635   2.667 -1.9529 -0.1182  0.1398
 4945SOL    HW226472   1.618   1.488   2.666  0.2675 -1.5810  1.4017
 4946SOL     OW26473   1.244   1.186  13.679  0.1959 -0.1968  0.1077
 4946SOL    HW126474   1.254   1.281  13.685  2.1060 -0.2915 -1.6016
 4946SOL    HW226475   1.252   1.170  13.773  0.5821  1.2999  0.3309
 4947SOL     OW26476   2.083   1.468   0.651  0.6887 -0.1763  0.0300
 4947SOL    HW126477   2.070   1.424   0.567  0.5878 -0.1734  0.0438
 4947SOL    HW226478   2.177   1.486   0.647  0.3927  1.0589 -1.3449
 4948SOL     OW26479   2.565   0.750  15.673  0.1631  0.2841  0.2591
 4948SOL    HW126480   2.543   0.662  15.701  0.8356  0.1968  0.5314
 4948SOL    HW226481   2.641   0.729  15.619  0.4774  0.2027  0.7281
 4949SOL     OW26482   4.094   4.700  10.206  0.0521  0.2252  0.5138
 4949SOL    HW126483   4.144   4.632  10.252  0.7037 -0.6168 -1.4642
 4949SOL    HW226484   4.155   4.694  10.133 -0.4575 -0.9809  0.1928
 4950SOL     OW26485   3.570   2.488   8.601 -0.1091  0.3887 -0.0150
 4950SOL    HW126486   3.650   2.446   8.631 -0.0628 -0.0956 -0.8380
 4950SOL    HW226487   3.608   2.526   8.522  1.4232  1.0683  1.0426
 4951SOL     OW26488   1.492   3.585   3.180 -0.1293 -0.5633 -0.5365
 4951SOL    HW126489   1.541   3.525   3.124  1.1691  1.6750 -1.7962
 4951SOL    HW226490   1.531   3.670   3.159  1.6547 -1.3582 -0.5160
 4952SOL     OW26491   0.054   2.416   5.549  0.1628  0.1318  0.6065
 4952SOL    HW126492   0.059   2.321   5.553  2.3719  0.1998 -0.5470
 4952SOL    HW226493   0.109   2.437   5.474  1.7107 -0.4236  1.5799
 4953SOL     OW26494   2.730   3.508   2.560 -0.5906 -0.2100 -0.0242
 4953SOL    HW126495   2.761   3.423   2.528  2.5602  1.1886 -0.7003
 4953SOL    HW226496   2.800   3.565   2.529 -1.7162  1.8128  1.1778
 4954SOL     OW26497   2.357   4.232  15.709 -0.2397 -0.1260 -0.4533
 4954SOL    HW126498   2.287   4.296  15.701 -0.9198 -0.9898 -1.3718
 4954SOL    HW226499   2.316   4.177  15.775 -1.5557 -0.3050 -1.4197
 4955SOL     OW26500   4.544   4.024   4.307 -0.1051  0.5031  1.1567
 4955SOL    HW126501   4.548   4.082   4.383  2.9420 -2.2623  3.1338
 4955SOL    HW226502   4.488   3.953   4.338  0.9425 -0.0989  1.6853
 4956SOL     OW26503   2.240   0.528   1.670  0.3176  0.4098 -0.0872
 4956SOL    HW126504   2.196   0.486   1.596 -1.5226  1.7928  0.2301
 4956SOL    HW226505   2.195   0.612   1.681 -0.0611  0.3051 -0.8273
 4957SOL     OW26506   4.707   0.290   1.781 -0.0724 -0.0540 -0.3872
 4957SOL    HW126507   4.641   0.300   1.850 -0.4503  2.1659 -1.0893
 4957SOL    HW226508   4.645   0.260   1.715  1.7792 -1.5483 -1.4183
 4958SOL     OW26509   4.693   2.403   1.867  0.0694 -0.4342  0.5512
 4958SOL    HW126510   4.707   2.464   1.940 -0.1274  0.6186 -0.2880
 4958SOL    HW226511   4.615   2.446   1.831  0.2986 -0.4224  0.0652
 4959SOL     OW26512   2.026   1.771   0.636  0.2736 -0.0606 -0.0481
 4959SOL    HW126513   2.038   1.676   0.639  2.1824  0.2122  0.8771
 4959SOL    HW226514   1.958   1.787   0.700  1.8204  1.3328  1.2353
 4960SOL     OW26515   1.558   1.548   4.591 -0.0601 -0.1911  0.2243
 4960SOL    HW126516   1.517   1.485   4.533  2.1293  0.2213 -1.7547
 4960SOL    HW226517   1.620   1.597   4.537 -0.2224  0.3076  0.4900
 4961SOL     OW26518   3.683   0.640   3.515  0.2538 -0.2260  1.0854
 4961SOL    HW126519   3.702   0.558   3.468 -1.0170 -0.4618  0.9848
 4961SOL    HW226520   3.654   0.702   3.447  0.5417 -2.9116 -1.5070
 4962SOL     OW26521   2.090   0.484   0.360 -0.6661  0.1077 -0.5587
 4962SOL    HW126522   2.064   0.534   0.283 -1.8467  1.5015  0.7268
 4962SOL    HW226523   2.131   0.406   0.325 -1.6851 -0.6123 -0.1406
 4963SOL     OW26524   2.938   3.727  13.060 -0.1265  0.6533 -0.2453
 4963SOL    HW126525   2.896   3.676  13.129  1.9864 -0.4134  0.2324
 4963SOL    HW226526   2.861   3.776  13.029 -0.0285 -0.2178 -1.8793
 4964SOL     OW26527   0.821   1.316   4.855  0.4293  0.0313  0.0514
 4964SOL    HW126528   0.811   1.234   4.807  0.5705 -0.4105  0.7938
 4964SOL    HW226529   0.820   1.375   4.779  1.7379  0.0025  0.0130
 4965SOL     OW26530   4.606   3.388   4.216 -0.5073  0.3144 -0.3420
 4965SOL    HW126531   4.672   3.456   4.205 -3.2082  2.8641 -0.8107
 4965SOL    HW226532   4.546   3.435   4.274  0.0916  0.7853 -0.1035
 4966SOL     OW26533   2.851   2.799   1.327  0.3951 -0.1290 -0.0235
 4966SOL    HW126534   2.799   2.859   1.380  0.4765  0.7215 -0.9081
 4966SOL    HW226535   2.938   2.806   1.367  0.1255 -1.4784  0.8315
 4967SOL     OW26536   4.327   1.679   4.446 -0.0438  0.3764 -0.3559
 4967SOL    HW126537   4.420   1.670   4.427  0.0990  1.1547 -0.0040
 4967SOL    HW226538   4.307   1.756   4.498  2.4197 -1.7771  3.7615
 4968SOL     OW26539   3.152   4.420  10.686 -0.2286 -0.2451  0.5600
 4968SOL    HW126540   3.189   4.426  10.598 -1.2534 -1.2419  0.0691
 4968SOL    HW226541   3.173   4.330  10.710  0.4295  0.4456  2.6568
 4969SOL     OW26542   2.194   4.229   4.359 -0.7186  0.2450 -0.9032
 4969SOL    HW126543   2.147   4.261   4.437  0.1840 -1.5083  0.3634
 4969SOL    HW226544   2.145   4.149   4.338 -1.5123  0.6130 -0.4655
 4970SOL     OW26545   2.488   1.316   8.366 -0.1358  0.0972 -0.0235
 4970SOL    HW126546   2.488   1.285   8.276  0.3079 -1.1718  0.4230
 4970SOL    HW226547   2.582   1.307   8.381 -0.0958 -0.8295 -0.8506
 4971SOL     OW26548   2.038   4.295   9.221  0.5822 -0.3065 -0.7096
 4971SOL    HW126549   2.130   4.288   9.245  0.3752  1.6879  0.6908
 4971SOL    HW226550   2.000   4.209   9.240 -0.2026 -0.2432 -1.9759
 4972SOL     OW26551   0.519   0.230  14.054  0.5675 -0.6323 -0.4342
 4972SOL    HW126552   0.472   0.150  14.077  0.2155 -0.7935 -1.7039
 4972SOL    HW226553   0.575   0.244  14.130 -1.7571 -1.1672  1.3924
 4973SOL     OW26554   4.059   4.728   7.823  0.1575 -0.4213  0.6893
 4973SOL    HW126555   3.978   4.695   7.862 -0.7877 -2.0900 -2.5897
 4973SOL    HW226556   4.130   4.692   7.875  0.1397 -2.3930 -0.6138
 4974SOL     OW26557   0.266   0.446   9.047 -0.0127  0.5659 -0.7213
 4974SOL    HW126558   0.317   0.497   8.984  1.1033  0.0073 -0.2696
 4974SOL    HW226559   0.334   0.424   9.110 -0.9925  0.9150  0.4479
 4975SOL     OW26560   4.075   1.388   1.957 -0.2807  0.3145  0.0637
 4975SOL    HW126561   4.065   1.293   1.972  0.2816  0.2219 -0.1665
 4975SOL    HW226562   4.010   1.409   1.890 -0.2586 -1.3989 -0.4967
 4976SOL     OW26563   2.912   4.688   7.848 -0.1775 -0.4907 -0.2348
 4976SOL    HW126564   2.881   0.024   7.797  0.7175 -0.1002 -0.2034
 4976SOL    HW226565   2.955   4.739   7.917 -1.6158 -1.1502  1.1394
 4977SOL     OW26566   2.037   3.919   3.300 -0.0261  0.3420  0.1135
 4977SOL    HW126567   2.026   3.870   3.218 -0.3081  0.4999  0.0593
 4977SOL    HW226568   2.132   3.927   3.302 -0.0757  0.7092  1.0705
 4978SOL     OW26569   1.551   0.225   7.246 -0.1507  0.1269 -0.8028
 4978SOL    HW126570   1.476   0.168   7.262 -0.3869  0.9204  0.8875
 4978SOL    HW226571   1.525   0.305   7.292 -1.1696 -0.9179  0.4191
 4979SOL     OW26572   0.391   3.407   3.681 -0.0436  0.1068 -0.2712
 4979SOL    HW126573   0.409   3.489   3.636  0.1992 -0.5770 -1.4093
 4979SOL    HW226574   0.350   3.435   3.763  1.1290  0.2737  0.2606
 4980SOL     OW26575   4.499   0.610   4.047  0.0472  0.1351 -0.0591
 4980SOL    HW126576   4.408   0.587   4.027  0.0437 -0.2059  0.3390
 4980SOL    HW226577   4.497   0.698   4.083 -0.7950 -0.5658  1.6352
 4981SOL     OW26578   1.065   0.632   8.643 -0.2811 -0.2208 -0.3526
 4981SOL    HW126579   1.104   0.545   8.654 -1.2672 -0.4868  1.0233
 4981SOL    HW226580   1.019   0.645   8.726  0.9692 -0.5715  0.3859
 4982SOL     OW26581   1.863   0.315  17.442  0.7489 -0.8467  0.2374
 4982SOL    HW126582   1.791   0.356  17.490 -0.9810 -1.9297 -1.4145
 4982SOL    HW226583   1.904   0.270  17.516 -0.1283 -1.1188  0.5649
 4983SOL     OW26584   0.193   0.896   6.810  0.0523  0.8252  0.3751
 4983SOL    HW126585   0.246   0.925   6.885 -0.7591  0.2201  1.1759
 4983SOL    HW226586   0.110   0.873   6.851  0.5149 -0.8481  0.3511
 4984SOL     OW26587   3.573   4.556  17.498 -0.3293 -0.0523  0.1906
 4984SOL    HW126588   3.594   4.534  17.588  2.8026 -0.5082 -0.6515
 4984SOL    HW226589   3.619   4.640  17.495 -0.6249 -0.0149 -3.6946
 4985SOL     OW26590   0.572   4.519   9.820 -0.3296 -0.5387  0.0598
 4985SOL    HW126591   0.626   4.589   9.785 -1.0193 -0.1248 -0.1752
 4985SOL    HW226592   0.581   4.534   9.914  0.5087  1.8460 -0.3991
 4986SOL     OW26593   2.902   1.073   0.002  0.7087 -0.2206 -0.3594
 4986SOL    HW126594   2.815   1.077  17.716  0.6498 -0.3057 -0.2411
 4986SOL    HW226595   2.888   1.009   0.071  2.1623 -1.4124 -1.1738
 4987SOL     OW26596   3.804   1.093   8.521 -0.2612  0.5954  0.3572
 4987SOL    HW126597   3.758   1.058   8.598 -1.3423  0.0552 -0.5259
 4987SOL    HW226598   3.773   1.183   8.523 -0.3467  0.5686  0.2513
 4988SOL     OW26599   4.487   3.136  14.821 -0.4913 -0.1261 -0.2480
 4988SOL    HW126600   4.530   3.151  14.737  0.5615 -2.7328 -0.1755
 4988SOL    HW226601   4.419   3.203  14.827 -2.8679 -2.8084  2.7803
 4989SOL     OW26602   1.738   2.538   0.271 -0.0776 -0.3439 -0.0978
 4989SOL    HW126603   1.731   2.443   0.261 -0.8135 -0.3814  0.7746
 4989SOL    HW226604   1.796   2.546   0.347  1.6465 -2.0665 -1.2440
 4990SOL     OW26605   3.857   1.015   2.118  0.5181 -0.2591  0.0397
 4990SOL    HW126606   3.837   0.924   2.099  0.1104 -0.4494  1.4335
 4990SOL    HW226607   3.768   1.045   2.137  0.7210  0.1449  0.3627
 4991SOL     OW26608   1.151   4.120   2.275  0.5232 -0.1071 -0.2478
 4991SOL    HW126609   1.128   4.027   2.265 -0.8968  0.2474 -0.2036
 4991SOL    HW226610   1.160   4.130   2.369 -0.1121  3.3244 -0.5622
 4992SOL     OW26611   4.660   1.856   6.863 -0.0231  0.0175 -0.9019
 4992SOL    HW126612   4.738   1.807   6.838  2.2667  2.3283  1.6050
 4992SOL    HW226613   4.615   1.797   6.923  1.3181  0.2470  0.3409
 4993SOL     OW26614   3.619   4.736   2.961  0.1021  0.1081  0.5007
 4993SOL    HW126615   3.591   0.083   2.929  0.1150  0.7437  2.1879
 4993SOL    HW226616   3.712   0.014   2.973  0.6620  0.3670 -3.9802
 4994SOL     OW26617   4.477   2.564   1.872  0.3942  0.5033  0.2471
 4994SOL    HW126618   4.410   2.533   1.934 -1.1108 -0.1906 -1.7353
 4994SOL    HW226619   4.427   2.567   1.791 -0.4881 -1.3880  0.7223
 4995SOL     OW26620   3.594   1.038   2.136  0.3907  0.1493 -0.6294
 4995SOL    HW126621   3.553   0.951   2.128 -0.0401  0.2628  0.3450
 4995SOL    HW226622   3.540   1.083   2.201  0.0805  0.1777 -0.9074
 4996SOL     OW26623   4.714   1.542   5.227 -0.4174  0.3345  0.3997
 4996SOL    HW126624   4.688   1.450   5.229 -1.5371  0.6384 -0.1042
 4996SOL    HW226625   4.691   1.576   5.141  0.1272  0.1432  0.1811
 4997SOL     OW26626   2.971   1.134  11.251  1.0075 -0.5057  0.3228
 4997SOL    HW126627   2.983   1.227  11.231  1.1572 -0.8373 -1.1336
 4997SOL    HW226628   2.986   1.136  11.345  1.1245 -0.0987  0.2969
 4998SOL     OW26629   2.292   1.783   1.926 -0.1564 -0.0609  0.1725
 4998SOL    HW126630   2.382   1.752   1.914  0.0922 -0.6086  3.4356
 4998SOL    HW226631   2.270   1.808   1.836 -1.8513 -1.3113  0.2432
 4999SOL     OW26632   4.680   4.002   6.141  0.3054  0.1446 -0.3932
 4999SOL    HW126633   4.631   3.987   6.223  2.3390  1.2017  1.0132
 4999SOL    HW226634   4.739   4.076   6.156 -0.3544  0.4007  0.9802
 5000SOL     OW26635   2.311   0.486   3.456 -0.3338 -0.2873  0.5873
 5000SOL    HW126636   2.297   0.395   3.428 -1.3720 -0.3343  1.2789
 5000SOL    HW226637   2.227   0.528   3.473 -0.4498  0.0415 -0.8553
 5001SOL     OW26638   0.462   1.823   4.728  0.2773 -0.4151 -0.3604
 5001SOL    HW126639   0.487   1.878   4.803 -0.8560  1.1020 -1.0971
 5001SOL    HW226640   0.444   1.741   4.775 -0.5889 -0.2050 -0.3271
 5002SOL     OW26641   4.477   2.274   8.299 -0.5684  0.7409  0.5718
 5002SOL    HW126642   4.463   2.197   8.354  2.8830  0.0272  0.4648
 5002SOL    HW226643   4.571   2.268   8.281 -0.2633  0.0649  2.3450
 5003SOL     OW26644   3.489   1.688   3.281  0.7706  0.1869  0.6332
 5003SOL    HW126645   3.517   1.597   3.270 -0.1489  0.2304 -2.0775
 5003SOL    HW226646   3.544   1.745   3.228 -0.9151  0.1700 -1.1369
 5004SOL     OW26647   3.671   3.900   8.055  0.0260 -0.0453 -0.1160
 5004SOL    HW126648   3.640   3.809   8.054 -1.6735  0.5552 -1.1834
 5004SOL    HW226649   3.609   3.937   8.118 -0.4698  2.3892 -2.0253
 5005SOL     OW26650   1.697   1.135   8.332  0.3665 -0.0304 -1.0267
 5005SOL    HW126651   1.677   1.049   8.294 -0.3502  0.5104 -1.8566
 5005SOL    HW226652   1.778   1.147   8.283  1.4581 -1.9521  0.2721
 5006SOL     OW26653   0.321   1.860   6.589  0.3795 -0.4202 -0.4337
 5006SOL    HW126654   0.416   1.852   6.588  0.5519  1.7555 -0.7288
 5006SOL    HW226655   0.302   1.817   6.673  1.4033 -0.6594 -0.3225
 5007SOL     OW26656   4.564   1.598   2.646  0.1417  0.3154  0.4618
 5007SOL    HW126657   4.529   1.630   2.563 -0.1859 -0.2035  0.3973
 5007SOL    HW226658   4.488   1.606   2.704 -0.1441 -0.0568  0.1396
 5008SOL     OW26659   3.804   3.763   5.946  0.6497  0.5378 -0.0836
 5008SOL    HW126660   3.751   3.803   5.877  1.2036  1.1205 -0.1718
 5008SOL    HW226661   3.826   3.679   5.906  0.2583  0.7288 -0.6960
 5009SOL     OW26662   3.643   2.092   8.759 -0.0451 -0.1569  0.1693
 5009SOL    HW126663   3.552   2.120   8.750  0.4789  1.6012  0.3711
 5009SOL    HW226664   3.638   2.053   8.846 -0.5891 -2.2862 -0.8033
 5010SOL     OW26665   0.157   0.651   6.638  0.4311  0.3614 -0.5881
 5010SOL    HW126666   0.248   0.622   6.638  0.3442  0.1038  0.4072
 5010SOL    HW226667   0.164   0.729   6.693 -1.8069 -0.5346  0.9847
 5011SOL     OW26668   2.032   4.677   8.832 -0.4905 -0.3141 -0.5033
 5011SOL    HW126669   1.976   4.600   8.820  0.8377 -1.2393 -0.7737
 5011SOL    HW226670   2.104   4.643   8.778 -0.4515  2.5541 -2.2746
 5012SOL     OW26671   0.437   1.616   0.817  0.0313 -0.5783 -0.1398
 5012SOL    HW126672   0.362   1.653   0.771  0.4064 -2.9840 -2.6456
 5012SOL    HW226673   0.493   1.694   0.817 -0.8062  0.0147 -0.6680
 5013SOL     OW26674   0.146   0.268   9.896 -0.1015  0.5829 -0.1338
 5013SOL    HW126675   0.173   0.329   9.964 -0.1056  0.7891 -0.3187
 5013SOL    HW226676   0.155   0.194   9.956 -0.4468 -0.3524 -1.2368
 5014SOL     OW26677   1.176   1.173   6.495 -0.0501 -0.1983  0.2635
 5014SOL    HW126678   1.099   1.179   6.439  0.9119  0.1501 -1.0242
 5014SOL    HW226679   1.164   1.083   6.527 -1.5578 -0.0288  0.1723
 5015SOL     OW26680   4.689   1.829   6.300 -0.4687 -0.3678 -0.0431
 5015SOL    HW126681   4.672   1.918   6.269 -1.3720 -0.0430  1.4089
 5015SOL    HW226682   4.702   1.791   6.213 -1.6844  1.9298 -1.2494
 5016SOL     OW26683   2.904   0.730   5.780 -0.2446 -0.2637 -0.0669
 5016SOL    HW126684   2.995   0.700   5.769 -0.1223  0.1150 -0.0916
 5016SOL    HW226685   2.866   0.666   5.719 -1.8981  4.1783 -3.7693
 5017SOL     OW26686   4.720   1.072   9.058  0.4425  0.2414  0.0905
 5017SOL    HW126687   0.053   1.016   9.029 -0.2946 -0.6121 -0.1187
 5017SOL    HW226688   4.677   1.095   8.975  0.4206 -1.4567 -0.3820
 5018SOL     OW26689   1.341   1.692   4.733  0.4147  0.6705  0.5040
 5018SOL    HW126690   1.404   1.638   4.684  1.1110  1.3884  0.6151
 5018SOL    HW226691   1.336   1.657   4.821 -1.7487 -0.5561 -0.1069
 5019SOL     OW26692   2.993   0.893  13.827  0.3615  0.0323 -0.0190
 5019SOL    HW126693   2.942   0.881  13.907  1.8363  1.6962  1.1838
 5019SOL    HW226694   2.963   0.978  13.793  0.5598  0.1023 -0.0242
 5020SOL     OW26695   4.644   0.497   1.103  0.2618 -0.8185  0.3209
 5020SOL    HW126696   4.685   0.424   1.149 -2.1686 -0.9586  2.2737
 5020SOL    HW226697   4.569   0.523   1.157  0.6337  0.5411  0.1802
 5021SOL     OW26698   1.980   2.657   4.247  0.1154 -0.3503  0.0404
 5021SOL    HW126699   2.045   2.726   4.236 -0.9766  0.6285 -0.2454
 5021SOL    HW226700   1.914   2.705   4.197  0.8383 -0.1158 -0.6889
 5022SOL     OW26701   3.320   3.957   0.318 -0.3338  0.0638  0.1085
 5022SOL    HW126702   3.372   3.877   0.306  1.7481  1.3751  0.3013
 5022SOL    HW226703   3.256   3.956   0.248  0.0192 -0.3361 -0.2115
 5023SOL     OW26704   3.042   0.140   5.309 -0.1246  0.3442  0.3780
 5023SOL    HW126705   3.075   0.063   5.357 -1.0175  0.2261  0.8107
 5023SOL    HW226706   2.958   0.107   5.276 -0.1549 -1.0216  1.7890
 5024SOL     OW26707   3.355   4.200   1.294  0.1866 -0.2589 -0.7055
 5024SOL    HW126708   3.422   4.244   1.242 -0.0498  2.1329  1.0226
 5024SOL    HW226709   3.279   4.253   1.269  0.8025 -0.0057 -2.0491
 5025SOL     OW26710   3.886   2.175   7.643 -0.0968  0.7420 -0.0983
 5025SOL    HW126711   3.810   2.161   7.700 -0.6265  0.6376 -0.8266
 5025SOL    HW226712   3.948   2.120   7.692 -0.4564 -0.3434 -0.8691
 5026SOL     OW26713   2.705   3.827   4.969  0.5213 -0.1144  0.5468
 5026SOL    HW126714   2.695   3.792   4.881 -0.2881  0.1053  0.5584
 5026SOL    HW226715   2.775   3.775   5.009 -0.4114 -1.8130 -0.0713
 5027SOL     OW26716   4.163   4.063   4.181  0.5296  0.0744 -0.6349
 5027SOL    HW126717   4.074   4.093   4.161  0.4885  1.2484  1.3583
 5027SOL    HW226718   4.212   4.142   4.157 -0.1571  1.6583  3.1149
 5028SOL     OW26719   1.435   1.567   0.061 -0.1715  0.1771  0.8113
 5028SOL    HW126720   1.471   1.489   0.019  2.7243  1.7664  0.3513
 5028SOL    HW226721   1.518   1.610   0.085  0.3485 -1.3685  1.8038
 5029SOL     OW26722   1.617   3.284   8.610 -0.3949 -0.1022  0.1830
 5029SOL    HW126723   1.537   3.304   8.560 -0.2364  0.0373 -0.0139
 5029SOL    HW226724   1.641   3.211   8.554  1.7522 -0.2322  1.2761
 5030SOL     OW26725   3.495   3.784  11.976  0.4296 -0.6789 -0.4534
 5030SOL    HW126726   3.551   3.787  12.054 -1.9812  1.0247  1.2328
 5030SOL    HW226727   3.488   3.689  11.961  1.8576 -0.6060 -1.5645
 5031SOL     OW26728   3.556   3.212  13.697 -0.2558 -0.1145 -0.0987
 5031SOL    HW126729   3.621   3.282  13.686 -0.2886 -0.1551 -0.5570
 5031SOL    HW226730   3.469   3.249  13.683 -0.4234 -0.3837  0.2250
 5032SOL     OW26731   0.209   0.667   0.752  0.4193  0.1380 -0.0360
 5032SOL    HW126732   0.157   0.673   0.831 -0.7503 -0.5795 -0.7607
 5032SOL    HW226733   0.260   0.587   0.765  1.5281  0.4881 -2.1297
 5033SOL     OW26734   4.308   1.642   2.741  0.5397 -0.4401  0.0096
 5033SOL    HW126735   4.257   1.664   2.663  0.1811 -1.4500 -0.0322
 5033SOL    HW226736   4.238   1.656   2.804  0.9386  2.2800 -0.1409
 5034SOL     OW26737   4.315   1.657   9.307  0.0663  0.0553  0.5003
 5034SOL    HW126738   4.374   1.715   9.356 -0.1509  0.2743  0.5031
 5034SOL    HW226739   4.340   1.580   9.357  0.2155  1.0446  1.9586
 5035SOL     OW26740   4.599   2.482   8.643 -0.1144 -0.2671  0.0619
 5035SOL    HW126741   4.659   2.476   8.717 -1.5672 -1.2008  1.1582
 5035SOL    HW226742   4.640   2.557   8.598  0.6211 -0.4600  0.4105
 5036SOL     OW26743   0.511   2.301  13.310  0.2418 -0.4718 -0.0772
 5036SOL    HW126744   0.523   2.206  13.318 -0.5971 -0.4939  0.8171
 5036SOL    HW226745   0.422   2.316  13.341  1.4550  2.1265  2.0714
 5037SOL     OW26746   1.277   2.306   9.332  1.0425  0.2460  0.4708
 5037SOL    HW126747   1.314   2.299   9.244 -2.4689  0.7446 -1.0538
 5037SOL    HW226748   1.345   2.342   9.390 -0.0204 -0.3256  2.0801
 5038SOL     OW26749   1.336   3.967   7.555  0.4564 -0.3761  0.1463
 5038SOL    HW126750   1.421   3.926   7.538  0.3367  0.3270 -2.2200
 5038SOL    HW226751   1.314   3.933   7.642  1.0902 -1.9279 -0.3020
 5039SOL     OW26752   3.571   1.277   3.325 -0.3877 -0.2319  0.4730
 5039SOL    HW126753   3.602   1.247   3.410 -1.2498  3.1335  1.9298
 5039SOL    HW226754   3.486   1.234   3.333  0.3801 -1.2851  2.8939
 5040SOL     OW26755   2.077   3.243   0.687 -0.5521 -1.0755 -0.6809
 5040SOL    HW126756   2.094   3.177   0.619  1.1757 -0.5135 -0.7728
 5040SOL    HW226757   2.091   3.328   0.644  1.6129 -0.9076  0.3975
 5041SOL     OW26758   4.103   1.001   0.689  0.0704  0.4347  0.4928
 5041SOL    HW126759   4.031   1.055   0.654  0.8488  2.2067  1.6083
 5041SOL    HW226760   4.099   0.916   0.646  0.8967 -0.2684  1.8119
 5042SOL     OW26761   2.087   2.307   6.357 -0.4289 -0.2445  0.4733
 5042SOL    HW126762   2.106   2.333   6.447 -2.1394 -0.2970  0.8513
 5042SOL    HW226763   2.072   2.390   6.313 -0.1416 -0.9205 -0.9091
 5043SOL     OW26764   2.498   3.402   4.224  0.4548 -0.6814 -0.5830
 5043SOL    HW126765   2.483   3.359   4.139  0.7872  1.8774 -1.9289
 5043SOL    HW226766   2.446   3.340   4.275  3.3148 -0.7693  2.1698
 5044SOL     OW26767   4.519   3.493   3.596  0.1258  0.1077 -0.5628
 5044SOL    HW126768   4.559   3.412   3.564  2.7467  0.0151  3.0352
 5044SOL    HW226769   4.551   3.497   3.686 -1.1911 -0.9412 -0.0578
 5045SOL     OW26770   1.070   1.264   4.192  0.5845 -0.3606  0.0729
 5045SOL    HW126771   1.041   1.261   4.101 -0.8244  0.1185  0.5006
 5045SOL    HW226772   1.068   1.358   4.208 -0.3259 -1.0396  3.9814
 5046SOL     OW26773   4.636   1.862   2.941 -0.1237  0.1630  0.1381
 5046SOL    HW126774   4.571   1.881   2.873  0.5805  2.3140  0.0810
 5046SOL    HW226775   4.628   1.936   3.000 -0.1781 -1.5473  2.2580
 5047SOL     OW26776   1.641   1.062   7.408  0.1826  0.0311 -0.3525
 5047SOL    HW126777   1.655   1.015   7.326 -3.3920 -0.5844 -0.6049
 5047SOL    HW226778   1.546   1.064   7.416  0.3048 -0.4452  1.3407
 5048SOL     OW26779   0.910   2.956   7.196 -0.5122  0.0234  0.2586
 5048SOL    HW126780   0.899   2.878   7.251 -0.9577 -0.0332  0.0883
 5048SOL    HW226781   0.870   3.028   7.245 -0.3196 -0.4227  1.0760
 5049SOL     OW26782   1.350   0.466   3.106  0.1563 -0.5340  0.5617
 5049SOL    HW126783   1.284   0.528   3.138 -0.4578 -1.4621  1.0680
 5049SOL    HW226784   1.400   0.518   3.044  0.5354 -0.8011  0.6452
 5050SOL     OW26785   0.963   1.219   5.618  0.1360 -0.1663 -0.3130
 5050SOL    HW126786   0.950   1.150   5.683  3.6389  1.1111  1.7312
 5050SOL    HW226787   0.930   1.295   5.665  2.4819  2.0319 -2.1727
 5051SOL     OW26788   0.129   3.346  15.805  0.1002  0.8533  0.3209
 5051SOL    HW126789   0.081   3.265  15.826  0.0286  0.0957 -2.7923
 5051SOL    HW226790   0.150   3.381  15.892 -0.4319  0.9144  0.4233
 5052SOL     OW26791   1.168   4.220  13.688 -0.1085  0.1365 -0.4341
 5052SOL    HW126792   1.135   4.169  13.762 -1.4826 -0.7141 -1.6424
 5052SOL    HW226793   1.130   4.308  13.692 -0.1907  0.1267 -0.9496
 5053SOL     OW26794   0.186   4.552   5.858 -0.8418 -0.3124  0.5878
 5053SOL    HW126795   0.221   4.592   5.937  2.0168 -2.1844  0.2586
 5053SOL    HW226796   0.246   4.477   5.859 -0.8915 -0.3401  1.6020
 5054SOL     OW26797   1.903   2.639   5.482 -0.1892  0.6293  0.1670
 5054SOL    HW126798   1.937   2.687   5.558 -1.6573 -0.1521  1.3184
 5054SOL    HW226799   1.980   2.584   5.463 -1.2312 -0.4367 -0.9993
 5055SOL     OW26800   4.689   3.617   7.057 -0.2034  0.0789  0.4546
 5055SOL    HW126801   4.670   3.711   7.049 -2.4758 -0.5086 -0.7590
 5055SOL    HW226802   4.645   3.613   7.142 -0.4904 -0.9848  0.2475
 5056SOL     OW26803   0.149   4.470   9.955  0.8911  0.0895  0.0316
 5056SOL    HW126804   0.118   4.453  10.044  2.1126 -2.3128 -0.0027
 5056SOL    HW226805   0.163   4.384   9.915 -1.4890 -0.3153  0.0582
 5057SOL     OW26806   3.601   0.727  14.887 -0.6933 -0.2725  0.0274
 5057SOL    HW126807   3.657   0.774  14.825 -0.0087 -2.2643 -0.8709
 5057SOL    HW226808   3.519   0.728  14.838 -0.9519  3.8709  0.5414
 5058SOL     OW26809   0.109   2.419   6.159  0.3532 -0.3152 -0.4323
 5058SOL    HW126810   0.153   2.461   6.085  1.2508 -1.3888 -0.4943
 5058SOL    HW226811   0.017   2.425   6.134 -0.4390 -0.9300  2.2826
 5059SOL     OW26812   2.979   4.444   8.962 -0.5740 -0.5843 -0.0461
 5059SOL    HW126813   2.975   4.349   8.970  1.0672 -0.5221  1.5892
 5059SOL    HW226814   2.890   4.462   8.933 -0.5621 -1.3882 -0.5863
 5060SOL     OW26815   3.951   2.803   2.818 -0.4398  0.2910 -0.0214
 5060SOL    HW126816   3.980   2.884   2.860  2.8611 -1.6192  1.4105
 5060SOL    HW226817   3.857   2.805   2.835 -0.3958 -0.4390  0.2987
 5061SOL     OW26818   4.011   3.519   4.610  0.1260 -0.5024 -0.0548
 5061SOL    HW126819   4.057   3.502   4.528 -0.2000 -2.9056  0.2501
 5061SOL    HW226820   4.083   3.570   4.647  0.3234 -0.1172 -0.9944
 5062SOL     OW26821   1.123   2.575   3.672 -0.3383  0.4870 -0.6135
 5062SOL    HW126822   1.043   2.540   3.632 -0.2745  0.4412 -0.7000
 5062SOL    HW226823   1.189   2.506   3.668  0.1052  0.9048 -0.4907
 5063SOL     OW26824   1.533   2.205   4.201 -0.1475 -0.0165  0.2417
 5063SOL    HW126825   1.491   2.271   4.146  1.5396 -0.5343 -1.6727
 5063SOL    HW226826   1.606   2.171   4.149  0.1649 -0.4437  0.9742
 5064SOL     OW26827   1.104   3.476   3.231 -0.3036 -0.4480 -0.7058
 5064SOL    HW126828   1.123   3.422   3.154  2.9219  0.4021 -0.4935
 5064SOL    HW226829   1.017   3.513   3.219 -0.1502  0.2619  0.3500
 5065SOL     OW26830   4.070   3.789  15.532  0.4988 -0.5016  0.1609
 5065SOL    HW126831   4.091   3.727  15.602 -2.3883 -1.7979 -0.1283
 5065SOL    HW226832   4.012   3.855  15.568  0.5376 -0.1685 -0.3786
 5066SOL     OW26833   2.711   1.397   4.490  0.7395 -0.6356 -0.1244
 5066SOL    HW126834   2.774   1.354   4.548 -0.7146 -1.7882  0.5937
 5066SOL    HW226835   2.687   1.328   4.429 -1.4790  0.4865 -0.5199
 5067SOL     OW26836   3.634   4.403   6.640 -0.0540 -0.1254  0.3907
 5067SOL    HW126837   3.557   4.445   6.678 -1.4251 -1.8627 -0.4576
 5067SOL    HW226838   3.624   4.317   6.682 -0.6215 -0.7258 -0.9830
 5068SOL     OW26839   1.811   1.828  12.052 -0.5667 -0.1541  0.5885
 5068SOL    HW126840   1.823   1.747  12.102  2.9921 -0.0507 -0.1536
 5068SOL    HW226841   1.881   1.887  12.079 -0.4657 -1.0286  2.2899
 5069SOL     OW26842   2.644   2.842  12.874  1.4398  0.4298 -0.2886
 5069SOL    HW126843   2.669   2.932  12.897 -0.2937  0.7793  0.2405
 5069SOL    HW226844   2.615   2.861  12.785  0.1597 -0.1129  0.0191
 5070SOL     OW26845   3.234   3.490  10.209 -0.3826  0.6215  0.2587
 5070SOL    HW126846   3.159   3.498  10.150  0.1291  0.3109 -0.4256
 5070SOL    HW226847   3.277   3.572  10.185 -1.4676  0.2927 -2.8117
 5071SOL     OW26848   4.725   1.741  10.514  0.0490  0.2378  0.8582
 5071SOL    HW126849   4.701   1.811  10.454 -1.4062 -1.8674 -1.0024
 5071SOL    HW226850   0.049   1.690  10.464 -1.1227 -1.1239  0.7618
 5072SOL     OW26851   1.148   0.594   3.636 -0.4952  0.3700  0.3163
 5072SOL    HW126852   1.150   0.555   3.549  0.1975 -1.2136  1.0572
 5072SOL    HW226853   1.057   0.620   3.650 -0.5954 -0.0535  0.4295
 5073SOL     OW26854   3.315   4.565   1.183  0.1281 -0.3645 -0.5032
 5073SOL    HW126855   3.360   4.531   1.106 -0.9952  0.4665 -1.5267
 5073SOL    HW226856   3.236   4.596   1.139  0.4588  0.5300 -0.4671
 5074SOL     OW26857   3.281   1.957   8.605 -0.1014 -0.0496  0.6448
 5074SOL    HW126858   3.213   1.890   8.614  1.9637 -2.1487  0.7093
 5074SOL    HW226859   3.266   2.013   8.681  2.6198 -0.5255  1.5175
 5075SOL     OW26860   3.765   2.282   5.043  0.2078 -0.1355 -0.1683
 5075SOL    HW126861   3.753   2.213   4.978 -1.3471  2.3436 -2.5005
 5075SOL    HW226862   3.685   2.333   5.042  0.5637  0.4261  0.0338
 5076SOL     OW26863   3.077   2.098   2.456 -0.3624  0.2054  0.3330
 5076SOL    HW126864   3.157   2.148   2.440 -1.2532  1.3489 -0.5330
 5076SOL    HW226865   3.029   2.123   2.378 -0.7494 -1.9462 -0.1191
 5077SOL     OW26866   1.163   2.173   5.438  0.4085  0.3827 -0.4677
 5077SOL    HW126867   1.246   2.198   5.478  0.3730 -0.3584  0.0592
 5077SOL    HW226868   1.176   2.100   5.377 -1.3838 -0.4438  0.1373
 5078SOL     OW26869   4.548   1.520   6.764  0.3041  0.4164 -0.7622
 5078SOL    HW126870   4.486   1.449   6.780  0.1082  0.6453 -0.5109
 5078SOL    HW226871   4.531   1.536   6.671 -1.6923  0.3751 -0.3837
 5079SOL     OW26872   2.529   1.206  10.293  0.5301  0.1935 -0.0234
 5079SOL    HW126873   2.579   1.127  10.313 -0.2840  0.2882  2.3787
 5079SOL    HW226874   2.447   1.162  10.272  0.7156 -0.6073  0.9248
 5080SOL     OW26875   2.697   4.472   6.684  0.2187 -0.0875 -0.3648
 5080SOL    HW126876   2.659   4.490   6.770 -0.7580 -0.1902 -0.7788
 5080SOL    HW226877   2.740   4.558   6.680  2.6353 -1.3806 -1.9093
 5081SOL     OW26878   2.483   1.615   8.988 -0.5386 -0.7514  0.1212
 5081SOL    HW126879   2.469   1.576   9.075 -0.7879 -0.1806  0.3387
 5081SOL    HW226880   2.404   1.669   8.988  0.6232  0.9163 -1.0901
 5082SOL     OW26881   2.107   0.098   4.848  0.2158  0.2079  0.9202
 5082SOL    HW126882   2.159   0.104   4.768 -2.2503  1.3011 -0.6020
 5082SOL    HW226883   2.165   0.045   4.902 -0.9622  0.0507  2.0453
 5083SOL     OW26884   2.352   1.640   1.554 -0.5343  0.1864 -0.1963
 5083SOL    HW126885   2.329   1.723   1.595  1.9779  0.4715  0.6614
 5083SOL    HW226886   2.311   1.586   1.621 -1.4715  2.8443  1.3797
 5084SOL     OW26887   3.391   0.230   7.560  0.0258 -0.3932  0.6219
 5084SOL    HW126888   3.451   0.288   7.514 -1.2631 -0.9022 -1.7036
 5084SOL    HW226889   3.443   0.203   7.636  0.5803 -1.0051  0.0204
 5085SOL     OW26890   0.894   0.532   0.177 -0.1545 -0.0259 -0.2904
 5085SOL    HW126891   0.828   0.471   0.144 -0.3131 -0.4969  0.9109
 5085SOL    HW226892   0.863   0.571   0.259 -1.8143  3.9440 -2.7814
 5086SOL     OW26893   1.599   1.139   9.627  0.2049 -0.0722  0.0316
 5086SOL    HW126894   1.631   1.178   9.545  1.2767 -2.2618 -0.5992
 5086SOL    HW226895   1.644   1.192   9.693 -0.4854 -0.0539  0.4807
 5087SOL     OW26896   0.611   2.015  16.720 -0.3478  0.3321  0.3135
 5087SOL    HW126897   0.696   1.975  16.701  1.1592  2.9610  1.6022
 5087SOL    HW226898   0.598   1.984  16.810  1.1871 -0.4433  0.2798
 5088SOL     OW26899   2.192   4.024  16.690 -0.1660 -0.0876  0.0161
 5088SOL    HW126900   2.198   3.947  16.633 -0.1211 -0.5086  0.5926
 5088SOL    HW226901   2.125   4.076  16.647  0.6144  2.7271  2.2285
 5089SOL     OW26902   4.445   2.013  13.200 -0.1960  0.1771 -0.1476
 5089SOL    HW126903   4.442   2.051  13.112  4.3785 -0.7976 -0.7097
 5089SOL    HW226904   4.482   2.084  13.252 -0.5101  0.5334 -0.4052
 5090SOL     OW26905   2.509   2.897   8.074 -0.3495 -0.1392 -0.6427
 5090SOL    HW126906   2.591   2.858   8.103 -0.1312  1.1914  0.5757
 5090SOL    HW226907   2.537   2.982   8.039 -0.2373 -0.2843 -0.8944
 5091SOL     OW26908   0.657   0.425   7.162  0.1417 -0.1538 -0.2376
 5091SOL    HW126909   0.699   0.501   7.121 -2.8638  0.8710 -1.4426
 5091SOL    HW226910   0.601   0.466   7.228  1.0570 -1.0178  1.0785
 5092SOL     OW26911   0.049   2.603   3.773  0.3746  0.1306  0.3223
 5092SOL    HW126912   4.708   2.653   3.759 -1.9707 -4.2155 -1.8799
 5092SOL    HW226913   0.085   2.664   3.837  1.5172 -0.6605  0.4257
 5093SOL     OW26914   3.357   0.241   7.916 -0.2059 -0.3127 -0.1400
 5093SOL    HW126915   3.411   0.311   7.878 -0.3961  0.0529  0.2572
 5093SOL    HW226916   3.400   0.166   7.875 -0.0054 -0.2093 -0.1190
 5094SOL     OW26917   4.603   1.689   4.658 -0.7746 -0.6233  0.1394
 5094SOL    HW126918   4.523   1.635   4.659 -0.0753 -1.6706 -0.7647
 5094SOL    HW226919   4.624   1.689   4.565  0.3688  1.0082  0.4021
 5095SOL     OW26920   3.021   0.203   1.243 -0.0830  0.3107  0.0818
 5095SOL    HW126921   3.033   0.224   1.336  0.4046  0.1992  0.0437
 5095SOL    HW226922   2.969   0.279   1.218  1.8744  1.2259 -1.1763
 5096SOL     OW26923   3.520   4.462  10.755 -0.2411  0.3649  0.4025
 5096SOL    HW126924   3.513   4.555  10.733 -0.5156 -0.2728 -2.1331
 5096SOL    HW226925   3.434   4.436  10.722  0.5613  0.1445 -1.5004
 5097SOL     OW26926   0.833   3.729   3.546  0.1620 -0.3876  0.1095
 5097SOL    HW126927   0.763   3.718   3.482 -1.6711 -0.4412  2.1338
 5097SOL    HW226928   0.800   3.799   3.603 -1.6002 -1.2447  0.1226
 5098SOL     OW26929   2.548   3.398   7.917  0.3439 -0.1659  0.2789
 5098SOL    HW126930   2.526   3.340   7.990  0.9871 -0.9589 -0.1634
 5098SOL    HW226931   2.543   3.480   7.966  3.2887 -0.2592  0.6997
 5099SOL     OW26932   0.167   3.297   2.971 -0.0493  0.1663 -0.2214
 5099SOL    HW126933   0.089   3.326   2.923  0.7109  2.0052 -0.3596
 5099SOL    HW226934   0.182   3.370   3.031  1.6084 -0.4474  0.1174
 5100SOL     OW26935   0.149   0.684   4.957 -0.2768 -0.4202  0.2629
 5100SOL    HW126936   0.158   0.762   4.902 -2.4213  0.3202  0.9841
 5100SOL    HW226937   0.070   0.646   4.918 -0.4888  2.1796 -1.8785
 5101SOL     OW26938   0.651   0.391  13.532 -0.2517  0.5125 -0.1079
 5101SOL    HW126939   0.560   0.365  13.544 -0.2738  1.8483  2.6025
 5101SOL    HW226940   0.673   0.362  13.444  2.1629  1.5960  0.1311
 5102SOL     OW26941   3.262   1.157   6.696 -0.5564  0.2521  0.2634
 5102SOL    HW126942   3.334   1.168   6.634  1.8552  1.1040  3.1859
 5102SOL    HW226943   3.293   1.093   6.760  0.9749  0.8788  0.1579
 5103SOL     OW26944   3.559   1.197   2.500 -0.0688  0.4940  0.0486
 5103SOL    HW126945   3.543   1.262   2.432  2.6435  1.9639  0.8055
 5103SOL    HW226946   3.640   1.233   2.537 -0.5877  0.2578  1.4133
 5104SOL     OW26947   3.586   4.726   7.307  0.1247  0.3027 -0.4356
 5104SOL    HW126948   3.578   4.666   7.233  0.2301 -0.5318  0.2143
 5104SOL    HW226949   3.499   0.020   7.328 -0.0129 -0.6138  0.4569
 5105SOL     OW26950   0.548   3.996   9.569 -0.3885 -0.0124  0.3486
 5105SOL    HW126951   0.548   4.032   9.658 -0.6457 -1.0925  0.7932
 5105SOL    HW226952   0.550   3.901   9.584 -0.7026 -0.3802 -1.9298
 5106SOL     OW26953   0.271   2.293   9.758 -0.1499  0.2554 -0.0580
 5106SOL    HW126954   0.311   2.209   9.781 -2.7179 -0.7901  0.5059
 5106SOL    HW226955   0.284   2.335   9.843 -0.8312 -0.2444  0.2929
 5107SOL     OW26956   3.799   3.200   2.419  0.0927 -0.5786 -0.1966
 5107SOL    HW126957   3.765   3.114   2.393 -2.2808  0.2591  0.1011
 5107SOL    HW226958   3.859   3.218   2.347 -1.1157  1.2689 -0.7479
 5108SOL     OW26959   4.411   1.197   9.081 -0.1028  0.2360  0.1780
 5108SOL    HW126960   4.480   1.136   9.052 -1.2095  1.1601 -4.4132
 5108SOL    HW226961   4.455   1.282   9.083  0.0269  0.2092 -1.4905
 5109SOL     OW26962   2.029   2.360   3.777 -0.2961 -0.3172 -0.3556
 5109SOL    HW126963   1.996   2.312   3.853 -1.1290  0.2441 -0.3719
 5109SOL    HW226964   2.028   2.445   3.820  2.7452 -0.7275  0.5608
 5110SOL     OW26965   0.409   3.868   1.035 -0.0508 -0.2670 -0.2636
 5110SOL    HW126966   0.314   3.870   1.022  0.3467  2.7096 -2.8222
 5110SOL    HW226967   0.418   3.841   1.126 -0.2226 -0.6702 -0.3672
 5111SOL     OW26968   4.381   3.266   7.826  0.3063 -0.2000  0.0875
 5111SOL    HW126969   4.290   3.283   7.806 -0.0065 -0.3353  1.3404
 5111SOL    HW226970   4.426   3.287   7.744  2.0804  0.4718  1.2164
 5112SOL     OW26971   4.624   0.979   9.617  0.0831 -0.3388  0.4844
 5112SOL    HW126972   4.626   0.963   9.523 -4.1136  1.9603  0.0132
 5112SOL    HW226973   4.621   1.074   9.603  1.6400 -0.1897  1.1872
 5113SOL     OW26974   0.481   0.401   9.243 -0.8501 -0.3609 -0.0149
 5113SOL    HW126975   0.525   0.454   9.177 -0.8219 -0.9767 -0.4850
 5113SOL    HW226976   0.546   0.333   9.260 -0.2345  0.1437 -0.3457
 5114SOL     OW26977   0.453   3.234   8.041 -0.4672 -0.3126  0.1219
 5114SOL    HW126978   0.363   3.232   8.009 -0.3554  0.9124 -0.2827
 5114SOL    HW226979   0.491   3.242   7.954 -0.8125 -1.3335 -0.1172
 5115SOL     OW26980   2.297   4.736  11.216 -0.8454  0.4268 -0.2368
 5115SOL    HW126981   2.321   4.662  11.160 -2.0819  2.1791 -3.0721
 5115SOL    HW226982   2.339   0.071  11.175  1.7440 -0.9969 -0.1590
 5116SOL     OW26983   4.114   3.781   7.599  0.4828 -0.6942 -0.1512
 5116SOL    HW126984   4.126   3.749   7.689 -1.7618 -1.3868 -0.0969
 5116SOL    HW226985   4.026   3.748   7.581  0.4626 -0.5798 -0.2624
 5117SOL     OW26986   4.079   0.656  10.663 -0.0348  0.2264  0.3962
 5117SOL    HW126987   4.072   0.562  10.674  3.6899 -0.0200  0.7604
 5117SOL    HW226988   3.989   0.676  10.636  0.3119  1.4564  0.1217
 5118SOL     OW26989   0.293   2.801   4.851 -0.3867  0.8099  0.1002
 5118SOL    HW126990   0.295   2.809   4.755  1.4043  1.0373  0.1500
 5118SOL    HW226991   0.215   2.749   4.867 -0.3545 -0.1358 -2.7419
 5119SOL     OW26992   0.698   4.458  12.465  0.0747  0.0291 -0.2326
 5119SOL    HW126993   0.744   4.537  12.493  1.6402 -0.6322 -0.9276
 5119SOL    HW226994   0.725   4.452  12.373  1.3349 -0.0707  0.1374
 5120SOL     OW26995   1.760   1.979   6.175 -0.5568  0.0419 -0.1152
 5120SOL    HW126996   1.669   1.951   6.168 -1.0039  1.9809 -2.0422
 5120SOL    HW226997   1.808   1.916   6.120 -2.0126 -0.4887 -0.7741
 5121SOL     OW26998   1.062   3.266   6.952 -0.6109  0.4462 -0.3872
 5121SOL    HW126999   1.096   3.212   7.023  1.1762 -0.3027 -1.8255
 5121SOL    HW227000   0.968   3.253   6.966 -0.4265 -0.6678 -0.2195
 5122SOL     OW27001   1.781   0.555   2.952  0.7719 -0.6027  0.4331
 5122SOL    HW127002   1.798   0.634   3.002 -1.0625  0.6971 -0.9882
 5122SOL    HW227003   1.692   0.571   2.919  1.3562  0.9218 -0.3838
 5123SOL     OW27004   3.160   2.971   8.649 -0.7071 -0.1321  0.6958
 5123SOL    HW127005   3.182   2.938   8.562  0.9149  1.5971  0.4660
 5123SOL    HW227006   3.145   2.888   8.693 -1.9863 -0.9053 -1.1840
 5124SOL     OW27007   0.463   3.625  12.767 -0.2119  0.1383 -0.3164
 5124SOL    HW127008   0.527   3.683  12.726 -0.1127  0.8775  0.8773
 5124SOL    HW227009   0.518   3.602  12.842 -0.5062 -0.1413 -0.1877
 5125SOL     OW27010   3.393   2.031  15.960 -0.7987 -0.8879  0.4544
 5125SOL    HW127011   3.417   1.973  16.033  0.9813 -1.7177 -0.7985
 5125SOL    HW227012   3.473   2.015  15.911  0.1125  2.1243  0.9487
 5126SOL     OW27013   0.704   4.389   3.521 -0.1316 -0.2320 -0.0208
 5126SOL    HW127014   0.657   4.386   3.438  0.0334 -2.1046 -0.0558
 5126SOL    HW227015   0.662   4.469   3.552  0.3797  0.5432 -1.3478
 5127SOL     OW27016   1.007   3.941   6.772  0.0600 -0.1507  0.6429
 5127SOL    HW127017   0.989   3.848   6.758  2.3138 -0.6706  1.2597
 5127SOL    HW227018   0.949   3.982   6.707  0.1382 -1.8628 -0.5325
 5128SOL     OW27019   0.551   2.412   5.074 -0.2381 -0.4871 -0.3447
 5128SOL    HW127020   0.520   2.495   5.041  2.4288  0.3269 -0.8253
 5128SOL    HW227021   0.643   2.427   5.051  0.1815 -0.1913  1.5157
 5129SOL     OW27022   0.258   0.152   5.654  0.1558  0.8264  0.1282
 5129SOL    HW127023   0.305   0.082   5.608  0.4741  1.1912 -0.0998
 5129SOL    HW227024   0.323   0.222   5.652  1.7889 -0.6293  1.6762
 5130SOL     OW27025   0.435   2.019  12.765  0.8353  0.2531 -0.0299
 5130SOL    HW127026   0.527   2.003  12.784 -0.1794 -3.4685  1.8820
 5130SOL    HW227027   0.416   2.093  12.823 -1.4800  0.4661 -1.0497
 5131SOL     OW27028   0.739   0.778  16.689 -0.2445  0.0230  1.1871
 5131SOL    HW127029   0.737   0.855  16.746 -1.6337  0.0273  1.1363
 5131SOL    HW227030   0.759   0.698  16.739  1.9605  1.8700  3.2579
 5132SOL     OW27031   4.553   2.904  16.333 -0.1368  0.2506 -0.0801
 5132SOL    HW127032   4.552   2.921  16.427 -1.4396  0.4736 -0.1261
 5132SOL    HW227033   4.572   2.811  16.324  0.4723  0.3164  0.5349
 5133SOL     OW27034   2.218   0.961   9.310  0.0617 -0.6902 -0.2783
 5133SOL    HW127035   2.313   0.956   9.299  0.4125  1.6039  1.5539
 5133SOL    HW227036   2.204   0.905   9.386 -0.4754 -0.1985 -0.0169
 5134SOL     OW27037   0.799   2.486  14.536 -0.0602  0.6361 -0.5306
 5134SOL    HW127038   0.749   2.566  14.551 -0.2412  0.6564 -1.2317
 5134SOL    HW227039   0.839   2.507  14.452  1.1750  1.7930  0.3446
 5135SOL     OW27040   1.660   1.539   5.131 -0.2203 -0.0519  0.4473
 5135SOL    HW127041   1.741   1.536   5.080 -2.4795 -2.7534 -2.9750
 5135SOL    HW227042   1.672   1.629   5.162 -4.1117  0.3755  0.7019
 5136SOL     OW27043   1.782   1.501   7.111 -0.5918  0.5606 -0.2569
 5136SOL    HW127044   1.724   1.448   7.166  0.9312 -1.0414 -0.2139
 5136SOL    HW227045   1.712   1.532   7.053 -2.7734 -2.0478  0.9758
 5137SOL     OW27046   0.628   0.492   9.839 -0.6453 -0.0218  0.0288
 5137SOL    HW127047   0.690   0.517   9.908  0.6330  1.1741 -1.5572
 5137SOL    HW227048   0.634   0.569   9.783 -1.4765  1.5859  2.1322
 5138SOL     OW27049   0.017   1.777   7.770  0.1411  0.4923 -0.0113
 5138SOL    HW127050   0.041   1.701   7.717 -0.1022  1.2331 -1.1853
 5138SOL    HW227051   0.038   1.735   7.854 -1.6665 -2.1879 -0.8887
 5139SOL     OW27052   1.392   0.717   3.651  0.2320 -0.1986  0.3847
 5139SOL    HW127053   1.310   0.684   3.615  0.3566  0.3273 -0.3662
 5139SOL    HW227054   1.419   0.659   3.723  0.3302  2.1715  2.2216
 5140SOL     OW27055   3.467   3.342   7.605  0.2938  0.4302  0.3306
 5140SOL    HW127056   3.372   3.340   7.599  0.1495  2.6436  1.5339
 5140SOL    HW227057   3.482   3.252   7.633 -3.3089  0.1019  1.1725
 5141SOL     OW27058   2.713   1.373   6.138  0.2385 -0.3498  0.4246
 5141SOL    HW127059   2.684   1.459   6.107  0.2529 -0.2519  0.6820
 5141SOL    HW227060   2.775   1.402   6.205  2.0012  1.2430 -1.9175
 5142SOL     OW27061   0.199   1.982   3.011 -0.1186  0.0666  0.3213
 5142SOL    HW127062   0.109   2.000   3.038 -0.7688 -1.1296 -1.0557
 5142SOL    HW227063   0.207   2.053   2.947 -2.6986  0.8718  0.8802
 5143SOL     OW27064   3.834   0.227   3.672  0.1727 -0.2911 -0.4561
 5143SOL    HW127065   3.904   0.254   3.613 -0.6078  0.3196 -1.1001
 5143SOL    HW227066   3.819   0.310   3.717 -0.5931 -1.5043  1.5301
 5144SOL     OW27067   3.595   1.657   9.237  0.5116 -0.4007 -0.1896
 5144SOL    HW127068   3.655   1.684   9.167 -0.7609  0.2636 -1.0196
 5144SOL    HW227069   3.647   1.687   9.311  1.0205 -2.3410  0.2459
 5145SOL     OW27070   0.351   2.005   6.327 -0.0034  0.6939 -0.5665
 5145SOL    HW127071   0.361   2.097   6.351  1.6830  0.1328  0.8728
 5145SOL    HW227072   0.422   1.960   6.373 -0.5712  2.0326  1.6003
 5146SOL     OW27073   1.366   2.637   7.275  0.3633 -0.2966 -0.9006
 5146SOL    HW127074   1.294   2.580   7.303 -0.2352  0.9678  0.1386
 5146SOL    HW227075   1.450   2.593   7.288  1.5856  1.5977 -2.3829
 5147SOL     OW27076   2.325   3.014   0.667 -0.1688  0.6021 -0.4405
 5147SOL    HW127077   2.269   3.033   0.592  1.0699 -0.8354 -1.7237
 5147SOL    HW227078   2.411   2.996   0.629 -0.4930  1.5286 -1.6090
 5148SOL     OW27079   3.334   1.252   4.066 -0.2201  0.4307  0.5530
 5148SOL    HW127080   3.316   1.330   4.117 -1.5433  0.9237 -0.6717
 5148SOL    HW227081   3.430   1.257   4.060 -0.0867 -0.4535  1.8189
 5149SOL     OW27082   2.186   2.175   1.670  0.5823  0.1806 -0.2895
 5149SOL    HW127083   2.173   2.188   1.764  0.2656  0.5998 -0.3904
 5149SOL    HW227084   2.098   2.162   1.634  0.0507 -1.5182  1.6453
 5150SOL     OW27085   2.591   3.683  16.370  0.0887 -0.4549 -0.1799
 5150SOL    HW127086   2.531   3.643  16.307  0.4179  0.2976 -0.9677
 5150SOL    HW227087   2.665   3.701  16.311  0.1389  0.5080  0.1933
 5151SOL     OW27088   1.999   0.600   1.886  0.8799 -0.2032 -0.1803
 5151SOL    HW127089   2.021   0.578   1.977  0.2920 -2.0281 -0.4805
 5151SOL    HW227090   1.905   0.583   1.898  0.6982  0.3731 -0.8282
 5152SOL     OW27091   0.389   0.956   6.981  0.3810  0.0647 -0.3538
 5152SOL    HW127092   0.473   0.910   6.975  1.2106  1.5224  0.0334
 5152SOL    HW227093   0.416   1.048   6.972 -0.7572  0.5836  1.4381
 5153SOL     OW27094   1.356   1.771   8.483 -0.1294 -0.4724  0.0296
 5153SOL    HW127095   1.384   1.853   8.444 -4.5372  2.0145  2.0774
 5153SOL    HW227096   1.418   1.708   8.448  0.4718 -0.8517  1.7643
 5154SOL     OW27097   3.320   0.390   3.414 -0.0338  0.1520 -0.3313
 5154SOL    HW127098   3.250   0.448   3.445 -1.4259 -1.8533  0.3485
 5154SOL    HW227099   3.321   0.336   3.494 -0.1834  0.0198 -0.4177
 5155SOL     OW27100   3.291   1.802  10.549 -0.1444 -0.0525 -0.6307
 5155SOL    HW127101   3.290   1.858  10.627  0.8385  3.3203 -3.0717
 5155SOL    HW227102   3.349   1.837  10.482 -0.7477 -3.2750 -2.8447
 5156SOL     OW27103   0.228   0.070  11.429 -0.0747 -0.0007 -0.4582
 5156SOL    HW127104   0.211   0.084  11.522 -1.3047  0.0786 -0.6961
 5156SOL    HW227105   0.168   0.137  11.397 -0.0824  1.5393  2.7529
 5157SOL     OW27106   3.605   2.532   6.673  0.0286 -0.2048 -0.7752
 5157SOL    HW127107   3.593   2.626   6.686  1.9404 -0.2969  1.6608
 5157SOL    HW227108   3.587   2.503   6.763 -1.6932  0.8387 -0.7883
 5158SOL     OW27109   0.128   1.928   9.299  0.1631  0.3556 -0.0621
 5158SOL    HW127110   0.150   1.890   9.385 -0.1083 -0.0852 -0.1817
 5158SOL    HW227111   0.166   2.014   9.314 -0.2990  0.8804 -2.0089
 5159SOL     OW27112   4.428   0.118   5.964 -0.2924 -0.2030  0.0273
 5159SOL    HW127113   4.376   0.037   5.964  1.8361 -1.5610 -0.8452
 5159SOL    HW227114   4.512   0.079   5.985 -1.1773 -1.6755  0.8545
 5160SOL     OW27115   2.655   2.968   4.768  0.0069  0.3186 -0.2660
 5160SOL    HW127116   2.618   2.904   4.829  0.9192  0.4838  0.4546
 5160SOL    HW227117   2.743   2.976   4.805 -1.4042 -1.5065  3.4608
 5161SOL     OW27118   3.196   2.314  15.381 -0.7131 -0.1236 -0.2624
 5161SOL    HW127119   3.207   2.312  15.286  1.1880  1.9282 -0.0702
 5161SOL    HW227120   3.235   2.400  15.396  0.2192 -0.7092  0.6826
 5162SOL     OW27121   4.727   0.580   5.281  0.2148 -0.3859 -0.3618
 5162SOL    HW127122   0.001   0.540   5.367  0.1840  0.8457  0.2113
 5162SOL    HW227123   0.008   0.516   5.213 -1.2488 -3.7982  2.4229
 5163SOL     OW27124   0.869   1.730   5.793  0.2873 -0.3733  0.0212
 5163SOL    HW127125   0.934   1.800   5.791  1.2882 -1.4301 -3.7776
 5163SOL    HW227126   0.824   1.753   5.712  1.0964  1.1488 -0.0081
 5164SOL     OW27127   1.713   1.087   6.030 -0.1894  0.1876 -0.1291
 5164SOL    HW127128   1.795   1.037   6.033 -0.5494 -0.4855 -1.4263
 5164SOL    HW227129   1.716   1.105   6.124  0.4098  0.1644 -0.1415
 5165SOL     OW27130   0.116   0.460   1.611 -0.8064  0.9539 -0.2955
 5165SOL    HW127131   0.076   0.385   1.654 -1.4466  2.1363  1.1811
 5165SOL    HW227132   0.055   0.528   1.641 -1.6969 -0.2581  0.6510
 5166SOL     OW27133   0.206   0.099  10.747 -0.1511  0.1005  0.2056
 5166SOL    HW127134   0.270   0.098  10.818 -1.7656  2.8767  1.6834
 5166SOL    HW227135   0.263   0.076  10.673  0.8830  0.4262  0.9067
 5167SOL     OW27136   3.973   2.740   8.565  0.1429 -0.1955 -0.4691
 5167SOL    HW127137   3.995   2.763   8.475  1.7362 -0.7215 -0.2223
 5167SOL    HW227138   4.054   2.758   8.613  1.1813 -0.3611 -2.1503
 5168SOL     OW27139   3.310   3.621   3.383 -0.3175 -0.0475  1.3257
 5168SOL    HW127140   3.375   3.673   3.429 -0.6878  0.6029  1.1061
 5168SOL    HW227141   3.271   3.571   3.454 -0.6714  0.4917  1.5067
 5169SOL     OW27142   1.535   2.767   2.068  0.2213 -0.3564  0.4514
 5169SOL    HW127143   1.534   2.743   2.160  0.4979 -1.4994  0.1563
 5169SOL    HW227144   1.614   2.820   2.061 -1.1195  1.4407 -1.0907
 5170SOL     OW27145   4.618   0.125   4.328  0.4171  0.2425 -0.3081
 5170SOL    HW127146   4.530   0.092   4.309  0.5800  1.5674 -3.2391
 5170SOL    HW227147   4.659   0.046   4.364 -1.8991  0.0786  2.0138
 5171SOL     OW27148   2.807   4.277  17.551 -0.1680 -0.0747  0.4150
 5171SOL    HW127149   2.822   4.189  17.518  1.0613  0.7471 -1.2161
 5171SOL    HW227150   2.724   4.270  17.599  0.6588 -0.3542  1.8182
 5172SOL     OW27151   4.651   1.504   5.847  0.0609 -0.0385  0.4572
 5172SOL    HW127152   0.005   1.493   5.863 -0.0389 -0.9037  0.4417
 5172SOL    HW227153   4.652   1.521   5.753 -1.0962  1.1528  0.6531
 5173SOL     OW27154   4.373   3.261   2.473  0.2064  0.0997 -0.2668
 5173SOL    HW127155   4.330   3.331   2.521 -0.0839 -1.4336  1.6810
 5173SOL    HW227156   4.337   3.182   2.513 -1.1301  0.5911 -0.5191
 5174SOL     OW27157   2.061   1.150   5.854  0.5457 -1.0092 -0.4129
 5174SOL    HW127158   2.000   1.197   5.797 -0.9446 -0.1983  1.8149
 5174SOL    HW227159   2.093   1.229   5.899 -2.0326  0.4674 -1.1472
 5175SOL     OW27160   2.199   1.268   3.522  0.2644  0.4744 -0.2811
 5175SOL    HW127161   2.152   1.257   3.605  0.1523  1.6200 -0.1873
 5175SOL    HW227162   2.287   1.234   3.539  1.0427  2.8811  0.5973
 5176SOL     OW27163   4.495   1.099   1.827 -0.1048  0.4349 -0.5252
 5176SOL    HW127164   4.458   1.063   1.907  0.1899  1.0398 -0.1240
 5176SOL    HW227165   4.485   1.192   1.844 -1.3601  0.2796 -0.4383
 5177SOL     OW27166   0.631   3.141  17.123  0.0340 -0.3472 -0.2170
 5177SOL    HW127167   0.537   3.159  17.121  0.3970  1.9623  2.6880
 5177SOL    HW227168   0.660   3.213  17.067  1.1500  0.4603  1.3771
 5178SOL     OW27169   0.322   4.713   9.930  0.2471 -0.7539  0.0325
 5178SOL    HW127170   0.275   4.661   9.995 -1.6356 -0.1278 -0.8355
 5178SOL    HW227171   0.397   0.014   9.973 -0.7954  0.2780  0.8757
 5179SOL     OW27172   2.674   3.188  15.368  0.4670  0.4182 -0.0766
 5179SOL    HW127173   2.721   3.261  15.408 -0.3437  0.6682  0.4220
 5179SOL    HW227174   2.749   3.130  15.355  1.4293  1.0940  2.4503
 5180SOL     OW27175   2.494   4.458   2.368 -0.2825 -0.3148  0.0688
 5180SOL    HW127176   2.517   4.524   2.302 -1.6561  1.6670  1.5797
 5180SOL    HW227177   2.491   4.380   2.313  2.2301 -0.4025  0.0513
 5181SOL     OW27178   3.142   2.565   6.904 -0.1586  0.5531  0.2648
 5181SOL    HW127179   3.236   2.556   6.922 -0.0431 -1.2667 -1.2181
 5181SOL    HW227180   3.106   2.570   6.992 -0.8601 -2.3078  0.1480
 5182SOL     OW27181   0.626   0.999   8.496  0.5785  0.3421  0.2596
 5182SOL    HW127182   0.584   0.915   8.517 -1.0023  0.3646 -2.7791
 5182SOL    HW227183   0.717   0.999   8.524  0.5080 -2.1481  0.5358
 5183SOL     OW27184   2.200   3.327  16.434 -0.0957 -0.4260 -0.0621
 5183SOL    HW127185   2.246   3.251  16.468  1.8008  1.1606  0.9230
 5183SOL    HW227186   2.199   3.304  16.341  1.8270  1.8776 -0.6573
 5184SOL     OW27187   4.302   3.876   4.060  0.2281 -0.6219  0.1356
 5184SOL    HW127188   4.246   3.946   4.093 -0.4741 -2.0893  2.0386
 5184SOL    HW227189   4.255   3.855   3.979 -1.5038 -0.8179  1.1887
 5185SOL     OW27190   3.878   1.059   5.135 -0.2203  0.5622  0.1545
 5185SOL    HW127191   3.829   1.041   5.215  1.7074  0.3153  1.2771
 5185SOL    HW227192   3.821   1.013   5.073  0.5312 -0.9003  0.5427
 5186SOL     OW27193   1.197   2.437   4.060  0.0237  0.1881  0.1877
 5186SOL    HW127194   1.269   2.481   4.015 -0.0543 -1.7387 -1.8390
 5186SOL    HW227195   1.123   2.491   4.032  1.3808  1.9771  0.0429
 5187SOL     OW27196   1.879   3.130   8.827  0.9170  0.3282  0.0227
 5187SOL    HW127197   1.909   3.142   8.737  2.4192  1.7084  0.7000
 5187SOL    HW227198   1.866   3.222   8.852  2.4563  0.6342 -0.3060
 5188SOL     OW27199   3.059   0.999   7.553  0.0780 -0.2510  0.0228
 5188SOL    HW127200   3.146   0.973   7.583 -1.0857  0.1839  3.7695
 5188SOL    HW227201   3.044   0.940   7.479  0.6186  0.9298 -1.0207
 5189SOL     OW27202   2.045   3.997   7.522 -0.4614  0.0487 -0.6052
 5189SOL    HW127203   2.102   4.073   7.534  1.7305 -1.8867  1.2189
 5189SOL    HW227204   2.030   4.003   7.428  0.2325 -0.2621 -0.7292
 5190SOL     OW27205   4.689   4.299  14.961 -0.1916 -0.2053  0.3221
 5190SOL    HW127206   0.021   4.257  15.009 -0.0341 -0.5845 -0.2335
 5190SOL    HW227207   4.620   4.249  15.004 -0.8420  0.1252 -0.3422
 5191SOL     OW27208   3.992   1.565   2.371  0.5881 -0.0508  0.4252
 5191SOL    HW127209   4.035   1.639   2.414  0.7892  0.4689 -0.6766
 5191SOL    HW227210   4.058   1.555   2.302 -0.9932 -1.7861 -0.8089
 5192SOL     OW27211   0.065   1.004   6.267 -0.2753 -0.7287  0.0748
 5192SOL    HW127212   4.737   1.041   6.210 -0.1499  1.0658  1.0687
 5192SOL    HW227213   0.022   1.007   6.353  1.4060  1.0837  0.8694
 5193SOL     OW27214   0.899   1.519   4.418  0.1524 -0.1318  0.6627
 5193SOL    HW127215   0.929   1.603   4.383  1.3839 -0.4612  0.9422
 5193SOL    HW227216   0.832   1.486   4.358 -0.9863  3.4056 -0.0525
 5194SOL     OW27217   0.366   2.583   2.316 -0.0634  0.2619 -0.5492
 5194SOL    HW127218   0.408   2.597   2.400  0.6711 -0.7510 -0.7459
 5194SOL    HW227219   0.432   2.535   2.265 -1.2068  0.8361 -2.5611
 5195SOL     OW27220   1.005   3.112   4.404 -0.3022 -0.1747  0.4119
 5195SOL    HW127221   1.086   3.160   4.423  0.7153 -2.8637  2.9830
 5195SOL    HW227222   1.035   3.061   4.328  3.0253  2.9993 -0.4083
 5196SOL     OW27223   0.925   0.961   9.466  0.4309 -0.3854  0.2497
 5196SOL    HW127224   1.007   0.923   9.498  1.2439 -0.4298 -1.8866
 5196SOL    HW227225   0.956   1.027   9.403  0.5107 -0.6567  0.0023
 5197SOL     OW27226   2.681   2.139   7.128 -0.3425  0.0275 -0.4500
 5197SOL    HW127227   2.643   2.205   7.186 -0.6080 -0.0545 -0.5294
 5197SOL    HW227228   2.773   2.142   7.153 -0.3951 -0.8420 -0.1591
 5198SOL     OW27229   3.147   0.781   4.665 -0.0637 -0.5725 -0.3518
 5198SOL    HW127230   3.186   0.705   4.707 -0.7806  0.3608  2.0013
 5198SOL    HW227231   3.064   0.771   4.711 -0.2549 -3.3107 -1.2669
 5199SOL     OW27232   3.106   0.505  10.107  0.2899  0.6440 -0.4728
 5199SOL    HW127233   3.092   0.541  10.194 -3.0210  0.3108 -0.8792
 5199SOL    HW227234   3.038   0.438  10.101 -0.1721  1.1029 -0.3115
 5200SOL     OW27235   4.267   2.752   1.970  0.5833  0.2887 -0.3062
 5200SOL    HW127236   4.311   2.819   2.023  1.6303  1.3331 -2.5068
 5200SOL    HW227237   4.193   2.809   1.948  0.1743 -0.9628 -2.1312
 5201SOL     OW27238   3.387   1.968   6.310  0.2141 -0.3348 -0.0750
 5201SOL    HW127239   3.320   2.029   6.340  0.1311 -0.6197  0.3125
 5201SOL    HW227240   3.339   1.886   6.299 -0.9810  0.0670  2.2217
 5202SOL     OW27241   2.596   3.250   4.772  0.1898  0.2404 -0.6381
 5202SOL    HW127242   2.528   3.264   4.707 -1.1760 -0.9002  0.5271
 5202SOL    HW227243   2.619   3.158   4.758  1.2232  0.6770 -1.8010
 5203SOL     OW27244   0.325   4.510   6.657 -0.3585 -0.0915  0.4310
 5203SOL    HW127245   0.385   4.435   6.654  0.1711  0.2749  2.5101
 5203SOL    HW227246   0.381   4.582   6.685 -0.0533  0.8799 -2.5998
 5204SOL     OW27247   0.959   4.627   4.760  0.9738  0.9538 -0.7315
 5204SOL    HW127248   0.924   4.584   4.838  1.8469  2.4733  0.4969
 5204SOL    HW227249   1.015   4.695   4.798  0.0108  1.4593 -0.2090
 5205SOL     OW27250   0.747   3.899   0.866  0.2173  0.0196 -0.3719
 5205SOL    HW127251   0.757   3.835   0.796 -3.2250 -0.8216 -0.0567
 5205SOL    HW227252   0.787   3.981   0.837 -0.2573  0.6523  0.7422
 5206SOL     OW27253   1.480   4.261   0.565 -0.0174 -0.4937  0.1524
 5206SOL    HW127254   1.418   4.333   0.577 -0.0654 -0.4009 -0.6598
 5206SOL    HW227255   1.517   4.265   0.477  0.6035  0.4431  0.4622
 5207SOL     OW27256   3.105   0.972   7.956 -0.1230 -0.1636 -0.7778
 5207SOL    HW127257   3.057   1.029   7.897  0.5776  1.5480  0.3077
 5207SOL    HW227258   3.192   0.958   7.919  0.5538 -0.3212  0.8638
 5208SOL     OW27259   3.471   1.186   2.782  0.5058  0.0867  0.5997
 5208SOL    HW127260   3.491   1.175   2.689  1.8711 -0.1841  0.9301
 5208SOL    HW227261   3.487   1.100   2.820  2.1962  0.4956  0.8357
 5209SOL     OW27262   4.584   0.628   2.606 -0.6458 -0.5297 -0.3831
 5209SOL    HW127263   4.535   0.700   2.566 -0.6631 -0.8916 -1.0167
 5209SOL    HW227264   4.513   0.587   2.656 -0.0553 -1.3855 -0.2512
 5210SOL     OW27265   2.769   0.039  11.885  0.0304  0.3664 -0.1460
 5210SOL    HW127266   2.859   0.014  11.907  1.0309  2.6465 -1.6118
 5210SOL    HW227267   2.776   0.043  11.790  0.7154 -1.4398 -0.1721
 5211SOL     OW27268   2.138   1.684  13.788 -0.4735 -0.1779 -0.0370
 5211SOL    HW127269   2.217   1.717  13.746 -1.2644  1.5288 -0.1896
 5211SOL    HW227270   2.170   1.634  13.863 -0.6125 -0.2236 -0.0074
 5212SOL     OW27271   1.460   0.094   7.599 -0.2903  0.7424  0.3140
 5212SOL    HW127272   1.462   0.076   7.693 -2.5236  2.2021  0.6292
 5212SOL    HW227273   1.462   0.190   7.597  1.5252  0.6550 -2.3857
 5213SOL     OW27274   1.500   3.752   1.946  0.0350  0.3160  0.2355
 5213SOL    HW127275   1.578   3.790   1.905  0.4437 -0.0649  0.6520
 5213SOL    HW227276   1.431   3.740   1.881 -2.2812  0.2013  2.7353
 5214SOL     OW27277   4.264   2.215   3.036  0.0660 -0.2264  1.0095
 5214SOL    HW127278   4.325   2.220   3.109  1.5625 -0.1560 -0.2422
 5214SOL    HW227279   4.204   2.145   3.063 -1.2886  1.8584  3.3312
 5215SOL     OW27280   3.403   0.880   1.378  0.0847 -0.3938  0.4995
 5215SOL    HW127281   3.340   0.813   1.407 -0.0307 -0.3612  0.3242
 5215SOL    HW227282   3.431   0.923   1.459  2.4501  1.0191 -1.0738
 5216SOL     OW27283   3.258   1.648   0.985  0.0288 -0.2731  0.4492
 5216SOL    HW127284   3.188   1.713   0.977 -0.1118 -0.6534 -1.4297
 5216SOL    HW227285   3.210   1.569   1.008  1.0077 -0.7667  0.7719
 5217SOL     OW27286   2.318   2.199   2.256  0.2892  0.1270 -0.0414
 5217SOL    HW127287   2.324   2.150   2.174 -0.9227  1.4965 -0.9463
 5217SOL    HW227288   2.313   2.126   2.318  0.7729  0.0506 -0.0949
 5218SOL     OW27289   0.706   4.332   9.160 -0.0022  0.1786 -0.1366
 5218SOL    HW127290   0.653   4.316   9.238  0.9778  0.9954  0.7137
 5218SOL    HW227291   0.715   4.244   9.126  0.0686 -0.1203  0.6468
 5219SOL     OW27292   3.782   2.302   0.146  0.7462  0.1428  0.3063
 5219SOL    HW127293   3.876   2.319   0.156  0.8648 -0.4897  0.2990
 5219SOL    HW227294   3.767   2.307   0.051  0.9021 -2.6517  0.1117
 5220SOL     OW27295   0.203   1.166  12.536  0.0480  0.5402 -0.2303
 5220SOL    HW127296   0.205   1.225  12.611 -2.4801  2.0962 -1.3776
 5220SOL    HW227297   0.156   1.216  12.469 -0.3427  0.1125 -0.2735
 5221SOL     OW27298   3.571   1.948   8.212 -0.0159 -0.2785  0.3800
 5221SOL    HW127299   3.603   2.006   8.143 -0.2254  0.8090  1.2064
 5221SOL    HW227300   3.518   1.999   8.272  0.4487 -0.8103  1.2539
 5222SOL     OW27301   1.103   1.795   4.633 -0.6806  0.4218 -0.0123
 5222SOL    HW127302   1.189   1.764   4.661 -0.0862  2.0405 -0.0438
 5222SOL    HW227303   1.113   1.767   4.542 -0.3690 -0.5474  0.3159
 5223SOL     OW27304   4.482   4.293   5.466  0.3920  0.0450 -0.1176
 5223SOL    HW127305   4.503   4.386   5.471  1.7744 -0.2221 -1.0072
 5223SOL    HW227306   4.391   4.301   5.437 -0.2001 -0.9158  1.5146
 5224SOL     OW27307   3.270   3.128   4.759  0.2965  0.1587 -0.5969
 5224SOL    HW127308   3.308   3.110   4.674 -0.9342 -1.8838 -0.7141
 5224SOL    HW227309   3.346   3.146   4.815  0.8992 -1.6550 -0.8614
 5225SOL     OW27310   1.045   3.831   0.887  0.3273  0.4481 -0.5461
 5225SOL    HW127311   0.960   3.788   0.898 -0.1552  2.2414  2.7195
 5225SOL    HW227312   1.017   3.885   0.812 -0.6182 -0.4741 -0.8597
 5226SOL     OW27313   3.792   4.348   9.139  0.4243 -0.1240 -0.1220
 5226SOL    HW127314   3.795   4.404   9.062 -1.9011  1.3509  0.8495
 5226SOL    HW227315   3.886   4.337   9.154 -0.0421 -1.4751  1.7541
 5227SOL     OW27316   0.866   2.000   4.758 -0.4068 -0.1695 -0.2990
 5227SOL    HW127317   0.887   1.907   4.767  0.9344 -0.0941 -2.7289
 5227SOL    HW227318   0.917   2.012   4.678  2.4253  0.8323  1.6244
 5228SOL     OW27319   2.013   0.827   0.626 -0.3109 -0.2183  0.0400
 5228SOL    HW127320   1.942   0.776   0.666 -1.1988  0.0181 -1.2294
 5228SOL    HW227321   2.038   0.789   0.541 -1.4787 -1.5120  0.2644
 5229SOL     OW27322   0.653   4.649   8.618  0.2140  0.7621 -0.0037
 5229SOL    HW127323   0.562   4.679   8.618  1.0016  3.1557  0.6268
 5229SOL    HW227324   0.687   4.737   8.632  0.1956  0.3802  2.5059
 5230SOL     OW27325   0.017   3.066  11.884  0.1029 -0.2830  0.2045
 5230SOL    HW127326   0.029   3.017  11.803 -0.4578  1.9293 -1.2158
 5230SOL    HW227327   0.058   3.152  11.880  1.8251 -1.0144  1.8341
 5231SOL     OW27328   2.908   0.428   2.307  0.0218 -0.0413  0.3545
 5231SOL    HW127329   2.930   0.411   2.215  0.6397  0.6708  0.3744
 5231SOL    HW227330   2.994   0.455   2.339  1.0504 -1.9567 -0.7854
 5232SOL     OW27331   2.122   3.667   8.024 -0.2717  0.3447  0.4674
 5232SOL    HW127332   2.212   3.671   8.055 -0.2882 -2.5240  0.8722
 5232SOL    HW227333   2.136   3.624   7.939  1.4105  0.1054  0.8536
 5233SOL     OW27334   0.090   0.357   7.144 -0.2387  0.2524 -0.6585
 5233SOL    HW127335   0.073   0.353   7.238 -0.9973  2.4777 -0.6934
 5233SOL    HW227336   0.114   0.269   7.114  0.4744  0.9784 -2.1887
 5234SOL     OW27337   3.835   0.438   3.167 -0.7602 -0.2653  0.0149
 5234SOL    HW127338   3.857   0.347   3.186 -0.1953 -0.2755 -0.6562
 5234SOL    HW227339   3.754   0.449   3.216 -0.4061  0.3857  0.4556
 5235SOL     OW27340   2.804   0.727   6.643 -0.0514 -0.0733 -0.4714
 5235SOL    HW127341   2.725   0.757   6.597 -0.9733 -2.3462 -0.3489
 5235SOL    HW227342   2.774   0.669   6.713 -0.1879  0.5218 -0.0393
 5236SOL     OW27343   2.655   2.229   6.245 -1.1327 -0.0342 -0.0234
 5236SOL    HW127344   2.629   2.147   6.204 -0.6293  0.4558 -1.3067
 5236SOL    HW227345   2.724   2.260   6.186 -1.1990 -1.7794 -0.9902
 5237SOL     OW27346   1.048   0.775   6.374 -0.0700  1.0085 -0.0625
 5237SOL    HW127347   1.092   0.851   6.412  2.0675  0.0873 -0.7093
 5237SOL    HW227348   1.088   0.757   6.289 -1.4620 -0.6330 -0.3831
 5238SOL     OW27349   1.518   1.138   3.249 -0.0288  0.3147  0.1870
 5238SOL    HW127350   1.471   1.168   3.172 -1.1037  1.1759  1.1852
 5238SOL    HW227351   1.556   1.053   3.225  0.2536  0.7630 -0.9467
 5239SOL     OW27352   2.103   0.920   3.354 -0.2838  0.0059  0.3872
 5239SOL    HW127353   2.112   1.003   3.307  2.6406 -0.1024  0.7799
 5239SOL    HW227354   2.062   0.871   3.283 -3.6883  1.9426  1.0164
 5240SOL     OW27355   3.287   2.500   1.072  0.0205  0.1799  0.3022
 5240SOL    HW127356   3.324   2.510   0.984 -0.3555 -3.2080 -0.2217
 5240SOL    HW227357   3.331   2.428   1.117 -1.0148 -0.9627 -0.5246
 5241SOL     OW27358   0.880   1.777   2.501  0.1052 -0.9258 -0.1001
 5241SOL    HW127359   0.967   1.747   2.473  0.3600  0.5695 -0.9456
 5241SOL    HW227360   0.857   1.812   2.415  1.0168  0.4005  0.1852
 5242SOL     OW27361   0.262   4.540   1.980 -0.1216 -0.1558  0.3685
 5242SOL    HW127362   0.228   4.629   1.993 -1.9883 -0.9383  0.8477
 5242SOL    HW227363   0.244   4.502   2.066  0.2487  2.4400  1.5959
 5243SOL     OW27364   4.632   1.856   9.182  0.0664 -0.0221  0.4732
 5243SOL    HW127365   4.624   1.761   9.178 -1.4970  0.1644 -1.1104
 5243SOL    HW227366   4.718   1.866   9.223  0.2769 -1.2770  0.3228
 5244SOL     OW27367   2.565   1.127   9.891 -0.0142  0.6149 -0.0232
 5244SOL    HW127368   2.537   1.076   9.815 -0.0107 -0.3839  0.6439
 5244SOL    HW227369   2.657   1.146   9.873 -0.5417  3.4558  0.3023
 5245SOL     OW27370   1.876   3.000  10.470 -0.1311 -0.1196  0.3315
 5245SOL    HW127371   1.901   2.997  10.378 -1.8321  0.2142 -0.1419
 5245SOL    HW227372   1.917   2.920  10.501 -3.0656 -0.7793  2.4764
 5246SOL     OW27373   3.192   0.488  14.845  0.2872  0.4653  0.0048
 5246SOL    HW127374   3.113   0.439  14.821  0.0876  0.3905  0.8007
 5246SOL    HW227375   3.258   0.418  14.840  0.4229  0.7566 -2.1479
 5247SOL     OW27376   1.865   0.293   9.149 -0.5799  0.7660  0.2952
 5247SOL    HW127377   1.879   0.331   9.236  0.0408 -0.9437  0.9446
 5247SOL    HW227378   1.916   0.212   9.141 -1.3054  0.2609  0.7442
 5248SOL     OW27379   1.102   0.363  10.324  0.3910 -0.0825  0.1610
 5248SOL    HW127380   1.145   0.443  10.293 -2.4548  0.4132 -2.4650
 5248SOL    HW227381   1.107   0.367  10.420  1.6166 -1.3427  0.1401
 5249SOL     OW27382   1.750   0.801   3.059  0.3790 -0.1745  0.3155
 5249SOL    HW127383   1.739   0.891   3.027 -3.6637 -0.9516 -0.4322
 5249SOL    HW227384   1.703   0.809   3.141 -1.5244  1.7898 -0.9549
 5250SOL     OW27385   1.210   3.145   9.406  0.0598  0.3988  0.0052
 5250SOL    HW127386   1.181   3.232   9.378  0.2089  0.3857 -0.1905
 5250SOL    HW227387   1.235   3.162   9.496  3.4922  0.9244 -1.0480
 5251SOL     OW27388   3.185   0.702   5.464  0.0606 -0.4017 -0.4312
 5251SOL    HW127389   3.244   0.773   5.490  0.0071 -1.1609  1.7601
 5251SOL    HW227390   3.230   0.621   5.488 -1.6365 -1.6709 -1.5374
 5252SOL     OW27391   2.444   2.295  17.586  0.1899  0.0927  0.1591
 5252SOL    HW127392   2.502   2.294  17.663  0.3401 -0.0820  0.0438
 5252SOL    HW227393   2.401   2.210  17.597  0.8676  0.0300  2.3804
 5253SOL     OW27394   0.547   2.185   1.342 -0.9096 -0.7609  0.0741
 5253SOL    HW127395   0.544   2.238   1.421  2.5438 -2.5561  1.4011
 5253SOL    HW227396   0.553   2.094   1.371 -0.9771 -0.2677  1.6179
 5254SOL     OW27397   3.909   1.836  16.625  0.4175  0.1984 -0.5885
 5254SOL    HW127398   3.829   1.877  16.658  0.3349 -0.3242 -0.1486
 5254SOL    HW227399   3.963   1.808  16.698  0.2610  2.2173  0.3021
 5255SOL     OW27400   0.546   4.354  16.114  0.2693  0.1092 -0.5606
 5255SOL    HW127401   0.539   4.398  16.029 -0.1042  0.3689 -0.3897
 5255SOL    HW227402   0.476   4.290  16.101  0.5998  0.2653 -3.2021
 5256SOL     OW27403   1.219   3.565  10.208 -0.3139  0.7206  0.6644
 5256SOL    HW127404   1.264   3.500  10.154  0.1048 -0.9268  3.0128
 5256SOL    HW227405   1.126   3.542  10.202 -0.2133  0.6858 -0.9303
 5257SOL     OW27406   4.574   2.809   4.293 -0.8396 -0.3357 -0.3460
 5257SOL    HW127407   4.535   2.741   4.238 -2.1582  0.1673 -0.0326
 5257SOL    HW227408   4.512   2.804   4.365  1.0938  0.8222  1.4091
 5258SOL     OW27409   2.110   3.639  10.540  0.6071 -0.4231 -0.3966
 5258SOL    HW127410   2.070   3.553  10.549 -0.9554  0.5534  1.9475
 5258SOL    HW227411   2.108   3.667  10.631  0.7686 -0.8336 -0.2675
 5259SOL     OW27412   4.582   2.647  15.757  0.2175 -0.1083  0.0206
 5259SOL    HW127413   4.533   2.729  15.764 -0.3605 -0.6259  1.8120
 5259SOL    HW227414   4.650   2.656  15.824 -1.5368 -2.5332  2.1377
 5260SOL     OW27415   0.800   3.253   5.337  0.8159 -0.4514  0.4793
 5260SOL    HW127416   0.894   3.235   5.347  1.3804  2.0733 -0.3558
 5260SOL    HW227417   0.765   3.187   5.397 -0.6453 -0.8469 -0.8294
 5261SOL     OW27418   3.127   1.949   7.041 -0.5781  0.6212  0.0490
 5261SOL    HW127419   3.136   2.044   7.040  2.0468  0.3600 -1.0160
 5261SOL    HW227420   3.046   1.935   7.091 -0.8875  1.8255 -0.1279
 5262SOL     OW27421   4.239   1.313   9.923  0.1668 -0.5048  0.7888
 5262SOL    HW127422   4.330   1.289   9.941  0.7682  0.5914 -0.8806
 5262SOL    HW227423   4.217   1.384   9.984 -2.7164  0.4909 -1.3915
 5263SOL     OW27424   4.587   3.029   0.404 -0.1628  0.1853  0.0265
 5263SOL    HW127425   4.665   3.083   0.396  0.4794 -0.8394 -0.5680
 5263SOL    HW227426   4.544   3.063   0.325 -0.0861  0.7437  0.2239
 5264SOL     OW27427   0.271   1.813   5.208 -0.6113  0.3683 -0.0581
 5264SOL    HW127428   0.348   1.759   5.189  1.4827  3.0480  0.8091
 5264SOL    HW227429   0.308   1.899   5.226 -1.3545  0.4969  0.8308
 5265SOL     OW27430   3.829   1.678   8.010  0.0615 -0.0399  0.8760
 5265SOL    HW127431   3.839   1.712   8.099  0.7140  0.5882  0.5615
 5265SOL    HW227432   3.762   1.614   8.034  0.1014 -0.3199  0.2170
 5266SOL     OW27433   2.024   2.895  11.471 -0.5558  0.1748 -0.3105
 5266SOL    HW127434   2.068   2.911  11.555  0.5351 -0.1325 -0.8176
 5266SOL    HW227435   2.041   2.802  11.454  0.7623  0.3033  0.3476
 5267SOL     OW27436   4.069   1.722   7.000 -0.1985 -0.0902 -0.6434
 5267SOL    HW127437   4.152   1.768   6.987 -0.5189  0.8080  0.5059
 5267SOL    HW227438   4.050   1.764   7.084 -0.2758  0.0205 -0.7156
 5268SOL     OW27439   3.757   4.391   7.310 -0.9229  0.3310 -0.9510
 5268SOL    HW127440   3.804   4.475   7.303  1.0872 -0.4330  3.7731
 5268SOL    HW227441   3.762   4.377   7.404  0.8476  0.6789 -0.9968
 5269SOL     OW27442   0.884   3.707   1.729  0.5336 -0.0464 -0.4542
 5269SOL    HW127443   0.910   3.799   1.722  1.2532 -0.0800  1.8550
 5269SOL    HW227444   0.963   3.673   1.687 -0.8655 -3.2646 -0.5150
 5270SOL     OW27445   3.678   0.771   5.774 -0.0471 -0.0574 -0.2451
 5270SOL    HW127446   3.754   0.760   5.718  0.1150 -0.0609 -0.0273
 5270SOL    HW227447   3.680   0.865   5.792  2.1533  0.0763 -1.1523
 5271SOL     OW27448   4.237   2.812   8.226 -0.1248  0.4988  0.5185
 5271SOL    HW127449   4.217   2.741   8.165 -0.9974  0.3532  0.9677
 5271SOL    HW227450   4.331   2.796   8.236  0.0721  1.4740  0.2044
 5272SOL     OW27451   2.385   0.290   7.352 -0.0243 -0.0306 -0.1686
 5272SOL    HW127452   2.450   0.360   7.340 -1.4908  1.3567 -0.0993
 5272SOL    HW227453   2.442   0.218   7.327  1.2484  0.3668  1.5755
 5273SOL     OW27454   3.932   3.336   5.757 -0.0035 -0.4752  0.0197
 5273SOL    HW127455   3.887   3.264   5.714 -2.0048  1.3791 -1.0028
 5273SOL    HW227456   4.021   3.301   5.751  0.7798  1.6417 -0.7390
 5274SOL     OW27457   4.537   0.709   2.941 -0.2714 -0.4528  0.1734
 5274SOL    HW127458   4.618   0.758   2.953 -0.8735  0.7912 -0.8339
 5274SOL    HW227459   4.465   0.771   2.952 -0.0592 -0.1238 -0.3298
 5275SOL     OW27460   4.525   2.078   8.502 -0.1864  0.3546  0.4010
 5275SOL    HW127461   4.591   2.032   8.555  0.7263  0.3644 -0.7335
 5275SOL    HW227462   4.464   2.004   8.498 -2.0879  1.7563  3.7243
 5276SOL     OW27463   4.666   0.877   6.923  0.0279 -0.1438  0.4837
 5276SOL    HW127464   4.682   0.829   7.004 -2.2284 -2.2887 -0.3446
 5276SOL    HW227465   4.611   0.825   6.864 -1.5838 -0.6178  2.4394
 5277SOL     OW27466   3.164   1.944   4.153 -0.2586  0.1342 -0.5806
 5277SOL    HW127467   3.231   1.930   4.086 -0.6085 -2.0425 -0.4875
 5277SOL    HW227468   3.215   1.996   4.214  1.9339  0.3583 -2.6159
 5278SOL     OW27469   2.086   0.233   2.057  0.0030  0.1878 -0.0543
 5278SOL    HW127470   2.145   0.289   2.006 -2.1953  2.5435 -0.0663
 5278SOL    HW227471   2.012   0.290   2.080 -0.1151 -0.2517  0.6561
 5279SOL     OW27472   4.308   2.185  14.105 -0.1218 -0.5248 -0.8268
 5279SOL    HW127473   4.233   2.172  14.047 -0.5530 -1.9311  0.0386
 5279SOL    HW227474   4.269   2.248  14.166  2.0769 -0.5616  0.6352
 5280SOL     OW27475   3.285   1.442   3.103  0.4170  0.2902  0.7544
 5280SOL    HW127476   3.268   1.355   3.139 -0.2868  0.9750  2.0920
 5280SOL    HW227477   3.263   1.506   3.171  0.4194 -0.7720  1.7573
 5281SOL     OW27478   2.482   2.921  11.270 -0.1576 -0.1872  0.9311
 5281SOL    HW127479   2.528   2.900  11.189 -2.1261  0.9115 -0.4714
 5281SOL    HW227480   2.392   2.946  11.247  0.7280  2.7927  0.6220
 5282SOL     OW27481   1.451   4.319   0.873  0.1852  0.2509 -0.6292
 5282SOL    HW127482   1.378   4.258   0.881  0.6093  0.0001  1.4030
 5282SOL    HW227483   1.458   4.339   0.780  1.0443 -1.2709 -0.8952
 5283SOL     OW27484   3.977   0.455  13.587  0.0917 -0.1069 -0.3031
 5283SOL    HW127485   3.888   0.452  13.622  0.8662 -0.9627  1.6208
 5283SOL    HW227486   3.966   0.487  13.498  3.7211 -1.1660 -1.1167
 5284SOL     OW27487   1.472   4.477   4.837 -0.3240  0.2510  0.2192
 5284SOL    HW127488   1.428   4.404   4.794 -0.1638  0.1587  0.2122
 5284SOL    HW227489   1.433   4.480   4.924  0.1004  0.4083  0.4030
 5285SOL     OW27490   1.202   0.871   7.044  0.5828 -1.2573  0.0727
 5285SOL    HW127491   1.204   0.961   7.012  0.0077 -1.1354  0.3947
 5285SOL    HW227492   1.197   0.830   6.958  1.4987 -3.2170  0.9483
 5286SOL     OW27493   1.296   4.718   6.506  0.7875  0.3426 -0.0078
 5286SOL    HW127494   1.215   4.713   6.556  0.4964 -1.2101 -0.6228
 5286SOL    HW227495   1.281   4.654   6.436  0.7989  1.5606 -1.1325
 5287SOL     OW27496   4.503   0.271   6.522 -0.3914 -0.6694  0.2688
 5287SOL    HW127497   4.574   0.329   6.550 -0.6948 -1.3012  2.3716
 5287SOL    HW227498   4.433   0.325   6.486  1.4206  0.9545 -0.8257
 5288SOL     OW27499   0.044   3.041   5.234 -0.3073 -0.4562 -0.3142
 5288SOL    HW127500   0.000   3.120   5.203 -1.2895 -1.4915 -1.5483
 5288SOL    HW227501   0.136   3.053   5.212 -0.2807 -1.9640 -0.9991
 5289SOL     OW27502   4.209   1.728  14.976  0.5082 -0.1444  0.2217
 5289SOL    HW127503   4.241   1.737  14.886 -0.3573  1.5178  0.0798
 5289SOL    HW227504   4.119   1.736  14.944  0.0729 -1.9237  1.0263
 5290SOL     OW27505   2.085   2.408   9.140 -0.1949  0.2333  0.4956
 5290SOL    HW127506   2.039   2.403   9.056  0.8618  0.0596 -0.0736
 5290SOL    HW227507   2.033   2.469   9.191  1.3317  2.4517 -0.5974
 5291SOL     OW27508   1.108   4.135   5.401 -0.3640  0.1909 -0.2798
 5291SOL    HW127509   1.076   4.045   5.409  0.1210  0.2023  1.6373
 5291SOL    HW227510   1.123   4.160   5.492  0.9403 -0.8460 -0.2078
 5292SOL     OW27511   3.130   1.546   8.296  0.0356 -0.4351  0.4349
 5292SOL    HW127512   3.126   1.475   8.232 -1.2348 -0.8879  1.0153
 5292SOL    HW227513   3.225   1.558   8.304 -0.3800  1.9069  1.8670
 5293SOL     OW27514   3.690   2.389   3.686  0.0109 -0.3855 -0.3203
 5293SOL    HW127515   3.769   2.442   3.675 -0.3251 -0.1192 -1.4504
 5293SOL    HW227516   3.712   2.314   3.631  0.5125 -0.1835 -0.3900
 5294SOL     OW27517   1.561   2.705   5.143 -0.0686 -0.3775  0.0209
 5294SOL    HW127518   1.583   2.714   5.235  2.3078  2.5634 -0.8373
 5294SOL    HW227519   1.484   2.762   5.139 -2.1245 -3.3414 -2.6012
 5295SOL     OW27520   0.705   4.281   5.646  0.4854  0.0513 -0.0625
 5295SOL    HW127521   0.653   4.201   5.658 -0.1906  0.6875  1.2316
 5295SOL    HW227522   0.632   4.339   5.624 -0.0681 -0.5588  0.1401
 5296SOL     OW27523   1.986   2.642  10.346 -0.0908 -0.3267  0.0948
 5296SOL    HW127524   1.971   2.636  10.440 -2.8809  4.5034 -0.0471
 5296SOL    HW227525   1.907   2.606  10.306 -0.2671  1.5292 -1.2082
 5297SOL     OW27526   3.568   1.441   1.371 -0.1284  0.3311 -0.1574
 5297SOL    HW127527   3.525   1.458   1.287 -0.4324 -0.7075 -0.2218
 5297SOL    HW227528   3.632   1.372   1.350 -0.4681 -0.5301  1.6049
 5298SOL     OW27529   4.408   0.947   5.609  0.1166 -0.4093 -0.1894
 5298SOL    HW127530   4.386   1.002   5.534  2.5542  1.7431  0.6690
 5298SOL    HW227531   4.460   0.883   5.560 -0.6699 -2.0247  1.0855
 5299SOL     OW27532   1.927   1.271   5.662 -0.7595  0.2528 -0.4867
 5299SOL    HW127533   1.902   1.362   5.679 -1.5936 -0.3278  1.3622
 5299SOL    HW227534   1.985   1.294   5.589  0.5604 -1.2137  0.0881
 5300SOL     OW27535   0.599   1.731  13.441 -0.8576  0.7481  0.5620
 5300SOL    HW127536   0.590   1.657  13.501  0.5439 -0.4998 -0.7789
 5300SOL    HW227537   0.609   1.696  13.353  1.6686  3.5274 -0.2601
 5301SOL     OW27538   4.256   1.388   1.752  0.4720 -0.1215  0.0606
 5301SOL    HW127539   4.210   1.395   1.835  1.0145  2.0502  0.1720
 5301SOL    HW227540   4.264   1.477   1.718  0.0838  0.4027  1.3544
 5302SOL     OW27541   3.946   2.467   3.646  0.8085  0.7468  0.1415
 5302SOL    HW127542   3.976   2.553   3.616 -0.4856  1.8198  1.9005
 5302SOL    HW227543   3.980   2.418   3.572  2.9836  1.2912  0.7741
 5303SOL     OW27544   2.141   3.141   1.335 -0.0887  0.6302 -0.2733
 5303SOL    HW127545   2.202   3.112   1.403  2.8746  1.1438 -2.6826
 5303SOL    HW227546   2.062   3.135   1.388  0.3583 -1.8250  0.1135
 5304SOL     OW27547   4.547   0.719   3.361 -0.5464 -0.2870  0.0063
 5304SOL    HW127548   4.621   0.729   3.301 -0.2068 -2.5191  0.0463
 5304SOL    HW227549   4.519   0.810   3.352  3.4980  0.9874  0.3807
 5305SOL     OW27550   0.278   3.329  14.992 -0.3478  0.3103 -0.1361
 5305SOL    HW127551   0.373   3.332  15.000 -0.3066 -0.8144 -0.1919
 5305SOL    HW227552   0.250   3.257  15.049 -0.2415  0.7890  0.5199
 5306SOL     OW27553   1.892   2.156  12.685  0.3789 -0.0531 -0.2441
 5306SOL    HW127554   1.987   2.153  12.689  0.4243 -0.1990 -1.4850
 5306SOL    HW227555   1.871   2.082  12.741 -0.0997  2.0192  2.3628
 5307SOL     OW27556   3.954   1.709  11.714 -0.2752 -0.1156 -0.6199
 5307SOL    HW127557   4.004   1.702  11.632 -1.0797 -0.9897 -1.0349
 5307SOL    HW227558   3.959   1.802  11.735  0.6088 -0.9156  2.6433
 5308SOL     OW27559   2.479   2.311   6.415 -0.0491  0.2402  0.3054
 5308SOL    HW127560   2.505   2.247   6.482  1.6536 -0.4057 -0.9746
 5308SOL    HW227561   2.543   2.289   6.347  0.2319  1.9522  0.0210
 5309SOL     OW27562   4.466   0.364  16.037  0.5193 -0.1567  0.1466
 5309SOL    HW127563   4.383   0.399  16.068  0.2780 -0.5041 -0.1052
 5309SOL    HW227564   4.485   0.415  15.958 -0.1994 -0.5179 -0.2644
 5310SOL     OW27565   4.526   2.751   9.771  0.3213  0.2657  0.1672
 5310SOL    HW127566   4.604   2.697   9.781  1.3329  1.7499  0.4016
 5310SOL    HW227567   4.549   2.830   9.820 -3.8216  1.1110  0.7385
 5311SOL     OW27568   1.864   2.488   4.896  0.2444  0.4640 -0.2201
 5311SOL    HW127569   1.805   2.456   4.963  1.5967  0.6206  1.0522
 5311SOL    HW227570   1.838   2.580   4.902 -2.0690 -0.1252 -1.4813
 5312SOL     OW27571   0.280   4.069   8.085  1.0011  0.1785  0.0453
 5312SOL    HW127572   0.223   4.004   8.127 -0.7765  0.8400 -1.3144
 5312SOL    HW227573   0.330   4.089   8.163 -1.7447  2.1261  1.2794
 5313SOL     OW27574   2.890   0.808  14.050  0.4430  0.2989 -0.3688
 5313SOL    HW127575   2.898   0.858  14.132  1.7550 -0.6587  0.0801
 5313SOL    HW227576   2.938   0.736  14.091 -3.1176 -1.9581 -0.1396
 5314SOL     OW27577   4.397   3.491   5.115  0.7636 -0.1686 -0.2125
 5314SOL    HW127578   4.430   3.571   5.075  0.2362  0.3085  0.3098
 5314SOL    HW227579   4.356   3.535   5.189  2.1112  1.1945 -0.2975
 5315SOL     OW27580   4.261   2.944  14.930 -0.6823 -0.1414  0.1692
 5315SOL    HW127581   4.339   2.999  14.939 -0.1725 -0.0867 -4.5688
 5315SOL    HW227582   4.271   2.912  14.840  2.1448 -3.3501  1.6449
 5316SOL     OW27583   3.384   0.422  10.662  0.3031  0.1334 -0.1799
 5316SOL    HW127584   3.353   0.512  10.662  0.6895  0.2598  1.0862
 5316SOL    HW227585   3.308   0.383  10.619  0.0823 -1.9377  2.1252
 5317SOL     OW27586   3.180   2.594   1.308 -0.1123 -0.4547 -0.6619
 5317SOL    HW127587   3.233   2.604   1.229 -2.2034  1.1697 -1.8451
 5317SOL    HW227588   3.093   2.578   1.272 -0.1968 -0.0857 -0.6231
 5318SOL     OW27589   3.110   0.366   8.285 -0.3893 -0.2362  0.9084
 5318SOL    HW127590   3.191   0.325   8.317  0.0367  1.3114  1.8073
 5318SOL    HW227591   3.063   0.283   8.273 -0.0858 -0.4295  1.0407
 5319SOL     OW27592   1.863   2.202   7.939  0.2973 -0.9195 -0.3066
 5319SOL    HW127593   1.953   2.196   7.909 -0.0616  0.2207 -1.6575
 5319SOL    HW227594   1.863   2.125   7.995 -0.0148 -0.8685 -0.2334
 5320SOL     OW27595   3.842   3.832   1.672 -0.6829 -0.6704 -0.4582
 5320SOL    HW127596   3.916   3.772   1.667  0.5231  0.9708 -1.9083
 5320SOL    HW227597   3.800   3.822   1.587 -1.3735  0.5150 -0.2671
 5321SOL     OW27598   4.344   3.724  15.356  0.1053  0.6488 -0.3898
 5321SOL    HW127599   4.289   3.711  15.278  0.3618 -1.0746 -0.2797
 5321SOL    HW227600   4.280   3.744  15.425  1.0577 -0.3518  0.7639
 5322SOL     OW27601   2.695   0.886   2.659  0.1203 -0.0754  0.0404
 5322SOL    HW127602   2.631   0.855   2.596  2.1631 -0.6952 -1.7269
 5322SOL    HW227603   2.692   0.804   2.709  0.9552 -0.2080 -0.1202
 5323SOL     OW27604   2.017   2.761  15.431  0.1357 -0.6194  0.2941
 5323SOL    HW127605   2.096   2.783  15.383 -0.1328  2.3690  1.2536
 5323SOL    HW227606   1.949   2.812  15.387  0.6499  2.0107  2.5102
 5324SOL     OW27607   3.007   0.086   8.090 -0.8135 -0.2833  0.0923
 5324SOL    HW127608   2.973   0.176   8.087 -2.4131 -0.8802  0.4939
 5324SOL    HW227609   3.031   0.084   8.183 -1.7552 -1.3570  0.3082
 5325SOL     OW27610   1.153   4.302   6.574  0.3761 -0.3272  0.0268
 5325SOL    HW127611   1.156   4.387   6.618  1.5389 -0.0008 -0.6942
 5325SOL    HW227612   1.221   4.256   6.624  1.1723  1.2878  0.4191
 5326SOL     OW27613   0.963   3.459   1.183  0.1542  0.1532  0.2727
 5326SOL    HW127614   1.034   3.484   1.124  0.2472 -0.4080  0.1545
 5326SOL    HW227615   1.013   3.413   1.251 -0.8189 -1.0424  0.1688
 5327SOL     OW27616   1.327   0.068   7.261 -0.1370 -0.4445  0.0993
 5327SOL    HW127617   1.361   4.737   7.317 -1.4773 -0.0016  1.4741
 5327SOL    HW227618   1.235   0.067   7.286 -1.2807 -0.5525 -4.2002
 5328SOL     OW27619   4.532   2.486   5.602  0.3569 -0.5276  0.0288
 5328SOL    HW127620   4.627   2.484   5.589  0.6911  0.6662  2.4382
 5328SOL    HW227621   4.521   2.398   5.638 -0.5091 -0.3761  0.1279
 5329SOL     OW27622   2.642   0.738   0.424 -0.3332 -0.1377 -0.2205
 5329SOL    HW127623   2.647   0.754   0.518 -0.8602  2.3554 -0.6285
 5329SOL    HW227624   2.733   0.722   0.400 -1.3931  0.5526 -4.6535
 5330SOL     OW27625   3.167   1.023   8.221  0.1841  0.0003  0.5796
 5330SOL    HW127626   3.095   1.048   8.280  1.6280  1.0055  1.8888
 5330SOL    HW227627   3.135   1.022   8.131  0.6398 -0.8722  0.4327
 5331SOL     OW27628   2.094   0.580   8.840 -0.1733  0.3254 -0.4137
 5331SOL    HW127629   2.172   0.531   8.865 -0.9486  0.5021  2.3925
 5331SOL    HW227630   2.096   0.651   8.904 -2.4146  3.4274 -3.7845
 5332SOL     OW27631   2.023   0.657   4.982 -0.6837 -0.1454 -0.0570
 5332SOL    HW127632   1.969   0.624   4.910 -1.6110 -0.2366  0.6766
 5332SOL    HW227633   1.965   0.733   4.982 -0.5845 -0.0693 -0.7236
 5333SOL     OW27634   1.502   3.735   3.836 -0.4410  0.5154 -0.1905
 5333SOL    HW127635   1.528   3.818   3.877 -0.8379 -0.4918  2.1015
 5333SOL    HW227636   1.577   3.678   3.849 -0.4456  1.3681  3.4697
 5334SOL     OW27637   2.054   3.854   5.529  0.3710 -0.5065 -0.0161
 5334SOL    HW127638   1.972   3.806   5.529 -0.2750  0.5876  0.6761
 5334SOL    HW227639   2.075   3.851   5.436 -0.8129  0.7719 -0.3179
 5335SOL     OW27640   1.721   3.291   6.716  0.0779 -0.6172 -0.1479
 5335SOL    HW127641   1.626   3.291   6.714  0.0207 -0.3898  2.3870
 5335SOL    HW227642   1.741   3.291   6.623 -2.0866  1.9963 -0.6029
 5336SOL     OW27643   1.640   3.799   4.447 -0.8428  0.4794 -0.5784
 5336SOL    HW127644   1.676   3.839   4.526 -1.1747  1.5058 -0.9410
 5336SOL    HW227645   1.545   3.796   4.457 -0.4837 -2.8393  1.8268
 5337SOL     OW27646   3.088   2.515   5.833  0.1515 -0.1146  0.0933
 5337SOL    HW127647   3.007   2.565   5.835 -0.3395 -0.9281  0.8108
 5337SOL    HW227648   3.056   2.425   5.847  1.2728 -0.5055  0.1742
 5338SOL     OW27649   1.629   2.710  10.373 -0.1685 -0.4318 -0.4560
 5338SOL    HW127650   1.614   2.724  10.466 -0.2726 -0.5553 -0.4548
 5338SOL    HW227651   1.703   2.650  10.371 -0.1820 -0.4235 -1.1585
 5339SOL     OW27652   4.554   4.557   4.686  0.2380 -0.0802 -0.3945
 5339SOL    HW127653   4.615   4.486   4.703  1.1138  0.5036 -1.1234
 5339SOL    HW227654   4.500   4.531   4.611  0.5853  0.9116 -0.9901
 5340SOL     OW27655   3.882   4.488   4.944  0.4426  0.2132 -0.0487
 5340SOL    HW127656   3.871   4.401   4.905  1.9493 -0.3389  0.7407
 5340SOL    HW227657   3.950   4.462   5.006  1.5753  1.2135 -0.8720
 5341SOL     OW27658   1.114   4.305   5.138 -0.1969 -0.2820  0.2564
 5341SOL    HW127659   1.106   4.238   5.071 -1.0000  0.5210 -0.4391
 5341SOL    HW227660   1.116   4.253   5.219 -0.2006  0.5080  0.7668
 5342SOL     OW27661   0.865   4.478   8.536 -0.7205  0.4485 -0.3230
 5342SOL    HW127662   0.810   4.416   8.489 -0.2272 -0.3415  0.1457
 5342SOL    HW227663   0.791   4.534   8.561  0.6443  0.4941  3.6543
 5343SOL     OW27664   1.189   1.520   5.579 -0.7252 -0.2934  0.2717
 5343SOL    HW127665   1.262   1.460   5.597 -2.7230 -2.9193 -0.2658
 5343SOL    HW227666   1.185   1.518   5.483 -0.9620  3.3520  0.2291
 5344SOL     OW27667   3.095   2.229  17.506  0.5648 -0.1447 -0.2249
 5344SOL    HW127668   3.033   2.213  17.577 -0.1376  0.0075 -0.8050
 5344SOL    HW227669   3.130   2.147  17.471  0.1525  0.1786 -1.3968
 5345SOL     OW27670   2.613   1.995  14.520  0.0178  0.3642 -0.0919
 5345SOL    HW127671   2.607   1.907  14.484 -1.6726  0.9302 -1.1693
 5345SOL    HW227672   2.622   2.043  14.438  0.3985  0.0834 -0.2133
 5346SOL     OW27673   0.888   3.331   4.015 -0.6488  0.3625  0.1981
 5346SOL    HW127674   0.831   3.293   3.949 -0.5140  1.8365 -0.7510
 5346SOL    HW227675   0.920   3.250   4.054 -2.2198 -1.1548 -1.6533
 5347SOL     OW27676   2.383   0.259   6.686 -0.0563  0.2199  0.4613
 5347SOL    HW127677   2.357   0.313   6.760 -2.8836 -1.4040  0.6809
 5347SOL    HW227678   2.477   0.267   6.701 -0.2267 -0.5375  1.9384
 5348SOL     OW27679   2.062   4.421   2.802 -0.2442  0.3124  0.2610
 5348SOL    HW127680   2.054   4.444   2.709  0.6729 -1.0734 -0.1695
 5348SOL    HW227681   1.998   4.476   2.846 -0.7356  1.1772 -1.5225
 5349SOL     OW27682   0.277   1.702  12.194  0.2412 -0.1637 -0.1002
 5349SOL    HW127683   0.334   1.767  12.234 -2.2787  1.9373  0.0689
 5349SOL    HW227684   0.212   1.687  12.263  0.3931 -0.7624 -0.0846
 5350SOL     OW27685   0.212   4.631   3.909 -0.0710  0.1888  0.0184
 5350SOL    HW127686   0.212   4.680   3.991  1.1054  1.3064 -0.6527
 5350SOL    HW227687   0.157   4.560   3.944  1.6274 -1.6199 -1.0076
 5351SOL     OW27688   3.605   0.072  16.111 -0.0485  1.0278  0.3723
 5351SOL    HW127689   3.511   0.059  16.104 -0.1689  2.4487 -0.7897
 5351SOL    HW227690   3.615   0.136  16.181  1.4889  1.0414  0.1491
 5352SOL     OW27691   0.358   4.418   3.818 -0.1720  0.4830  1.0164
 5352SOL    HW127692   0.282   4.392   3.765 -1.5964  1.1075  2.7690
 5352SOL    HW227693   0.320   4.491   3.868  0.3756  0.9538  0.7439
 5353SOL     OW27694   3.030   0.307   7.068  0.4931 -0.1582 -0.0634
 5353SOL    HW127695   3.074   0.392   7.058 -0.9473  0.9431  3.0941
 5353SOL    HW227696   3.104   0.261   7.109  1.2866 -1.0979 -2.5318
 5354SOL     OW27697   0.057   4.454   4.043 -0.0668 -0.8036 -0.1878
 5354SOL    HW127698   0.011   4.373   4.021 -1.3264 -0.7036  2.1588
 5354SOL    HW227699   4.726   4.513   4.069  0.7721  0.3951 -0.5937
 5355SOL     OW27700   3.718   1.461   7.184  0.4807  0.0772 -0.1432
 5355SOL    HW127701   3.803   1.501   7.202  0.0600  0.8084  0.2077
 5355SOL    HW227702   3.726   1.394   7.253 -0.2926  0.0875 -0.0401
 5356SOL     OW27703   2.853   0.560  15.859 -0.5344  0.4571  0.0077
 5356SOL    HW127704   2.888   0.579  15.772  0.5372  1.0641  0.5699
 5356SOL    HW227705   2.893   0.628  15.912  1.7037 -0.4885 -0.4680
 5357SOL     OW27706   0.615   1.257  13.815  0.2825 -0.1109 -0.1046
 5357SOL    HW127707   0.590   1.214  13.896 -0.8132  0.6893 -0.0100
 5357SOL    HW227708   0.555   1.329  13.793 -1.4118 -2.3895 -2.9560
 5358SOL     OW27709   0.554   2.686   7.357  0.0364  0.2548 -0.7955
 5358SOL    HW127710   0.552   2.618   7.424  0.3085  0.4347 -0.6028
 5358SOL    HW227711   0.510   2.640   7.286  2.2037  0.3923 -2.2592
 5359SOL     OW27712   2.921   3.066   1.767  0.0382 -0.2549 -0.0655
 5359SOL    HW127713   3.010   3.094   1.746 -0.3479 -0.4888 -1.9693
 5359SOL    HW227714   2.868   3.114   1.704  0.4118 -0.9855 -0.9349
 5360SOL     OW27715   1.042   0.034  17.129 -0.1073  0.3377 -0.2114
 5360SOL    HW127716   0.986   0.090  17.076 -1.7123 -0.7082  0.3898
 5360SOL    HW227717   1.012   4.685  17.106 -0.1013  0.3264 -0.1754
 5361SOL     OW27718   2.562   1.851   1.609  0.1938 -0.0664  0.9138
 5361SOL    HW127719   2.559   1.812   1.521 -0.8640  2.7335 -0.3065
 5361SOL    HW227720   2.483   1.906   1.607  0.7128  0.6519  0.0900
 5362SOL     OW27721   2.632   4.262  11.661  0.4426  0.5738 -0.1876
 5362SOL    HW127722   2.651   4.338  11.606  1.4570 -0.0517 -0.7101
 5362SOL    HW227723   2.650   4.306  11.744 -0.6126  0.1947  0.2476
 5363SOL     OW27724   1.015   3.520   2.367 -0.7534  1.0201  0.1809
 5363SOL    HW127725   0.923   3.503   2.350  0.2465 -3.1621 -1.0158
 5363SOL    HW227726   1.027   3.426   2.382  1.6166  0.9781 -1.9862
 5364SOL     OW27727   2.078   2.710  11.807 -0.1158  0.5161  0.1549
 5364SOL    HW127728   2.001   2.704  11.750  0.0805  0.0676 -0.0661
 5364SOL    HW227729   2.052   2.739  11.894  2.3391  0.9632  0.7448
 5365SOL     OW27730   3.072   0.188  13.718 -0.3272 -0.5389  0.3412
 5365SOL    HW127731   3.107   0.101  13.700  0.0980 -0.6145  1.4955
 5365SOL    HW227732   3.092   0.237  13.639  0.6711  0.1600  1.0158
 5366SOL     OW27733   3.278   2.814  12.048 -0.1067  0.0990  0.2523
 5366SOL    HW127734   3.329   2.894  12.066  0.4096  0.6816 -3.6961
 5366SOL    HW227735   3.320   2.756  12.111  0.0621 -0.3712 -0.2966
 5367SOL     OW27736   2.312   3.250   3.347  0.4823 -0.9844 -0.1947
 5367SOL    HW127737   2.333   3.163   3.314 -1.5608 -0.8924 -1.7492
 5367SOL    HW227738   2.217   3.245   3.339  0.5178  1.4398 -2.1563
 5368SOL     OW27739   1.953   2.448   5.838  0.3901 -0.8599  0.0811
 5368SOL    HW127740   1.937   2.365   5.883 -1.0270 -0.9577 -0.6070
 5368SOL    HW227741   2.031   2.422   5.788 -0.0692 -1.3573 -0.3775
 5369SOL     OW27742   4.252   0.741  16.432  0.1426 -0.7839  0.0193
 5369SOL    HW127743   4.288   0.829  16.422 -0.9710 -0.5250 -1.7794
 5369SOL    HW227744   4.328   0.691  16.402  3.2165  3.2867  0.9990
 5370SOL     OW27745   2.861   0.267   2.757  0.1331  0.4381  0.4251
 5370SOL    HW127746   2.863   0.317   2.838 -0.3342  1.1735 -0.0215
 5370SOL    HW227747   2.789   0.208   2.779 -0.2133  1.4181  1.8985
 5371SOL     OW27748   2.855   1.175   4.585 -0.1594  0.4727  0.2825
 5371SOL    HW127749   2.813   1.095   4.554  1.2683 -0.9116  1.8557
 5371SOL    HW227750   2.924   1.148   4.646 -0.4382 -1.2400 -0.1387
 5372SOL     OW27751   0.819   0.480   8.823  0.2067  0.3167  0.1909
 5372SOL    HW127752   0.851   0.395   8.852  3.4923  2.4400  2.8251
 5372SOL    HW227753   0.834   0.535   8.900  0.1670 -0.5860  0.8303
 5373SOL     OW27754   0.588   1.792  16.943  0.2199  0.1003  0.2198
 5373SOL    HW127755   0.540   1.739  17.007 -1.5978  2.3913  0.7816
 5373SOL    HW227756   0.619   1.864  16.999  0.5447  0.2382 -0.1382
 5374SOL     OW27757   0.654   3.583   2.572 -0.4125 -0.2158  0.1765
 5374SOL    HW127758   0.679   3.555   2.660 -0.7775 -1.7459 -0.2041
 5374SOL    HW227759   0.571   3.622   2.599  0.3936  2.0849 -0.6946
 5375SOL     OW27760   1.825   3.578   0.713  0.1105  0.6004 -0.5375
 5375SOL    HW127761   1.875   3.659   0.701  0.5987  0.1486 -1.5845
 5375SOL    HW227762   1.871   3.509   0.666  2.5475  1.8917 -0.0550
 5376SOL     OW27763   2.066   3.128  11.324 -0.0639  0.2795 -0.0802
 5376SOL    HW127764   1.985   3.176  11.306 -1.1708 -1.7759 -0.5177
 5376SOL    HW227765   2.033   3.047  11.362 -0.3659  0.0539 -0.8117
 5377SOL     OW27766   4.446   4.140  16.350  0.0909 -0.2581 -0.0090
 5377SOL    HW127767   4.389   4.212  16.322  1.3364  0.8998  0.4242
 5377SOL    HW227768   4.414   4.063  16.303 -1.3485  0.6206 -0.4788
 5378SOL     OW27769   2.286   0.425  15.043 -0.4613 -0.6093  0.1966
 5378SOL    HW127770   2.225   0.476  14.991 -1.1114 -2.3110 -0.7280
 5378SOL    HW227771   2.261   0.333  15.029 -1.6640 -0.3872  0.9451
 5379SOL     OW27772   2.247   1.030  17.078  0.1718 -0.2826  0.2413
 5379SOL    HW127773   2.253   0.953  17.134 -0.7823 -0.0013  0.7306
 5379SOL    HW227774   2.262   0.978  16.999 -0.0927 -2.0550  1.3806
 5380SOL     OW27775   4.182   2.305   6.199 -0.2287  0.0670 -0.3634
 5380SOL    HW127776   4.137   2.363   6.261 -0.0295  0.6633 -0.7813
 5380SOL    HW227777   4.193   2.225   6.252 -2.4673 -0.5007 -0.7319
 5381SOL     OW27778   1.008   2.376  15.051  0.0541  0.1549  0.1835
 5381SOL    HW127779   1.055   2.313  14.995  1.4367  1.2938  0.0645
 5381SOL    HW227780   0.926   2.330  15.072 -1.1580  1.3125 -2.0752
 5382SOL     OW27781   3.452   3.805   3.227  0.0345 -0.1362  0.4178
 5382SOL    HW127782   3.375   3.756   3.253  0.0193 -0.5348 -0.3795
 5382SOL    HW227783   3.413   3.891   3.210  0.4804  0.0207  0.1680
 5383SOL     OW27784   1.988   1.813   6.102 -0.1551  0.1018  0.0343
 5383SOL    HW127785   2.008   1.752   6.032  1.3858  0.2299  0.3709
 5383SOL    HW227786   1.993   1.758   6.181  0.5938  0.1870  0.0409
 5384SOL     OW27787   0.699   2.512  11.784 -0.3349 -0.4247  0.1360
 5384SOL    HW127788   0.714   2.599  11.745  1.1565 -0.8487 -0.2527
 5384SOL    HW227789   0.615   2.485  11.748  1.5856 -1.8354 -3.3106
 5385SOL     OW27790   2.958   1.141   1.822  0.1572  0.0170 -0.8105
 5385SOL    HW127791   2.973   1.101   1.908  0.4444  1.4489 -0.1878
 5385SOL    HW227792   3.045   1.177   1.802 -0.2191  1.6810  0.5884
 5386SOL     OW27793   1.589   1.861  12.868  0.0254  0.4251  0.0851
 5386SOL    HW127794   1.516   1.850  12.806  2.7942 -0.6732 -2.9599
 5386SOL    HW227795   1.629   1.774  12.869 -2.1690 -0.5840  0.1827
 5387SOL     OW27796   3.367   2.688   8.614  0.1466 -0.4282  0.2338
 5387SOL    HW127797   3.431   2.616   8.613 -0.0521 -0.6024  0.1848
 5387SOL    HW227798   3.346   2.704   8.522  2.0025  1.2913  0.1088
 5388SOL     OW27799   2.731   3.245   7.477  0.4210 -0.0918 -0.1386
 5388SOL    HW127800   2.761   3.334   7.497  1.1299 -0.1018 -1.1450
 5388SOL    HW227801   2.640   3.256   7.446  0.6302 -2.3500 -1.5454
 5389SOL     OW27802   3.267   1.600   4.633 -0.4103 -0.0081  0.2152
 5389SOL    HW127803   3.305   1.621   4.547 -1.1034  0.2867 -0.0152
 5389SOL    HW227804   3.236   1.689   4.651  0.9577  0.5533 -0.1695
 5390SOL     OW27805   3.054   0.618   1.382 -0.0929 -0.0585  0.1665
 5390SOL    HW127806   3.149   0.621   1.370 -0.0953 -0.3364  0.0727
 5390SOL    HW227807   3.055   0.682   1.453 -0.1007 -0.2032  0.2958
 5391SOL     OW27808   0.726   0.797   6.117  0.0068 -0.1355  0.2940
 5391SOL    HW127809   0.684   0.713   6.136  1.2432 -0.5991  0.9683
 5391SOL    HW227810   0.646   0.846   6.096  0.2407  0.6499  1.2179
 5392SOL     OW27811   1.667   0.909   8.880 -0.0160 -0.0007 -0.4751
 5392SOL    HW127812   1.620   0.991   8.893  1.4834  0.5825  1.2722
 5392SOL    HW227813   1.708   0.900   8.966 -1.1696 -0.0177  0.0825
 5393SOL     OW27814   3.037   2.380   8.740 -0.4830 -0.6805  0.2026
 5393SOL    HW127815   2.982   2.439   8.689  0.4255  0.0658  0.0981
 5393SOL    HW227816   3.034   2.430   8.822 -1.3919 -0.9960  0.3745
 5394SOL     OW27817   0.346   4.520  11.818 -0.2338 -0.4065 -0.2951
 5394SOL    HW127818   0.375   4.479  11.899  0.3220 -0.7699 -0.6825
 5394SOL    HW227819   0.370   4.612  11.832  0.8767 -0.7011 -0.2359
 5395SOL     OW27820   2.543   0.855  12.607  0.2016  0.0679 -0.0309
 5395SOL    HW127821   2.458   0.893  12.629  0.2019  0.0135  0.0666
 5395SOL    HW227822   2.544   0.794  12.681 -1.6323  0.2403  0.1517
 5396SOL     OW27823   2.640   0.612   2.724  0.4810  0.1792 -0.2157
 5396SOL    HW127824   2.643   0.537   2.784 -1.2028 -0.2508 -0.6854
 5396SOL    HW227825   2.638   0.568   2.639 -2.6746  1.6843 -0.9278
 5397SOL     OW27826   2.366   1.721   0.495  0.0729  0.0082 -0.1953
 5397SOL    HW127827   2.357   1.626   0.499 -3.0384  0.1924 -2.3698
 5397SOL    HW227828   2.401   1.755   0.577 -1.9983  0.1870  0.6224
 5398SOL     OW27829   2.389   2.662  12.335  0.0630 -0.3784 -0.2341
 5398SOL    HW127830   2.481   2.641  12.320  1.0014  3.1311  0.6604
 5398SOL    HW227831   2.383   2.745  12.289  0.6746  0.1354  0.6138
 5399SOL     OW27832   4.592   3.031  15.552 -0.1509  0.2329 -0.0818
 5399SOL    HW127833   4.612   3.087  15.477 -0.5093  0.6013  0.1004
 5399SOL    HW227834   4.592   2.944  15.513  1.3771  0.9454 -1.6843
 5400SOL     OW27835   1.730   1.271   9.426  0.0065  0.1777 -0.3086
 5400SOL    HW127836   1.748   1.365   9.419 -0.8833  0.3402 -0.4044
 5400SOL    HW227837   1.812   1.247   9.469  0.0841  0.1680 -0.4611
 5401SOL     OW27838   2.576   0.501   8.158  0.5325 -0.3672  0.2025
 5401SOL    HW127839   2.493   0.548   8.149 -0.5098 -2.2942 -0.4134
 5401SOL    HW227840   2.635   0.556   8.107 -0.3408  0.0043 -0.4092
 5402SOL     OW27841   4.736   1.855  10.777 -0.2544 -0.2099  0.8137
 5402SOL    HW127842   0.020   1.793  10.707 -2.1114  0.7384 -0.6473
 5402SOL    HW227843   0.073   1.848  10.834 -1.3269 -2.1754  2.0202
 5403SOL     OW27844   1.517   4.372   5.964 -0.3389  0.2261 -0.3640
 5403SOL    HW127845   1.608   4.400   5.965  0.3402 -1.7808 -3.4567
 5403SOL    HW227846   1.492   4.434   6.032 -0.3253 -0.3649  0.1779
 5404SOL     OW27847   2.636   4.167   3.607  0.8492 -0.6384  0.3001
 5404SOL    HW127848   2.621   4.073   3.594  0.9053 -0.7628  1.1269
 5404SOL    HW227849   2.729   4.169   3.631  0.4962  1.3104  1.5691
 5405SOL     OW27850   1.401   3.600  10.590 -0.3730  0.0109 -0.1965
 5405SOL    HW127851   1.471   3.641  10.641  0.5215 -2.2389  0.3926
 5405SOL    HW227852   1.448   3.540  10.531  0.6655 -0.5841  1.2325
 5406SOL     OW27853   0.858   4.437   5.773 -0.0209 -0.6748  0.1385
 5406SOL    HW127854   0.807   4.373   5.723  0.2281  0.3436 -1.4102
 5406SOL    HW227855   0.795   4.452   5.844 -1.9024 -2.5084 -1.1432
 5407SOL     OW27856   3.701   3.415  11.453 -0.3208  0.2384 -0.0262
 5407SOL    HW127857   3.743   3.329  11.445 -0.5307  0.3731 -2.4135
 5407SOL    HW227858   3.614   3.402  11.417 -1.2480  1.6179  1.7559
 5408SOL     OW27859   3.086   0.809   4.412  0.2560 -0.4197  0.0526
 5408SOL    HW127860   2.994   0.804   4.440 -0.3288  3.2020 -1.2629
 5408SOL    HW227861   3.116   0.806   4.503 -1.9908 -0.5627  0.7896
 5409SOL     OW27862   2.007   0.040   2.281 -0.5098 -0.0404  0.4128
 5409SOL    HW127863   2.031   0.105   2.215 -0.5995 -1.1711 -0.7288
 5409SOL    HW227864   2.090   4.737   2.302 -0.1544 -0.1401 -1.2423
 5410SOL     OW27865   0.471   4.141   4.582 -0.3567 -0.3055  0.0090
 5410SOL    HW127866   0.380   4.116   4.566 -0.3427  0.0108 -0.5432
 5410SOL    HW227867   0.473   4.127   4.677 -0.2188  0.1915  0.0773
 5411SOL     OW27868   0.208   1.821   1.136 -0.7401 -0.5266  0.0755
 5411SOL    HW127869   0.256   1.761   1.193  1.4098  2.5250  1.4734
 5411SOL    HW227870   0.180   1.886   1.200 -1.4321  0.6898 -1.4698
 5412SOL     OW27871   0.369   3.671   6.911  0.2963  0.1537  0.0262
 5412SOL    HW127872   0.298   3.622   6.953 -0.2416  1.5924  0.7813
 5412SOL    HW227873   0.365   3.644   6.819 -1.3370  0.1964  0.0911
 5413SOL     OW27874   2.927   0.021  17.362  0.6047 -0.1067 -0.0321
 5413SOL    HW127875   2.884   4.675  17.371 -1.6272  0.7477 -2.6873
 5413SOL    HW227876   2.939   0.013  17.268 -0.2990 -0.8413 -0.0866
 5414SOL     OW27877   2.714   4.682   3.016  0.5036 -0.3500 -0.1904
 5414SOL    HW127878   2.649   4.644   3.076  0.1226  0.1683 -0.2786
 5414SOL    HW227879   2.705   4.639   2.932 -0.5720  0.7410 -0.6338
 5415SOL     OW27880   1.941   1.038  14.333  0.3514  0.2391 -0.5123
 5415SOL    HW127881   1.996   1.102  14.377 -0.3926  0.0218  0.7297
 5415SOL    HW227882   1.989   0.955  14.339  3.3259  2.0615  0.8773
 5416SOL     OW27883   0.637   0.699  17.118  0.1364  0.2505  0.0011
 5416SOL    HW127884   0.587   0.761  17.171 -2.2003 -0.6864 -1.0959
 5416SOL    HW227885   0.638   0.744  17.034  1.7109  1.2758  0.5827
 5417SOL     OW27886   2.988   1.838   3.105  0.1981 -0.1414  0.3435
 5417SOL    HW127887   2.963   1.929   3.090  0.5610  0.0608  0.9629
 5417SOL    HW227888   2.916   1.790   3.145 -0.2953 -0.5196 -1.0176
 5418SOL     OW27889   2.650   3.083   2.860  0.5471 -0.4640  0.1405
 5418SOL    HW127890   2.709   3.008   2.871 -0.6262 -1.3759  0.2445
 5418SOL    HW227891   2.620   3.109   2.947 -0.8414  1.3874 -0.9045
 5419SOL     OW27892   2.212   4.527   7.593 -1.0525 -0.5033  0.0244
 5419SOL    HW127893   2.244   4.487   7.512 -0.4893  1.5327 -0.7481
 5419SOL    HW227894   2.205   4.622   7.584 -1.5203 -0.2583  2.7591
 5420SOL     OW27895   4.483   2.994   0.934 -0.1369  0.6023 -0.2907
 5420SOL    HW127896   4.537   3.041   0.997  0.4570 -0.0861 -0.2930
 5420SOL    HW227897   4.542   2.984   0.859  1.0693  0.8550  0.6288
 5421SOL     OW27898   1.615   2.881   6.337  0.2941 -0.3755 -0.5861
 5421SOL    HW127899   1.605   2.897   6.243 -0.7214 -0.7910 -0.5459
 5421SOL    HW227900   1.704   2.844   6.335  0.3624 -0.0272 -3.7355
 5422SOL     OW27901   1.600   2.513   8.277 -0.8332 -0.0548 -0.1801
 5422SOL    HW127902   1.656   2.579   8.236 -1.6643  0.8152  0.0718
 5422SOL    HW227903   1.511   2.538   8.254 -1.1463 -0.8871  0.1255
 5423SOL     OW27904   0.173   1.851   9.570 -0.7357  0.3369  0.3521
 5423SOL    HW127905   0.162   1.946   9.568  1.8982  0.6367  0.1500
 5423SOL    HW227906   0.260   1.849   9.610 -0.0913 -1.5006 -1.1273
 5424SOL     OW27907   1.502   0.380   3.602 -0.1731  0.3111 -0.2514
 5424SOL    HW127908   1.421   0.330   3.611 -0.1104  0.1667 -0.5132
 5424SOL    HW227909   1.508   0.394   3.508 -1.5075  0.3614 -0.3220
 5425SOL     OW27910   0.955   4.567   8.853 -0.0961 -0.1239 -0.2434
 5425SOL    HW127911   0.964   4.513   8.932 -1.7476 -1.0782 -0.7171
 5425SOL    HW227912   0.885   4.518   8.810  2.2344 -1.7746 -2.1406
 5426SOL     OW27913   1.778   2.746   4.995  0.1906 -0.4016 -0.2872
 5426SOL    HW127914   1.830   2.760   5.074 -0.5193  0.3521  0.0495
 5426SOL    HW227915   1.698   2.726   5.043 -0.7441 -0.0061 -1.6978
 5427SOL     OW27916   3.177   2.631  10.366  0.3383 -0.0226 -0.2958
 5427SOL    HW127917   3.240   2.684  10.318  1.7714 -0.7809  0.7425
 5427SOL    HW227918   3.094   2.669  10.336  0.8266  2.9902  2.2726
 5428SOL     OW27919   3.013   3.592   5.291  0.0748  0.9143  0.3319
 5428SOL    HW127920   3.078   3.661   5.305  1.7451  0.0608 -3.2135
 5428SOL    HW227921   2.957   3.609   5.367 -0.1878  0.3279  0.2682
 5429SOL     OW27922   3.583   2.619   9.115  0.7865  0.2792 -0.5736
 5429SOL    HW127923   3.580   2.644   9.022  0.6238 -0.0101 -0.6491
 5429SOL    HW227924   3.493   2.638   9.141  0.7641  0.7159 -0.9743
 5430SOL     OW27925   1.606   0.648   6.568 -0.1994  0.5202  0.7133
 5430SOL    HW127926   1.585   0.574   6.625 -1.9370  0.6943  0.2835
 5430SOL    HW227927   1.591   0.615   6.480 -1.3279  4.4282 -0.5488
 5431SOL     OW27928   2.742   0.714   0.913  0.4195  0.0474 -0.2412
 5431SOL    HW127929   2.807   0.736   0.980 -0.7789  2.1045  0.2482
 5431SOL    HW227930   2.796   0.692   0.837  0.5281  0.3119 -0.2419
 5432SOL     OW27931   2.139   3.072   4.648  0.6897 -0.5809 -0.7642
 5432SOL    HW127932   2.077   3.008   4.613 -0.2974  0.2234 -0.4904
 5432SOL    HW227933   2.091   3.109   4.722  2.8506  0.4107  0.1570
 5433SOL     OW27934   2.019   2.889   5.114  0.2475  0.2463 -0.0609
 5433SOL    HW127935   1.980   2.957   5.169  0.8312 -0.1394  0.8160
 5433SOL    HW227936   2.038   2.829   5.185 -0.6157  1.5986  1.3321
 5434SOL     OW27937   2.571   2.727   2.851 -0.4506 -0.5934 -0.1819
 5434SOL    HW127938   2.512   2.737   2.776 -0.1072 -1.0889 -0.5250
 5434SOL    HW227939   2.511   2.683   2.911 -0.5951 -0.7284 -0.4248
 5435SOL     OW27940   0.089   2.053   0.820  1.0729 -0.1605  0.1867
 5435SOL    HW127941   0.168   2.087   0.862 -0.0109  0.9556  1.3209
 5435SOL    HW227942   0.055   2.135   0.784  1.1114  1.0507  2.9582
 5436SOL     OW27943   0.161   1.073   7.298 -0.7337 -0.1591 -0.0760
 5436SOL    HW127944   0.151   0.979   7.279 -2.4701 -0.1100  0.5181
 5436SOL    HW227945   0.105   1.068   7.376  1.4807  0.1867  1.5357
 5437SOL     OW27946   0.446   3.689   4.083 -0.0028  0.8020  0.2277
 5437SOL    HW127947   0.387   3.697   4.158 -1.3174 -3.1893 -0.3397
 5437SOL    HW227948   0.406   3.756   4.027  2.2963  3.3682  1.6922
 5438SOL     OW27949   3.411   1.920   7.069  0.0834  0.0375 -0.1395
 5438SOL    HW127950   3.407   1.995   7.010 -0.4302  0.9797  1.1004
 5438SOL    HW227951   3.318   1.904   7.085 -0.1174  0.6665 -0.6535
 5439SOL     OW27952   3.800   0.615   4.474  0.1733  0.2565  0.1248
 5439SOL    HW127953   3.758   0.690   4.516 -0.6218 -1.3801  2.2262
 5439SOL    HW227954   3.780   0.547   4.538  1.1054  0.2212  0.3774
 5440SOL     OW27955   4.477   0.215  10.677  0.2162 -0.4407 -0.0867
 5440SOL    HW127956   4.404   0.174  10.723 -0.1535 -0.6740 -0.8909
 5440SOL    HW227957   4.550   0.171  10.721  0.1923 -0.1032  0.2861
 5441SOL     OW27958   0.778   3.511   4.341 -0.2199 -0.8522  0.5249
 5441SOL    HW127959   0.814   3.588   4.384  0.7814 -0.5407 -0.8648
 5441SOL    HW227960   0.812   3.529   4.253  0.1680  1.2762  1.1168
 5442SOL     OW27961   2.645   1.864   5.356 -0.1628  0.4322  0.3257
 5442SOL    HW127962   2.692   1.832   5.278 -1.6574 -0.4444 -0.2174
 5442SOL    HW227963   2.696   1.835   5.432  0.5639  0.1179 -0.2723
 5443SOL     OW27964   0.189   3.864  10.373  0.0438 -0.1849 -0.6439
 5443SOL    HW127965   0.098   3.862  10.404  0.3070  3.2951  0.3024
 5443SOL    HW227966   0.186   3.787  10.316  0.8535  0.5610 -1.6851
 5444SOL     OW27967   4.196   2.982   7.194  0.2650  0.1546  0.1881
 5444SOL    HW127968   4.268   3.028   7.152 -0.8890 -0.5770 -2.5817
 5444SOL    HW227969   4.133   3.054   7.186  0.9871  0.7286 -0.3605
 5445SOL     OW27970   3.050   3.010   5.667  0.4674 -0.2697 -0.8022
 5445SOL    HW127971   3.107   2.950   5.618  1.6023  1.7214 -1.9185
 5445SOL    HW227972   3.050   2.982   5.758  0.0047  1.1248 -0.3915
 5446SOL     OW27973   3.400   0.749   5.918  0.2553 -0.4758 -0.0054
 5446SOL    HW127974   3.389   0.814   5.987 -2.3013  0.2830 -1.1304
 5446SOL    HW227975   3.472   0.790   5.870  0.2364 -0.5897 -0.1320
 5447SOL     OW27976   3.839   4.342   7.548  0.1581 -0.2355  0.0665
 5447SOL    HW127977   3.934   4.331   7.545 -0.0742 -2.3728  0.6315
 5447SOL    HW227978   3.821   4.386   7.631 -0.7693 -2.2659  0.9242
 5448SOL     OW27979   2.059   1.215   6.860 -0.2312 -0.2873  0.0366
 5448SOL    HW127980   2.102   1.173   6.785  1.1392 -2.5086  2.0440
 5448SOL    HW227981   2.129   1.265   6.902  1.1298 -1.7279 -0.5274
 5449SOL     OW27982   4.090   1.420  16.577  0.5244 -0.4262  0.1432
 5449SOL    HW127983   4.053   1.397  16.492  0.7524 -1.4957  0.3358
 5449SOL    HW227984   4.011   1.416  16.632 -1.7529 -0.2063 -3.1073
 5450SOL     OW27985   4.064   1.420  14.210  0.5075 -0.1977  0.0662
 5450SOL    HW127986   3.982   1.371  14.219  1.2073 -1.8845 -2.7776
 5450SOL    HW227987   4.022   1.495  14.168 -1.0348 -0.7767  0.5464
 5451SOL     OW27988   4.650   3.957   7.981  0.9810  0.0464  0.0628
 5451SOL    HW127989   4.718   3.957   7.914 -0.8729 -0.9171 -1.8144
 5451SOL    HW227990   4.684   3.894   8.044 -2.5771 -0.2071  1.6851
 5452SOL     OW27991   3.768   1.719   9.021  0.3213  0.3914  0.3433
 5452SOL    HW127992   3.814   1.769   9.088  1.1573 -0.2297  0.2299
 5452SOL    HW227993   3.838   1.660   8.992 -0.2166 -1.8558  3.6666
 5453SOL     OW27994   1.208   0.403  17.653 -0.1205  0.5267 -0.0372
 5453SOL    HW127995   1.286   0.421  17.599  1.3054 -1.9601  1.2189
 5453SOL    HW227996   1.241   0.447  17.732  0.1507  0.6349 -0.2071
 5454SOL     OW27997   2.526   0.697   5.673 -0.4174  0.0144 -0.5451
 5454SOL    HW127998   2.452   0.658   5.627 -1.4584  1.4460 -0.0932
 5454SOL    HW227999   2.591   0.673   5.608  0.0291 -0.7347  0.1756
 5455SOL     OW28000   0.954   4.507   6.387  0.1437 -0.2278  0.3359
 5455SOL    HW128001   0.935   4.444   6.318  1.4664 -1.4581  1.1232
 5455SOL    HW228002   0.871   4.551   6.408  0.6676  0.1262  1.7102
 5456SOL     OW28003   0.982   0.745   2.376 -0.0590 -0.2815 -0.1991
 5456SOL    HW128004   0.895   0.711   2.397  0.3201 -0.5499  0.9191
 5456SOL    HW228005   0.969   0.783   2.289 -3.0802 -0.6139  0.1078
 5457SOL     OW28006   4.727   4.093   4.117 -0.0614 -0.3847 -0.0103
 5457SOL    HW128007   4.684   4.059   4.196  0.3740  2.4919  1.4583
 5457SOL    HW228008   4.660   4.061   4.057 -0.0400 -2.7682  1.2154
 5458SOL     OW28009   0.452   0.386  10.040  0.4671 -0.3733  0.2135
 5458SOL    HW128010   0.508   0.310  10.023 -1.2159 -1.8858  1.5142
 5458SOL    HW228011   0.479   0.445   9.970 -0.4419  0.7559  0.8153
 5459SOL     OW28012   4.312   4.344   4.790  0.1635  0.2117 -0.4885
 5459SOL    HW128013   4.289   4.280   4.858  0.3099 -0.1286 -0.7627
 5459SOL    HW228014   4.394   4.306   4.761  1.2517  1.6952  0.6326
 5460SOL     OW28015   4.290   1.902   6.728  0.2798 -0.3258 -0.3636
 5460SOL    HW128016   4.267   1.994   6.715 -1.8098 -0.6431  0.9094
 5460SOL    HW228017   4.205   1.864   6.705 -0.6117  1.0297  0.6955
 5461SOL     OW28018   3.260   0.759   8.309  0.1199 -0.0562  0.6099
 5461SOL    HW128019   3.181   0.776   8.361 -0.8301 -0.1561 -0.7960
 5461SOL    HW228020   3.288   0.844   8.276 -3.5199  1.1766  0.6467
 5462SOL     OW28021   2.112   0.727  11.823  0.0772 -0.3236  0.2456
 5462SOL    HW128022   2.185   0.787  11.809 -1.1765  0.5740 -2.2692
 5462SOL    HW228023   2.157   0.643  11.835  0.8321 -0.0404 -0.6056
 5463SOL     OW28024   1.395   2.243   9.092 -0.2242  0.5324  0.2513
 5463SOL    HW128025   1.489   2.243   9.111  0.1359 -2.2932 -1.5549
 5463SOL    HW228026   1.393   2.174   9.026 -1.2377 -1.1608  2.0424
 5464SOL     OW28027   4.578   4.023   3.273  0.4539 -0.1567  0.1998
 5464SOL    HW128028   4.569   4.086   3.345  1.7142 -0.2972  0.4812
 5464SOL    HW228029   4.495   4.025   3.225  1.7288  1.9660 -1.9079
 5465SOL     OW28030   4.024   2.158   6.530  0.1260 -0.0185 -0.6736
 5465SOL    HW128031   3.940   2.194   6.502 -0.8364  0.0736  2.3389
 5465SOL    HW228032   4.058   2.234   6.577 -0.6596  0.1350 -0.3534
 5466SOL     OW28033   1.510   0.647   7.564 -0.0916  0.7646  0.0175
 5466SOL    HW128034   1.581   0.685   7.513 -0.7722  0.4223 -1.1745
 5466SOL    HW228035   1.519   0.716   7.631  0.6913  1.6079 -0.9595
 5467SOL     OW28036   0.445   1.180   0.067 -0.3348 -0.0325 -0.2890
 5467SOL    HW128037   0.357   1.204   0.038 -0.3631 -0.3876 -0.4960
 5467SOL    HW228038   0.462   1.123  17.747  0.9855  0.9065 -0.6939
 5468SOL     OW28039   4.118   3.825  12.173 -0.0304 -0.0254  0.2031
 5468SOL    HW128040   4.050   3.820  12.240  0.2766  0.2980  0.5433
 5468SOL    HW228041   4.173   3.756  12.209 -1.8981 -2.3034 -1.2774
 5469SOL     OW28042   4.414   2.247   2.543 -0.1790 -0.1189 -0.3186
 5469SOL    HW128043   4.351   2.227   2.612 -1.0067 -0.1438 -1.0691
 5469SOL    HW228044   4.401   2.342   2.535  0.0422 -0.1911 -1.5323
 5470SOL     OW28045   0.653   2.473  13.170 -0.1653 -0.4354 -0.0634
 5470SOL    HW128046   0.687   2.400  13.119 -0.9530  0.3565 -1.7218
 5470SOL    HW228047   0.605   2.425  13.238  0.1312  1.7367  1.6929
 5471SOL     OW28048   1.723   2.447   8.507 -0.0657 -0.3521 -0.3602
 5471SOL    HW128049   1.655   2.470   8.570  1.3080  2.5177  0.1165
 5471SOL    HW228050   1.686   2.470   8.422  0.3779  2.9958  0.3411
 5472SOL     OW28051   3.126   1.254   3.664  0.5363  0.4496  0.2070
 5472SOL    HW128052   3.080   1.266   3.582  0.0431 -1.4776  0.1917
 5472SOL    HW228053   3.192   1.323   3.655  1.3881 -0.1912  1.4210
 5473SOL     OW28054   2.952   2.113   8.886  0.1744 -0.1550 -0.4553
 5473SOL    HW128055   3.000   2.096   8.967 -0.2150 -0.3665 -0.2723
 5473SOL    HW228056   2.873   2.153   8.921  2.1146  3.8806 -0.6959
 5474SOL     OW28057   4.565   1.703   1.715 -0.5732  0.1198 -0.2172
 5474SOL    HW128058   4.617   1.633   1.678  0.4641  1.5324 -1.4036
 5474SOL    HW228059   4.584   1.773   1.653 -1.0804 -0.0287 -0.5390
 5475SOL     OW28060   0.233   2.213   3.838 -0.2677 -0.2908  0.8411
 5475SOL    HW128061   0.244   2.173   3.751 -0.6328 -0.0314  0.6781
 5475SOL    HW228062   0.232   2.138   3.897 -1.9366  0.8861  2.2794
 5476SOL     OW28063   0.358   3.185   0.652  0.0044  0.4000 -0.1464
 5476SOL    HW128064   0.450   3.186   0.624 -0.4019 -0.1913 -1.5201
 5476SOL    HW228065   0.353   3.253   0.718  0.6468 -0.7195  1.0507
 5477SOL     OW28066   3.037   3.906   5.040 -0.9529 -0.6046 -0.3676
 5477SOL    HW128067   2.966   3.929   5.100 -0.1800 -1.2288  0.7871
 5477SOL    HW228068   3.079   3.986   5.008 -0.2678 -1.9677 -2.8536
 5478SOL     OW28069   2.868   0.221   4.533  0.3469  0.0356  0.4370
 5478SOL    HW128070   2.889   0.158   4.464 -1.4657  0.6176 -0.6583
 5478SOL    HW228071   2.902   0.171   4.607  3.9369  0.7947 -0.6513
 5479SOL     OW28072   2.454   3.462   7.660 -0.3361  0.1707 -0.1215
 5479SOL    HW128073   2.500   3.449   7.743  0.9770  3.3786 -0.3465
 5479SOL    HW228074   2.483   3.546   7.626 -2.3535  1.0391  0.2890
 5480SOL     OW28075   2.233   2.880   3.440  0.0057  0.2192  1.0919
 5480SOL    HW128076   2.291   2.812   3.406 -0.2433  0.3328  0.4334
 5480SOL    HW228077   2.197   2.829   3.513  1.8984 -3.6009 -0.5952
 5481SOL     OW28078   2.878   2.499   9.408 -0.0765 -0.2112 -0.5711
 5481SOL    HW128079   2.954   2.513   9.465  1.4807  0.9801 -2.9544
 5481SOL    HW228080   2.914   2.423   9.363  1.3357 -0.5867  1.1536
 5482SOL     OW28081   3.041   1.853   3.824 -0.4167  0.5358  0.3527
 5482SOL    HW128082   2.990   1.785   3.782  1.8405 -0.9609  0.0452
 5482SOL    HW228083   3.119   1.807   3.854  0.2643  1.3111 -0.2493
 5483SOL     OW28084   0.421   4.432   4.665 -0.2513 -0.1073 -0.0453
 5483SOL    HW128085   0.374   4.419   4.748  0.0307 -0.9675 -0.0237
 5483SOL    HW228086   0.415   4.527   4.662  0.8179 -0.1330 -3.1251
 5484SOL     OW28087   4.158   2.046   8.368  0.2267  0.3093  0.1727
 5484SOL    HW128088   4.100   1.976   8.397  0.2288  0.0653 -0.4043
 5484SOL    HW228089   4.140   2.108   8.438  0.9032  1.8703 -1.0348
 5485SOL     OW28090   1.375   3.277   8.459 -0.0643  0.7359  0.0519
 5485SOL    HW128091   1.343   3.189   8.442 -2.0174  1.3069  0.7965
 5485SOL    HW228092   1.403   3.285   8.368  2.9840 -2.0477  0.7405
 5486SOL     OW28093   1.731   4.114   2.468  0.2345  0.1916 -0.0018
 5486SOL    HW128094   1.679   4.135   2.546 -0.3922  0.3931 -0.4742
 5486SOL    HW228095   1.734   4.204   2.435 -1.7455  0.7058  1.1590
 5487SOL     OW28096   2.435   1.600   3.851  0.3224  0.2460  0.4310
 5487SOL    HW128097   2.462   1.690   3.834  1.9830 -0.7395 -2.1849
 5487SOL    HW228098   2.490   1.581   3.927  2.4996 -0.0646 -1.2073
 5488SOL     OW28099   1.607   3.911   7.529  0.0805 -0.1091  0.7041
 5488SOL    HW128100   1.648   3.842   7.477  0.2962  1.4586 -1.2101
 5488SOL    HW228101   1.665   3.929   7.603  0.9469 -3.0627  0.7755
 5489SOL     OW28102   0.517   1.580   1.543 -0.8305 -0.2993  0.3676
 5489SOL    HW128103   0.541   1.575   1.635  0.7519  2.6783  0.1052
 5489SOL    HW228104   0.485   1.490   1.532  0.2059 -0.5602 -0.5278
 5490SOL     OW28105   4.580   3.977  12.645 -0.1823  0.3408  0.0135
 5490SOL    HW128106   4.535   3.893  12.652  1.0198 -0.1337  1.9741
 5490SOL    HW228107   4.622   3.982  12.731 -0.2173  0.3004  0.0326
 5491SOL     OW28108   1.757   3.267   8.243 -0.4440  0.5696  0.2967
 5491SOL    HW128109   1.801   3.331   8.299 -0.2668  1.1938 -0.5475
 5491SOL    HW228110   1.787   3.294   8.156  0.7449 -3.5636 -0.5482
 5492SOL     OW28111   3.330   0.404  17.528  0.0366  0.1495 -0.2658
 5492SOL    HW128112   3.408   0.430  17.577 -1.2354 -0.9083  2.2790
 5492SOL    HW228113   3.266   0.460  17.571  1.5731  0.8019  1.1658
 5493SOL     OW28114   2.974   4.481   2.760 -0.0155 -0.1369 -0.1294
 5493SOL    HW128115   3.021   4.447   2.684 -0.1539  1.5476 -0.9681
 5493SOL    HW228116   2.892   4.433   2.761 -1.0193  1.5570 -2.7863
 5494SOL     OW28117   0.518   0.393  12.583  0.4112  0.2515  0.4135
 5494SOL    HW128118   0.477   0.309  12.606 -3.0934  1.7496 -0.3436
 5494SOL    HW228119   0.449   0.424  12.524 -1.1951 -0.0721  2.1105
 5495SOL     OW28120   3.317   2.911   6.021  0.1175  0.2646 -0.0023
 5495SOL    HW128121   3.365   2.834   6.051  0.0388 -0.2638 -1.1929
 5495SOL    HW228122   3.341   2.913   5.928  3.0176  1.2889  0.7802
 5496SOL     OW28123   1.669   0.994   7.148  0.4706  0.3790 -0.1277
 5496SOL    HW128124   1.763   0.988   7.167  0.5522  1.7086 -0.1461
 5496SOL    HW228125   1.652   0.911   7.102 -0.6762  0.1543  0.7017
 5497SOL     OW28126   2.373   0.085   2.906  0.1734 -1.0734  0.0654
 5497SOL    HW128127   2.323   0.103   2.986  0.3005 -0.5323  0.0218
 5497SOL    HW228128   2.304   0.078   2.839 -0.0604 -2.0697  0.4008
 5498SOL     OW28129   0.852   4.216  10.203 -0.1674 -0.4682 -0.4087
 5498SOL    HW128130   0.769   4.243  10.242  0.3163  0.1569  0.1874
 5498SOL    HW228131   0.892   4.185  10.285 -1.8594 -0.1698  0.5195
 5499SOL     OW28132   3.071   2.354   7.807  0.5892  0.3839 -0.0558
 5499SOL    HW128133   3.093   2.310   7.889 -2.4946 -0.5957  0.2269
 5499SOL    HW228134   3.007   2.298   7.764  1.0552 -1.0818  1.1564
 5500SOL     OW28135   4.496   2.514   9.438 -0.1583 -0.1211  0.0919
 5500SOL    HW128136   4.455   2.469   9.512  2.6585  0.1334  1.8254
 5500SOL    HW228137   4.417   2.550   9.398  0.0815 -0.2749 -0.5197
 5501SOL     OW28138   2.140   0.707   5.857 -0.2418 -0.6278 -0.1077
 5501SOL    HW128139   2.075   0.721   5.788  1.7899 -0.3187 -1.9378
 5501SOL    HW228140   2.189   0.788   5.844 -2.1758  0.4609 -0.5489
 5502SOL     OW28141   0.285   2.341  11.550 -0.1958  0.6665 -0.1407
 5502SOL    HW128142   0.292   2.254  11.510 -1.9627  0.1189  0.7294
 5502SOL    HW228143   0.228   2.398  11.499  2.0861  2.7980 -0.3186
 5503SOL     OW28144   1.277   4.730   9.697 -0.2732  0.0388 -0.3516
 5503SOL    HW128145   1.186   4.714   9.669  0.1460  0.2629 -1.8015
 5503SOL    HW228146   1.319   4.702   9.616  0.9203  2.5968 -0.5800
 5504SOL     OW28147   3.255   0.114   4.077  0.9231 -0.0089 -0.2737
 5504SOL    HW128148   3.283   0.202   4.050  0.4242  0.3800  0.5034
 5504SOL    HW228149   3.239   0.131   4.169 -0.2432 -3.0993  0.0966
 5505SOL     OW28150   2.385   0.077  13.370 -0.0356 -0.3595  0.3053
 5505SOL    HW128151   2.398   0.162  13.327  0.7653 -1.0621 -0.8245
 5505SOL    HW228152   2.304   0.045  13.330 -0.1704  2.0503 -1.3478
 5506SOL     OW28153   3.988   4.048   6.588  0.3010  0.7359  0.2674
 5506SOL    HW128154   3.939   3.966   6.592 -2.4819  2.5211  2.5006
 5506SOL    HW228155   3.968   4.067   6.680 -1.9549 -1.3047  0.2147
 5507SOL     OW28156   1.563   4.709  13.392 -0.3020 -0.2225 -0.1541
 5507SOL    HW128157   1.642   4.656  13.392 -1.5273 -2.0758  1.1046
 5507SOL    HW228158   1.537   4.708  13.485 -0.4539  0.9069 -0.1846
 5508SOL     OW28159   2.970   2.688   6.394 -0.0924 -0.0582  0.0830
 5508SOL    HW128160   3.046   2.633   6.376  0.1258  0.4435 -0.5586
 5508SOL    HW228161   2.896   2.630   6.412  0.2560 -0.5245 -0.0090
 5509SOL     OW28162   2.601   0.365  10.731  0.2763 -0.2764 -0.0944
 5509SOL    HW128163   2.677   0.334  10.781 -0.2899 -0.0067  0.9208
 5509SOL    HW228164   2.532   0.386  10.793  0.1343  0.4986 -0.5255
 5510SOL     OW28165   0.224   4.566   8.822  0.2738 -0.3695 -0.1683
 5510SOL    HW128166   0.272   4.501   8.873 -1.2425  1.4403  3.5262
 5510SOL    HW228167   0.208   4.637   8.885  0.6779 -0.7465  0.3603
 5511SOL     OW28168   3.542   4.115   6.711  0.6973 -0.6391 -0.1064
 5511SOL    HW128169   3.585   4.041   6.754 -0.0757 -1.1884 -0.2848
 5511SOL    HW228170   3.579   4.100   6.624  1.1657  2.3525 -0.4369
 5512SOL     OW28171   3.311   1.484  11.255 -1.0499 -0.2036 -0.2137
 5512SOL    HW128172   3.282   1.400  11.290 -0.3490 -1.0772 -1.7480
 5512SOL    HW228173   3.322   1.469  11.161  0.0488  0.7443 -0.2371
 5513SOL     OW28174   3.146   0.506   5.071 -0.5247  0.0690  0.4317
 5513SOL    HW128175   3.158   0.594   5.107  1.4683 -0.2279  0.5309
 5513SOL    HW228176   3.051   0.501   5.061 -0.8384  2.6454  2.2878
 5514SOL     OW28177   1.531   1.020  12.561 -0.4091  0.1125 -0.0830
 5514SOL    HW128178   1.506   1.055  12.475 -0.5774 -0.5968 -0.3177
 5514SOL    HW228179   1.613   0.975  12.542 -1.8747 -1.4863 -2.6731
 5515SOL     OW28180   2.249   2.436   8.768  0.3402  0.4636  0.5680
 5515SOL    HW128181   2.231   2.522   8.730  1.1872  1.2875  2.0725
 5515SOL    HW228182   2.168   2.422   8.818  1.2860 -2.6508  1.2811
 5516SOL     OW28183   3.740   2.165  16.592  0.1142 -0.3540  0.6878
 5516SOL    HW128184   3.746   2.101  16.521  0.7187  2.2739 -1.6319
 5516SOL    HW228185   3.819   2.215  16.577 -0.9321  1.2956  0.6866
 5517SOL     OW28186   2.921   1.600   3.432  0.5107  0.6685 -0.4488
 5517SOL    HW128187   2.980   1.675   3.435 -0.1600  1.2603 -1.9559
 5517SOL    HW228188   2.844   1.633   3.385 -0.5097 -0.7856  0.1920
 5518SOL     OW28189   4.163   3.540   2.143  0.1622  0.3727 -0.1922
 5518SOL    HW128190   4.158   3.453   2.104 -0.3783  0.8772 -1.2793
 5518SOL    HW228191   4.253   3.540   2.176  0.8464  0.1991 -2.0311
 5519SOL     OW28192   1.132   2.169   6.216  0.3975 -0.0160  0.3963
 5519SOL    HW128193   1.138   2.143   6.125  0.2200 -0.1122  0.4122
 5519SOL    HW228194   1.053   2.224   6.208  0.6730  0.5342  1.3449
 5520SOL     OW28195   0.529   3.476   7.016 -0.0257 -0.0677 -0.2460
 5520SOL    HW128196   0.476   3.397   7.026  1.5785 -1.0976  0.1336
 5520SOL    HW228197   0.475   3.526   6.954 -1.8754 -0.5149  0.9992
 5521SOL     OW28198   0.274   3.670   7.341 -0.1700 -0.3441 -0.4044
 5521SOL    HW128199   0.294   3.577   7.355  0.5923 -0.0963  0.1846
 5521SOL    HW228200   0.359   3.713   7.349  0.4129 -1.6168  0.4051
 5522SOL     OW28201   2.399   2.773  11.511  0.6098  0.2293 -0.2061
 5522SOL    HW128202   2.353   2.755  11.430 -0.3999 -0.0738  0.4332
 5522SOL    HW228203   2.482   2.813  11.484  1.0156 -0.6766 -0.2731
 5523SOL     OW28204   4.098   3.653  15.205 -0.3070 -0.1581  0.0287
 5523SOL    HW128205   4.028   3.588  15.199  0.8267 -1.2548 -1.2526
 5523SOL    HW228206   4.050   3.733  15.226 -2.0588 -1.3288  0.4553
 5524SOL     OW28207   1.777   0.292  14.223 -0.3201  0.3729 -0.0722
 5524SOL    HW128208   1.738   0.309  14.138 -0.1960  2.0765  0.2167
 5524SOL    HW228209   1.813   0.206  14.202  2.3158  0.8813  2.2878
 5525SOL     OW28210   2.804   0.664   1.288  0.0053 -0.4654  0.9509
 5525SOL    HW128211   2.834   0.698   1.204 -0.4520  1.2983  1.5065
 5525SOL    HW228212   2.890   0.635   1.317  1.7656  0.9294 -2.9296
 5526SOL     OW28213   2.484   0.880   7.130  0.6077 -0.1278  0.0878
 5526SOL    HW128214   2.556   0.838   7.082  1.2671 -0.6163  1.5326
 5526SOL    HW228215   2.435   0.919   7.057 -1.0475  0.3632  1.4508
 5527SOL     OW28216   4.519   1.663   7.011  0.3630 -0.3218 -0.5762
 5527SOL    HW128217   4.527   1.612   6.931  1.3403 -1.3529  0.1769
 5527SOL    HW228218   4.483   1.603   7.077 -1.2525  1.6329  0.3486
 5528SOL     OW28219   1.669   2.622   7.605 -0.7745  0.6019  0.4619
 5528SOL    HW128220   1.598   2.562   7.626  0.4598 -0.9244  0.2649
 5528SOL    HW228221   1.654   2.614   7.511  1.8598 -0.1753  0.1007
 5529SOL     OW28222   3.710   4.609   5.126  0.0148 -0.4601  0.3143
 5529SOL    HW128223   3.752   4.558   5.056 -3.1169  0.7639 -2.4410
 5529SOL    HW228224   3.705   4.542   5.194 -0.9598  0.2334  0.9136
 5530SOL     OW28225   3.422   2.416   7.379  0.1810  0.1409  0.0872
 5530SOL    HW128226   3.476   2.337   7.367 -1.4938 -0.8081 -1.1977
 5530SOL    HW228227   3.378   2.391   7.460 -2.2143  3.0016 -0.3484
 5531SOL     OW28228   3.718   0.803  15.115 -0.1082 -0.7090  0.0658
 5531SOL    HW128229   3.781   0.869  15.085 -2.9012  1.1952 -1.6758
 5531SOL    HW228230   3.677   0.768  15.036 -0.6453  1.6644 -0.7119
 5532SOL     OW28231   2.564   0.543   8.560  0.3525 -0.1879  0.0973
 5532SOL    HW128232   2.493   0.480   8.550 -1.5123  1.9389 -0.1672
 5532SOL    HW228233   2.627   0.493   8.611 -2.4523 -0.7916  2.9311
 5533SOL     OW28234   3.646   0.600   8.577  0.8686 -0.0114  0.4173
 5533SOL    HW128235   3.612   0.519   8.538  2.3886 -0.5585  0.2123
 5533SOL    HW228236   3.630   0.594   8.671  1.7298  1.3862  0.6459
 5534SOL     OW28237   4.291   1.584  13.474  0.4579 -0.1481  0.2091
 5534SOL    HW128238   4.265   1.601  13.564  1.9647 -1.4056  0.8903
 5534SOL    HW228239   4.340   1.665  13.472 -2.1028  1.4268  0.9290
 5535SOL     OW28240   3.228   4.566   8.545 -0.9764  0.3671  0.3349
 5535SOL    HW128241   3.184   4.498   8.493  0.5338  0.6191 -1.2579
 5535SOL    HW228242   3.318   4.564   8.513 -0.5042 -1.0934  1.7545
 5536SOL     OW28243   0.638   0.564   4.673 -0.2111 -0.1920 -0.1860
 5536SOL    HW128244   0.680   0.478   4.683 -0.9691 -0.5909 -0.4267
 5536SOL    HW228245   0.668   0.578   4.583  0.5451  1.0390  0.2578
 5537SOL     OW28246   1.074   3.823   1.308  0.2088  0.1597 -0.3926
 5537SOL    HW128247   1.121   3.828   1.224  1.8532 -0.3532  0.4892
 5537SOL    HW228248   1.080   3.916   1.327 -0.0297 -0.0240  0.5441
 5538SOL     OW28249   0.818   0.272  12.659  0.1254  0.3464  0.2086
 5538SOL    HW128250   0.729   0.267  12.691 -0.1318  2.3875 -0.2053
 5538SOL    HW228251   0.846   0.184  12.683  3.4612  1.0619 -1.0401
 5539SOL     OW28252   4.057   2.212   2.397 -0.0051 -0.2010  0.1232
 5539SOL    HW128253   3.997   2.273   2.354  1.8894  0.9032 -0.9787
 5539SOL    HW228254   4.018   2.205   2.484 -1.9663  0.2952 -0.7150
 5540SOL     OW28255   0.230   3.595   8.437  0.2059  1.0316 -0.2383
 5540SOL    HW128256   0.195   3.546   8.362 -0.9209 -0.1487  1.0568
 5540SOL    HW228257   0.168   3.668   8.445 -0.0778  1.0208 -2.3316
 5541SOL     OW28258   1.599   3.071   7.990  0.1286 -0.4311  0.1577
 5541SOL    HW128259   1.544   2.995   8.011 -0.9618  0.6581  1.2446
 5541SOL    HW228260   1.653   3.030   7.923 -0.0625 -0.5681  0.0869
 5542SOL     OW28261   4.346   1.018   4.013 -0.1786  0.5132 -0.3105
 5542SOL    HW128262   4.337   1.002   3.919 -0.9513 -1.3562  0.0809
 5542SOL    HW228263   4.362   1.112   4.012 -0.9176  0.6538  0.5791
 5543SOL     OW28264   4.233   1.906   4.114 -0.0151 -0.1557  0.3872
 5543SOL    HW128265   4.233   1.964   4.037 -0.4724  0.4310  0.8314
 5543SOL    HW228266   4.190   1.966   4.175 -1.9369 -0.5459 -0.5781
 5544SOL     OW28267   1.981   3.716   6.679 -0.7012  0.0269  0.4326
 5544SOL    HW128268   2.076   3.722   6.665 -0.2817 -3.9418  1.6395
 5544SOL    HW228269   1.945   3.690   6.594 -1.0906 -2.1631  1.2535
 5545SOL     OW28270   0.159   2.130   3.408  0.7864  0.7921  0.3502
 5545SOL    HW128271   0.200   2.151   3.324  0.3410 -1.5258 -0.4416
 5545SOL    HW228272   0.208   2.182   3.472  3.2576  0.0337 -0.9285
 5546SOL     OW28273   4.347   1.097  10.120 -0.0051 -0.0206 -0.0725
 5546SOL    HW128274   4.423   1.143  10.085 -0.6307  0.4616 -0.8044
 5546SOL    HW228275   4.362   1.003  10.104 -0.1213  0.0618 -0.6878
 5547SOL     OW28276   0.422   3.149  16.498  0.3357  0.2215 -0.2776
 5547SOL    HW128277   0.385   3.061  16.495  0.2430  0.3123 -1.5635
 5547SOL    HW228278   0.479   3.146  16.575  1.6148  1.8050 -1.1544
 5548SOL     OW28279   2.056   0.478  15.819  0.6005  0.0615 -0.2603
 5548SOL    HW128280   2.133   0.517  15.777  0.1711  1.1909  0.0081
 5548SOL    HW228281   1.998   0.502  15.746 -0.4664 -1.2489  0.1535
 5549SOL     OW28282   2.768   0.128   7.702  0.3382  0.4007  0.2288
 5549SOL    HW128283   2.729   0.189   7.640  3.6673  0.4505 -1.8014
 5549SOL    HW228284   2.745   0.168   7.787 -0.8401 -1.7491  0.9119
 5550SOL     OW28285   3.522   0.585   5.251  0.3043  0.0170 -0.2859
 5550SOL    HW128286   3.528   0.491   5.232  0.3461 -0.0862  0.2209
 5550SOL    HW228287   3.536   0.575   5.345  1.7420  1.9239 -0.3218
 5551SOL     OW28288   2.861   3.367   9.981 -0.0980  0.1247 -0.1572
 5551SOL    HW128289   2.921   3.436  10.010 -2.7181  1.0436  3.0806
 5551SOL    HW228290   2.890   3.301  10.044  2.6979  2.2596  0.8063
 5552SOL     OW28291   4.432   2.071   6.351  0.3416 -0.0394 -0.6097
 5552SOL    HW128292   4.345   2.034   6.366 -1.3967  2.4426 -4.5462
 5552SOL    HW228293   4.438   2.141   6.416  0.0272  0.7077 -1.3840
 5553SOL     OW28294   3.748   0.844   4.610 -0.3729  0.5053 -0.7644
 5553SOL    HW128295   3.778   0.919   4.558 -0.2488  0.2760 -1.0273
 5553SOL    HW228296   3.660   0.876   4.628 -1.2890 -1.9267 -0.9279
 5554SOL     OW28297   2.644   1.324   0.414 -0.3538  0.1283  0.1261
 5554SOL    HW128298   2.633   1.354   0.504 -0.1647  0.6189 -0.0106
 5554SOL    HW228299   2.603   1.401   0.374  0.6755  0.0056 -1.1815
 5555SOL     OW28300   3.506   1.551   9.834 -0.3133 -0.1024  0.5268
 5555SOL    HW128301   3.480   1.473   9.785 -0.5223  0.4623 -0.2752
 5555SOL    HW228302   3.421   1.584   9.864 -1.2997 -1.4691 -0.7250
 5556SOL     OW28303   1.247   3.950   4.811 -0.1900 -0.2713 -0.1993
 5556SOL    HW128304   1.203   3.976   4.730 -0.0330  1.3715  0.2518
 5556SOL    HW228305   1.255   3.855   4.797 -1.5164 -0.6335  1.3230
 5557SOL     OW28306   2.266   0.127   2.244  0.4206 -0.0215 -0.3870
 5557SOL    HW128307   2.348   0.109   2.196 -0.1520 -3.0850 -0.2633
 5557SOL    HW228308   2.216   0.164   2.172  1.7895  0.8932 -0.8767
 5558SOL     OW28309   1.746   1.014   6.761  0.0860  0.1728  0.3630
 5558SOL    HW128310   1.741   0.920   6.779 -1.1691 -0.1050 -1.4736
 5558SOL    HW228311   1.816   1.010   6.697  1.3428  1.5204  1.6605
 5559SOL     OW28312   3.260   0.148   6.760 -0.2942  0.0295  0.3774
 5559SOL    HW128313   3.176   0.114   6.789  1.1632 -2.1286  2.0832
 5559SOL    HW228314   3.249   0.231   6.713 -0.9427 -0.1946  0.1331
 5560SOL     OW28315   3.642   0.393  15.816  0.2234 -0.4376  0.2420
 5560SOL    HW128316   3.709   0.460  15.824 -1.2618  1.1746 -0.9467
 5560SOL    HW228317   3.693   0.312  15.814  1.6444  0.5419 -1.9581
 5561SOL     OW28318   2.657   1.421  10.425 -0.0941 -0.3479 -0.1458
 5561SOL    HW128319   2.656   1.406  10.520 -1.8636 -1.5668 -0.3577
 5561SOL    HW228320   2.596   1.355  10.393  2.9613 -3.2991  0.0527
 5562SOL     OW28321   4.399   1.921  12.261 -0.2164 -0.2585  0.0253
 5562SOL    HW128322   4.379   2.014  12.268 -0.7240 -0.2937 -0.8757
 5562SOL    HW228323   4.365   1.898  12.347  2.2926 -0.4892  0.9227
 5563SOL     OW28324   0.543   2.967   7.366  0.1500  0.4634  0.4150
 5563SOL    HW128325   0.545   2.990   7.273 -1.0076  3.0825  1.0094
 5563SOL    HW228326   0.528   2.873   7.364 -1.8072  0.6990  2.3552
 5564SOL     OW28327   0.061   3.352  11.204  0.2848 -0.1670  0.0756
 5564SOL    HW128328   0.150   3.379  11.182 -1.1181  4.2894 -0.0755
 5564SOL    HW228329   0.045   3.312  11.118  1.8827  0.9971 -0.7671
 5565SOL     OW28330   1.639   2.336   5.924  0.4191 -0.3124 -0.1721
 5565SOL    HW128331   1.706   2.336   5.993 -0.4732  1.3337  0.7025
 5565SOL    HW228332   1.568   2.295   5.973  0.2080  1.8209  1.3270
 5566SOL     OW28333   2.335   2.479   6.277 -0.5084  0.7706  0.1637
 5566SOL    HW128334   2.397   2.428   6.330 -0.2125  1.9259  0.9263
 5566SOL    HW228335   2.327   2.413   6.208  0.2830 -0.5764  1.3481
 5567SOL     OW28336   0.765   4.019   6.158 -0.2856  0.9682 -0.2137
 5567SOL    HW128337   0.684   4.035   6.108 -1.5515 -2.1121  0.8735
 5567SOL    HW228338   0.815   4.094   6.125 -0.6942  1.8481  1.1516
 5568SOL     OW28339   0.011   2.748   1.630  0.2463  0.0827  0.0396
 5568SOL    HW128340   0.059   2.770   1.551  1.3044 -0.3912  0.5570
 5568SOL    HW228341   4.713   2.662   1.608 -0.7158  0.6060 -0.3918
 5569SOL     OW28342   3.358   2.591   5.864  0.2235  0.6842 -0.0362
 5569SOL    HW128343   3.265   2.571   5.865  0.0815  1.3555  0.3102
 5569SOL    HW228344   3.376   2.613   5.955 -0.0439  0.6805  0.0168
 5570SOL     OW28345   4.710   4.590   2.211 -0.5961 -0.1445 -0.2080
 5570SOL    HW128346   0.040   4.525   2.195 -0.4992 -0.9872  3.6737
 5570SOL    HW228347   4.718   4.599   2.306 -0.7356 -0.1783 -0.1929
 5571SOL     OW28348   0.472   2.656   2.567  0.2450 -0.0915  0.1560
 5571SOL    HW128349   0.408   2.721   2.597  2.1373  1.4859  0.7678
 5571SOL    HW228350   0.546   2.676   2.625  1.1649 -1.9070 -0.4001
 5572SOL     OW28351   4.498   3.696  15.088  1.2729 -0.4175 -0.0005
 5572SOL    HW128352   4.455   3.778  15.065  0.9307 -0.5984 -0.0120
 5572SOL    HW228353   4.439   3.652  15.150 -0.3211  0.2812 -1.0258
 5573SOL     OW28354   3.370   4.435   2.136  0.4765 -0.8130  0.5314
 5573SOL    HW128355   3.461   4.435   2.164  0.2953  2.1012  1.1204
 5573SOL    HW228356   3.368   4.393   2.050  1.5235 -1.6914  0.9419
 5574SOL     OW28357   4.335   4.592  13.770 -0.4352 -0.3206 -0.5956
 5574SOL    HW128358   4.428   4.603  13.786 -0.5859 -0.1419  0.1764
 5574SOL    HW228359   4.313   4.685  13.766 -0.6312 -0.2794  1.4947
 5575SOL     OW28360   0.568   3.104   8.237 -0.8207 -0.1998 -0.2718
 5575SOL    HW128361   0.532   3.139   8.155  1.4920 -0.6580 -1.4900
 5575SOL    HW228362   0.660   3.125   8.221 -0.8013  0.4968  0.8123
 5576SOL     OW28363   3.481   3.942   8.302 -0.3263 -0.4991 -0.6492
 5576SOL    HW128364   3.439   4.009   8.249  2.6624  0.2049 -2.1215
 5576SOL    HW228365   3.402   3.934   8.356 -0.2291  0.4317 -0.3810
 5577SOL     OW28366   1.655   4.356   1.320 -0.3540  0.9217  0.0968
 5577SOL    HW128367   1.621   4.422   1.380  0.4261 -0.2351  1.8307
 5577SOL    HW228368   1.651   4.402   1.236 -0.2936 -1.7710 -1.3889
 5578SOL     OW28369   1.851   1.901   6.569  0.2657 -0.1583 -0.0093
 5578SOL    HW128370   1.890   1.952   6.499  2.1009 -1.6491 -0.0936
 5578SOL    HW228371   1.764   1.941   6.569 -0.9987 -2.9170 -2.3984
 5579SOL     OW28372   3.384   0.061   5.987  0.8417  0.0478 -0.2633
 5579SOL    HW128373   3.394   4.730   6.052 -1.2797 -1.2800 -1.3921
 5579SOL    HW228374   3.447   0.041   5.918  0.6589  0.9371 -0.6751
 5580SOL     OW28375   3.869   3.807   5.107  0.3686 -0.5742 -0.1158
 5580SOL    HW128376   3.860   3.781   5.199 -0.6503 -0.8717 -0.3036
 5580SOL    HW228377   3.961   3.792   5.083 -0.0353 -1.5759 -1.0023
 5581SOL     OW28378   3.519   3.961  10.073 -0.4210  0.0400  0.0789
 5581SOL    HW128379   3.550   3.898  10.008  1.6710  0.3605  0.7540
 5581SOL    HW228380   3.424   3.960  10.061 -0.8087  1.3787  2.8022
 5582SOL     OW28381   0.347   4.486   0.180  0.5362 -0.1084 -0.7839
 5582SOL    HW128382   0.353   4.527   0.094  2.5567  0.0540 -0.5512
 5582SOL    HW228383   0.420   4.425   0.173  1.0963  0.7327 -2.3674
 5583SOL     OW28384   1.181   0.639   7.859  0.0360  0.4399 -0.6015
 5583SOL    HW128385   1.247   0.708   7.869 -0.0508  0.6100 -1.2277
 5583SOL    HW228386   1.198   0.585   7.937 -0.6765 -0.8656 -1.3430
 5584SOL     OW28387   0.403   2.709   7.008  1.0471  0.5046  0.4804
 5584SOL    HW128388   0.416   2.635   7.067  0.5550 -2.1697 -2.7452
 5584SOL    HW228389   0.497   2.724   6.993  0.7897 -0.5582 -2.2514
 5585SOL     OW28390   3.888   1.732  16.363  0.1348 -1.0424  0.0062
 5585SOL    HW128391   3.853   1.644  16.348 -0.4291 -0.4496 -2.2271
 5585SOL    HW228392   3.877   1.745  16.457 -0.8843  0.1142 -0.2630
 5586SOL     OW28393   2.249   3.638   4.991 -0.1437 -0.5005 -0.1390
 5586SOL    HW128394   2.340   3.609   4.990 -0.2053 -0.6365 -2.0736
 5586SOL    HW228395   2.258   3.706   4.924 -0.1699  1.1778  1.5601
 5587SOL     OW28396   0.976   1.242   9.733  0.0967  0.4634  0.4533
 5587SOL    HW128397   1.014   1.292   9.805 -0.4360  0.6478  0.6106
 5587SOL    HW228398   1.061   1.223   9.693 -1.0580  0.7151 -2.0895
 5588SOL     OW28399   0.204   0.952   9.680  0.3111 -0.4723  0.5154
 5588SOL    HW128400   0.203   0.870   9.729 -1.3027 -0.0580  1.1535
 5588SOL    HW228401   0.170   1.005   9.752  0.4588 -2.3760  1.9819
 5589SOL     OW28402   0.146   2.436   5.281 -0.6130 -0.2949  0.7379
 5589SOL    HW128403   0.226   2.488   5.290 -0.1065 -1.1214  1.0091
 5589SOL    HW228404   0.177   2.379   5.211  2.5579  1.2785  0.8397
 5590SOL     OW28405   4.029   0.601   3.056  0.8155 -0.5176 -0.0168
 5590SOL    HW128406   3.950   0.550   3.075  0.7685 -0.1521  0.7726
 5590SOL    HW228407   4.087   0.540   3.102  2.8578  0.3274 -1.5018
 5591SOL     OW28408   0.960   2.156   3.447  0.6154  0.0394  0.4680
 5591SOL    HW128409   1.033   2.145   3.386 -1.2544  1.1946 -1.9692
 5591SOL    HW228410   0.995   2.111   3.524 -3.7724 -1.6415  1.5056
 5592SOL     OW28411   4.547   2.608   4.858  0.2831  0.6064 -0.3262
 5592SOL    HW128412   4.465   2.657   4.867  0.9195  1.7424 -0.7156
 5592SOL    HW228413   4.568   2.566   4.941  1.2157  0.3297 -0.7095
 5593SOL     OW28414   3.488   1.128   5.466 -0.2241 -0.1020  0.1303
 5593SOL    HW128415   3.504   1.206   5.518 -1.0939  0.0932  0.1144
 5593SOL    HW228416   3.420   1.162   5.407  2.3222  1.4280 -1.8945
 5594SOL     OW28417   2.052   0.438  15.359 -0.3529  0.4730  0.5310
 5594SOL    HW128418   2.105   0.513  15.332 -0.7022  0.3045 -0.6143
 5594SOL    HW228419   1.999   0.428  15.280 -0.8931  1.3868  0.7674
 5595SOL     OW28420   1.235   2.731   1.590  0.8217  0.4185 -0.2340
 5595SOL    HW128421   1.292   2.723   1.666 -0.1695  1.2468  0.5950
 5595SOL    HW228422   1.271   2.676   1.520  1.1011  1.4296 -0.8877
 5596SOL     OW28423   1.041   4.282  15.232  0.4464  0.0822  0.3497
 5596SOL    HW128424   1.024   4.322  15.147 -0.5728  0.2524  0.6355
 5596SOL    HW228425   1.000   4.346  15.289  1.6636  1.0602  0.1149
 5597SOL     OW28426   1.455   2.546   5.545 -0.1543 -0.8242  0.3561
 5597SOL    HW128427   1.535   2.558   5.596  0.1981  2.6668 -0.9644
 5597SOL    HW228428   1.448   2.624   5.490  0.4182 -1.1865 -0.2279
 5598SOL     OW28429   0.826   0.882   5.269  0.0820  0.0973  0.0039
 5598SOL    HW128430   0.795   0.912   5.183 -2.1690 -5.5686 -1.1729
 5598SOL    HW228431   0.834   0.957   5.327  1.6840  0.0614 -0.1688
 5599SOL     OW28432   0.304   2.985   6.758  0.2846  0.9595 -0.1631
 5599SOL    HW128433   0.380   3.043   6.758  1.8671 -1.1191 -2.1432
 5599SOL    HW228434   0.297   2.946   6.671  1.0995  0.5551 -0.0489
 5600SOL     OW28435   2.460   3.264   3.600 -0.3471 -0.3330  0.0196
 5600SOL    HW128436   2.429   3.296   3.516  1.0631  0.9550 -0.0158
 5600SOL    HW228437   2.406   3.187   3.616 -0.2336 -0.7025 -1.3987
 5601SOL     OW28438   3.600   2.502   1.677 -0.3445 -0.0292  0.5076
 5601SOL    HW128439   3.514   2.495   1.637 -0.1901  2.4143 -0.2667
 5601SOL    HW228440   3.586   2.451   1.757  2.5874 -2.4986 -0.5145
 5602SOL     OW28441   3.372   0.139   4.897  0.2347  0.6472  0.0920
 5602SOL    HW128442   3.306   0.192   4.942 -0.4347 -1.0005  1.0827
 5602SOL    HW228443   3.390   0.085   4.974 -0.8451 -0.7257 -0.6115
 5603SOL     OW28444   1.920   2.148   7.177  0.1339 -0.0944 -0.5163
 5603SOL    HW128445   1.996   2.153   7.235  0.8737 -0.6869 -1.4413
 5603SOL    HW228446   1.881   2.232   7.202 -0.5635 -0.8306  0.8562
 5604SOL     OW28447   3.892   0.260   8.036  0.1337 -0.7761 -0.3455
 5604SOL    HW128448   3.865   0.312   8.113  0.7386 -3.3960  1.6352
 5604SOL    HW228449   3.879   0.175   8.078 -0.7404 -0.6015 -0.2539
 5605SOL     OW28450   3.348   0.016   3.515  0.5721  0.2076 -0.0145
 5605SOL    HW128451   3.331   0.096   3.565 -0.4737  0.5683 -0.9554
 5605SOL    HW228452   3.443   0.027   3.510  0.5508 -0.8400 -2.5766
 5606SOL     OW28453   0.641   4.665   5.279 -0.7397  0.7122 -0.5167
 5606SOL    HW128454   0.648   4.576   5.313 -2.5863 -0.4853 -3.3558
 5606SOL    HW228455   0.733   4.690   5.264 -0.7680  1.6887  0.8818
 5607SOL     OW28456   3.384   2.559   0.813 -0.6233 -0.1729 -0.1588
 5607SOL    HW128457   3.457   2.504   0.784  0.9080  1.7778  0.0306
 5607SOL    HW228458   3.389   2.635   0.755  2.0558  0.4289  0.8614
 5608SOL     OW28459   3.831   3.022   3.908 -0.3681  0.4978 -0.1676
 5608SOL    HW128460   3.872   2.980   3.832  0.7407 -0.3754  0.9155
 5608SOL    HW228461   3.899   3.032   3.974  0.3966 -0.9653 -0.7340
 5609SOL     OW28462   2.287   3.256  10.922 -0.3738 -0.6186 -0.5313
 5609SOL    HW128463   2.312   3.312  10.849  1.6016  0.2159  0.7708
 5609SOL    HW228464   2.263   3.171  10.885  2.1966 -1.1715 -0.9509
 5610SOL     OW28465   4.125   0.997  10.334 -0.4591 -0.0665 -0.3430
 5610SOL    HW128466   4.165   0.953  10.408 -1.0424  0.4042  0.2539
 5610SOL    HW228467   4.202   1.042  10.299 -0.1162 -0.8219 -0.5549
 5611SOL     OW28468   0.606   0.905   1.926 -0.0872 -0.2910 -0.2209
 5611SOL    HW128469   0.631   0.830   1.872 -1.2864 -0.0097 -1.1598
 5611SOL    HW228470   0.520   0.890   1.966 -1.0611  0.4904 -2.0311
 5612SOL     OW28471   3.457   0.816  15.247  0.0848  0.0826 -0.1883
 5612SOL    HW128472   3.544   0.813  15.206  0.5130  0.8648  0.6584
 5612SOL    HW228473   3.405   0.847  15.173  0.5800  2.6210  0.5148
 5613SOL     OW28474   0.169   2.000   1.335  0.4438 -0.1462  0.4890
 5613SOL    HW128475   0.202   2.076   1.287  0.9735 -0.2388  0.7028
 5613SOL    HW228476   0.241   1.977   1.395  1.7305 -1.3539 -1.5118
 5614SOL     OW28477   4.359   2.439   1.425  0.1706  0.6110  0.7070
 5614SOL    HW128478   4.266   2.417   1.431  0.3167 -0.0459  0.6155
 5614SOL    HW228479   4.378   2.445   1.332 -2.0677 -0.8012  0.1749
 5615SOL     OW28480   3.518   2.676   4.888 -0.1045 -0.1503 -0.0697
 5615SOL    HW128481   3.539   2.646   4.800 -0.6045  3.9579 -1.5587
 5615SOL    HW228482   3.554   2.764   4.890  1.3631 -0.8260  3.1935
 5616SOL     OW28483   4.175   0.185  15.560 -0.1904  0.1747 -0.2074
 5616SOL    HW128484   4.242   0.192  15.628  1.1926 -2.4466 -1.2985
 5616SOL    HW228485   4.201   0.253  15.497 -0.5269 -0.8986 -1.5196
 5617SOL     OW28486   1.166   3.989   1.761 -0.7007  0.0985  0.2280
 5617SOL    HW128487   1.074   4.011   1.772 -0.8440 -0.6688  0.4910
 5617SOL    HW228488   1.159   3.894   1.766 -0.3194 -0.0689 -2.1089
 5618SOL     OW28489   1.862   3.975   3.881 -0.7708  0.0930 -0.7677
 5618SOL    HW128490   1.812   3.936   3.953  2.7578 -3.0540  0.0267
 5618SOL    HW228491   1.844   4.068   3.889  2.6238  0.7274 -0.5443
 5619SOL     OW28492   1.865   0.087   4.432 -0.3804 -0.0151 -0.2638
 5619SOL    HW128493   1.798   0.036   4.478 -1.6073 -0.7653 -2.8384
 5619SOL    HW228494   1.875   0.018   4.366 -0.4144 -2.0234  1.8230
 5620SOL     OW28495   0.470   4.685   4.648  0.3971  0.3151 -0.2484
 5620SOL    HW128496   0.564   4.690   4.666  0.4632 -0.2318 -0.4344
 5620SOL    HW228497   0.465   0.005   4.573 -0.4346 -0.3833 -0.7381
 5621SOL     OW28498   1.361   2.953  16.410  0.5519  0.3604 -0.2232
 5621SOL    HW128499   1.333   2.880  16.465  0.4982  1.4740  1.2327
 5621SOL    HW228500   1.392   2.908  16.332 -0.5775 -0.1729 -0.3647
 5622SOL     OW28501   0.969   0.934  15.891  0.2421  0.2984 -0.1438
 5622SOL    HW128502   0.881   0.899  15.881 -0.0929  0.8700  0.7518
 5622SOL    HW228503   0.960   1.021  15.853  1.2252  0.6072  0.3104
 5623SOL     OW28504   1.308   1.154  11.936  0.1073  0.1592 -0.1385
 5623SOL    HW128505   1.298   1.098  12.013 -0.5872 -1.0812 -1.1289
 5623SOL    HW228506   1.221   1.160  11.896 -0.6805  2.5551  1.9528
 5624SOL     OW28507   3.219   4.468  11.303 -0.7806 -0.6898 -0.8348
 5624SOL    HW128508   3.281   4.418  11.356 -1.0584 -1.6046 -1.3753
 5624SOL    HW228509   3.167   4.497  11.378  1.5860 -1.4186  1.0563
 5625SOL     OW28510   4.034   1.111   0.091  0.0412 -0.8635  0.4792
 5625SOL    HW128511   4.095   1.109   0.165  1.6109  4.4427 -0.6315
 5625SOL    HW228512   3.973   1.185   0.098 -0.2487 -1.0942  0.3841
 5626SOL     OW28513   2.759   2.280   8.999  0.9780 -0.0531  0.5452
 5626SOL    HW128514   2.696   2.211   8.979 -0.0732  0.8921  0.6107
 5626SOL    HW228515   2.710   2.343   9.052 -1.3916 -2.1636  0.8907
 5627SOL     OW28516   2.591   1.170   6.777  0.2365  0.2939  0.1507
 5627SOL    HW128517   2.527   1.108   6.741  1.7525 -2.8613  2.8898
 5627SOL    HW228518   2.674   1.123   6.771  0.4436  0.6206  0.4995
 5628SOL     OW28519   1.190   3.310   2.995  0.4347 -0.7352  0.0598
 5628SOL    HW128520   1.226   3.288   2.909  0.3276  1.2331 -0.4756
 5628SOL    HW228521   1.122   3.247   3.019 -1.7058  1.1887 -1.0382
 5629SOL     OW28522   0.745   1.104  15.669 -0.3158  0.5174  0.1789
 5629SOL    HW128523   0.816   1.121  15.606  0.4103  1.6582  1.3069
 5629SOL    HW228524   0.789   1.153  15.738 -2.4639  0.5110  1.5301
 5630SOL     OW28525   1.210   4.418   4.559  0.1369 -0.0330  0.0922
 5630SOL    HW128526   1.236   4.328   4.578  1.1887  0.5106  1.2024
 5630SOL    HW228527   1.132   4.388   4.510  1.0029  0.6916 -1.7208
 5631SOL     OW28528   3.995   3.499  11.219 -0.2487  0.6083 -0.3750
 5631SOL    HW128529   4.017   3.406  11.212 -0.0469  0.5025  1.5008
 5631SOL    HW228530   3.996   3.525  11.127  0.5049  0.8666 -0.2944
 5632SOL     OW28531   1.305   0.550   9.889  0.4826 -0.0219 -0.2453
 5632SOL    HW128532   1.331   0.566   9.799 -3.2949 -0.1514 -1.3831
 5632SOL    HW228533   1.253   0.470   9.880 -0.2967  0.4074  0.4338
 5633SOL     OW28534   0.751   1.958   7.888 -0.4328  0.2004 -0.1356
 5633SOL    HW128535   0.755   1.866   7.864  0.4604  0.3960 -0.7359
 5633SOL    HW228536   0.674   1.983   7.836  1.0144  0.8639 -1.9408
 5634SOL     OW28537   1.971   1.030   7.067 -0.1367  0.5751 -0.6493
 5634SOL    HW128538   2.012   0.965   7.010 -0.3229  0.3405 -0.5172
 5634SOL    HW228539   1.970   1.105   7.008 -0.6513  0.4987 -0.7381
 5635SOL     OW28540   2.716   2.410   2.456 -0.3886 -0.3650  0.9532
 5635SOL    HW128541   2.629   2.371   2.456 -0.5975  0.0766 -1.0673
 5635SOL    HW228542   2.709   2.465   2.534  1.5814  0.3639  0.6122
 5636SOL     OW28543   2.667   1.625   8.379 -0.3346  0.4631  0.0613
 5636SOL    HW128544   2.572   1.621   8.382 -0.4030  0.9087 -1.0920
 5636SOL    HW228545   2.682   1.551   8.437  0.1083 -0.1733 -0.8510
 5637SOL     OW28546   4.718   2.999  17.097 -0.5442  0.1592  0.2402
 5637SOL    HW128547   4.711   2.905  17.115 -1.0585  0.2294  0.3904
 5637SOL    HW228548   4.676   3.035  17.176 -0.3857  1.0091 -0.0640
 5638SOL     OW28549   3.668   1.812   1.858 -0.1652  0.2944 -0.1879
 5638SOL    HW128550   3.651   1.855   1.942  2.3857  1.9264 -0.5120
 5638SOL    HW228551   3.736   1.752   1.887  1.7365  0.6352 -3.9622
 5639SOL     OW28552   4.503   3.692   5.555  0.1057  0.0589  0.0881
 5639SOL    HW128553   4.477   3.601   5.539 -0.0614 -0.1890  1.8167
 5639SOL    HW228554   4.592   3.690   5.519  0.6062 -1.3527  1.4189
 5640SOL     OW28555   3.817   2.043  16.381  0.4304  0.5510  0.3368
 5640SOL    HW128556   3.869   1.973  16.421  0.6567  0.2534 -0.4731
 5640SOL    HW228557   3.753   2.001  16.323  2.2127  0.4199 -1.5389
 5641SOL     OW28558   3.764   1.493  16.356 -0.0134  0.2434 -0.4244
 5641SOL    HW128559   3.700   1.490  16.427 -0.0922  1.1658 -0.4565
 5641SOL    HW228560   3.826   1.423  16.376 -0.1997  0.5762  1.2806
 5642SOL     OW28561   0.695   1.382  12.875  0.1728  0.3324 -0.0163
 5642SOL    HW128562   0.742   1.464  12.892  1.2425 -0.2829 -0.0594
 5642SOL    HW228563   0.609   1.424  12.887  0.4384  1.0014 -0.4769
 5643SOL     OW28564   0.147   4.502   2.949  0.1119  0.2324 -0.2727
 5643SOL    HW128565   0.145   4.491   3.044  1.4641 -1.5551 -0.4506
 5643SOL    HW228566   0.203   4.430   2.922  1.8551  1.4711  0.0278
 5644SOL     OW28567   3.529   2.377   5.089  0.1497  0.2194 -0.1159
 5644SOL    HW128568   3.454   2.434   5.072 -1.6952 -2.0403  0.5817
 5644SOL    HW228569   3.489   2.306   5.138  1.3730  0.2443  0.9278
 5645SOL     OW28570   4.576   3.316   1.721  0.0885  0.9412 -0.0656
 5645SOL    HW128571   4.631   3.260   1.666  0.4810  0.8884  0.3740
 5645SOL    HW228572   4.547   3.245   1.779  0.7173 -0.7850 -1.8514
 5646SOL     OW28573   2.580   2.157   6.658  0.1992 -0.1426 -0.0695
 5646SOL    HW128574   2.570   2.101   6.735 -0.3608 -0.9312 -0.7117
 5646SOL    HW228575   2.672   2.149   6.633  0.7254  0.1763  1.7959
 5647SOL     OW28576   4.453   3.233   8.565  0.8418 -0.2003  0.3513
 5647SOL    HW128577   4.377   3.174   8.570  0.7337 -0.1576 -0.7632
 5647SOL    HW228578   4.472   3.226   8.471 -0.0803  0.4168  0.1106
 5648SOL     OW28579   4.209   4.615   4.964  0.5169 -0.3900 -0.5165
 5648SOL    HW128580   4.193   4.573   4.879  0.3406 -1.1847 -0.0928
 5648SOL    HW228581   4.290   4.662   4.949  2.4649 -3.2978  1.0019
 5649SOL     OW28582   4.222   1.806   2.245 -0.6622  0.0376 -0.0451
 5649SOL    HW128583   4.241   1.896   2.272  1.2635 -1.1484  2.5594
 5649SOL    HW228584   4.128   1.816   2.229 -0.6482  0.3060  0.0452
 5650SOL     OW28585   0.618   4.243  10.317 -0.1001 -0.1521  0.4162
 5650SOL    HW128586   0.537   4.261  10.365 -1.2262 -0.9236 -1.2243
 5650SOL    HW228587   0.608   4.148  10.317 -1.2341 -0.0146 -1.6896
 5651SOL     OW28588   3.900   1.540  10.705 -0.1288  0.1176  0.3151
 5651SOL    HW128589   3.907   1.586  10.789  1.5691  1.0423 -0.3370
 5651SOL    HW228590   3.811   1.505  10.714 -0.7597  1.8909  0.9252
 5652SOL     OW28591   2.908   3.422   4.906  0.2666  0.3741  0.3842
 5652SOL    HW128592   2.923   3.501   4.959 -0.4820 -0.0125  1.1769
 5652SOL    HW228593   2.884   3.458   4.821  0.1997  0.9546  0.6498
 5653SOL     OW28594   1.706   3.578   2.062  0.5816 -0.1030  0.0341
 5653SOL    HW128595   1.627   3.595   2.011 -0.1774 -1.5748  0.6951
 5653SOL    HW228596   1.716   3.482   2.058 -0.2067 -0.1230 -1.2371
 5654SOL     OW28597   2.807   3.091   5.584  0.1419  0.3361 -0.4542
 5654SOL    HW128598   2.847   3.054   5.504  2.7474 -0.5113  1.2220
 5654SOL    HW228599   2.873   3.072   5.651  0.4046  0.7306 -0.6017
 5655SOL     OW28600   3.953   2.429   8.343  0.3060  0.1559  0.0427
 5655SOL    HW128601   3.912   2.445   8.428 -0.6887  1.7546 -0.7217
 5655SOL    HW228602   4.027   2.374   8.369 -0.6067 -1.3405 -0.4811
 5656SOL     OW28603   3.464   4.571   8.416  0.3956  0.1724 -0.1846
 5656SOL    HW128604   3.464   4.599   8.324  0.6284  0.1918 -0.1782
 5656SOL    HW228605   3.494   4.481   8.404 -1.0929 -0.6662  2.4021
 5657SOL     OW28606   1.379   4.697   9.119 -0.1779 -0.4073 -0.0706
 5657SOL    HW128607   1.304   4.697   9.060 -0.3900 -1.3919  0.1947
 5657SOL    HW228608   1.434   0.023   9.076  1.1044 -1.5627 -0.1988
 5658SOL     OW28609   3.401   2.431   5.650 -0.4802 -0.6971 -0.5006
 5658SOL    HW128610   3.318   2.438   5.602 -1.6866  0.5705  1.7493
 5658SOL    HW228611   3.386   2.488   5.726 -0.5802  1.5870 -2.2473
 5659SOL     OW28612   0.429   3.670   2.694  0.1672  0.1222 -0.0346
 5659SOL    HW128613   0.418   3.658   2.788  0.5568  0.1534  0.0149
 5659SOL    HW228614   0.340   3.675   2.660 -0.1549  0.0291  0.7991
 5660SOL     OW28615   2.386   4.644   4.236  0.0077 -0.0104 -0.2528
 5660SOL    HW128616   2.379   4.553   4.207 -0.5862 -0.1467  0.3222
 5660SOL    HW228617   2.440   4.673   4.163 -0.9599  0.5524 -0.7465
 5661SOL     OW28618   0.066   0.795   2.668  0.2926  0.5026  0.6226
 5661SOL    HW128619   0.042   0.855   2.739 -0.5125 -0.3693  1.0796
 5661SOL    HW228620   4.732   0.738   2.645  1.1089 -0.1801 -0.3177
 5662SOL     OW28621   4.265   3.872  13.543  0.6920 -0.2300  0.2168
 5662SOL    HW128622   4.186   3.926  13.548 -0.0009 -1.3853  1.8764
 5662SOL    HW228623   4.239   3.792  13.497  0.3883 -0.6089  1.0516
 5663SOL     OW28624   3.262   3.982   9.417 -0.1244  0.2079 -0.0759
 5663SOL    HW128625   3.247   4.047   9.348  1.4066  3.0682  2.3175
 5663SOL    HW228626   3.226   4.022   9.496 -0.2330  0.6673 -0.3535
 5664SOL     OW28627   3.869   1.453  13.249  0.3617 -0.8319 -0.5205
 5664SOL    HW128628   3.886   1.517  13.180  1.6608  0.2701  0.8617
 5664SOL    HW228629   3.935   1.386  13.229 -0.6713 -2.2405  0.8132
 5665SOL     OW28630   1.614   3.641   2.690  0.6789  0.0220  0.1133
 5665SOL    HW128631   1.671   3.698   2.743  0.1802  1.2133 -0.6168
 5665SOL    HW228632   1.606   3.687   2.606  1.0741 -1.7878 -0.9056
 5666SOL     OW28633   4.144   0.609   4.249  0.3108  0.7249 -0.4137
 5666SOL    HW128634   4.163   0.540   4.312  1.1471 -0.4071 -1.9056
 5666SOL    HW228635   4.115   0.677   4.310  4.5622  1.0592  1.3027
 5667SOL     OW28636   2.893   1.640  15.537 -0.2199  0.9767 -0.9089
 5667SOL    HW128637   2.882   1.590  15.457  1.8119 -0.6514 -0.1419
 5667SOL    HW228638   2.892   1.578  15.610 -1.3401  1.2696 -0.6693
 5668SOL     OW28639   3.896   0.315   7.001 -0.0622 -0.3845  0.3791
 5668SOL    HW128640   3.882   0.409   7.014  1.7850 -0.0576 -0.0432
 5668SOL    HW228641   3.980   0.300   7.044  0.4384 -3.5104 -1.6270
 5669SOL     OW28642   0.630   3.242   0.574  0.0463 -0.3533 -0.2896
 5669SOL    HW128643   0.657   3.167   0.521  1.1104 -0.3429  0.2350
 5669SOL    HW228644   0.715   3.257   0.617  1.0025 -2.1127 -1.5286
 5670SOL     OW28645   1.637   4.055   6.632 -0.1119 -0.3416  0.3550
 5670SOL    HW128646   1.611   4.038   6.722  0.3099  1.9848  0.9342
 5670SOL    HW228647   1.709   4.118   6.640 -0.4755  0.1631 -0.2386
 5671SOL     OW28648   1.363   0.764   8.167  0.0606  0.6750 -0.0910
 5671SOL    HW128649   1.433   0.824   8.142 -0.0178  0.2838 -1.2148
 5671SOL    HW228650   1.303   0.831   8.201 -0.9366 -0.4145  0.2843
 5672SOL     OW28651   2.835   0.119   8.711 -0.2207 -0.2243  0.5252
 5672SOL    HW128652   2.805   0.047   8.766 -1.4995  0.1976  0.3772
 5672SOL    HW228653   2.887   0.077   8.642 -0.3106  0.8208 -0.1699
 5673SOL     OW28654   4.182   1.216   2.709  0.1400  0.1557  0.4631
 5673SOL    HW128655   4.097   1.176   2.724  0.0179  0.5171  0.7348
 5673SOL    HW228656   4.143   1.301   2.691 -2.8042 -1.2318  0.4160
 5674SOL     OW28657   0.849   1.207   6.846  0.0589  0.7824 -0.1383
 5674SOL    HW128658   0.870   1.147   6.917 -4.7036  0.7606  1.2345
 5674SOL    HW228659   0.863   1.161   6.763 -0.7939  0.1744  0.0573
 5675SOL     OW28660   0.761   1.716   8.369  0.1561  0.2628 -0.4509
 5675SOL    HW128661   0.813   1.647   8.412 -0.1486  0.5102  0.2998
 5675SOL    HW228662   0.735   1.759   8.450  1.0436  3.1047 -1.6756
 5676SOL     OW28663   2.614   3.129   9.251  0.4562  0.4811 -0.1180
 5676SOL    HW128664   2.684   3.101   9.309 -1.9192 -0.2772  2.3316
 5676SOL    HW228665   2.648   3.217   9.235  3.1217 -0.7323 -1.2480
 5677SOL     OW28666   0.783   0.973  12.921 -0.0072  0.0332 -0.4198
 5677SOL    HW128667   0.788   1.057  12.966  0.1904 -0.6132  0.7781
 5677SOL    HW228668   0.748   1.018  12.844 -0.1030 -0.5416 -0.7111
 5678SOL     OW28669   4.696   2.355   7.477  0.5505  0.1145  0.7184
 5678SOL    HW128670   4.639   2.282   7.451  1.0294 -0.3811  1.0572
 5678SOL    HW228671   4.684   2.348   7.571 -0.6396  1.7759  0.6905
 5679SOL     OW28672   1.558   4.389   3.028  0.3349 -0.2357  0.4631
 5679SOL    HW128673   1.488   4.346   2.979  0.7070 -0.2212 -0.0847
 5679SOL    HW228674   1.622   4.393   2.956  0.5722 -1.1467  0.6209
 5680SOL     OW28675   3.110   3.689  14.364  0.1508 -0.0575  0.1010
 5680SOL    HW128676   3.079   3.627  14.299  2.0907  0.1720 -1.0705
 5680SOL    HW228677   3.023   3.703  14.401 -0.8087 -0.4515 -2.0108
 5681SOL     OW28678   3.507   1.121   6.934  0.3510  0.2921  0.0885
 5681SOL    HW128679   3.485   1.212   6.915  1.7065  0.1327 -2.2868
 5681SOL    HW228680   3.561   1.134   7.012  0.2746  0.4067  0.1225
 5682SOL     OW28681   2.925   1.020  11.931 -0.5821 -0.5081  0.0482
 5682SOL    HW128682   2.955   0.930  11.930  0.0821 -0.2818 -0.3416
 5682SOL    HW228683   3.008   1.067  11.921 -0.5815 -0.2505  1.1721
 5683SOL     OW28684   3.493   0.281   2.978  0.1208  0.5126 -0.4689
 5683SOL    HW128685   3.462   0.234   3.055  1.4992 -0.1273 -0.2963
 5683SOL    HW228686   3.442   0.361   2.986 -2.9031 -1.4902  0.4901
 5684SOL     OW28687   3.183   0.636   5.781  0.1309 -0.3723  0.5809
 5684SOL    HW128688   3.245   0.569   5.754  0.4890 -0.4228  1.5654
 5684SOL    HW228689   3.225   0.663   5.862 -3.2257 -1.4764  2.6950
 5685SOL     OW28690   0.645   4.552   4.923  0.5265 -0.3339 -0.5752
 5685SOL    HW128691   0.666   4.471   4.877  0.7795 -0.2859 -0.5416
 5685SOL    HW228692   0.722   4.553   4.979  1.3814 -2.3635 -1.7205
 5686SOL     OW28693   0.773   4.538  16.048  0.0093 -0.0041  0.2331
 5686SOL    HW128694   0.714   4.532  15.973 -0.8860  0.6339  0.8882
 5686SOL    HW228695   0.725   4.484  16.110 -1.7813  1.7225  0.3398
 5687SOL     OW28696   1.331   0.531   6.486 -0.0129 -0.4157 -0.8920
 5687SOL    HW128697   1.394   0.559   6.419  0.8147 -1.9752 -0.7678
 5687SOL    HW228698   1.252   0.528   6.432 -0.3468 -2.2840 -0.2992
 5688SOL     OW28699   3.990   1.592  13.486 -0.6118 -0.3436  0.2899
 5688SOL    HW128700   3.948   1.545  13.415  0.8033  0.0169 -0.7915
 5688SOL    HW228701   4.038   1.515  13.517  0.8915  0.1690 -0.7442
 5689SOL     OW28702   2.287   4.685   5.018  0.3361 -0.6697 -0.0331
 5689SOL    HW128703   2.376   4.712   5.043  0.4280 -1.1820  0.2075
 5689SOL    HW228704   2.285   4.612   5.080  1.3379  0.0665  0.8790
 5690SOL     OW28705   0.914   1.170  13.484  0.4850 -0.7290  0.2826
 5690SOL    HW128706   0.961   1.115  13.547  0.4540 -0.5150  0.4933
 5690SOL    HW228707   0.962   1.252  13.501  0.0208 -0.0152 -1.9347
 5691SOL     OW28708   2.608   3.114  12.128 -0.2294  0.0330 -0.1556
 5691SOL    HW128709   2.610   3.150  12.217  1.2082  2.5561 -1.2107
 5691SOL    HW228710   2.572   3.025  12.132 -1.6150  0.4890 -2.6259
 5692SOL     OW28711   4.564   1.535   4.022 -0.1928 -0.5518  0.0359
 5692SOL    HW128712   4.653   1.567   4.035 -1.1510  2.0993  0.0099
 5692SOL    HW228713   4.509   1.613   4.025  0.5916 -0.0688  1.4184
 5693SOL     OW28714   3.273   2.923  13.849 -0.4028  0.0463  0.1795
 5693SOL    HW128715   3.202   2.875  13.805  0.8606  0.4921 -2.2958
 5693SOL    HW228716   3.345   2.918  13.787 -1.0255  0.0744 -0.5463
 5694SOL     OW28717   4.127   0.672  10.318  0.1792 -0.3153  0.1586
 5694SOL    HW128718   4.187   0.674  10.243  0.1791  0.2679  0.1756
 5694SOL    HW228719   4.183   0.717  10.381  0.7372 -0.7881  0.0097
 5695SOL     OW28720   0.897   1.160   9.177 -0.5068 -0.1569 -0.3236
 5695SOL    HW128721   0.931   1.212   9.250  0.8156 -2.1985  0.5139
 5695SOL    HW228722   0.817   1.115   9.206 -1.7799  1.5524 -1.1238
 5696SOL     OW28723   1.073   2.850   5.717  0.6264 -0.3367 -0.5064
 5696SOL    HW128724   1.081   2.756   5.699 -0.5634 -0.1785 -1.8751
 5696SOL    HW228725   1.147   2.870   5.773 -0.2146  2.0184 -0.2654
 5697SOL     OW28726   4.156   1.130  15.400  0.0807 -0.4319 -0.0390
 5697SOL    HW128727   4.120   1.199  15.344  1.4520 -2.0645 -2.9554
 5697SOL    HW228728   4.109   1.064  15.349  3.2144 -2.7027 -0.0089
 5698SOL     OW28729   2.785   3.334  17.120  0.8500 -0.0047 -0.1814
 5698SOL    HW128730   2.708   3.277  17.119  0.3186  0.6966  1.8322
 5698SOL    HW228731   2.768   3.375  17.205  0.6117 -2.6137  1.0395
 5699SOL     OW28732   0.014   2.621   3.242  0.2540 -0.3033 -0.3062
 5699SOL    HW128733   0.098   2.658   3.269  0.0722 -0.7164  0.7992
 5699SOL    HW228734   4.723   2.677   3.170  0.7785 -1.2969 -1.3087
 5700SOL     OW28735   3.271   3.060   8.207  0.1507  0.1418  0.1747
 5700SOL    HW128736   3.184   3.024   8.189  1.2014 -2.9984  1.2971
 5700SOL    HW228737   3.305   3.051   8.118 -1.0400  1.8548 -0.4427
 5701SOL     OW28738   0.408   4.557   3.179  0.3154  0.2080  0.3463
 5701SOL    HW128739   0.387   4.650   3.168 -3.0073 -0.7321 -1.1398
 5701SOL    HW228740   0.320   4.522   3.189  0.7504 -0.4141  2.0801
 5702SOL     OW28741   2.860   1.619   2.845  0.4191 -0.5122 -0.1634
 5702SOL    HW128742   2.796   1.576   2.901  0.8022  1.0167  1.4380
 5702SOL    HW228743   2.938   1.568   2.867  2.5172  1.0598 -4.0432
 5703SOL     OW28744   3.885   2.749   6.051 -0.2968  0.0136  0.0055
 5703SOL    HW128745   3.841   2.741   6.136  0.6159 -1.2054  0.3635
 5703SOL    HW228746   3.905   2.841   6.038 -1.2298  0.4069  1.3349
 5704SOL     OW28747   2.774   1.029   8.850  0.1319 -0.3125 -0.4849
 5704SOL    HW128748   2.788   0.939   8.821 -1.1394 -0.2405 -1.3407
 5704SOL    HW228749   2.688   1.012   8.888  1.5317 -1.8009  2.0268
 5705SOL     OW28750   4.033   3.737   2.848 -0.5367 -0.4899 -0.3937
 5705SOL    HW128751   4.007   3.661   2.796 -2.1775  0.2509 -0.6570
 5705SOL    HW228752   4.125   3.743   2.821 -0.4611  0.1982  0.0125
 5706SOL     OW28753   4.467   1.654   3.434 -0.1760 -0.2170 -0.5574
 5706SOL    HW128754   4.420   1.614   3.361  0.7673  0.7171 -1.6772
 5706SOL    HW228755   4.454   1.588   3.502 -1.9478 -0.9196 -1.5881
 5707SOL     OW28756   1.840   3.357   5.298  0.2535  0.3475 -0.1873
 5707SOL    HW128757   1.753   3.385   5.328  0.5351  2.1362 -1.0180
 5707SOL    HW228758   1.886   3.441   5.297  0.6236  0.1329 -1.1536
 5708SOL     OW28759   3.197   1.300  10.560 -0.2905  0.1847  0.2571
 5708SOL    HW128760   3.223   1.309  10.468 -0.2078 -0.2431  0.2427
 5708SOL    HW228761   3.125   1.239  10.550 -2.3443  2.1346  3.2186
 5709SOL     OW28762   4.476   4.549   5.519 -0.1028  0.3865  0.2562
 5709SOL    HW128763   4.478   4.639   5.488 -0.1221 -0.1791 -1.4224
 5709SOL    HW228764   4.532   4.558   5.596 -0.0667  2.0464  0.0324
 5710SOL     OW28765   0.914   0.464   3.894  0.1244  0.5851 -0.1737
 5710SOL    HW128766   0.880   0.505   3.815  0.1283 -0.6030 -0.8083
 5710SOL    HW228767   0.851   0.487   3.962 -0.9487 -1.0921 -0.5929
 5711SOL     OW28768   0.258   2.330   6.369  0.7464 -0.0710  0.1611
 5711SOL    HW128769   0.228   2.357   6.283  0.2344 -1.3501 -0.0673
 5711SOL    HW228770   0.351   2.345   6.355  1.2164 -1.6124  1.6446
 5712SOL     OW28771   1.379   0.806   9.324 -0.0837  0.6614 -0.0012
 5712SOL    HW128772   1.419   0.834   9.407  0.6462 -0.1608 -0.0701
 5712SOL    HW228773   1.374   0.889   9.277  1.2708  2.1960  2.5072
 5713SOL     OW28774   2.422   4.671   2.592  0.1803 -0.1694 -0.2427
 5713SOL    HW128775   2.437   4.620   2.512 -0.1678  0.5023 -0.7313
 5713SOL    HW228776   2.484   0.004   2.584 -0.1097  0.0433 -0.5429
 5714SOL     OW28777   4.402   2.193  12.329  0.7065 -0.3893  0.1248
 5714SOL    HW128778   4.329   2.254  12.337  1.6611  0.9226 -1.1813
 5714SOL    HW228779   4.468   2.256  12.302 -0.2609  0.3906 -0.4080
 5715SOL     OW28780   1.080   4.239   0.486 -0.8697 -0.4156  0.5671
 5715SOL    HW128781   1.150   4.299   0.512  1.0362 -2.1517 -0.5399
 5715SOL    HW228782   1.002   4.281   0.523 -0.0493  1.7233 -0.1202
 5716SOL     OW28783   4.356   1.774  14.726 -0.1763 -0.0843  0.0065
 5716SOL    HW128784   4.391   1.857  14.760 -4.3879  1.1838  1.1480
 5716SOL    HW228785   4.322   1.798  14.640  0.1870 -1.1861 -0.4405
 5717SOL     OW28786   2.418   4.416   4.759 -0.2531  0.3329 -0.3589
 5717SOL    HW128787   2.403   4.427   4.665 -4.2396  0.8375  0.3142
 5717SOL    HW228788   2.490   4.354   4.771  0.2304  0.9850  0.1229
 5718SOL     OW28789   0.046   1.541   1.645 -0.4834 -0.0550 -0.3842
 5718SOL    HW128790   0.054   1.536   1.549  0.0550  2.8226 -0.4662
 5718SOL    HW228791   0.102   1.616   1.663  1.4888 -1.0516 -2.3240
 5719SOL     OW28792   0.952   2.529   3.441  0.2060  0.5858 -0.8521
 5719SOL    HW128793   0.910   2.443   3.449  1.9655  0.0840  3.0900
 5719SOL    HW228794   1.000   2.500   3.363 -1.3963 -1.6170 -1.0336
 5720SOL     OW28795   4.185   0.552   4.700  0.2236 -0.5168 -0.1961
 5720SOL    HW128796   4.235   0.612   4.755 -0.9495 -0.1617  0.5050
 5720SOL    HW228797   4.236   0.475   4.722 -1.9273 -1.3781  1.7606
 5721SOL     OW28798   0.466   4.397  16.930 -0.0171  0.8119 -0.1239
 5721SOL    HW128799   0.467   4.488  16.901 -2.4692  1.3016  1.3116
 5721SOL    HW228800   0.422   4.355  16.856 -1.0244 -0.5584  1.2405
 5722SOL     OW28801   4.712   1.416   2.914 -0.4641  0.0135 -0.2785
 5722SOL    HW128802   4.683   1.496   2.958 -1.0151 -1.0484  1.2935
 5722SOL    HW228803   4.631   1.365   2.919 -1.1236  1.2309  1.4011
 5723SOL     OW28804   0.980   1.391   5.075 -0.3072 -0.8419 -0.1234
 5723SOL    HW128805   0.925   1.357   5.004  0.7602 -3.4723  0.3378
 5723SOL    HW228806   1.034   1.316   5.100  0.3029 -0.7018 -1.0220
 5724SOL     OW28807   1.838   2.150   5.121  0.1492 -0.1179  0.2053
 5724SOL    HW128808   1.824   2.232   5.073  0.2445  0.1133  0.5755
 5724SOL    HW228809   1.914   2.183   5.169  1.5347  1.3969 -3.0301
 5725SOL     OW28810   3.749   0.893   1.497  0.2063  0.2283  0.1425
 5725SOL    HW128811   3.758   0.879   1.402  1.8399 -0.4191  0.3825
 5725SOL    HW228812   3.745   0.800   1.522 -0.6187  0.7755  2.0242
 5726SOL     OW28813   4.578   4.231   4.809  0.7738  0.1538 -0.3167
 5726SOL    HW128814   4.668   4.257   4.829  0.8198 -1.1536  1.1219
 5726SOL    HW228815   4.586   4.214   4.715 -1.5074  0.5155 -0.5827
 5727SOL     OW28816   4.591   0.596   7.404  0.1661  0.3377 -0.0264
 5727SOL    HW128817   4.635   0.542   7.339 -0.5362  0.4281 -0.5769
 5727SOL    HW228818   4.655   0.660   7.434 -0.7878  0.7720  1.0698
 5728SOL     OW28819   1.519   2.813  16.230 -0.4796  0.0792 -0.6280
 5728SOL    HW128820   1.610   2.793  16.250  0.0053  1.1673 -1.7051
 5728SOL    HW228821   1.516   2.845  16.139 -0.4480  1.2038 -0.2415
 5729SOL     OW28822   1.645   0.498   9.489 -0.3670 -0.2936  0.2288
 5729SOL    HW128823   1.724   0.457   9.453  0.1713 -0.5175  1.6330
 5729SOL    HW228824   1.599   0.419   9.519 -2.3088  1.0804  0.8608
 5730SOL     OW28825   0.395   0.483   6.873  0.4264  0.2815 -0.0101
 5730SOL    HW128826   0.335   0.525   6.935 -0.3124  1.7286 -1.6930
 5730SOL    HW228827   0.392   0.396   6.913  1.7873 -0.3455 -1.2767
 5731SOL     OW28828   2.015   3.528   2.067  0.2201  0.0852 -0.0218
 5731SOL    HW128829   1.953   3.485   2.009  0.9388  0.9674 -1.4486
 5731SOL    HW228830   2.027   3.615   2.029  0.3266  0.1998  0.2697
 5732SOL     OW28831   0.901   2.873  17.081  0.4013  0.2826 -0.1898
 5732SOL    HW128832   0.905   2.935  17.153 -1.8126 -0.0456  0.2267
 5732SOL    HW228833   0.996   2.865  17.071  0.4231  2.5772 -1.7511
 5733SOL     OW28834   2.748   2.445   3.947 -0.4942 -0.4407  0.0248
 5733SOL    HW128835   2.734   2.464   3.854  1.1075 -2.1577 -0.5631
 5733SOL    HW228836   2.819   2.381   3.942  1.5443  1.9492 -1.8878
 5734SOL     OW28837   3.780   3.579   8.589  0.5994  0.1955 -0.3777
 5734SOL    HW128838   3.808   3.621   8.671  2.3041  0.1490 -0.9422
 5734SOL    HW228839   3.851   3.515   8.584 -0.4592 -1.0345  0.1458
 5735SOL     OW28840   0.646   0.800   9.055 -0.5550  0.1542 -0.3063
 5735SOL    HW128841   0.646   0.869   9.121  1.2481  0.2434 -0.4015
 5735SOL    HW228842   0.600   0.848   8.985 -1.9143  0.5295  0.8544
 5736SOL     OW28843   3.915   2.724  10.067  0.2980 -0.0405  0.0483
 5736SOL    HW128844   3.961   2.805  10.090 -0.9677  0.4476  0.8831
 5736SOL    HW228845   3.969   2.691   9.996  0.5371  2.4688 -0.9176
 5737SOL     OW28846   1.843   3.943   4.645 -0.4102 -0.6686  0.3098
 5737SOL    HW128847   1.903   4.003   4.600 -1.1709 -1.3374 -1.6214
 5737SOL    HW228848   1.900   3.890   4.700 -0.7616 -0.3797  0.9471
 5738SOL     OW28849   0.280   3.114   2.697 -0.0255  0.1140 -0.2940
 5738SOL    HW128850   0.275   3.075   2.784  1.6319  0.5814  0.0033
 5738SOL    HW228851   0.320   3.049   2.640  0.8905  0.0318  0.4412
 5739SOL     OW28852   2.820   4.002   6.554  0.4391 -0.6411 -0.2348
 5739SOL    HW128853   2.787   4.001   6.464 -0.0473 -1.3314 -0.0466
 5739SOL    HW228854   2.902   3.957   6.536 -0.7917 -2.3871 -1.4877
 5740SOL     OW28855   1.438   3.430   0.806  0.6245  0.0119  0.0672
 5740SOL    HW128856   1.381   3.504   0.825 -0.3609 -0.5045 -0.7998
 5740SOL    HW228857   1.437   3.452   0.713  2.7455 -1.3071 -0.2679
 5741SOL     OW28858   3.291   2.863   8.396 -0.2366  0.1453  0.3905
 5741SOL    HW128859   3.262   2.803   8.327  0.2866  0.2226  0.1088
 5741SOL    HW228860   3.264   2.949   8.364 -0.6330 -0.9698 -2.2621
 5742SOL     OW28861   4.620   3.329  14.356 -0.5794 -0.1217 -0.1947
 5742SOL    HW128862   4.548   3.383  14.325 -0.1240 -0.0609 -1.1566
 5742SOL    HW228863   4.658   3.398  14.411 -0.6416 -0.1614 -0.1018
 5743SOL     OW28864   4.290   1.180   6.469  0.2568  0.3799  0.4578
 5743SOL    HW128865   4.237   1.113   6.427  0.5520  0.3223  0.1664
 5743SOL    HW228866   4.311   1.232   6.391 -0.0841  0.4630  0.4257
 5744SOL     OW28867   3.698   2.546   5.440  0.2168  0.3650  0.1042
 5744SOL    HW128868   3.788   2.571   5.462  0.2524  0.8490 -0.5692
 5744SOL    HW228869   3.698   2.568   5.347  0.0562 -2.3575 -0.5427
 5745SOL     OW28870   1.166   1.702   4.385  0.1977  0.3702  0.0336
 5745SOL    HW128871   1.194   1.618   4.350 -1.5471  0.3300 -1.3251
 5745SOL    HW228872   1.230   1.763   4.349  0.4435  0.8823  1.3451
 5746SOL     OW28873   2.115   2.506  14.491  0.3528  0.2810 -0.6363
 5746SOL    HW128874   2.130   2.415  14.467 -0.6149 -0.5733  1.9715
 5746SOL    HW228875   2.062   2.524  14.413 -0.4089  0.0742 -0.1698
 5747SOL     OW28876   0.725   1.659   3.731 -0.3354  0.4482  0.0335
 5747SOL    HW128877   0.690   1.590   3.675 -0.6504 -0.7417  1.7100
 5747SOL    HW228878   0.798   1.680   3.674  1.1245  0.3655  1.8790
 5748SOL     OW28879   1.758   1.701  11.114 -0.1355 -0.2186  0.0143
 5748SOL    HW128880   1.790   1.733  11.198  3.0220 -0.9534 -0.9275
 5748SOL    HW228881   1.785   1.609  11.114  0.1571 -0.1359 -1.9847
 5749SOL     OW28882   1.205   1.113   6.937 -0.0610  0.1344  0.1094
 5749SOL    HW128883   1.286   1.162   6.955  1.0892 -1.1372 -1.5554
 5749SOL    HW228884   1.138   1.170   6.974  0.7521  1.5228 -0.5350
 5750SOL     OW28885   4.532   3.698   7.279 -0.6214  0.3226  0.6258
 5750SOL    HW128886   4.450   3.650   7.276 -0.2273 -0.3097 -0.2893
 5750SOL    HW228887   4.579   3.651   7.348 -0.6664 -2.1402 -1.0269
 5751SOL     OW28888   2.851   1.723   1.845  0.1616  0.5275 -0.4076
 5751SOL    HW128889   2.830   1.761   1.930 -1.6396 -0.1967 -0.5351
 5751SOL    HW228890   2.884   1.635   1.858 -2.7436 -0.6737 -1.2039
 5752SOL     OW28891   2.933   0.806   4.031 -0.0836 -0.5037 -0.3467
 5752SOL    HW128892   2.983   0.757   3.966  0.5528 -0.6953  0.2859
 5752SOL    HW228893   3.006   0.846   4.079 -0.1390 -0.3757 -0.3697
 5753SOL     OW28894   0.632   2.017   5.400 -0.5254  0.1690  0.0462
 5753SOL    HW128895   0.630   2.110   5.423  1.3251 -0.0996  1.2896
 5753SOL    HW228896   0.712   2.019   5.348 -1.9308 -1.2839 -2.1813
 5754SOL     OW28897   0.323   4.081   9.077 -0.1978 -0.0045  0.0137
 5754SOL    HW128898   0.249   4.050   9.128  0.8467  1.3940  2.3349
 5754SOL    HW228899   0.312   4.021   9.002 -2.1859  2.6467 -1.8100
 5755SOL     OW28900   1.874   4.468  11.137 -0.2756  0.0030 -0.4723
 5755SOL    HW128901   1.941   4.514  11.087 -0.8031  3.3080  1.8816
 5755SOL    HW228902   1.828   4.539  11.181  0.9355 -1.8083  3.8016
 5756SOL     OW28903   1.405   2.855  17.697 -0.1637 -0.4858 -0.8832
 5756SOL    HW128904   1.323   2.815  17.728 -0.1169  1.4705  1.8028
 5756SOL    HW228905   1.473   2.821  17.755 -3.7995 -0.5651  3.4107
 5757SOL     OW28906   4.409   0.155  12.329 -0.3000 -0.1523 -0.1723
 5757SOL    HW128907   4.413   0.132  12.422  0.2946  2.0760  0.3565
 5757SOL    HW228908   4.395   0.066  12.296  2.4246  0.2001 -2.1960
 5758SOL     OW28909   1.057   2.099   5.970  0.3945 -0.0512 -0.6760
 5758SOL    HW128910   1.011   2.179   5.945 -1.0210 -0.8802 -0.7412
 5758SOL    HW228911   1.066   2.058   5.884 -0.0607 -0.1813 -0.6615
 5759SOL     OW28912   4.576   3.425   3.868  0.4214  0.6186 -0.1833
 5759SOL    HW128913   4.517   3.369   3.918  0.8297 -0.1184 -0.5341
 5759SOL    HW228914   4.646   3.365   3.844  0.0494  1.2086 -2.6500
 5760SOL     OW28915   4.224   3.484  14.161 -0.6972  0.1898  0.2654
 5760SOL    HW128916   4.196   3.419  14.097 -0.1326  0.8575 -0.6475
 5760SOL    HW228917   4.151   3.545  14.145 -1.5705 -0.6613  1.0227
 5761SOL     OW28918   1.283   2.785   6.125 -0.1662  0.0348  0.4287
 5761SOL    HW128919   1.347   2.750   6.063  0.6661  1.2312  0.6179
 5761SOL    HW228920   1.216   2.718   6.114  0.0928  0.0065 -0.9815
 5762SOL     OW28921   0.792   1.913   6.144 -0.0110  0.3137 -0.3615
 5762SOL    HW128922   0.788   1.897   6.238  0.3048 -0.7075 -0.5138
 5762SOL    HW228923   0.884   1.931   6.128  0.0729  0.4091  0.2246
 5763SOL     OW28924   1.321   2.846   4.647 -0.4973 -0.3889  0.0782
 5763SOL    HW128925   1.380   2.849   4.722  2.3626 -3.3542 -2.0304
 5763SOL    HW228926   1.234   2.860   4.684  0.2844 -0.0329  1.7553
 5764SOL     OW28927   1.024   2.892  14.103 -0.2347  0.3102  0.0242
 5764SOL    HW128928   1.013   2.829  14.032 -0.6624 -2.0250  2.1532
 5764SOL    HW228929   0.938   2.933  14.093 -0.0971  0.6518  0.2681
 5765SOL     OW28930   0.693   1.445   8.627  0.2982 -0.2088 -0.4946
 5765SOL    HW128931   0.757   1.473   8.562  0.4729 -1.2729 -0.7751
 5765SOL    HW228932   0.671   1.519   8.684 -0.9856 -0.8611 -0.1478
 5766SOL     OW28933   3.357   3.977   2.788 -0.5373  0.3836  0.1641
 5766SOL    HW128934   3.361   3.897   2.841  1.6591  0.2165 -0.2330
 5766SOL    HW228935   3.448   3.981   2.759 -0.0157 -0.0096  1.7053
 5767SOL     OW28936   1.005   2.556  14.830 -0.0237 -0.4403 -0.8546
 5767SOL    HW128937   0.974   2.501  14.902 -0.2173  0.8311  0.0221
 5767SOL    HW228938   1.007   2.640  14.874  0.8308 -0.6337 -0.5172
 5768SOL     OW28939   4.250   1.653  13.751 -0.4193 -0.1671 -0.2272
 5768SOL    HW128940   4.221   1.587  13.813  2.1198 -0.5671  0.5171
 5768SOL    HW228941   4.217   1.737  13.783 -1.8723  0.2796 -2.8229
 5769SOL     OW28942   0.636   1.458   0.829 -0.6414 -0.5408 -0.3413
 5769SOL    HW128943   0.604   1.413   0.907  1.8245 -1.3629  0.2016
 5769SOL    HW228944   0.562   1.518   0.820 -1.2102 -1.1529  0.3398
 5770SOL     OW28945   0.133   3.564  10.005 -0.4387  1.1011  0.2985
 5770SOL    HW128946   0.178   3.554   9.921  0.1324  0.0271  0.7324
 5770SOL    HW228947   0.042   3.541   9.982  0.4478 -2.3418  0.2614
 5771SOL     OW28948   0.493   4.277   9.965 -0.4284  0.0398 -1.3448
 5771SOL    HW128949   0.512   4.341   9.896  0.8409  0.8051 -0.2908
 5771SOL    HW228950   0.399   4.281   9.950 -0.8733  0.8266  1.6395
 5772SOL     OW28951   4.135   0.345  11.512 -0.1517  0.0473  0.5541
 5772SOL    HW128952   4.230   0.361  11.514 -0.2357  0.1387  3.2887
 5772SOL    HW228953   4.125   0.277  11.445 -3.1130  2.0731 -1.0570
 5773SOL     OW28954   2.730   3.343  12.031 -0.1170  0.6945  0.3863
 5773SOL    HW128955   2.754   3.316  11.942  1.0701 -0.5561  1.0927
 5773SOL    HW228956   2.687   3.265  12.066  2.1634 -0.4918  0.4934
 5774SOL     OW28957   1.238   4.652   5.749 -0.1017 -0.6724  0.0616
 5774SOL    HW128958   1.180   4.687   5.681  0.2844  0.5252  0.3448
 5774SOL    HW228959   1.223   4.725   5.810 -0.0028 -0.8474  0.2924
 5775SOL     OW28960   0.229   1.327   2.902 -0.5676  0.5125  0.0221
 5775SOL    HW128961   0.142   1.364   2.888 -1.3306 -1.3471 -0.2511
 5775SOL    HW228962   0.292   1.397   2.885 -0.3829 -0.0532 -1.5616
 5776SOL     OW28963   2.064   0.155   3.513 -0.3150 -0.2547 -0.0593
 5776SOL    HW128964   1.982   0.180   3.556 -0.4366 -0.1878 -0.3346
 5776SOL    HW228965   2.090   0.086   3.574 -1.0463 -0.6350 -0.1831
 5777SOL     OW28966   3.396   2.004   6.030  0.3561 -0.6414  0.4227
 5777SOL    HW128967   3.455   2.079   6.029 -0.9674  0.4260  2.7205
 5777SOL    HW228968   3.406   1.990   6.125 -1.1174 -0.8923  0.5411
 5778SOL     OW28969   1.471   0.087   5.376  0.9213 -0.3519  0.7622
 5778SOL    HW128970   1.446   0.164   5.428  0.5843 -0.0616  0.1713
 5778SOL    HW228971   1.526   0.127   5.309  0.3438 -0.9672 -0.0886
 5779SOL     OW28972   3.515   0.426  16.108  0.2915 -0.2642 -0.7111
 5779SOL    HW128973   3.553   0.427  16.020 -0.3477 -0.9304 -0.9938
 5779SOL    HW228974   3.584   0.470  16.158 -0.1403 -1.4598  0.9358
 5780SOL     OW28975   0.081   3.933   7.758 -0.1770 -0.0638  0.2314
 5780SOL    HW128976   0.126   4.012   7.729 -0.1371  0.0425  0.5837
 5780SOL    HW228977   0.030   3.911   7.681 -0.3430  4.7563 -1.0441
 5781SOL     OW28978   2.949   2.667   5.530  0.0557 -0.1563  0.4413
 5781SOL    HW128979   2.967   2.761   5.520 -1.0383  0.1662  1.5289
 5781SOL    HW228980   2.923   2.665   5.623 -1.2397 -2.3966  0.0214
 5782SOL     OW28981   4.645   4.117  17.064 -0.5164  0.2386  0.4071
 5782SOL    HW128982   4.560   4.077  17.052 -0.6287  0.7026 -0.3890
 5782SOL    HW228983   4.640   4.156  16.976 -0.1040 -2.6134 -0.8660
 5783SOL     OW28984   3.290   2.221  13.837  0.4271  0.1214 -0.2295
 5783SOL    HW128985   3.253   2.154  13.780  0.7484  1.1354 -1.6421
 5783SOL    HW228986   3.356   2.172  13.887  1.1231 -0.6811 -1.8877
 5784SOL     OW28987   0.854   1.430   8.993  0.6146 -0.4872 -0.0801
 5784SOL    HW128988   0.921   1.406   8.929  0.1939  1.8612 -1.4007
 5784SOL    HW228989   0.870   1.369   9.065 -0.5853 -0.3151  0.3362
 5785SOL     OW28990   1.535   4.536   4.172 -0.2714 -0.2777 -0.3300
 5785SOL    HW128991   1.607   4.492   4.127  1.5635  1.4789  0.8661
 5785SOL    HW228992   1.557   4.627   4.151  1.4604  0.1248  3.2714
 5786SOL     OW28993   4.381   0.372  12.138 -0.2827  0.1210 -0.1804
 5786SOL    HW128994   4.344   0.322  12.066  0.1509 -3.0843  1.8035
 5786SOL    HW228995   4.378   0.311  12.211 -1.1578 -0.1337 -0.4377
 5787SOL     OW28996   0.314   4.345   8.949  0.1301  0.2092  0.3626
 5787SOL    HW128997   0.391   4.393   8.980  1.3708 -0.6067 -1.5005
 5787SOL    HW228998   0.330   4.271   9.007 -0.6742 -0.4565 -0.2819
 5788SOL     OW28999   1.423   2.586  10.247  0.2829  0.4461 -0.3358
 5788SOL    HW129000   1.369   2.665  10.234  0.9369  1.0512  0.6482
 5788SOL    HW229001   1.500   2.616  10.294 -0.0111  1.1041 -0.2688
 5789SOL     OW29002   4.332   2.885   2.230 -0.6285  1.1015 -0.3545
 5789SOL    HW129003   4.246   2.902   2.269 -0.1740  2.7467 -0.1018
 5789SOL    HW229004   4.356   2.976   2.213  1.9493  1.2817  4.2511
 5790SOL     OW29005   2.759   3.530   0.634  0.2608 -0.1623  0.2817
 5790SOL    HW129006   2.769   3.580   0.553 -0.5056 -0.4169  0.0314
 5790SOL    HW229007   2.666   3.510   0.629  1.1191 -3.0650 -3.5188
 5791SOL     OW29008   4.089   2.437   6.430 -0.3927 -0.0360  0.3426
 5791SOL    HW129009   3.998   2.465   6.443  0.0042 -0.0646  3.1770
 5791SOL    HW229010   4.132   2.509   6.476  1.1508 -0.7122 -0.0532
 5792SOL     OW29011   3.117   3.274   6.442  0.0613  0.7069  0.4708
 5792SOL    HW129012   3.137   3.183   6.418  0.1685  0.8815 -0.1088
 5792SOL    HW229013   3.184   3.320   6.393  0.9459 -0.3526  0.6885
 5793SOL     OW29014   3.174   0.160   8.622 -0.2705  0.5320  0.1861
 5793SOL    HW129015   3.130   0.242   8.597 -1.6743 -0.5047 -0.7206
 5793SOL    HW229016   3.212   0.170   8.709  0.1687  0.1499  0.0418
 5794SOL     OW29017   1.650   4.310  17.413  0.0859 -0.9841 -0.0185
 5794SOL    HW129018   1.608   4.369  17.350 -2.3569  0.0153  2.4909
 5794SOL    HW229019   1.612   4.222  17.412 -0.9405 -0.5593  0.8407
 5795SOL     OW29020   1.777   0.327   8.343 -0.0350 -0.1198 -0.4430
 5795SOL    HW129021   1.836   0.262   8.381 -0.3947 -0.2407 -0.0983
 5795SOL    HW229022   1.782   0.314   8.249 -2.8193 -1.8709 -0.3512
 5796SOL     OW29023   3.468   0.732   3.696 -0.2607  0.3870  0.5312
 5796SOL    HW129024   3.449   0.821   3.668 -0.0134  0.5546  0.8966
 5796SOL    HW229025   3.560   0.720   3.670 -0.7313 -0.4277 -0.7924
 5797SOL     OW29026   2.615   4.416   5.314 -0.2879 -0.2059 -0.3258
 5797SOL    HW129027   2.604   4.424   5.219  1.5959 -0.3628 -0.5559
 5797SOL    HW229028   2.545   4.477   5.338  1.2100  1.5016 -0.3076
 5798SOL     OW29029   2.756   0.063  11.615  0.2657 -0.0968 -0.4237
 5798SOL    HW129030   2.840   0.047  11.572 -0.3270 -0.8970 -1.2717
 5798SOL    HW229031   2.692   0.008  11.571 -0.1554 -0.2892  0.4256
 5799SOL     OW29032   3.044   1.862   3.416 -0.0490  0.7351 -0.3408
 5799SOL    HW129033   3.125   1.892   3.375  1.1389 -0.3583  1.1449
 5799SOL    HW229034   2.995   1.943   3.429 -2.4417 -0.7064 -0.4686
 5800SOL     OW29035   0.236   0.945   9.063 -0.5705 -0.0957  0.2392
 5800SOL    HW129036   0.200   0.907   9.143 -2.6812  0.4730 -0.4454
 5800SOL    HW229037   0.286   1.019   9.099 -0.4228 -0.2367  0.3275
 5801SOL     OW29038   0.030   2.044   8.748  0.2431 -0.6048 -0.1367
 5801SOL    HW129039   0.070   2.127   8.774 -2.1858  0.4081  0.4091
 5801SOL    HW229040   0.113   1.998   8.758  0.7972  0.5002  0.2495
 5802SOL     OW29041   2.473   1.769   7.309 -0.6423  0.0922 -0.9836
 5802SOL    HW129042   2.414   1.696   7.325  0.3307 -0.6538 -0.7892
 5802SOL    HW229043   2.414   1.843   7.299  0.4444  1.0978 -0.0257
 5803SOL     OW29044   1.959   1.941   5.799  0.1484 -0.0200  0.5736
 5803SOL    HW129045   1.894   1.874   5.817 -0.8609  0.6647 -0.5533
 5803SOL    HW229046   2.002   1.909   5.720 -1.3127  0.5905 -0.4710
 5804SOL     OW29047   2.863   2.310  15.319  0.5598  0.2264  0.1734
 5804SOL    HW129048   2.784   2.348  15.281  0.7065 -1.0402 -1.4074
 5804SOL    HW229049   2.837   2.271  15.402  0.9377 -0.8522 -0.2162
 5805SOL     OW29050   3.007   1.481   2.358 -0.6184  0.0671 -0.2369
 5805SOL    HW129051   2.996   1.572   2.384 -2.5064 -0.9235  2.3429
 5805SOL    HW229052   2.995   1.491   2.263  0.7122  1.3588 -0.2607
 5806SOL     OW29053   0.556   4.639   5.670 -0.2929 -0.4154 -0.3253
 5806SOL    HW129054   0.497   4.695   5.619 -3.7566 -2.4867  1.3938
 5806SOL    HW229055   0.517   4.557   5.640 -2.0217  0.5875 -0.8156
 5807SOL     OW29056   2.881   3.653   4.026  0.4638  0.2860 -0.0523
 5807SOL    HW129057   2.856   3.745   4.014  0.7923  0.4277  0.3631
 5807SOL    HW229058   2.892   3.653   4.121 -0.9936  1.6195  0.1342
 5808SOL     OW29059   2.738   2.372  17.393  0.4168  0.0550  0.2498
 5808SOL    HW129060   2.760   2.300  17.452  1.2381 -1.1599 -1.5233
 5808SOL    HW229061   2.761   2.451  17.442  2.3323 -2.8843  4.0629
 5809SOL     OW29062   1.813   4.650   2.138  0.1343 -0.4753 -0.0175
 5809SOL    HW129063   1.865   4.720   2.179  1.2563 -1.4599  0.2173
 5809SOL    HW229064   1.871   4.616   2.070  1.0107  0.1300  0.4233
 5810SOL     OW29065   3.594   2.655  10.876  0.0258 -0.1606  0.3768
 5810SOL    HW129066   3.574   2.674  10.967  1.6406 -0.3053  0.7779
 5810SOL    HW229067   3.502   2.652  10.851  0.1058 -0.5413  0.1195
 5811SOL     OW29068   1.418   1.064   5.760 -0.0529  0.4412 -0.1488
 5811SOL    HW129069   1.359   1.088   5.688 -1.8377  0.7950  1.4308
 5811SOL    HW229070   1.509   1.068   5.729  0.1316  0.3887  0.3919
 5812SOL     OW29071   1.148   2.124  14.869 -0.0504  0.3697  0.8211
 5812SOL    HW129072   1.223   2.120  14.809 -0.7410  2.2317 -0.1522
 5812SOL    HW229073   1.188   2.130  14.956 -0.4313  0.8180  0.9583
 5813SOL     OW29074   4.127   4.022   7.899 -0.3977 -0.1999 -0.2184
 5813SOL    HW129075   4.067   4.067   7.958 -0.0176 -1.4636  1.1281
 5813SOL    HW229076   4.097   4.046   7.811  2.1080  3.2340 -0.1267
 5814SOL     OW29077   0.172   0.050  12.118 -0.0190 -0.4088  0.1220
 5814SOL    HW129078   0.229   0.124  12.099  0.2440 -1.6871 -3.9811
 5814SOL    HW229079   0.093   0.094  12.150 -0.2962 -0.6716 -0.2103
 5815SOL     OW29080   2.412   2.320   9.509  0.0940 -0.5685 -1.0311
 5815SOL    HW129081   2.447   2.389   9.452 -0.2894 -1.7638 -2.7100
 5815SOL    HW229082   2.488   2.279   9.551  0.1563 -0.3054 -0.8885
 5816SOL     OW29083   2.685   2.709  16.414 -0.0681 -0.4282  0.2911
 5816SOL    HW129084   2.591   2.721  16.402 -0.3150 -2.9673 -0.4498
 5816SOL    HW229085   2.672   2.630  16.467  0.0656 -0.5426  0.1509
 5817SOL     OW29086   2.179   2.430   3.568  0.1753 -0.4281 -0.3910
 5817SOL    HW129087   2.109   2.474   3.520 -2.0339 -2.8545  0.6255
 5817SOL    HW229088   2.123   2.389   3.634 -0.0472 -1.6368 -1.3382
 5818SOL     OW29089   4.376   3.152  11.029  0.0602  0.1243 -0.4235
 5818SOL    HW129090   4.433   3.195  10.965 -0.0776  1.0348  0.0667
 5818SOL    HW229091   4.408   3.195  11.108  1.5595 -2.6722  0.5119
 5819SOL     OW29092   3.052   1.186   4.068 -0.4831 -0.0678 -0.0867
 5819SOL    HW129093   3.014   1.099   4.077 -0.3559 -0.2762 -1.4716
 5819SOL    HW229094   3.129   1.167   4.014 -1.0485  0.0415 -0.9428
 5820SOL     OW29095   0.504   4.044   0.793  0.2128  0.1860  0.5248
 5820SOL    HW129096   0.452   3.964   0.793 -0.5953  0.7194  0.7917
 5820SOL    HW229097   0.562   4.038   0.869  0.0912  0.2234  0.6205
 5821SOL     OW29098   3.112   1.242  15.030 -0.4573  0.0047 -0.2221
 5821SOL    HW129099   3.094   1.149  15.038 -0.1585  0.1949  2.5013
 5821SOL    HW229100   3.023   1.278  15.025 -0.5637 -0.2324 -0.0094
 5822SOL     OW29101   0.441   1.899  12.267 -0.4097 -0.7176 -0.7702
 5822SOL    HW129102   0.421   1.968  12.203  2.0050  0.8767  0.2248
 5822SOL    HW229103   0.491   1.950  12.331 -1.7597  0.3442 -0.5461
 5823SOL     OW29104   1.370   4.605  17.493 -0.4558  0.2215  0.1749
 5823SOL    HW129105   1.336   4.691  17.467  0.2047  0.9467  1.6804
 5823SOL    HW229106   1.390   4.570  17.407 -0.3876 -0.0913  0.3167
 5824SOL     OW29107   1.087   2.930   3.446  0.3486 -0.2120 -0.1458
 5824SOL    HW129108   1.072   3.023   3.460  1.2754 -0.0654 -0.1572
 5824SOL    HW229109   1.169   2.918   3.494  0.8295 -1.5431 -1.2797
 5825SOL     OW29110   3.211   4.219   4.498  0.0278  0.5821  0.1166
 5825SOL    HW129111   3.255   4.172   4.568  0.0612  1.0924  0.4340
 5825SOL    HW229112   3.217   4.151   4.431 -0.5641 -0.7759  1.4488
 5826SOL     OW29113   2.307   4.012   3.184 -0.0114 -0.2429 -0.1010
 5826SOL    HW129114   2.313   3.920   3.212 -0.6214 -0.0279  0.7244
 5826SOL    HW229115   2.277   4.046   3.268 -2.5229 -1.4998 -0.4849
 5827SOL     OW29116   0.759   1.608  16.881  0.4226  0.0556 -0.0597
 5827SOL    HW129117   0.803   1.637  16.801 -0.3881  1.0764 -0.1400
 5827SOL    HW229118   0.701   1.684  16.887  0.5675  0.2559 -1.2236
 5828SOL     OW29119   3.830   1.892   5.807 -0.0875  0.0209 -0.5264
 5828SOL    HW129120   3.745   1.919   5.843  0.0473  0.8923 -0.8626
 5828SOL    HW229121   3.811   1.854   5.721 -1.7765 -0.4873  0.0746
 5829SOL     OW29122   3.064   3.856   5.413  0.2062  0.2673 -0.4619
 5829SOL    HW129123   3.050   3.943   5.376 -1.1819  0.5786  0.8118
 5829SOL    HW229124   3.120   3.882   5.487 -2.0083 -0.7745  1.5694
 5830SOL     OW29125   3.195   2.016   1.503  0.0507  0.4301 -0.7318
 5830SOL    HW129126   3.242   1.979   1.429  1.0112 -0.3778  0.2695
 5830SOL    HW229127   3.171   2.104   1.474 -2.2280 -0.6317 -2.0353
 5831SOL     OW29128   1.186   3.942   6.293 -0.1438 -0.1673  0.4819
 5831SOL    HW129129   1.247   3.894   6.237 -0.8252 -0.5679  0.0683
 5831SOL    HW229130   1.223   3.950   6.380  1.6921  0.6291 -0.3779
 5832SOL     OW29131   3.843   4.218   4.378 -0.1940 -0.2158  0.0418
 5832SOL    HW129132   3.782   4.159   4.334  0.4867  1.2999 -2.9223
 5832SOL    HW229133   3.788   4.297   4.375 -2.0458 -1.6150 -2.2244
 5833SOL     OW29134   4.008   2.860   5.697  0.3070 -0.2741  0.0891
 5833SOL    HW129135   3.947   2.881   5.626 -0.6803 -0.2223  0.9447
 5833SOL    HW229136   3.956   2.807   5.758 -0.0461 -0.4126 -0.3360
 5834SOL     OW29137   2.822   1.081   1.623 -0.0771 -0.1974 -0.4840
 5834SOL    HW129138   2.882   1.107   1.693  1.1334  0.3572 -1.7423
 5834SOL    HW229139   2.749   1.143   1.633 -0.9040 -1.2410  0.0192
 5835SOL     OW29140   1.821   2.709  17.637 -0.1332 -0.0019  0.4786
 5835SOL    HW129141   1.866   2.668  17.563  0.2343  2.2883 -0.5541
 5835SOL    HW229142   1.782   2.630  17.677 -0.8438  1.6624  3.0978
 5836SOL     OW29143   1.211   1.849   2.951  0.3803  0.1575  0.6746
 5836SOL    HW129144   1.147   1.920   2.964 -0.0530 -0.7214  3.2347
 5836SOL    HW229145   1.162   1.774   2.918 -3.2236  1.2495  3.5482
 5837SOL     OW29146   4.206   2.380   9.346  0.0980  0.6369  0.1644
 5837SOL    HW129147   4.203   2.303   9.403 -2.4184  1.0437  0.5433
 5837SOL    HW229148   4.281   2.347   9.296  0.2742 -1.3692  1.7234
 5838SOL     OW29149   3.547   2.666   0.589  0.0890  0.1692 -0.7123
 5838SOL    HW129150   3.465   2.679   0.541 -0.0512  1.6811 -0.0816
 5838SOL    HW229151   3.613   2.712   0.538  2.9172 -1.7866  1.2114
 5839SOL     OW29152   1.513   1.550   4.121 -0.0888 -0.1320  0.4710
 5839SOL    HW129153   1.591   1.544   4.175  0.2926 -0.2659 -0.0986
 5839SOL    HW229154   1.542   1.514   4.038 -3.0983  0.5270 -0.8666
 5840SOL     OW29155   3.870   1.833  13.965  0.1842 -0.3412  0.4122
 5840SOL    HW129156   3.906   1.922  13.970 -0.7146  0.0067  0.6397
 5840SOL    HW229157   3.899   1.809  13.877 -1.1142  3.4275 -1.0412
 5841SOL     OW29158   1.384   2.884   9.186 -0.2567  0.7066  0.1132
 5841SOL    HW129159   1.448   2.954   9.198  0.3454  0.1298  0.2803
 5841SOL    HW229160   1.423   2.826   9.120  0.0864  1.2179 -0.1338
 5842SOL     OW29161   1.232   1.539  17.314 -0.2433  0.0860  0.2402
 5842SOL    HW129162   1.204   1.571  17.399 -0.0097  0.7054  0.0828
 5842SOL    HW229163   1.323   1.518  17.336 -0.1305  0.6887  0.3370
 5843SOL     OW29164   2.230   0.237   7.785  0.1916 -0.0375  0.3865
 5843SOL    HW129165   2.220   0.332   7.785  0.5020 -0.0114  1.6387
 5843SOL    HW229166   2.254   0.218   7.876 -0.4603  1.1251  0.7923
 5844SOL     OW29167   3.994   3.949   5.950  0.3824 -0.2320 -0.6492
 5844SOL    HW129168   3.934   3.876   5.966 -0.4841  0.3315 -1.3435
 5844SOL    HW229169   4.017   3.980   6.038  1.6643 -0.8908 -0.7577
 5845SOL     OW29170   4.550   4.700  14.304  0.3028 -0.3493  0.3001
 5845SOL    HW129171   4.597   4.656  14.375 -1.0951  1.3408  2.2507
 5845SOL    HW229172   4.462   4.664  14.317  0.1733  0.3981  1.4719
 5846SOL     OW29173   1.893   2.691   3.751 -0.2255  0.0409 -0.2297
 5846SOL    HW129174   1.836   2.615   3.765  0.4293 -0.6361 -1.2183
 5846SOL    HW229175   1.837   2.756   3.794 -0.3566 -0.2526  0.0462
 5847SOL     OW29176   3.000   2.462   8.997  0.5281  0.6433  0.1165
 5847SOL    HW129177   2.933   2.399   9.022  0.8463 -0.7274 -2.4712
 5847SOL    HW229178   3.073   2.414   9.036 -0.6951 -1.9766 -0.8580
 5848SOL     OW29179   0.287   2.791   9.074 -0.0410 -0.5380  0.4492
 5848SOL    HW129180   0.226   2.811   9.003 -0.9763 -0.0760  1.3833
 5848SOL    HW229181   0.312   2.705   9.040  1.2522 -0.3153  0.8562
 5849SOL     OW29182   4.251   4.568   8.569 -0.0394 -0.4438 -0.0624
 5849SOL    HW129183   4.342   4.548   8.588 -0.0832 -3.3517 -2.9289
 5849SOL    HW229184   4.225   4.480   8.542  0.7228 -0.7327  0.1658
 5850SOL     OW29185   1.325   4.515   5.082  0.3306  0.8941  0.4440
 5850SOL    HW129186   1.335   4.536   5.175 -0.5702 -1.0840  0.9705
 5850SOL    HW229187   1.261   4.445   5.091  1.2723 -0.1619 -1.1922
 5851SOL     OW29188   0.771   0.873   4.408  0.2102  0.2224 -0.1052
 5851SOL    HW129189   0.689   0.823   4.403  0.5430 -0.5402  2.1425
 5851SOL    HW229190   0.829   0.798   4.423  0.0249  0.2218  0.5953
 5852SOL     OW29191   4.732   0.751   8.957 -0.0049  0.6862 -0.7290
 5852SOL    HW129192   4.650   0.788   8.990 -0.3972 -0.0391 -0.8868
 5852SOL    HW229193   4.686   0.689   8.900 -1.6453 -0.6336  2.0211
 5853SOL     OW29194   4.377   0.660   7.155 -0.4665 -0.0354 -0.2433
 5853SOL    HW129195   4.362   0.685   7.246  0.6327  2.5154 -0.7591
 5853SOL    HW229196   4.439   0.588   7.166 -1.9509 -1.3882 -0.7108
 5854SOL     OW29197   2.192   2.396   5.741 -0.3674 -0.5818  0.3019
 5854SOL    HW129198   2.230   2.475   5.701 -0.1982 -1.3475 -1.0730
 5854SOL    HW229199   2.274   2.348   5.746 -1.1224 -1.7759  1.1118
 5855SOL     OW29200   3.711   2.865   4.498  0.7992  0.2714 -0.3371
 5855SOL    HW129201   3.633   2.891   4.448  0.6063 -0.3436 -0.3570
 5855SOL    HW229202   3.674   2.787   4.539  1.8799  0.2964  0.6988
 5856SOL     OW29203   4.659   0.197   9.126 -0.1428 -0.1964  0.3286
 5856SOL    HW129204   0.004   0.208   9.171  0.3029  0.5474 -0.6833
 5856SOL    HW229205   4.672   0.118   9.074 -1.5440  1.3887 -2.4178
 5857SOL     OW29206   3.462   1.701  15.294 -0.3642  0.1093  0.2165
 5857SOL    HW129207   3.491   1.759  15.364 -0.6841  1.0289 -0.4113
 5857SOL    HW229208   3.369   1.685  15.314  0.1345 -0.9200  1.6890
 5858SOL     OW29209   4.640   0.587   3.661 -0.1348  0.2021 -0.1835
 5858SOL    HW129210   4.682   0.573   3.576 -1.3067  2.2344 -1.0991
 5858SOL    HW229211   4.634   0.497   3.694 -0.7368  0.1896 -0.3296
 5859SOL     OW29212   3.354   2.898  13.420 -0.3930  0.1716  0.1524
 5859SOL    HW129213   3.314   2.983  13.441  3.6458  1.8227  1.0347
 5859SOL    HW229214   3.367   2.862  13.507  0.8036 -0.5396 -0.3285
 5860SOL     OW29215   1.109   4.434   5.887 -0.3133  0.4025 -0.0658
 5860SOL    HW129216   1.172   4.440   5.816 -1.0842  1.9641 -0.6223
 5860SOL    HW229217   1.024   4.463   5.853 -0.1500  0.6637 -0.2592
 5861SOL     OW29218   0.542   0.817  12.953 -0.7749 -0.3543 -0.7580
 5861SOL    HW129219   0.505   0.865  13.027 -0.2686 -0.3664 -0.5000
 5861SOL    HW229220   0.627   0.860  12.946  0.7599 -3.0600  1.0695
 5862SOL     OW29221   1.570   2.098   3.621  0.3196 -0.0906  0.6529
 5862SOL    HW129222   1.625   2.022   3.643 -0.0563 -0.2491  1.0399
 5862SOL    HW229223   1.568   2.148   3.703 -0.3715  1.0283 -0.0527
 5863SOL     OW29224   2.143   4.557   6.879 -0.4137  0.2665 -0.3332
 5863SOL    HW129225   2.170   4.501   6.952 -1.7799 -1.6327 -1.2764
 5863SOL    HW229226   2.208   4.626   6.886  0.4524 -0.9823  3.7312
 5864SOL     OW29227   3.571   2.932   1.794  0.4639  0.4979  0.3195
 5864SOL    HW129228   3.635   3.003   1.800  1.4741 -0.3751 -0.1712
 5864SOL    HW229229   3.518   2.951   1.872 -0.1339 -0.6683  0.1994
 5865SOL     OW29230   1.507   4.466   1.553  0.1970  0.3944 -0.9945
 5865SOL    HW129231   1.457   4.537   1.593 -1.0036 -0.4948 -0.8830
 5865SOL    HW229232   1.543   4.416   1.626 -3.0803  0.3212  0.5802
 5866SOL     OW29233   2.586   0.172  11.297 -0.5376  0.1634  0.2712
 5866SOL    HW129234   2.593   0.080  11.322 -2.7574 -0.1273 -0.1239
 5866SOL    HW229235   2.640   0.175  11.218 -0.6074  0.3762  0.2311
 5867SOL     OW29236   2.560   1.816   6.616  0.2408  0.5633  0.2963
 5867SOL    HW129237   2.545   1.824   6.710 -2.2266  1.7604 -0.2046
 5867SOL    HW229238   2.491   1.867   6.574 -0.2852  0.0567  0.5491
 5868SOL     OW29239   2.036   3.861   5.935 -0.1946 -0.4399 -0.3646
 5868SOL    HW129240   2.043   3.951   5.968 -0.8578 -0.1531 -1.0261
 5868SOL    HW229241   2.074   3.807   6.004  1.3138 -2.1063 -2.5186
 5869SOL     OW29242   2.000   1.807   3.968  0.6606 -0.0935  0.0506
 5869SOL    HW129243   1.998   1.739   4.036 -0.4076 -0.3655 -0.2546
 5869SOL    HW229244   2.093   1.818   3.949  0.9790  3.5617  3.9314
 5870SOL     OW29245   3.333   0.337   1.595 -0.1033 -0.4842 -0.1084
 5870SOL    HW129246   3.392   0.352   1.521 -0.9794 -1.7538 -1.0621
 5870SOL    HW229247   3.365   0.401   1.660  0.3444 -1.1728  0.3493
 5871SOL     OW29248   3.398   1.440   4.888  0.5130  0.1672  0.2671
 5871SOL    HW129249   3.477   1.440   4.835 -0.5807  0.5361 -1.3772
 5871SOL    HW229250   3.380   1.534   4.874  1.6653  0.3394 -0.0309
 5872SOL     OW29251   0.286   0.569   3.048 -0.4662  0.2759 -0.4666
 5872SOL    HW129252   0.359   0.549   3.106 -0.7465  3.4355  1.0110
 5872SOL    HW229253   0.322   0.639   2.994 -0.2087 -0.1307 -0.8183
 5873SOL     OW29254   2.217   4.413   7.111 -0.4253  0.1947  0.4637
 5873SOL    HW129255   2.241   4.460   7.191  3.9700 -1.5092  0.1258
 5873SOL    HW229256   2.143   4.360   7.141  0.1229 -0.6635  0.2967
 5874SOL     OW29257   2.520   2.841   9.236 -0.0804 -0.7001  0.3348
 5874SOL    HW129258   2.608   2.808   9.254  0.2323  1.4464  2.6874
 5874SOL    HW229259   2.539   2.933   9.218 -3.0263 -0.6324 -2.4068
 5875SOL     OW29260   3.560   0.845   8.455  0.1402 -0.1795  0.7250
 5875SOL    HW129261   3.598   0.887   8.532 -1.3481 -0.5006  1.6374
 5875SOL    HW229262   3.571   0.755   8.485 -0.8653 -0.9789 -1.2419
 5876SOL     OW29263   0.235   3.561   5.752  0.2017  0.2825  0.5147
 5876SOL    HW129264   0.286   3.599   5.824  1.4343 -0.8281  0.1968
 5876SOL    HW229265   0.303   3.532   5.692 -0.0465  1.5961 -0.4003
 5877SOL     OW29266   1.626   3.229  12.073 -0.1379  0.0615  0.1312
 5877SOL    HW129267   1.555   3.227  12.137  0.0015 -3.4292  0.1714
 5877SOL    HW229268   1.639   3.324  12.073  1.4752 -0.1660  0.6818
 5878SOL     OW29269   0.847   2.277  11.851  0.1098  0.4497 -0.3234
 5878SOL    HW129270   0.793   2.352  11.827  1.6013  1.2637 -1.1027
 5878SOL    HW229271   0.795   2.205  11.814 -0.0399  1.3410 -1.8596
 5879SOL     OW29272   1.048   0.906   7.983 -0.4990  0.4038 -0.6328
 5879SOL    HW129273   0.984   0.925   7.914  1.1784  2.7294 -1.5471
 5879SOL    HW229274   0.999   0.939   8.058 -0.2829 -0.2610 -0.2032
 5880SOL     OW29275   2.097   3.524   4.296  0.3092  0.1574 -0.3993
 5880SOL    HW129276   2.064   3.598   4.348 -0.4949 -0.0303 -0.6439
 5880SOL    HW229277   2.063   3.443   4.332 -1.1424 -0.2685 -2.7271
 5881SOL     OW29278   3.535   3.768   3.856  0.5828 -0.3539  0.3850
 5881SOL    HW129279   3.607   3.729   3.807  1.6779 -1.1432  2.6291
 5881SOL    HW229280   3.484   3.696   3.892  0.9931 -0.8501 -0.0247
 5882SOL     OW29281   1.726   1.761   7.669  0.3932 -0.3862  0.5240
 5882SOL    HW129282   1.743   1.679   7.622  1.3971  0.3203 -0.3600
 5882SOL    HW229283   1.800   1.754   7.730  1.7930 -0.5190 -1.1746
 5883SOL     OW29284   4.121   0.397   7.543 -0.1910  0.7352 -0.6181
 5883SOL    HW129285   4.195   0.424   7.598  0.7512  0.0155 -1.5144
 5883SOL    HW229286   4.104   0.313   7.586  0.8040  0.1763 -1.2947
 5884SOL     OW29287   2.467   3.036   1.771 -0.1369 -0.2203  0.4103
 5884SOL    HW129288   2.501   3.126   1.768 -1.8060  0.3999 -0.2509
 5884SOL    HW229289   2.508   3.004   1.852  1.0080  1.3003  0.4454
 5885SOL     OW29290   0.727   2.604  14.158 -0.6311  0.3901 -0.0044
 5885SOL    HW129291   0.655   2.602  14.221  1.0269  1.4106  1.9285
 5885SOL    HW229292   0.677   2.580  14.080 -0.2258 -0.9804  0.1548
 5886SOL     OW29293   2.625   0.116   2.811 -0.4329 -0.2030 -0.1476
 5886SOL    HW129294   2.613   0.165   2.729  1.7248  2.6315  1.2246
 5886SOL    HW229295   2.534   0.102   2.835 -0.2809 -0.3480  0.3354
 5887SOL     OW29296   1.837   4.261  12.612  0.2374  0.1951  0.0496
 5887SOL    HW129297   1.772   4.225  12.551 -0.2372  0.9286  0.1231
 5887SOL    HW229298   1.878   4.183  12.649  2.3400  2.4771  2.4999
 5888SOL     OW29299   2.259   1.192  16.195  0.3573  0.1149  0.2066
 5888SOL    HW129300   2.174   1.160  16.164 -0.7414 -0.2862  3.7040
 5888SOL    HW229301   2.271   1.273  16.145 -1.2903 -1.2295 -2.4050
 5889SOL     OW29302   3.953   2.104   5.925 -0.0745 -0.1658  0.0232
 5889SOL    HW129303   3.936   2.086   6.018  1.8384 -1.7061  0.0739
 5889SOL    HW229304   3.914   2.031   5.877 -1.4238  0.1956  0.5554
 5890SOL     OW29305   1.414   4.383   6.921  0.2417 -0.4795  0.0976
 5890SOL    HW129306   1.438   4.413   7.008  1.0840 -1.2964  0.1447
 5890SOL    HW229307   1.498   4.368   6.878  0.6533  2.5324 -0.2067
 5891SOL     OW29308   3.665   0.921   8.694  0.2121 -0.5406 -0.3432
 5891SOL    HW129309   3.639   0.951   8.782  1.3437 -0.2575 -0.0972
 5891SOL    HW229310   3.743   0.874   8.724  2.0186  1.5098 -1.7922
 5892SOL     OW29311   2.811   1.923   5.072  0.0512 -0.1139  0.1636
 5892SOL    HW129312   2.738   1.863   5.087 -0.6416 -0.1286 -3.2496
 5892SOL    HW229313   2.886   1.866   5.086 -0.9676 -1.1159  1.5767
 5893SOL     OW29314   0.878   3.297   0.687  0.5119  0.3720  0.2247
 5893SOL    HW129315   0.868   3.389   0.712  0.8417  0.2608  0.7634
 5893SOL    HW229316   0.955   3.307   0.631 -0.9071  0.7108 -1.6819
 5894SOL     OW29317   0.295   4.128  14.532 -0.1160  0.0242 -0.2421
 5894SOL    HW129318   0.332   4.142  14.618  1.1297  3.3946 -1.3348
 5894SOL    HW229319   0.357   4.154  14.464 -0.8288  3.6017  0.4983
 5895SOL     OW29320   1.916   0.452   5.706  0.3550  0.2297 -0.2959
 5895SOL    HW129321   1.913   0.547   5.692  0.0030  0.8203  3.9841
 5895SOL    HW229322   1.892   0.441   5.798 -1.6449  3.5523 -0.4146
 5896SOL     OW29323   0.691   4.424   7.689  0.7123  0.5553 -0.1360
 5896SOL    HW129324   0.688   4.348   7.630  0.2955 -0.2438  0.9118
 5896SOL    HW229325   0.775   4.468   7.676  0.5967  0.8212  0.0080
 5897SOL     OW29326   1.995   0.202   0.149 -0.1785 -0.0520 -0.1668
 5897SOL    HW129327   1.981   0.294   0.172 -1.3694 -0.2224 -0.2068
 5897SOL    HW229328   2.090   0.196   0.160 -0.4935 -1.0837  2.0783
 5898SOL     OW29329   1.983   3.518  16.305 -0.3404 -0.0604 -0.4939
 5898SOL    HW129330   2.068   3.557  16.284 -0.7650  1.6554  0.9402
 5898SOL    HW229331   1.930   3.598  16.313  1.6057  1.2709 -0.9476
 5899SOL     OW29332   4.174   3.747  14.916 -0.2871  0.0075  0.3034
 5899SOL    HW129333   4.197   3.695  14.993  1.5432 -1.3612 -1.1856
 5899SOL    HW229334   4.089   3.703  14.907  0.8647 -1.3978 -3.7462
 5900SOL     OW29335   3.347   0.295   4.680  0.3484 -0.1064 -0.1742
 5900SOL    HW129336   3.331   0.232   4.751 -2.0184  0.6394 -0.0467
 5900SOL    HW229337   3.431   0.255   4.661  0.2827  0.0249 -0.7150
 5901SOL     OW29338   3.553   2.625   7.245  0.1795 -0.3973  0.0611
 5901SOL    HW129339   3.539   2.542   7.290 -1.9356 -0.4882 -0.7750
 5901SOL    HW229340   3.502   2.679   7.306 -0.4630 -1.1651  0.2017
 5902SOL     OW29341   0.435   0.510   7.341  0.5969 -0.0228 -0.1516
 5902SOL    HW129342   0.459   0.551   7.424 -2.6391  2.3516 -0.3760
 5902SOL    HW229343   0.342   0.536   7.345  0.6234  0.0668 -0.1178
 5903SOL     OW29344   0.094   3.961   5.341  0.4633  0.1004 -0.3399
 5903SOL    HW129345   0.095   3.899   5.268  3.0650  0.9169 -0.9818
 5903SOL    HW229346   0.013   4.010   5.325  2.0457  3.1311  0.9789
 5904SOL     OW29347   0.887   0.212   3.797  0.3604 -0.0107  0.0654
 5904SOL    HW129348   0.875   0.292   3.848  1.3760  1.0374 -1.3492
 5904SOL    HW229349   0.908   0.245   3.710  3.1580 -0.2555  0.6578
 5905SOL     OW29350   3.157   1.158  12.031 -0.2986  0.1834  0.0964
 5905SOL    HW129351   3.235   1.208  12.006  1.3957 -1.6844  1.7256
 5905SOL    HW229352   3.168   1.141  12.124 -2.2500 -1.8579 -0.0635
 5906SOL     OW29353   3.521   4.306   5.013 -0.0883 -0.3696  0.1613
 5906SOL    HW129354   3.593   4.269   4.962  0.4681  0.6524  0.1925
 5906SOL    HW229355   3.537   4.252   5.091 -1.8084  0.9540  1.4271
 5907SOL     OW29356   4.580   4.688   6.574  0.1020  0.1435  0.8002
 5907SOL    HW129357   4.521   4.688   6.499  0.7019 -1.3944  0.3494
 5907SOL    HW229358   4.583   0.043   6.595  1.2325  0.8787 -2.7861
 5908SOL     OW29359   4.117   4.329   8.916 -0.2930  0.5121 -0.2590
 5908SOL    HW129360   4.095   4.309   9.007 -0.1190  0.7996 -0.1525
 5908SOL    HW229361   4.187   4.390   8.940 -0.1894  0.4046 -0.2906
 5909SOL     OW29362   3.983   1.379   5.251 -0.8609  0.0846  0.1468
 5909SOL    HW129363   4.051   1.394   5.185  0.8784  2.7546  2.5344
 5909SOL    HW229364   4.018   1.308   5.304 -1.4150  0.2746  0.7636
 5910SOL     OW29365   1.869   4.250   3.866  0.5431 -0.2955 -0.2441
 5910SOL    HW129366   1.844   4.265   3.775  0.2117  1.7045  0.1919
 5910SOL    HW229367   1.957   4.212   3.863  0.7616  0.0905  1.0585
 5911SOL     OW29368   4.028   3.173   8.435  0.1840  0.2414 -0.1992
 5911SOL    HW129369   3.992   3.261   8.425 -2.4768 -1.2560 -3.4329
 5911SOL    HW229370   3.970   3.111   8.392  0.4469 -0.2627  0.1780
 5912SOL     OW29371   3.182   3.944   9.683  0.3560  0.0002  0.0490
 5912SOL    HW129372   3.261   3.948   9.736  1.1532  3.8538 -1.4663
 5912SOL    HW229373   3.132   3.866   9.708  1.0955 -1.1203 -1.9527
 5913SOL     OW29374   4.694   2.745   7.204 -0.1336  0.5884  0.0818
 5913SOL    HW129375   4.721   2.833   7.231  1.4320  0.2313 -0.3054
 5913SOL    HW229376   4.731   2.755   7.116  0.5066 -1.0088  0.1708
 5914SOL     OW29377   2.479   3.290   2.384 -0.2930  0.2113 -0.1240
 5914SOL    HW129378   2.548   3.275   2.319 -1.1428  1.7703 -1.3750
 5914SOL    HW229379   2.482   3.219   2.449  0.9807 -0.5737 -1.0383
 5915SOL     OW29380   2.494   3.863   7.866 -0.3276 -0.3064  0.6829
 5915SOL    HW129381   2.413   3.898   7.902 -0.8448  0.0849 -0.8739
 5915SOL    HW229382   2.487   3.886   7.773  2.2079 -1.0862  0.2951
 5916SOL     OW29383   0.072   0.687   6.224  0.2860  0.3156  0.2067
 5916SOL    HW129384   0.026   0.636   6.290  3.2800 -2.1227  0.3915
 5916SOL    HW229385   0.020   0.767   6.232  1.6501  1.4353 -2.2009
 5917SOL     OW29386   0.688   0.241   9.235  0.0080 -0.5855  0.6833
 5917SOL    HW129387   0.717   0.149   9.237  0.6868 -0.3586  1.3801
 5917SOL    HW229388   0.766   0.272   9.281  0.6407 -1.0676 -0.0513
 5918SOL     OW29389   3.757   2.145  11.191  0.4590  0.1308  0.4016
 5918SOL    HW129390   3.733   2.115  11.103 -3.2244  0.7453  1.2376
 5918SOL    HW229391   3.716   2.230  11.180  0.4995  0.2692  1.3427
 5919SOL     OW29392   3.778   0.291   9.529 -0.0774 -0.2002 -0.3294
 5919SOL    HW129393   3.820   0.206   9.515  0.6845  0.3748 -1.4312
 5919SOL    HW229394   3.820   0.353   9.470  0.5995 -0.5512 -0.2081
 5920SOL     OW29395   1.716   3.558   3.907  0.4861  0.4501 -0.0996
 5920SOL    HW129396   1.789   3.596   3.956  1.9619 -0.9262 -1.2079
 5920SOL    HW229397   1.738   3.554   3.814  2.0020  2.6015  0.1653
 5921SOL     OW29398   4.338   0.770   8.732  0.6964 -0.2172  0.1376
 5921SOL    HW129399   4.325   0.677   8.718 -1.0056  0.2521 -1.4849
 5921SOL    HW229400   4.269   0.808   8.787  2.0625  0.4067  1.4131
 5922SOL     OW29401   4.435   0.850   4.590 -0.0336  0.4249  0.0373
 5922SOL    HW129402   4.418   0.779   4.652  0.9368  0.9824  0.9395
 5922SOL    HW229403   4.415   0.923   4.649  2.3274  0.8158  0.3274
 5923SOL     OW29404   3.617   4.416  14.709  0.0780 -0.5358 -0.1046
 5923SOL    HW129405   3.557   4.361  14.659 -1.7370 -1.8481  3.5551
 5923SOL    HW229406   3.589   4.435  14.798 -1.0715  0.2650 -0.6433
 5924SOL     OW29407   2.388   4.497   6.127 -0.0165 -0.0734 -0.2667
 5924SOL    HW129408   2.404   4.423   6.186 -1.4241 -0.6074 -0.5651
 5924SOL    HW229409   2.338   4.456   6.057  0.8072 -0.9187 -0.3565
 5925SOL     OW29410   0.827   0.072  17.613 -0.0507  0.1085 -0.2397
 5925SOL    HW129411   0.803   0.098  17.702  1.7545  0.5509  0.1152
 5925SOL    HW229412   0.855   0.155  17.575  0.9056 -0.0870  0.0348
 5926SOL     OW29413   2.187   1.273   3.791  0.0760 -0.3172  0.1762
 5926SOL    HW129414   2.187   1.208   3.861 -0.3416  1.7929  2.1350
 5926SOL    HW229415   2.158   1.347   3.845 -0.3899 -0.6713  0.4077
 5927SOL     OW29416   0.290   0.806   7.540 -0.2882 -0.1523  1.0914
 5927SOL    HW129417   0.359   0.870   7.523 -0.8114  0.7485  2.3183
 5927SOL    HW229418   0.344   0.728   7.549  0.9673  0.3904 -1.7192
 5928SOL     OW29419   3.291   0.398   0.830 -0.3566  0.1576 -0.1030
 5928SOL    HW129420   3.334   0.313   0.821  0.2786  0.4515  0.1314
 5928SOL    HW229421   3.357   0.463   0.805 -0.2487 -0.0165 -0.2709
 5929SOL     OW29422   2.183   1.853   9.979 -0.2738 -0.2046 -0.5045
 5929SOL    HW129423   2.271   1.822  10.000 -0.6240 -0.1909  0.9495
 5929SOL    HW229424   2.153   1.876  10.067  0.1110  0.8089 -0.6378
 5930SOL     OW29425   4.057   3.131   6.830 -0.4196 -0.0541 -0.3509
 5930SOL    HW129426   4.105   3.049   6.823 -1.2637 -0.4360 -1.7643
 5930SOL    HW229427   3.970   3.100   6.854 -0.7174 -1.5792 -3.3854
 5931SOL     OW29428   3.433   1.633   6.049  0.1372 -0.6480  0.5052
 5931SOL    HW129429   3.480   1.655   5.969  2.1026 -1.2911  1.4713
 5931SOL    HW229430   3.493   1.569   6.089 -1.6055 -1.5171  1.7109
 5932SOL     OW29431   2.936   2.016   4.034 -0.0667  0.3155  0.3703
 5932SOL    HW129432   2.951   1.963   3.956  1.6220  2.4726 -0.7754
 5932SOL    HW229433   3.005   1.979   4.090 -1.9640 -0.5833  2.1168
 5933SOL     OW29434   2.732   0.092   6.961 -0.1332  0.4723  0.0475
 5933SOL    HW129435   2.668   0.021   6.951  0.6859 -0.3493  0.5564
 5933SOL    HW229436   2.748   0.086   7.055 -1.9535 -2.5159  0.1704
 5934SOL     OW29437   3.926   0.892   6.127 -0.2306  0.0183  0.2232
 5934SOL    HW129438   3.914   0.969   6.072  0.0308 -0.4445 -0.4862
 5934SOL    HW229439   3.838   0.876   6.160  0.2204  1.2823  2.0106
 5935SOL     OW29440   1.180   0.940   8.321  0.2802  0.1889 -0.1305
 5935SOL    HW129441   1.102   0.901   8.282 -1.3544  2.7084  0.5954
 5935SOL    HW229442   1.188   0.900   8.407 -2.4660  0.0075  0.0202
 5936SOL     OW29443   2.297   4.624   7.856 -0.1690 -0.1150 -0.4035
 5936SOL    HW129444   2.311   4.693   7.791 -0.5963  0.3087 -0.0480
 5936SOL    HW229445   2.342   4.548   7.819 -1.6876 -1.3818  0.3274
 5937SOL     OW29446   4.416   1.758  17.014 -0.5046 -0.8242  0.7382
 5937SOL    HW129447   4.402   1.718  16.928  2.2902  2.3178 -1.1649
 5937SOL    HW229448   4.512   1.752  17.017 -0.5328 -0.9989  1.3579
 5938SOL     OW29449   1.879   4.409   3.014 -0.2830  0.1856 -0.8188
 5938SOL    HW129450   1.883   4.381   3.105 -1.9848 -1.7864 -1.3644
 5938SOL    HW229451   1.912   4.328   2.976 -0.2467 -1.1911  2.1626
 5939SOL     OW29452   1.308   3.203   3.867  0.1766  0.0514  0.3771
 5939SOL    HW129453   1.253   3.274   3.900 -0.1576  0.5736 -1.3033
 5939SOL    HW229454   1.392   3.247   3.853 -0.1969  0.1456 -1.6671
 5940SOL     OW29455   1.986   1.370   7.678 -0.3670 -0.3042 -0.0698
 5940SOL    HW129456   1.892   1.389   7.687  0.2274  2.3904  0.3471
 5940SOL    HW229457   1.993   1.275   7.684 -4.0170 -0.5598  0.1028
 5941SOL     OW29458   4.244   4.556   4.132  0.0507 -0.2545  0.4512
 5941SOL    HW129459   4.171   4.598   4.177  1.5647  1.7297  1.0445
 5941SOL    HW229460   4.249   4.606   4.050  0.6189 -0.2042  0.5215
 5942SOL     OW29461   0.844   4.039  12.664  0.0156  0.4162  0.7888
 5942SOL    HW129462   0.873   4.045  12.755  2.4036 -1.0240  0.1159
 5942SOL    HW229463   0.753   4.069  12.668 -0.3617 -0.8003  1.1095
 5943SOL     OW29464   1.394   0.524   6.037  0.1152  0.0907 -0.4619
 5943SOL    HW129465   1.311   0.568   6.018  0.9060  2.7672  2.2434
 5943SOL    HW229466   1.438   0.517   5.953 -1.5714 -0.1940 -1.3258
 5944SOL     OW29467   3.619   4.209   3.699 -0.3337  0.4191  0.0632
 5944SOL    HW129468   3.535   4.179   3.733 -0.7345 -0.3483 -1.6327
 5944SOL    HW229469   3.593   4.272   3.632 -0.7264 -1.4078 -1.4960
 5945SOL     OW29470   2.908   1.858   7.180 -0.5357 -0.2828 -0.4122
 5945SOL    HW129471   2.854   1.891   7.252 -0.8282 -2.4505  0.3663
 5945SOL    HW229472   2.841   1.848   7.112  0.5287  1.7582 -1.7907
 5946SOL     OW29473   1.766   1.280   4.933  0.1948 -0.5377  0.2212
 5946SOL    HW129474   1.752   1.187   4.952  1.7860 -1.3352 -2.3643
 5946SOL    HW229475   1.832   1.297   5.000 -0.1296  0.9355  0.1560
 5947SOL     OW29476   1.406   2.212   6.770 -0.3961 -0.3393 -0.6294
 5947SOL    HW129477   1.446   2.221   6.683  0.6046 -1.4263 -0.2867
 5947SOL    HW229478   1.428   2.119   6.785  3.0600  0.4621 -0.6098
 5948SOL     OW29479   3.841   1.888   9.218  0.1813  0.2764  0.4900
 5948SOL    HW129480   3.885   1.972   9.202 -0.3690  0.3402 -0.6641
 5948SOL    HW229481   3.878   1.856   9.300  0.1344 -2.6822 -0.6531
 5949SOL     OW29482   4.513   0.306   1.966  0.1065 -0.2567  0.0012
 5949SOL    HW129483   4.424   0.295   2.000 -0.8177  1.5263 -1.7858
 5949SOL    HW229484   4.553   0.245   2.028  1.5470  0.8746  0.2022
 5950SOL     OW29485   0.237   3.243   6.873  0.5888  0.0571 -0.0687
 5950SOL    HW129486   0.265   3.163   6.828 -1.2477 -0.6267  0.0182
 5950SOL    HW229487   0.235   3.307   6.801  1.5864  0.3468  0.1599
 5951SOL     OW29488   1.530   2.317   7.237 -0.1497  0.7404 -0.1356
 5951SOL    HW129489   1.575   2.401   7.245  0.0862  0.6917 -0.9157
 5951SOL    HW229490   1.501   2.321   7.146 -1.6910  0.7872  0.3581
 5952SOL     OW29491   3.719   3.198   8.164 -0.1861  0.5015  0.0655
 5952SOL    HW129492   3.790   3.138   8.138 -1.0270 -0.1006 -0.8299
 5952SOL    HW229493   3.684   3.157   8.243 -0.4712 -0.0069 -0.3245
 5953SOL     OW29494   3.336   4.121   0.841 -0.4466 -0.0845 -0.8464
 5953SOL    HW129495   3.341   4.216   0.830  2.7417 -0.2129 -0.3404
 5953SOL    HW229496   3.255   4.108   0.890  0.0278 -1.5809 -0.4672
 5954SOL     OW29497   1.280   3.373   7.510 -0.2341 -0.0805  0.5504
 5954SOL    HW129498   1.286   3.465   7.483  1.0232 -0.4227 -0.3657
 5954SOL    HW229499   1.214   3.326   7.458  0.5071  0.0970 -0.5575
 5955SOL     OW29500   1.832   0.374   5.095 -0.3398  0.2148  0.1301
 5955SOL    HW129501   1.864   0.362   5.005  3.8535 -1.8584  1.9097
 5955SOL    HW229502   1.909   0.422   5.126 -1.0581  2.0949 -0.9748
 5956SOL     OW29503   3.461   4.236  10.261 -0.2996 -0.0863  0.4846
 5956SOL    HW129504   3.427   4.155  10.225 -3.6914  2.2296 -1.5008
 5956SOL    HW229505   3.542   4.244  10.210  0.8300 -0.5791  2.1703
 5957SOL     OW29506   0.584   4.682  12.800 -0.2097  0.0009 -0.4668
 5957SOL    HW129507   0.671   4.698  12.763  0.3282  0.5432  1.0355
 5957SOL    HW229508   0.587   4.587  12.793  0.5263  0.2318 -3.2149
 5958SOL     OW29509   4.255   3.840   1.387  0.4429 -0.4636  0.1650
 5958SOL    HW129510   4.341   3.798   1.382  0.8161  0.0629  2.0621
 5958SOL    HW229511   4.251   3.861   1.480  2.7344  3.0102 -0.4918
 5959SOL     OW29512   2.427   0.540   1.896  0.0831 -0.3371  0.3941
 5959SOL    HW129513   2.425   0.524   1.801  2.9072 -0.1489  0.3040
 5959SOL    HW229514   2.388   0.627   1.891  0.3495 -0.2574 -0.3580
 5960SOL     OW29515   1.596   1.651   3.708  0.1569 -0.3701 -0.4389
 5960SOL    HW129516   1.589   1.619   3.618 -0.5544 -1.9719  0.1960
 5960SOL    HW229517   1.666   1.714   3.690 -2.1619  1.8830 -1.7055
 5961SOL     OW29518   3.362   2.050   8.351  0.0818 -0.4789  0.2966
 5961SOL    HW129519   3.325   1.977   8.300 -1.2970 -0.4870  1.2772
 5961SOL    HW229520   3.320   2.026   8.434 -2.7711 -0.6742 -1.1911
 5962SOL     OW29521   0.800   1.880   2.739  0.0761 -0.3333  0.3113
 5962SOL    HW129522   0.848   1.850   2.662 -0.4623  0.0972 -0.2001
 5962SOL    HW229523   0.726   1.919   2.690  0.5345  1.4086  0.9960
 5963SOL     OW29524   3.820   2.492   1.497  0.5277 -0.1900 -0.2408
 5963SOL    HW129525   3.752   2.522   1.556  0.1168 -0.3725 -0.6200
 5963SOL    HW229526   3.774   2.420   1.454 -0.9550  1.0546 -0.6961
 5964SOL     OW29527   3.584   2.226   1.760 -0.4548 -0.2051  1.1060
 5964SOL    HW129528   3.535   2.248   1.681 -0.8735  0.6268  1.5958
 5964SOL    HW229529   3.629   2.143   1.745  1.3357  0.8735  0.4943
 5965SOL     OW29530   1.900   3.816   7.941  0.3995  0.1311  0.0928
 5965SOL    HW129531   1.980   3.775   7.973  0.9382  1.6313  0.6848
 5965SOL    HW229532   1.911   3.908   7.966  1.3259  0.2024 -0.5515
 5966SOL     OW29533   0.361   0.944  12.787  0.6048 -0.6407 -0.1539
 5966SOL    HW129534   0.429   0.881  12.811 -1.2300 -1.4411  2.9586
 5966SOL    HW229535   0.404   0.975  12.707 -1.4396 -0.5205 -1.2080
 5967SOL     OW29536   0.851   1.831   9.123  0.2639 -0.6419  0.2000
 5967SOL    HW129537   0.852   1.890   9.047  0.6011  1.9641  2.2476
 5967SOL    HW229538   0.764   1.851   9.156  0.7285 -0.0455  1.0579
 5968SOL     OW29539   3.367   3.886   3.515  0.5534  0.1836 -0.4527
 5968SOL    HW129540   3.459   3.880   3.542 -0.0503  1.4981  1.8804
 5968SOL    HW229541   3.366   3.976   3.482 -0.9290 -0.4048 -2.0270
 5969SOL     OW29542   1.091   1.069  12.949 -0.1103  0.5023  0.4872
 5969SOL    HW129543   1.093   1.070  12.853 -2.2935 -4.1347  0.3633
 5969SOL    HW229544   1.003   1.101  12.971  0.4789  1.5668  1.2574
 5970SOL     OW29545   0.733   3.108   0.142 -0.3776  0.0895 -0.1192
 5970SOL    HW129546   0.699   3.069   0.223  2.2657 -0.0973  0.9035
 5970SOL    HW229547   0.658   3.164   0.124  0.3532  1.0412 -0.2201
 5971SOL     OW29548   2.271   1.852   3.899  0.4485  0.7620 -0.3466
 5971SOL    HW129549   2.349   1.836   3.951 -0.4387 -0.1289  0.7186
 5971SOL    HW229550   2.264   1.947   3.913  0.2147  0.0176  4.3548
 5972SOL     OW29551   1.115   3.100   6.069 -0.5740  0.2559 -0.0903
 5972SOL    HW129552   1.051   3.039   6.031 -0.3410  1.7182 -2.7966
 5972SOL    HW229553   1.056   3.175   6.080 -1.9496 -0.7128 -0.7904
 5973SOL     OW29554   2.594   3.447   0.337  0.3860 -0.0907 -0.5026
 5973SOL    HW129555   2.553   3.432   0.423  1.8014  1.6783  0.4838
 5973SOL    HW229556   2.619   3.539   0.341 -0.1715  0.0358  0.2533
 5974SOL     OW29557   4.666   4.048   0.596  0.1956  0.3806  0.9532
 5974SOL    HW129558   4.658   4.116   0.529 -1.5324  0.6033  1.3664
 5974SOL    HW229559   4.599   3.983   0.573  1.2041 -0.6309  0.9211
 5975SOL     OW29560   0.822   4.363   7.396 -0.1400 -0.5068 -0.4038
 5975SOL    HW129561   0.906   4.338   7.357  1.6938  2.6505  1.5644
 5975SOL    HW229562   0.854   4.422   7.464 -1.5137 -0.8832  0.5528
 5976SOL     OW29563   1.315   0.046   8.734 -0.0460  0.9637 -0.4878
 5976SOL    HW129564   1.226   0.058   8.766  0.1123  0.6280  0.0969
 5976SOL    HW229565   1.324   4.690   8.725 -0.9106  0.7939  0.4452
 5977SOL     OW29566   1.286   1.311   6.104 -0.1695  0.2043  0.7555
 5977SOL    HW129567   1.217   1.299   6.039  0.3319  3.3187 -0.3225
 5977SOL    HW229568   1.298   1.223   6.141 -1.2802 -0.9660 -1.6391
 5978SOL     OW29569   0.331   0.879   2.684  0.1327 -0.5996  0.1525
 5978SOL    HW129570   0.241   0.846   2.688 -0.7329  1.6951  0.0369
 5978SOL    HW229571   0.318   0.958   2.631  0.0703 -0.6152  0.1444
 5979SOL     OW29572   3.473   3.809   9.557  0.4472  0.3358 -0.8524
 5979SOL    HW129573   3.479   3.783   9.465 -2.0846  1.1889 -1.2630
 5979SOL    HW229574   3.397   3.866   9.549 -0.5119 -1.2734 -3.0174
 5980SOL     OW29575   3.815   1.659   2.038 -0.6731  0.0501  0.3332
 5980SOL    HW129576   3.795   1.629   2.127 -0.8894  0.3066  0.3699
 5980SOL    HW229577   3.872   1.729   2.069 -0.8160  0.0994  0.4857
 5981SOL     OW29578   4.426   0.015   4.830 -0.2788 -0.1403  0.0775
 5981SOL    HW129579   4.499   4.697   4.806 -0.6451 -0.4442 -0.3186
 5981SOL    HW229580   4.386   0.058   4.754 -1.4310  0.0599  0.8081
 5982SOL     OW29581   3.748   0.820   7.048 -0.2551  0.2327 -0.2106
 5982SOL    HW129582   3.767   0.840   7.139 -1.3174 -0.1497  0.1015
 5982SOL    HW229583   3.755   0.909   7.012 -0.2307 -0.6462 -2.4131
 5983SOL     OW29584   2.858   4.554   4.239  0.3520 -0.1100 -0.1226
 5983SOL    HW129585   2.927   4.532   4.177  0.8749 -1.8667  1.0725
 5983SOL    HW229586   2.791   4.530   4.176  0.8661  1.0334 -1.0968
 5984SOL     OW29587   1.377   0.845   6.347  0.1374 -0.1202  0.1564
 5984SOL    HW129588   1.335   0.822   6.429  1.1824  0.8132  0.9534
 5984SOL    HW229589   1.306   0.822   6.287  0.1963  0.1582 -0.0214
 5985SOL     OW29590   0.043   1.097   2.795 -0.3665  0.0490  0.1722
 5985SOL    HW129591   0.123   1.150   2.795 -0.2480 -0.1663 -2.8088
 5985SOL    HW229592   4.734   1.106   2.713 -0.5161  0.8407  0.3523
 5986SOL     OW29593   1.675   0.109  12.477  0.1304  0.2991  0.1187
 5986SOL    HW129594   1.618   0.186  12.489  0.1486  0.3078  0.1474
 5986SOL    HW229595   1.634   0.042  12.531  1.5165 -1.4008 -0.9548
 5987SOL     OW29596   1.466   1.443  17.414  0.3247  0.3477  0.2667
 5987SOL    HW129597   1.519   1.517  17.441 -0.2270  1.1908 -0.9659
 5987SOL    HW229598   1.463   1.388  17.492 -0.7317 -1.0621 -0.7526
 5988SOL     OW29599   3.883   2.460   3.174  0.4125 -0.1679 -0.0259
 5988SOL    HW129600   3.863   2.484   3.084  0.5569  0.4173  0.0989
 5988SOL    HW229601   3.795   2.467   3.210 -0.8111 -2.1315 -2.6509
 5989SOL     OW29602   3.613   1.881   2.404  0.6526 -0.1796 -0.4775
 5989SOL    HW129603   3.608   1.961   2.455 -3.3813 -0.5361 -0.2953
 5989SOL    HW229604   3.541   1.889   2.342  0.1615  0.6689  0.1988
 5990SOL     OW29605   2.977   3.126   7.747  0.2591  0.3838 -0.0182
 5990SOL    HW129606   2.949   3.085   7.664  0.4245  1.0288 -0.3919
 5990SOL    HW229607   2.893   3.153   7.784  0.3960 -0.9310  1.2566
 5991SOL     OW29608   1.178   1.332  14.285 -0.6117  0.6433 -0.1456
 5991SOL    HW129609   1.115   1.276  14.241 -1.6174  0.1163  1.9378
 5991SOL    HW229610   1.174   1.292  14.372  0.2464 -2.3439 -1.4886
 5992SOL     OW29611   2.666   2.314   5.092  0.5704 -0.5195 -0.0237
 5992SOL    HW129612   2.746   2.290   5.045  0.7116 -0.9563  0.4410
 5992SOL    HW229613   2.665   2.409   5.084  0.8387 -0.4732  0.5393
 5993SOL     OW29614   2.422   0.388  15.319 -0.2095  0.2889  0.2803
 5993SOL    HW129615   2.385   0.323  15.259  3.0206 -0.5964 -0.7220
 5993SOL    HW229616   2.363   0.381  15.395  0.8636  1.6790  1.2430
 5994SOL     OW29617   2.761   4.690   8.139 -0.5232 -0.5373  0.0738
 5994SOL    HW129618   2.834   0.003   8.107  0.4854 -0.3395  2.6743
 5994SOL    HW229619   2.698   4.688   8.067 -1.4644  2.1888  0.8177
 5995SOL     OW29620   3.833   2.705  14.335 -0.0449 -0.1025  0.9010
 5995SOL    HW129621   3.749   2.709  14.289  0.7403 -1.3230 -0.6457
 5995SOL    HW229622   3.827   2.790  14.378  0.8614  0.6283 -0.4146
 5996SOL     OW29623   1.417   2.795   4.890 -0.6543  0.8459  0.1360
 5996SOL    HW129624   1.350   2.734   4.922 -0.4929  1.0673  0.9163
 5996SOL    HW229625   1.496   2.774   4.940 -0.0198  1.1461 -0.7386
 5997SOL     OW29626   3.234   0.024   4.505  0.3360  0.0900 -0.0059
 5997SOL    HW129627   3.204   0.012   4.595  0.7914 -1.1781 -0.0325
 5997SOL    HW229628   3.234   4.671   4.481  0.1642 -0.0784  0.6369
 5998SOL     OW29629   1.632   3.277   1.432 -0.4702  0.2573 -0.2853
 5998SOL    HW129630   1.555   3.295   1.379 -1.3682 -2.6323  0.0685
 5998SOL    HW229631   1.592   3.257   1.517 -0.0235  2.9609  0.5674
 5999SOL     OW29632   2.912   1.929  15.506 -0.0398  0.7063  0.5027
 5999SOL    HW129633   2.922   1.835  15.488  0.4054  0.7586  0.4792
 5999SOL    HW229634   2.998   1.962  15.482  0.4456 -0.8639  0.0960
 6000SOL     OW29635   2.851   2.215   7.703  0.0042 -0.3061  0.3178
 6000SOL    HW129636   2.864   2.120   7.703 -1.4750 -0.5173  1.9700
 6000SOL    HW229637   2.784   2.209   7.634  3.0521  1.0966 -2.7735
 6001SOL     OW29638   1.861   3.260   3.724 -0.1013 -0.5202  0.4167
 6001SOL    HW129639   1.898   3.240   3.637  0.9433  1.5705  0.3884
 6001SOL    HW229640   1.767   3.245   3.715 -0.0710 -0.1282 -0.6705
 6002SOL     OW29641   2.527   3.226   8.146 -0.4523  0.1136 -0.2600
 6002SOL    HW129642   2.485   3.178   8.219  1.0370 -1.4378 -0.4127
 6002SOL    HW229643   2.613   3.184   8.146 -1.5665 -2.1569 -1.9618
 6003SOL     OW29644   4.285   0.371   5.589  0.0496 -0.0679 -0.4532
 6003SOL    HW129645   4.335   0.353   5.669  2.1989  0.2457 -1.7392
 6003SOL    HW229646   4.248   0.457   5.606  1.1914  0.3319  0.0207
 6004SOL     OW29647   4.508   3.082  15.117  0.1905  0.3319 -0.0247
 6004SOL    HW129648   4.541   3.145  15.054  1.0573  0.1066  0.2027
 6004SOL    HW229649   4.564   3.005  15.109 -2.5413 -1.6960  0.4889
 6005SOL     OW29650   3.670   3.275  11.897  0.6680  0.3001  0.0789
 6005SOL    HW129651   3.585   3.266  11.853  1.1929  2.3556 -1.3410
 6005SOL    HW229652   3.728   3.264  11.821  0.5070  0.0422 -0.0070
 6006SOL     OW29653   0.662   1.468   4.222  0.8137  0.4606  0.4609
 6006SOL    HW129654   0.595   1.520   4.267  0.8985  1.5790 -0.6955
 6006SOL    HW229655   0.650   1.500   4.132  0.5265  1.1011  0.7276
 6007SOL     OW29656   2.321   3.505   3.174  0.5710  0.3394  0.1800
 6007SOL    HW129657   2.248   3.444   3.171 -0.8993  2.1015 -0.4420
 6007SOL    HW229658   2.394   3.449   3.200  1.0936  0.9870  0.1098
 6008SOL     OW29659   0.779   2.429   1.777 -0.3056 -0.1981 -0.3192
 6008SOL    HW129660   0.725   2.504   1.752  1.2809  0.6891 -1.0473
 6008SOL    HW229661   0.706   2.377   1.811 -1.3850  1.4444 -0.1356
 6009SOL     OW29662   2.835   4.662   3.756  0.1774  0.0782 -0.2480
 6009SOL    HW129663   2.828   4.618   3.671 -0.9218 -1.0518  0.4304
 6009SOL    HW229664   2.929   4.676   3.756  0.3287 -0.9265  1.6098
 6010SOL     OW29665   4.536   3.289   8.895  0.9792  0.2460  0.7555
 6010SOL    HW129666   4.493   3.263   8.977 -1.4896  0.2122 -0.5552
 6010SOL    HW229667   4.461   3.311   8.840  0.8638  0.6847  1.0914
 6011SOL     OW29668   1.091   2.734   2.931  0.0597 -0.4069  0.3393
 6011SOL    HW129669   1.107   2.687   2.850 -0.1166 -4.4962  2.6983
 6011SOL    HW229670   1.017   2.691   2.975 -0.4735 -0.6891 -0.8470
 6012SOL     OW29671   0.148   3.948   2.093 -0.1892 -0.9277 -0.5684
 6012SOL    HW129672   0.125   3.921   2.182  0.3823  1.8583  0.4474
 6012SOL    HW229673   0.243   3.942   2.079  0.0630 -0.0886  0.7890
 6013SOL     OW29674   0.310   1.661   3.551 -0.4156  0.4007  0.1891
 6013SOL    HW129675   0.331   1.753   3.535 -0.2583  0.6153  1.6023
 6013SOL    HW229676   0.328   1.612   3.471 -1.0687  1.3609 -0.5488
 6014SOL     OW29677   3.357   2.062   4.303  0.3203  0.1366 -0.2917
 6014SOL    HW129678   3.431   2.081   4.245  0.4432  1.5329  0.3333
 6014SOL    HW229679   3.386   2.090   4.390 -2.2678 -1.9060  1.1968
 6015SOL     OW29680   3.771   0.383   1.850  0.0430  0.1152  0.0927
 6015SOL    HW129681   3.756   0.452   1.915  1.5402  0.8918 -0.4094
 6015SOL    HW229682   3.821   0.438   1.790 -0.9751  2.0583  1.0117
 6016SOL     OW29683   4.079   1.767   6.563  0.3707 -0.1698  1.3324
 6016SOL    HW129684   4.159   1.727   6.529  0.6667  2.1208 -0.7029
 6016SOL    HW229685   4.027   1.692   6.589  0.4545 -0.0390  1.8690
 6017SOL     OW29686   4.664   0.832   2.043 -0.5763  1.0367  0.1092
 6017SOL    HW129687   4.654   0.892   2.117  1.2096 -0.6084  1.6692
 6017SOL    HW229688   4.694   0.895   1.978 -2.9837  1.7474 -0.3134
 6018SOL     OW29689   3.199   1.307  11.688  0.4946  0.1290 -0.6830
 6018SOL    HW129690   3.174   1.242  11.623  0.0422 -0.4517  0.0750
 6018SOL    HW229691   3.237   1.372  11.629  2.3348 -2.2710 -2.1555
 6019SOL     OW29692   0.271   1.298   8.509  0.2682  0.3705  0.8370
 6019SOL    HW129693   0.342   1.331   8.454 -2.5465  0.3324 -2.8623
 6019SOL    HW229694   0.317   1.247   8.575  1.2642  0.4202  0.1787
 6020SOL     OW29695   1.740   1.809   5.854 -0.0899 -0.2921 -0.8066
 6020SOL    HW129696   1.660   1.818   5.906 -1.0353  2.3408 -2.7642
 6020SOL    HW229697   1.720   1.724   5.814  2.9940 -1.2728 -0.3049
 6021SOL     OW29698   4.127   1.651   8.754 -0.0452 -0.3308  0.2436
 6021SOL    HW129699   4.156   1.646   8.663 -0.5238  1.5718 -0.0096
 6021SOL    HW229700   4.166   1.733   8.784 -0.9165  0.5575 -1.0360
 6022SOL     OW29701   0.440   0.583   6.454 -0.1089 -0.1352  0.1574
 6022SOL    HW129702   0.438   0.662   6.400 -0.6916 -1.1230 -1.2589
 6022SOL    HW229703   0.386   0.522   6.403 -1.0985  0.8183  0.0502
 6023SOL     OW29704   1.110   0.668  10.036  0.1080 -0.0215 -0.5229
 6023SOL    HW129705   1.055   0.734   9.994 -1.2621 -0.7486  0.1085
 6023SOL    HW229706   1.188   0.676   9.981 -0.1755 -2.4945 -1.2650
 6024SOL     OW29707   1.973   0.593  12.740 -0.1223 -0.0647 -0.3581
 6024SOL    HW129708   1.926   0.676  12.736  1.2563  0.8776  2.7187
 6024SOL    HW229709   2.063   0.625  12.745 -0.1522 -0.3499  2.3889
 6025SOL     OW29710   2.038   3.517  12.017 -0.0085 -0.3570 -0.9341
 6025SOL    HW129711   1.973   3.553  12.077  1.3578  2.0255 -0.8646
 6025SOL    HW229712   2.034   3.573  11.940 -2.1081  1.3201  0.3953
 6026SOL     OW29713   3.097   0.376   5.409 -0.5541  1.1970 -0.2224
 6026SOL    HW129714   3.037   0.383   5.483 -1.3785 -3.6159 -0.4857
 6026SOL    HW229715   3.096   0.284   5.384 -1.0875  1.3619 -0.7968
 6027SOL     OW29716   1.268   4.306  14.639 -0.4661 -0.2242 -0.0533
 6027SOL    HW129717   1.320   4.299  14.719 -0.6367 -0.7066  0.0107
 6027SOL    HW229718   1.220   4.224  14.640 -0.6298 -0.1008  1.2112
 6028SOL     OW29719   1.223   1.715   5.873  0.2241  0.2864 -0.1713
 6028SOL    HW129720   1.300   1.680   5.919  2.3763  4.7000 -0.3688
 6028SOL    HW229721   1.157   1.689   5.937 -0.0909  1.7879  0.1130
 6029SOL     OW29722   0.687   4.157   4.410  0.8142 -0.2602 -0.5400
 6029SOL    HW129723   0.667   4.227   4.348 -0.4743 -0.1488 -0.0107
 6029SOL    HW229724   0.607   4.161   4.462 -0.2436 -1.4941 -2.0942
 6030SOL     OW29725   4.290   4.019  17.480  0.0238 -0.0234 -0.0419
 6030SOL    HW129726   4.281   3.946  17.418 -0.4116  0.8330 -0.9831
 6030SOL    HW229727   4.348   4.079  17.433 -0.3846  0.1115 -0.3644
 6031SOL     OW29728   3.476   3.501   3.935  0.1168 -0.0947 -0.3418
 6031SOL    HW129729   3.540   3.494   4.006 -0.4908  5.3611  0.7130
 6031SOL    HW229730   3.463   3.409   3.913  0.2566 -0.5078  1.2650
 6032SOL     OW29731   0.483   3.539   4.501 -0.0827  0.2655 -0.2787
 6032SOL    HW129732   0.508   3.454   4.464 -0.8112 -0.4627  0.8985
 6032SOL    HW229733   0.409   3.511   4.554 -0.4124 -0.1159 -0.9400
 6033SOL     OW29734   4.131   1.024   6.274 -0.2796 -0.2387  0.1534
 6033SOL    HW129735   4.158   1.084   6.205 -1.1337  0.6867  0.6168
 6033SOL    HW229736   4.107   0.948   6.221  1.0430 -1.1801  0.8978
 6034SOL     OW29737   1.258   2.176   4.935 -0.7930  0.4117 -0.4702
 6034SOL    HW129738   1.253   2.127   4.853  3.1015  2.0357 -1.6637
 6034SOL    HW229739   1.338   2.220   4.908  0.4101 -1.0204  0.7219
 6035SOL     OW29740   3.867   1.623   5.272 -0.4363 -0.0447  0.4903
 6035SOL    HW129741   3.901   1.535   5.254 -0.7679 -0.1963  0.6020
 6035SOL    HW229742   3.948   1.657   5.311 -0.4631  1.0440 -0.4253
 6036SOL     OW29743   0.588   3.618  17.481  0.1474  0.1831 -0.0773
 6036SOL    HW129744   0.521   3.686  17.473 -1.2496 -1.0903  0.8759
 6036SOL    HW229745   0.647   3.648  17.550 -1.1599  0.7828  0.7899
 6037SOL     OW29746   0.496   2.195   2.182  0.5869  0.4167 -0.5250
 6037SOL    HW129747   0.544   2.121   2.147  1.6093 -0.5298  2.8994
 6037SOL    HW229748   0.412   2.158   2.208  1.3651 -1.1506 -0.2883
 6038SOL     OW29749   0.824   0.421   7.442 -0.2586 -0.5417 -0.6586
 6038SOL    HW129750   0.908   0.465   7.428 -1.2740  1.5615 -0.1862
 6038SOL    HW229751   0.818   0.445   7.534  0.5635  0.7143 -0.9369
 6039SOL     OW29752   3.669   1.616   8.556  0.7042 -0.3073 -0.4572
 6039SOL    HW129753   3.697   1.707   8.543  0.4084  0.2265  2.6079
 6039SOL    HW229754   3.640   1.622   8.647 -0.6940 -0.5300 -0.8972
 6040SOL     OW29755   3.432   0.539   8.344 -0.4571  0.5969 -0.4167
 6040SOL    HW129756   3.384   0.601   8.288 -0.1534  2.3686  1.3183
 6040SOL    HW229757   3.425   0.577   8.431 -0.6320  0.6733 -0.4632
 6041SOL     OW29758   2.932   4.705  17.112 -0.2491  0.7889 -0.0769
 6041SOL    HW129759   3.002   4.721  17.048 -0.5769 -1.9684 -1.1246
 6041SOL    HW229760   2.866   0.034  17.101  1.1049  2.4129  1.8678
 6042SOL     OW29761   1.805   0.250   7.363  0.5266  0.7523 -0.4833
 6042SOL    HW129762   1.822   0.188   7.435  0.8643 -2.7581 -3.6071
 6042SOL    HW229763   1.728   0.215   7.319  0.3953  3.1899 -2.1496
 6043SOL     OW29764   3.848   2.458  13.204 -0.0820 -0.1181 -0.0451
 6043SOL    HW129765   3.872   2.396  13.273  0.6528 -0.1973 -0.3750
 6043SOL    HW229766   3.936   2.491  13.182 -0.0544 -0.5148 -0.5126
 6044SOL     OW29767   3.042   1.298  14.137 -0.5108  0.1481 -0.2027
 6044SOL    HW129768   3.082   1.211  14.144 -1.8510 -0.4681 -0.1867
 6044SOL    HW229769   3.008   1.286  14.049 -1.1832 -1.2287  0.2402
 6045SOL     OW29770   2.949   0.908   0.598 -0.5111 -0.0179 -0.5990
 6045SOL    HW129771   2.918   0.996   0.580  1.6561  0.7364 -0.6196
 6045SOL    HW229772   3.043   0.916   0.584 -0.9840  1.5012 -2.7311
 6046SOL     OW29773   1.921   3.167  12.308 -0.0476 -0.6196 -0.2881
 6046SOL    HW129774   1.868   3.124  12.242  1.0517  0.8783 -2.1563
 6046SOL    HW229775   1.982   3.096  12.330  0.3289  0.3671  1.9309
 6047SOL     OW29776   4.089   2.054   3.510  0.0446 -0.7433 -0.0446
 6047SOL    HW129777   4.165   2.110   3.527 -1.4075  1.2213  0.0015
 6047SOL    HW229778   4.021   2.121   3.504 -1.0588 -1.9481 -1.0234
 6048SOL     OW29779   2.047   4.670   7.927  0.1574 -0.1676 -0.5165
 6048SOL    HW129780   2.030   4.587   7.884 -1.7119 -0.4540  0.7561
 6048SOL    HW229781   2.140   4.679   7.909 -0.1103  3.5924 -0.0725
 6049SOL     OW29782   0.167   3.285   6.018  0.1207  0.0952 -0.0680
 6049SOL    HW129783   0.236   3.222   6.040 -0.6095 -0.5480  0.3559
 6049SOL    HW229784   0.214   3.367   6.036  0.0243  0.3330 -0.9239
 6050SOL     OW29785   3.613   3.463   5.722 -0.3630 -0.2727  0.2272
 6050SOL    HW129786   3.679   3.519   5.765 -0.2764  0.1889 -0.5014
 6050SOL    HW229787   3.583   3.404   5.791  0.9118 -0.0550  0.9765
 6051SOL     OW29788   2.513   0.963   1.514 -0.4074 -0.2566  0.3428
 6051SOL    HW129789   2.454   0.911   1.570  2.5763 -3.2687  0.6857
 6051SOL    HW229790   2.550   1.029   1.573  0.3086 -0.8518  0.5534
 6052SOL     OW29791   2.393   2.891  16.118  0.3465 -0.5737 -0.3672
 6052SOL    HW129792   2.474   2.942  16.114  0.8224 -1.3761 -1.0060
 6052SOL    HW229793   2.415   2.809  16.072 -0.5270 -1.8633  1.5073
 6053SOL     OW29794   2.755   0.977   3.899  0.3436  0.4867 -0.0388
 6053SOL    HW129795   2.783   0.894   3.936 -0.9270  0.7837  1.6326
 6053SOL    HW229796   2.817   0.988   3.827  0.1352 -4.0030 -0.8786
 6054SOL     OW29797   0.084   0.409   4.548 -0.1500  0.2466  0.4087
 6054SOL    HW129798   0.061   0.501   4.548  2.1237  0.8230  0.4797
 6054SOL    HW229799   0.147   0.400   4.620  0.0414  0.8255  0.3134
 6055SOL     OW29800   3.355   4.221   8.514 -0.5499  0.3647 -0.9263
 6055SOL    HW129801   3.348   4.126   8.506 -0.3221  0.2785 -0.1018
 6055SOL    HW229802   3.278   4.255   8.468 -1.9865 -1.9787 -0.2297
 6056SOL     OW29803   3.459   0.991   7.534  1.0206 -0.2132  0.6049
 6056SOL    HW129804   3.447   1.024   7.445 -0.1446  4.2644  2.4347
 6056SOL    HW229805   3.466   0.899   7.511 -0.1697 -0.1897  0.1699
 6057SOL     OW29806   3.315   3.312   8.259 -0.0017  0.3639 -0.4143
 6057SOL    HW129807   3.297   3.218   8.257 -0.5050  0.4580 -0.2056
 6057SOL    HW229808   3.298   3.324   8.166 -0.5103 -3.1285 -0.7900
 6058SOL     OW29809   0.852   1.146   4.287  0.3435 -0.5826 -0.5455
 6058SOL    HW129810   0.868   1.052   4.291 -0.5263 -0.7923 -1.8999
 6058SOL    HW229811   0.939   1.174   4.258  0.2874  0.3682  0.1911
 6059SOL     OW29812   4.072   1.156   8.398  0.0907  0.0864 -0.4447
 6059SOL    HW129813   4.158   1.130   8.429  0.2402  0.2399 -0.7301
 6059SOL    HW229814   4.003   1.124   8.457 -1.0047 -0.6259 -2.0854
 6060SOL     OW29815   2.142   1.787   7.099  0.5344 -0.1549  0.1969
 6060SOL    HW129816   2.139   1.881   7.083  0.4559  0.2711  2.6751
 6060SOL    HW229817   2.116   1.781   7.191 -1.5400  0.3399 -0.3599
 6061SOL     OW29818   3.137   4.684   4.737  0.0548 -0.3573  0.3792
 6061SOL    HW129819   3.119   4.591   4.725  0.4937 -0.2805 -0.8929
 6061SOL    HW229820   3.139   4.691   4.832 -2.6869  0.9029  0.3446
 6062SOL     OW29821   0.992   0.122   6.748 -0.4555  0.8138 -0.2514
 6062SOL    HW129822   0.990   0.100   6.655  0.7219 -3.5252  0.7426
 6062SOL    HW229823   1.057   0.192   6.747  0.0622  0.3256 -0.7118
 6063SOL     OW29824   0.512   2.498  17.595 -0.5955 -0.0175  0.5957
 6063SOL    HW129825   0.461   2.425  17.559 -2.8775  1.9328 -0.0930
 6063SOL    HW229826   0.603   2.468  17.585 -0.7194  0.6215 -2.4649
 6064SOL     OW29827   3.540   3.520   6.146 -0.8193  0.5215 -0.1305
 6064SOL    HW129828   3.551   3.615   6.147 -1.0064  0.5511 -1.6562
 6064SOL    HW229829   3.631   3.495   6.165 -0.4014  0.8188 -1.7641
 6065SOL     OW29830   3.730   2.383   4.241 -0.1460 -0.6442  0.1231
 6065SOL    HW129831   3.712   2.477   4.252  2.3789 -0.2875  1.2694
 6065SOL    HW229832   3.655   2.353   4.189 -1.5785  1.4350  0.9656
 6066SOL     OW29833   2.909   4.382   5.711 -0.2308  0.2906 -0.0973
 6066SOL    HW129834   2.899   4.454   5.649  1.3320 -0.6748 -1.4603
 6066SOL    HW229835   3.003   4.366   5.706 -0.6800 -1.2116 -3.9316
 6067SOL     OW29836   1.059   1.479  14.985  0.2844 -0.4362 -0.0765
 6067SOL    HW129837   1.046   1.569  14.958 -3.5736 -0.7366  0.8512
 6067SOL    HW229838   1.113   1.451  14.911  0.8960 -1.5092  0.7576
 6068SOL     OW29839   1.425   1.235  12.366  0.4562  0.4642 -0.4487
 6068SOL    HW129840   1.406   1.291  12.290  0.5820 -0.7192 -1.3498
 6068SOL    HW229841   1.470   1.302  12.417 -0.7713  1.3426 -0.5058
 6069SOL     OW29842   1.639   4.003  12.656  0.2302 -0.0834  0.1474
 6069SOL    HW129843   1.551   4.036  12.637  0.0553 -0.6039  0.0539
 6069SOL    HW229844   1.668   3.949  12.582  1.7971 -2.4311  2.4578
 6070SOL     OW29845   3.055   2.961   6.527  0.1723 -0.2440  0.1255
 6070SOL    HW129846   2.989   2.936   6.462  0.4814 -2.1945  0.5558
 6070SOL    HW229847   3.043   2.900   6.600 -0.7580 -1.8125 -1.3658
 6071SOL     OW29848   2.596   0.497   4.183 -0.4167  0.3390 -0.0679
 6071SOL    HW129849   2.570   0.508   4.275 -0.7052  1.5276 -0.2950
 6071SOL    HW229850   2.648   0.416   4.191  0.5732  0.9356 -0.5084
 6072SOL     OW29851   4.403   3.951   1.989  0.2460 -0.0338  0.4129
 6072SOL    HW129852   4.414   4.003   1.909  1.9875 -0.8995  0.0943
 6072SOL    HW229853   4.351   3.878   1.956  0.2599  0.5809 -1.0007
 6073SOL     OW29854   0.061   4.483   6.558  0.5355  0.3719  0.6677
 6073SOL    HW129855   0.130   4.544   6.579  3.4549 -1.1859 -4.3084
 6073SOL    HW229856   4.726   4.543   6.550 -1.0447 -1.3971  1.8392
 6074SOL     OW29857   0.193   0.272   9.632 -0.2388  0.1266  0.3062
 6074SOL    HW129858   0.140   0.265   9.712 -1.1879 -2.9933 -0.6129
 6074SOL    HW229859   0.248   0.195   9.642  1.5628  1.3171 -0.5148
 6075SOL     OW29860   0.099   3.050  17.513  0.2089 -0.0171 -0.2789
 6075SOL    HW129861   0.014   3.062  17.470 -0.5367 -0.4190  1.1021
 6075SOL    HW229862   0.132   2.990  17.445  0.6354 -0.0646 -0.0277
 6076SOL     OW29863   3.847   4.716  10.078  0.0564 -1.0933 -0.3683
 6076SOL    HW129864   3.861   4.736   9.985 -0.8316 -0.5579 -0.3883
 6076SOL    HW229865   3.938   4.707  10.105  0.4583 -0.8398 -1.6221
 6077SOL     OW29866   2.299   0.897   2.335  0.2174 -0.5578  0.1265
 6077SOL    HW129867   2.220   0.852   2.305  1.3755 -1.2647 -1.8833
 6077SOL    HW229868   2.347   0.904   2.252  0.2837  2.7779  0.4442
 6078SOL     OW29869   1.621   4.483   6.597  0.1447  0.6256 -0.1203
 6078SOL    HW129870   1.572   4.476   6.515 -0.1163  1.4277 -0.0334
 6078SOL    HW229871   1.631   4.578   6.607 -0.6037  0.6574  0.2806
 6079SOL     OW29872   2.503   3.567   4.966 -0.2583  0.1673  0.2420
 6079SOL    HW129873   2.534   3.607   4.884  3.6970 -0.7490  1.2978
 6079SOL    HW229874   2.556   3.608   5.035  0.4994 -0.4976  0.0558
 6080SOL     OW29875   4.551   3.701   3.840  0.0536 -0.7824  0.0780
 6080SOL    HW129876   4.641   3.697   3.808 -0.3386  0.3674 -1.1228
 6080SOL    HW229877   4.568   3.614   3.877  0.2589  0.9430  4.0851
 6081SOL     OW29878   1.819   1.948  11.735  0.1325 -0.3971 -0.5571
 6081SOL    HW129879   1.805   1.992  11.652 -0.2400  0.4949 -0.0276
 6081SOL    HW229880   1.738   1.974  11.778  0.8680  1.9039 -0.5789
 6082SOL     OW29881   0.017   1.705   0.980  0.1184 -0.3405  0.0772
 6082SOL    HW129882   0.073   1.641   0.935  0.0943  0.0400 -0.4886
 6082SOL    HW229883   0.082   1.756   1.028 -0.1750 -0.1421  0.2627
 6083SOL     OW29884   3.353   0.191   1.027 -0.4759 -0.1995  0.4074
 6083SOL    HW129885   3.370   0.281   1.054 -1.4668  0.4788 -1.2185
 6083SOL    HW229886   3.284   0.167   1.089 -2.5854 -1.1116 -2.3472
 6084SOL     OW29887   0.640   3.852   3.885  0.1974 -0.6515 -0.3461
 6084SOL    HW129888   0.677   3.854   3.973 -2.3671 -0.6653  0.7293
 6084SOL    HW229889   0.705   3.907   3.840  0.3700 -0.2279  0.4188
 6085SOL     OW29890   3.074   3.925  14.105 -0.2445 -0.3138 -0.0152
 6085SOL    HW129891   2.995   3.946  14.154 -0.6187 -1.8034 -0.0145
 6085SOL    HW229892   3.143   3.967  14.158  0.4835  0.2062 -1.3610
 6086SOL     OW29893   3.571   1.335   9.638 -0.1670 -0.1738  0.1860
 6086SOL    HW129894   3.494   1.292   9.675 -1.6110 -0.3976 -3.0674
 6086SOL    HW229895   3.532   1.380   9.563  2.3483  0.2063 -0.9109
 6087SOL     OW29896   2.007   1.503   2.646 -0.4223 -0.0444  0.2680
 6087SOL    HW129897   1.978   1.413   2.661 -0.2253  0.0032  0.9328
 6087SOL    HW229898   2.099   1.477   2.641 -0.3864 -0.0778  1.0651
 6088SOL     OW29899   1.987   3.130   2.110  0.6329 -0.3861  0.0038
 6088SOL    HW129900   2.045   3.061   2.078  1.5417  0.3648  0.0366
 6088SOL    HW229901   2.029   3.155   2.192 -1.0300 -1.2431  1.1193
 6089SOL     OW29902   2.903   0.767   7.651 -0.4268  0.3257  0.8637
 6089SOL    HW129903   2.934   0.840   7.704  0.4065  0.4710  0.1649
 6089SOL    HW229904   2.845   0.716   7.709 -1.0380  0.4265  0.3366
 6090SOL     OW29905   2.136   0.381   8.158  0.1049  0.2115  0.1079
 6090SOL    HW129906   2.220   0.350   8.192 -0.6990 -0.1535  1.7759
 6090SOL    HW229907   2.079   0.309   8.183  0.1038  0.3401  0.4781
 6091SOL     OW29908   4.548   1.337   8.633 -0.2602  0.5077 -1.0163
 6091SOL    HW129909   4.616   1.363   8.570  0.7501 -0.0453 -0.1571
 6091SOL    HW229910   4.539   1.417   8.685 -0.9805 -1.4322  1.8090
 6092SOL     OW29911   0.404   2.064   8.308  0.0311 -0.5277 -0.4918
 6092SOL    HW129912   0.376   2.096   8.394  1.7427 -1.6750  0.4663
 6092SOL    HW229913   0.495   2.038   8.316 -0.4709 -1.9031  0.8105
 6093SOL     OW29914   2.060   3.520   0.585 -0.5152 -1.0184 -0.2904
 6093SOL    HW129915   2.031   3.513   0.494  1.9579  1.5480 -1.2989
 6093SOL    HW229916   2.075   3.614   0.595 -3.3399 -0.3412 -2.5074
 6094SOL     OW29917   3.079   3.662   7.038 -0.0321  0.4314 -0.1787
 6094SOL    HW129918   3.074   3.684   7.130 -2.1441 -2.4857  0.4302
 6094SOL    HW229919   2.989   3.629   7.029  0.4112 -0.1894 -2.3833
 6095SOL     OW29920   0.222   4.161   7.645 -0.2879  0.5489  0.0259
 6095SOL    HW129921   0.317   4.163   7.641 -0.2256  2.4800  2.9836
 6095SOL    HW229922   0.203   4.252   7.622  0.5289  0.6259 -0.3394
 6096SOL     OW29923   2.936   2.187  13.024  0.0343  0.4111  0.4504
 6096SOL    HW129924   2.878   2.192  12.949  2.1120  0.0666 -1.1973
 6096SOL    HW229925   3.018   2.165  12.979 -2.0310 -1.7392 -2.2178
 6097SOL     OW29926   3.079   0.495  16.121  0.2437  0.5129  0.3389
 6097SOL    HW129927   2.986   0.472  16.115  0.7942 -1.4612 -0.6775
 6097SOL    HW229928   3.104   0.480  16.030 -1.1444  1.4453 -0.1951
 6098SOL     OW29929   4.701   1.015  12.588 -0.3426 -0.4597 -0.1434
 6098SOL    HW129930   4.646   0.999  12.665  0.2622  2.8076  0.9690
 6098SOL    HW229931   0.041   1.057  12.620  0.0097 -3.3270  2.8214
 6099SOL     OW29932   0.759   2.976  14.415 -0.1733 -0.1045  0.7995
 6099SOL    HW129933   0.853   2.994  14.418 -1.0665  5.0593 -1.0419
 6099SOL    HW229934   0.726   3.028  14.341 -1.7588 -0.2675  1.3980
 6100SOL     OW29935   0.643   1.173   9.875  0.6519 -0.1828  0.0742
 6100SOL    HW129936   0.699   1.106   9.835 -3.2743 -0.6591 -4.5180
 6100SOL    HW229937   0.682   1.192   9.960  1.4703 -2.7364  0.2924
 6101SOL     OW29938   4.064   0.932  15.266 -0.0287 -0.5249  0.1838
 6101SOL    HW129939   4.019   0.957  15.186 -1.8913  0.3348  1.4959
 6101SOL    HW229940   3.994   0.885  15.313  0.0679 -1.1356 -0.2767
 6102SOL     OW29941   3.429   1.204   4.782  0.3203  0.5461 -0.4909
 6102SOL    HW129942   3.367   1.134   4.800 -0.4755  1.3410 -0.1449
 6102SOL    HW229943   3.384   1.283   4.812 -0.9854  0.0204 -1.1016
 6103SOL     OW29944   0.467   2.126   7.419 -0.0336  0.1325  0.2923
 6103SOL    HW129945   0.418   2.176   7.485 -0.4350 -2.0752  1.6796
 6103SOL    HW229946   0.392   2.112   7.361  1.2661 -0.3995 -1.2480
 6104SOL     OW29947   0.733   4.508   3.210 -0.2848 -0.1473  0.0650
 6104SOL    HW129948   0.644   4.538   3.191 -0.7020 -2.0561 -0.9824
 6104SOL    HW229949   0.745   4.427   3.161 -0.3801  0.2684 -0.6362
 6105SOL     OW29950   2.969   0.409   4.043 -0.1531  0.6555 -0.1429
 6105SOL    HW129951   3.002   0.481   3.989 -0.2653  1.2017  0.5244
 6105SOL    HW229952   2.962   0.334   3.984  1.9417 -0.2381  0.7141
 6106SOL     OW29953   4.563   3.207   8.301 -0.0049 -0.3510  0.2124
 6106SOL    HW129954   4.471   3.206   8.275 -1.2567  0.1392  4.5224
 6106SOL    HW229955   4.601   3.121   8.285  3.9640  0.9837  2.5124
 6107SOL     OW29956   0.151   1.746  15.689 -0.2546 -0.2699 -0.4262
 6107SOL    HW129957   0.212   1.699  15.632 -1.1615  1.3767 -2.7436
 6107SOL    HW229958   0.212   1.798  15.741 -1.3879  2.2199 -1.6080
 6108SOL     OW29959   3.177   4.252   2.979 -0.4399  0.0278  0.4078
 6108SOL    HW129960   3.088   4.233   2.949 -1.2753  1.0647  2.2241
 6108SOL    HW229961   3.194   4.184   3.045 -1.4630  0.8258  1.4993
 6109SOL     OW29962   4.424   1.861   3.220 -0.3628 -0.0026 -0.0308
 6109SOL    HW129963   4.435   1.785   3.162  0.2509 -0.7810  1.1051
 6109SOL    HW229964   4.356   1.822   3.276  0.8273 -1.5543  0.3180
 6110SOL     OW29965   4.173   1.437   8.896 -0.0261 -0.2985  0.7302
 6110SOL    HW129966   4.138   1.475   8.977 -0.3336 -0.8920  0.8719
 6110SOL    HW229967   4.150   1.514   8.844 -0.5326  0.3330  1.8904
 6111SOL     OW29968   4.558   0.162  11.422 -0.2567  0.6239  0.1301
 6111SOL    HW129969   4.467   0.133  11.414 -0.2802  0.1542  2.2175
 6111SOL    HW229970   4.571   0.189  11.513 -4.2409 -3.7487  1.9940
 6112SOL     OW29971   3.868   2.950   2.086 -0.2193  0.1769 -0.1254
 6112SOL    HW129972   3.837   3.009   2.017  2.3153  0.9864 -0.5712
 6112SOL    HW229973   3.896   2.876   2.032  1.1631 -0.5774  1.6232
 6113SOL     OW29974   0.014   0.332  15.495 -0.0878 -0.1625 -0.1330
 6113SOL    HW129975   4.737   0.267  15.426  1.5408  0.0196 -0.6980
 6113SOL    HW229976   0.109   0.325  15.480 -0.1538  1.3430 -1.2055
 6114SOL     OW29977   3.317   0.650  13.728 -0.0731  0.1497 -0.4017
 6114SOL    HW129978   3.366   0.676  13.650 -2.1947 -0.2911 -1.8990
 6114SOL    HW229979   3.349   0.561  13.736 -3.2802 -0.9615  0.2494
 6115SOL     OW29980   0.906   0.124  15.893  0.3113 -0.4701  0.3243
 6115SOL    HW129981   0.907   0.153  15.802 -0.4851  0.8670  0.7404
 6115SOL    HW229982   0.814   0.151  15.902  0.8043  2.0108 -2.0009
 6116SOL     OW29983   3.081   1.479   2.904  0.0018  0.3027  0.6844
 6116SOL    HW129984   3.118   1.452   2.820 -0.4713  2.1483 -0.1246
 6116SOL    HW229985   3.159   1.467   2.959  0.5918  1.2145  0.0489
 6117SOL     OW29986   3.764   2.095   2.276  0.1838  0.4916  0.0998
 6117SOL    HW129987   3.820   2.157   2.229 -0.3261 -1.0529 -2.5313
 6117SOL    HW229988   3.687   2.119   2.226 -0.0682  1.0946  0.7798
 6118SOL     OW29989   0.225   2.703  12.565  0.4686 -0.7547  0.5661
 6118SOL    HW129990   0.307   2.751  12.555 -0.1780  0.5732  1.5532
 6118SOL    HW229991   0.251   2.661  12.647  0.8875 -2.2100 -0.3310
 6119SOL     OW29992   3.203   4.559   8.850 -0.2763  0.3109 -0.1772
 6119SOL    HW129993   3.119   4.528   8.881 -0.6944  1.5622 -0.0610
 6119SOL    HW229994   3.182   4.607   8.769  3.2323  1.2101 -0.5993
 6120SOL     OW29995   2.481   1.349  10.023 -0.0852 -0.2349 -0.2001
 6120SOL    HW129996   2.530   1.269  10.003  2.2991  1.3668 -0.7269
 6120SOL    HW229997   2.494   1.352  10.118  0.9212  1.1666 -0.3938
 6121SOL     OW29998   1.043   2.825  10.769  0.1063  0.6204  0.3345
 6121SOL    HW129999   1.007   2.818  10.857  1.9509  3.0714  1.2636
 6121SOL    HW230000   1.014   2.909  10.732  0.3039  0.0284 -1.1923
 6122SOL     OW30001   3.779   1.219  10.928 -0.3701 -0.0122  0.0483
 6122SOL    HW130002   3.687   1.213  10.901 -0.8187 -2.7502  2.2240
 6122SOL    HW230003   3.802   1.128  10.947 -3.6049 -1.2080 -1.7495
 6123SOL     OW30004   1.576   2.705   0.135 -0.3638  0.3549  0.4983
 6123SOL    HW130005   1.646   2.643   0.157 -0.0219  0.8993  0.9320
 6123SOL    HW230006   1.605   2.791   0.166 -1.3062 -0.0735  2.5498
 6124SOL     OW30007   1.829   3.654  10.685  0.5804 -0.1501  0.4153
 6124SOL    HW130008   1.850   3.616  10.600  0.7571 -0.1865  0.4753
 6124SOL    HW230009   1.912   3.660  10.732  1.7374 -1.8985 -1.3855
 6125SOL     OW30010   2.541   4.155   8.075 -0.5869  0.3260 -0.0864
 6125SOL    HW130011   2.454   4.151   8.033  0.1641 -2.5849 -1.3730
 6125SOL    HW230012   2.570   4.240   8.042 -0.5848  0.7464  1.0133
 6126SOL     OW30013   1.205   4.508   6.757  0.5634 -0.4525 -0.6070
 6126SOL    HW130014   1.276   4.527   6.818 -0.3328 -1.3420  0.7239
 6126SOL    HW230015   1.124   4.547   6.789  0.6941  0.4537 -1.3790
 6127SOL     OW30016   2.494   0.336  15.913 -0.4083 -0.4922  0.1393
 6127SOL    HW130017   2.561   0.272  15.891  0.1743  0.4397 -0.8032
 6127SOL    HW230018   2.555   0.391  15.962  0.1673  0.3201 -1.4968
 6128SOL     OW30019   1.036   1.642   4.057 -0.0431 -0.1565 -0.3652
 6128SOL    HW130020   1.052   1.622   3.965 -0.5803 -1.2586 -0.2325
 6128SOL    HW230021   1.124   1.654   4.092 -1.2600  1.0448  2.2961
 6129SOL     OW30022   2.422   1.486  12.335 -0.6227  0.1880  0.3016
 6129SOL    HW130023   2.513   1.517  12.334 -0.7091  0.4816  3.7508
 6129SOL    HW230024   2.377   1.566  12.308  1.0833  0.5015 -1.6465
 6130SOL     OW30025   1.694   3.968   5.511  0.2727  0.0862 -0.9752
 6130SOL    HW130026   1.626   4.026   5.477 -0.7091  0.8259  2.3089
 6130SOL    HW230027   1.755   4.038   5.536  0.4657 -0.3762 -0.1786
 6131SOL     OW30028   1.360   3.429   8.685  0.0274 -0.1732  0.0762
 6131SOL    HW130029   1.314   3.377   8.751  1.3099 -2.0038 -0.4849
 6131SOL    HW230030   1.347   3.368   8.612  2.1649 -0.1059 -0.3433
 6132SOL     OW30031   0.059   1.121   1.477  0.2033 -0.3685 -0.2754
 6132SOL    HW130032   0.130   1.176   1.444 -0.8835  1.4704  0.4252
 6132SOL    HW230033   0.049   1.063   1.401 -0.2366 -1.2628  0.4629
 6133SOL     OW30034   1.010   1.011  11.165  0.1850 -0.5492 -0.2774
 6133SOL    HW130035   0.987   1.027  11.074  1.1877  3.6975  0.2389
 6133SOL    HW230036   1.097   1.050  11.166  0.6346 -1.5833  0.7989
 6134SOL     OW30037   0.558   2.407   3.396  0.1613 -0.6895  0.1763
 6134SOL    HW130038   0.596   2.346   3.459 -0.9221  0.2556  1.7748
 6134SOL    HW230039   0.560   2.358   3.314 -0.1723  1.0334 -0.8602
 6135SOL     OW30040   4.133   2.704   4.460 -0.5777  0.2330 -0.0279
 6135SOL    HW130041   4.101   2.675   4.545 -3.3610  4.3126  0.3048
 6135SOL    HW230042   4.058   2.751   4.423  1.3116  4.3343  1.3645
 6136SOL     OW30043   3.496   0.457   7.815 -0.0802  0.0771 -0.1378
 6136SOL    HW130044   3.588   0.430   7.809 -0.3672 -0.9269  0.0343
 6136SOL    HW230045   3.492   0.545   7.853 -1.0189 -0.4646  0.9938
 6137SOL     OW30046   3.618   2.360  11.060 -0.5700 -0.4304  0.3032
 6137SOL    HW130047   3.562   2.319  10.994 -0.6344  1.2665 -0.6949
 6137SOL    HW230048   3.675   2.410  11.002 -0.0457 -2.7643 -1.1722
 6138SOL     OW30049   0.734   2.990   3.444  0.3365 -0.1130 -0.1354
 6138SOL    HW130050   0.799   2.920   3.449 -1.2351 -1.6799 -1.8243
 6138SOL    HW230051   0.712   2.985   3.538 -0.5661  1.5480 -0.2575
 6139SOL     OW30052   1.439   3.302   1.195  0.2820  0.3419  0.3205
 6139SOL    HW130053   1.450   3.264   1.108 -0.3251 -0.0143  0.4031
 6139SOL    HW230054   1.389   3.231   1.235 -1.1552 -0.4597 -2.9709
 6140SOL     OW30055   4.150   2.708  17.107 -0.1229 -0.4714  0.1984
 6140SOL    HW130056   4.196   2.627  17.084 -0.9906 -0.6448 -0.9387
 6140SOL    HW230057   4.190   2.767  17.044  0.8918  1.0176  2.2481
 6141SOL     OW30058   3.206   1.158   8.950 -0.3404  0.1949  0.0552
 6141SOL    HW130059   3.262   1.111   8.889 -0.5307 -2.0948  1.5980
 6141SOL    HW230060   3.128   1.176   8.897 -0.7701 -3.0495 -0.4475
 6142SOL     OW30061   4.719   2.173   5.833 -0.2601  0.0719 -0.0723
 6142SOL    HW130062   4.697   2.215   5.916 -0.2144 -0.2700  0.1129
 6142SOL    HW230063   4.637   2.195   5.789 -0.9186 -3.8173 -0.7765
 6143SOL     OW30064   2.780   4.111  13.166 -0.3256 -0.2866 -0.1875
 6143SOL    HW130065   2.760   4.193  13.211 -0.6088 -0.8557  0.7341
 6143SOL    HW230066   2.873   4.092  13.176 -0.3653 -0.6362 -0.4789
 6144SOL     OW30067   3.756   4.511   2.407  0.3777  0.2918  0.0653
 6144SOL    HW130068   3.831   4.525   2.465  0.2234 -0.6037  0.4773
 6144SOL    HW230069   3.700   4.586   2.427  0.4320 -0.0277  1.3681
 6145SOL     OW30070   1.894   3.188  17.681  0.0436 -0.6704 -0.5223
 6145SOL    HW130071   1.899   3.162  17.589  0.2479 -0.7708 -0.4845
 6145SOL    HW230072   1.834   3.262  17.684  0.5969 -0.1956 -1.3705
 6146SOL     OW30073   3.207   2.956   2.233  0.1219 -0.1373 -0.0248
 6146SOL    HW130074   3.301   2.963   2.251  0.5178  0.5659 -2.3709
 6146SOL    HW230075   3.174   2.996   2.314 -1.3037 -0.7514 -0.2999
 6147SOL     OW30076   1.255   1.796  14.764  0.2378 -0.6118 -0.2632
 6147SOL    HW130077   1.347   1.820  14.749  0.3010 -1.5954 -1.4713
 6147SOL    HW230078   1.211   1.830  14.686  1.0482 -1.1582 -0.9658
 6148SOL     OW30079   0.142   3.789   3.309  0.1772 -0.7212  0.5161
 6148SOL    HW130080   0.120   3.849   3.380 -1.3697  0.8525 -1.3051
 6148SOL    HW230081   0.230   3.821   3.286 -1.0937  1.1222 -1.7998
 6149SOL     OW30082   2.237   2.822   9.213 -0.0241 -0.3154  0.2062
 6149SOL    HW130083   2.192   2.863   9.286  1.4291  2.8429 -0.7014
 6149SOL    HW230084   2.331   2.830   9.232 -0.1709 -0.5921  1.0446
 6150SOL     OW30085   0.974   3.706   0.292 -0.2479  0.5010 -0.2821
 6150SOL    HW130086   0.881   3.725   0.302  0.2640  1.9615  1.4992
 6150SOL    HW230087   0.983   3.774   0.225 -0.0167  0.3096 -0.4491
 6151SOL     OW30088   2.949   2.687   5.105  0.3640 -0.4048  0.2580
 6151SOL    HW130089   2.874   2.662   5.051  0.4560  1.4731 -0.7382
 6151SOL    HW230090   3.020   2.671   5.043 -0.7964  1.9939 -1.6800
 6152SOL     OW30091   0.753   2.241   2.647 -0.0860 -0.0454 -0.5595
 6152SOL    HW130092   0.727   2.166   2.593 -3.0792  1.6550 -1.4903
 6152SOL    HW230093   0.671   2.290   2.649 -0.9008 -1.4933  2.3163
 6153SOL     OW30094   1.138   1.175   2.922 -0.1436 -0.3621  0.0621
 6153SOL    HW130095   1.079   1.189   2.996 -0.6438  1.2094 -0.6222
 6153SOL    HW230096   1.072   1.175   2.853  0.4262  1.0991 -0.4891
 6154SOL     OW30097   4.591   0.921   7.285 -0.4533  0.1063 -0.2157
 6154SOL    HW130098   4.541   0.851   7.327  1.6368  0.8814  3.5471
 6154SOL    HW230099   4.585   0.990   7.351 -0.5855 -1.4214  1.3969
 6155SOL     OW30100   0.347   1.667   1.932  0.1338 -0.9631 -0.0652
 6155SOL    HW130101   0.437   1.672   1.964  0.4511  2.2549 -1.5401
 6155SOL    HW230102   0.310   1.584   1.963  0.1544 -0.3504  1.5773
 6156SOL     OW30103   1.936   2.004   1.633  0.2850 -0.2961  0.1022
 6156SOL    HW130104   1.963   2.025   1.544  1.6406 -1.5136  0.2130
 6156SOL    HW230105   1.896   1.917   1.626 -3.5775  1.6274 -1.5107
 6157SOL     OW30106   3.514   1.321  16.496  0.3752  0.1624 -0.0616
 6157SOL    HW130107   3.423   1.324  16.526  1.1345 -0.4290  2.3847
 6157SOL    HW230108   3.525   1.226  16.498 -2.4000 -0.1589  1.2199
 6158SOL     OW30109   4.227   0.626   5.724  0.4616  0.4297  0.0653
 6158SOL    HW130110   4.155   0.656   5.779 -0.6477 -1.3065 -0.4431
 6158SOL    HW230111   4.201   0.652   5.635  1.8547  1.0860 -0.1503
 6159SOL     OW30112   1.293   2.149   8.583  0.2028 -0.2016  0.7135
 6159SOL    HW130113   1.215   2.196   8.555  1.6073  2.2595  0.9614
 6159SOL    HW230114   1.321   2.105   8.503 -3.5893 -1.0436 -0.1196
 6160SOL     OW30115   3.547   3.253   3.501  0.8906 -0.5871 -0.7105
 6160SOL    HW130116   3.641   3.251   3.515  1.1072  1.0223 -1.9585
 6160SOL    HW230117   3.530   3.344   3.526 -0.3240 -1.1302  0.4660
 6161SOL     OW30118   2.487   0.365   0.600 -0.2530 -0.1617 -0.1535
 6161SOL    HW130119   2.572   0.324   0.611 -0.2555 -0.0784  0.1896
 6161SOL    HW230120   2.476   0.372   0.505 -1.5550 -1.5548 -0.1080
 6162SOL     OW30121   3.716   4.348   5.743  0.5354 -0.4408  0.6600
 6162SOL    HW130122   3.774   4.299   5.684  0.9040  0.5172  0.2402
 6162SOL    HW230123   3.779   4.419   5.754 -1.4825  1.5889 -1.0771
 6163SOL     OW30124   4.485   0.791   3.758 -0.0085 -0.2702  0.9864
 6163SOL    HW130125   4.510   0.719   3.700 -0.9125  0.3019 -0.1301
 6163SOL    HW230126   4.537   0.768   3.835  2.1875 -1.0165 -0.7351
 6164SOL     OW30127   2.457   1.561   4.777 -0.0503 -0.0751 -0.4401
 6164SOL    HW130128   2.519   1.497   4.813 -2.2029 -0.9781  1.5866
 6164SOL    HW230129   2.516   1.636   4.785  1.5128 -1.2744 -0.6973
 6165SOL     OW30130   2.680   0.847   3.411 -0.9459 -0.1416 -0.1867
 6165SOL    HW130131   2.657   0.936   3.440  2.3159  0.3225  0.9773
 6165SOL    HW230132   2.593   0.808   3.405 -0.5345 -1.0957  0.0918
 6166SOL     OW30133   1.110   3.994   7.407  0.0843 -0.0828 -0.2332
 6166SOL    HW130134   1.118   4.001   7.312 -1.1556 -2.8087 -0.5146
 6166SOL    HW230135   1.202   3.981   7.429 -0.2428 -0.1830  1.0907
 6167SOL     OW30136   2.686   0.661   7.973  0.0757 -0.4678  0.0209
 6167SOL    HW130137   2.776   0.693   7.960 -0.5039  1.2257  0.2501
 6167SOL    HW230138   2.633   0.740   7.966  0.7155 -0.2496 -2.1335
 6168SOL     OW30139   3.712   1.682   2.664  0.0595 -0.5602  0.5293
 6168SOL    HW130140   3.717   1.749   2.596  2.3441 -0.9526  0.3021
 6168SOL    HW230141   3.804   1.671   2.689  0.0113  0.6283  1.2243
 6169SOL     OW30142   4.707   3.719   2.717 -1.1834  0.0614 -0.4084
 6169SOL    HW130143   4.632   3.662   2.697 -1.5633 -0.1646  1.6785
 6169SOL    HW230144   4.658   3.800   2.731  0.4458  1.0079 -0.1721
 6170SOL     OW30145   3.527   2.698   6.388 -0.4208 -0.2298 -0.0101
 6170SOL    HW130146   3.437   2.729   6.383  0.1638  1.8039  1.9687
 6170SOL    HW230147   3.538   2.638   6.463  2.8304  1.5195  0.9080
 6171SOL     OW30148   1.448   1.359   7.751  0.5381 -0.0233 -0.1909
 6171SOL    HW130149   1.381   1.303   7.791  1.1594 -0.6475 -0.0231
 6171SOL    HW230150   1.482   1.402   7.830  0.5317  2.1865 -1.3889
 6172SOL     OW30151   2.850   0.704   9.120 -0.5636  0.1974 -0.4999
 6172SOL    HW130152   2.927   0.647   9.113  1.0591  2.3708 -0.2275
 6172SOL    HW230153   2.856   0.753   9.038 -0.8650  1.0375 -0.0182
 6173SOL     OW30154   1.558   4.477   8.579  0.1712  0.1225  0.0117
 6173SOL    HW130155   1.530   4.434   8.660 -0.7063 -2.1363 -1.4993
 6173SOL    HW230156   1.601   4.554   8.616  0.6267 -0.1231 -0.0116
 6174SOL     OW30157   1.576   0.965   2.513  0.1067  0.0700 -0.2173
 6174SOL    HW130158   1.533   0.896   2.563  1.3143 -1.4910 -1.3269
 6174SOL    HW230159   1.648   0.909   2.481  0.4774  1.2894 -1.5157
 6175SOL     OW30160   1.880   2.204  14.230 -0.2052 -0.0748 -1.3665
 6175SOL    HW130161   1.843   2.261  14.163 -2.0633  0.4183  0.0812
 6175SOL    HW230162   1.970   2.202  14.198  0.2306  0.2524 -0.1948
 6176SOL     OW30163   2.131   1.253   5.450 -0.0937  0.2253  0.5948
 6176SOL    HW130164   2.214   1.232   5.492  0.2524 -2.3453 -1.4568
 6176SOL    HW230165   2.145   1.200   5.372 -1.0685 -0.0527  0.6038
 6177SOL     OW30166   4.415   2.928   8.822 -0.2454 -0.2106 -0.3371
 6177SOL    HW130167   4.370   2.941   8.906 -0.4635  0.9050 -0.6148
 6177SOL    HW230168   4.412   3.021   8.799 -1.6276  0.0737  0.9552
 6178SOL     OW30169   1.825   3.944   8.486  0.1183 -0.1848 -0.3383
 6178SOL    HW130170   1.874   3.893   8.550  0.3685  1.0663  0.4730
 6178SOL    HW230171   1.771   3.995   8.547  1.3519 -0.0324  0.6340
 6179SOL     OW30172   0.994   1.342   7.811 -0.4913  1.3339  0.3918
 6179SOL    HW130173   0.906   1.304   7.820 -1.4624  3.4950 -0.0882
 6179SOL    HW230174   0.994   1.410   7.878  3.4864  0.9810  0.7450
 6180SOL     OW30175   0.784   1.668   9.505  0.5903 -0.4412  0.3823
 6180SOL    HW130176   0.735   1.624   9.574  3.4430  0.2877  2.8962
 6180SOL    HW230177   0.869   1.636   9.535  1.1933  1.1045  0.3285
 6181SOL     OW30178   3.774   1.552   9.913  0.5478  0.8975  0.1451
 6181SOL    HW130179   3.794   1.458   9.920 -0.6176  0.7204  1.2788
 6181SOL    HW230180   3.680   1.539   9.900  1.1915 -3.3886 -0.2086
 6182SOL     OW30181   1.624   3.017   0.906 -0.8006  0.2134  0.9786
 6182SOL    HW130182   1.569   3.090   0.937  0.1787  1.9451 -1.3930
 6182SOL    HW230183   1.680   3.057   0.840 -0.4916 -1.7646  0.0495
 6183SOL     OW30184   0.673   1.116   1.769  0.2528  0.7180  0.3898
 6183SOL    HW130185   0.649   1.056   1.699  1.9904 -0.8115  1.0944
 6183SOL    HW230186   0.629   1.071   1.841  0.3890  0.2928  0.2019
 6184SOL     OW30187   0.190   0.612   7.362 -0.2593 -0.4543 -0.3307
 6184SOL    HW130188   0.190   0.645   7.452  1.0600  1.0607 -0.8995
 6184SOL    HW230189   0.214   0.695   7.322 -0.1354 -0.5593 -0.4730
 6185SOL     OW30190   1.910   1.701  14.963 -0.6770  0.1108  0.1019
 6185SOL    HW130191   1.858   1.712  14.883 -1.8389  0.1297  0.8533
 6185SOL    HW230192   1.954   1.617  14.951 -1.1204 -0.0129 -0.6935
 6186SOL     OW30193   2.540   0.779   0.710 -0.4020  0.7414  0.4860
 6186SOL    HW130194   2.454   0.747   0.739  0.1263 -1.6995 -0.7397
 6186SOL    HW230195   2.595   0.748   0.782 -2.4174 -0.6446  1.4107
 6187SOL     OW30196   1.960   2.518  15.135 -0.0526  0.6660  0.6209
 6187SOL    HW130197   1.992   2.465  15.063  1.4920  1.7399  0.5225
 6187SOL    HW230198   2.038   2.566  15.161  1.1327 -0.2038 -1.3701
 6188SOL     OW30199   3.639   0.662   5.004  0.3227  0.4566 -0.2971
 6188SOL    HW130200   3.609   0.605   4.933 -3.3752  1.4252  0.4953
 6188SOL    HW230201   3.607   0.619   5.084 -0.4662  0.1135 -0.8006
 6189SOL     OW30202   4.185   1.663  11.518 -0.3888  0.7219  0.7162
 6189SOL    HW130203   4.204   1.754  11.538  3.8454  0.4650 -1.9782
 6189SOL    HW230204   4.241   1.611  11.576  0.3921 -2.6532 -3.0190
 6190SOL     OW30205   2.145   0.853   1.004  0.1248 -0.3111  0.3284
 6190SOL    HW130206   2.237   0.859   1.032  0.1057  0.4230  0.2286
 6190SOL    HW230207   2.128   0.761   1.025 -0.7112 -0.4794 -1.0787
 6191SOL     OW30208   0.856   1.991   1.714 -0.0193 -0.0462 -0.2974
 6191SOL    HW130209   0.927   1.991   1.650 -1.1029 -0.3525 -1.4882
 6191SOL    HW230210   0.866   2.084   1.734 -0.4941  0.1915 -1.1761
 6192SOL     OW30211   3.616   1.214   4.084 -0.1532 -0.1121  0.2387
 6192SOL    HW130212   3.690   1.168   4.043  0.1786  0.3302  0.3315
 6192SOL    HW230213   3.636   1.196   4.176  1.0213 -1.3864 -0.2659
 6193SOL     OW30214   1.636   3.371   7.077  0.2283 -0.0034  0.6995
 6193SOL    HW130215   1.580   3.312   7.128 -2.5194  2.5852  0.6418
 6193SOL    HW230216   1.693   3.314   7.026  1.7243  2.4893 -0.3952
 6194SOL     OW30217   1.022   3.918   3.439  0.4727 -0.2474  0.6050
 6194SOL    HW130218   0.978   3.848   3.486 -1.9301  1.0852  0.3679
 6194SOL    HW230219   1.021   3.886   3.349 -2.1114 -0.1227  0.5862
 6195SOL     OW30220   1.008   3.626   7.097  0.0491 -0.2360  0.6538
 6195SOL    HW130221   0.971   3.640   7.185  0.9596 -0.2339  1.0304
 6195SOL    HW230222   0.936   3.576   7.058  0.5830 -1.8014  1.7100
 6196SOL     OW30223   0.104   1.757   4.977 -0.0354 -0.3904  0.2822
 6196SOL    HW130224   0.148   1.770   5.061 -0.1979  1.2641  0.1017
 6196SOL    HW230225   0.174   1.708   4.932 -0.7957 -3.9661  2.9900
 6197SOL     OW30226   0.172   0.555   3.546  0.5710 -0.4196  0.1468
 6197SOL    HW130227   0.117   0.510   3.482 -0.5134  0.5344  0.4035
 6197SOL    HW230228   0.178   0.637   3.497  0.1720  0.3170  1.3419
 6198SOL     OW30229   4.596   1.984   4.372  0.1861  0.8475 -0.0961
 6198SOL    HW130230   4.572   2.031   4.292  1.3298  0.5391 -0.6256
 6198SOL    HW230231   4.519   2.009   4.422  0.2243 -1.5190  1.1375
 6199SOL     OW30232   3.769   4.448   3.144  0.3008 -0.0919 -0.4625
 6199SOL    HW130233   3.858   4.413   3.155  0.0725 -0.0494  1.4837
 6199SOL    HW230234   3.769   4.520   3.207 -1.8926  0.0117 -0.6049
 6200SOL     OW30235   3.637   3.629   7.983  0.4833 -0.2809  0.5218
 6200SOL    HW130236   3.567   3.565   7.995 -0.6339  0.7382 -0.7528
 6200SOL    HW230237   3.653   3.622   7.889 -1.4247 -0.6964  0.2355
 6201SOL     OW30238   0.849   0.929   3.890  0.1720  0.2943  0.0539
 6201SOL    HW130239   0.861   1.017   3.856  1.6461  0.4137  0.8804
 6201SOL    HW230240   0.779   0.958   3.948  1.4030 -1.0322  2.2151
 6202SOL     OW30241   4.283   0.056   9.387  0.0817 -0.5638  0.0793
 6202SOL    HW130242   4.250   4.706   9.390 -0.1517 -0.5446 -2.4610
 6202SOL    HW230243   4.377   0.039   9.393  0.3322  1.1998  1.2960
 6203SOL     OW30244   2.628   1.105   3.504 -0.0355  0.0587 -0.0779
 6203SOL    HW130245   2.575   1.152   3.568 -2.9228 -1.3572 -1.4587
 6203SOL    HW230246   2.665   1.173   3.447  1.1660 -0.7820 -0.2952
 6204SOL     OW30247   0.786   2.958   4.485  0.5032  0.3609  0.4998
 6204SOL    HW130248   0.853   3.022   4.461  0.2458  0.3269 -0.3116
 6204SOL    HW230249   0.845   2.883   4.476  1.0034  0.6869  1.0863
 6205SOL     OW30250   0.815   3.920   6.393 -0.4078  0.5973 -0.7075
 6205SOL    HW130251   0.777   3.973   6.322  0.9794  1.3047 -0.9239
 6205SOL    HW230252   0.861   3.988   6.442 -0.6299 -0.5418  1.0441
 6206SOL     OW30253   2.046   2.070  17.508 -0.0197 -0.0155  0.5164
 6206SOL    HW130254   2.043   2.165  17.495 -3.6048 -0.3323 -1.0323
 6206SOL    HW230255   2.132   2.041  17.479  1.4510  2.6497  2.1539
 6207SOL     OW30256   0.062   2.423   2.975  0.2484 -0.2145 -0.2322
 6207SOL    HW130257   0.059   2.479   2.898 -1.5447  0.1465  0.1135
 6207SOL    HW230258   0.017   2.476   3.040  0.6745 -1.4876  1.1108
 6208SOL     OW30259   2.812   1.459   5.257  0.3826 -0.3703  0.0278
 6208SOL    HW130260   2.764   1.385   5.295  0.0836  1.2493  2.8149
 6208SOL    HW230261   2.804   1.523   5.328  2.7729 -0.8167  0.6923
 6209SOL     OW30262   0.942   1.893   1.950  0.5329 -0.4873  0.1163
 6209SOL    HW130263   1.018   1.847   1.914  0.2311  0.9081 -2.3311
 6209SOL    HW230264   0.902   1.915   1.866  1.9609  0.6744 -0.2517
 6210SOL     OW30265   2.520   0.245   8.259 -0.2442  0.4171 -0.3152
 6210SOL    HW130266   2.521   0.326   8.208  0.2705  2.4775  2.9721
 6210SOL    HW230267   2.456   0.196   8.208  0.5402 -0.0963 -0.8143
 6211SOL     OW30268   3.427   3.875   9.800  0.3454  0.8928  0.5147
 6211SOL    HW130269   3.425   3.788   9.840 -0.2681  0.7685  0.2090
 6211SOL    HW230270   3.460   3.843   9.716  2.3256  1.0890  1.2104
 6212SOL     OW30271   4.205   2.801   3.885  0.3356  0.5205 -0.2849
 6212SOL    HW130272   4.257   2.879   3.908 -0.5975  1.0541  0.0026
 6212SOL    HW230273   4.184   2.777   3.975 -2.2575 -1.4972 -1.4488
 6213SOL     OW30274   3.210   0.759  16.972  0.2735 -0.2830 -0.3576
 6213SOL    HW130275   3.251   0.728  17.053 -0.5721 -1.6730 -0.4744
 6213SOL    HW230276   3.254   0.845  16.968 -2.0561  0.8896 -0.5944
 6214SOL     OW30277   1.942   0.185   8.738  0.0603 -0.5494  0.3885
 6214SOL    HW130278   1.975   0.096   8.750  2.6895  0.8553  3.5949
 6214SOL    HW230279   1.870   0.175   8.800 -1.0883  1.1403 -0.6897
 6215SOL     OW30280   4.531   0.178   1.617 -0.5650  0.1461  0.6559
 6215SOL    HW130281   4.506   0.108   1.678  0.4360 -0.2293  0.6306
 6215SOL    HW230282   4.554   0.129   1.539  0.6799 -0.1360  1.2000
 6216SOL     OW30283   1.274   1.372   8.364  0.1439  0.7001  0.0766
 6216SOL    HW130284   1.245   1.334   8.447  0.8105  0.7493  0.3314
 6216SOL    HW230285   1.267   1.465   8.387  3.6313  1.2319 -0.9761
 6217SOL     OW30286   3.403   1.630   2.926 -0.0918 -0.2713 -0.0471
 6217SOL    HW130287   3.430   1.586   2.845 -0.2304  0.2171 -0.3590
 6217SOL    HW230288   3.388   1.556   2.985 -0.9550 -0.1664 -0.1451
 6218SOL     OW30289   4.643   0.446  16.412  0.2464 -0.4310 -0.4696
 6218SOL    HW130290   4.736   0.468  16.417 -0.8191  3.7842  1.6565
 6218SOL    HW230291   4.645   0.392  16.333 -1.3333 -0.2554 -0.6263
 6219SOL     OW30292   0.344   2.226   7.655 -0.0676  0.4014 -0.0819
 6219SOL    HW130293   0.362   2.169   7.730 -2.4153  0.6974  0.6940
 6219SOL    HW230294   0.291   2.285   7.708  0.3880  0.5110  0.2551
 6220SOL     OW30295   0.049   2.951   6.883 -0.6879  0.4057 -0.4962
 6220SOL    HW130296   0.131   2.955   6.834  0.4454  0.4654  1.4210
 6220SOL    HW230297   0.065   2.877   6.941  0.0348  1.2045  0.3125
 6221SOL     OW30298   2.330   4.285   2.530 -0.0499 -0.2074 -0.0498
 6221SOL    HW130299   2.372   4.359   2.487  0.3136 -0.9436 -0.9673
 6221SOL    HW230300   2.395   4.226   2.568 -0.6921 -1.0124 -0.1937
 6222SOL     OW30301   0.744   4.688   7.959  0.2629 -0.1326  0.1985
 6222SOL    HW130302   0.659   4.643   7.952 -0.8545  2.1719 -1.3116
 6222SOL    HW230303   0.747   4.739   7.878 -2.0822 -1.3418 -0.6524
 6223SOL     OW30304   0.805   2.201  15.106 -0.1926  0.1562 -0.2509
 6223SOL    HW130305   0.838   2.154  15.030 -1.4429 -0.4465 -0.4241
 6223SOL    HW230306   0.738   2.142  15.142  2.5837 -4.3401 -2.4806
 6224SOL     OW30307   2.943   4.711   6.062 -0.0178 -0.0577 -0.6508
 6224SOL    HW130308   2.868   0.028   6.081 -0.7706 -2.3778  3.0855
 6224SOL    HW230309   2.901   4.625   6.056  0.4252 -0.2771 -0.6256
 6225SOL     OW30310   3.997   2.518   8.821  0.0472  0.0906 -0.0119
 6225SOL    HW130311   4.087   2.487   8.829 -0.0839  0.5901  3.4199
 6225SOL    HW230312   4.000   2.592   8.881 -0.2188  0.1629 -0.0856
 6226SOL     OW30313   0.631   1.393   9.451 -0.1042 -0.2096 -0.5566
 6226SOL    HW130314   0.595   1.326   9.510  0.0426 -0.6510 -0.9699
 6226SOL    HW230315   0.596   1.469   9.498  1.6514  0.5011 -0.4021
 6227SOL     OW30316   2.682   0.839   5.374 -0.3528  0.2152  0.5538
 6227SOL    HW130317   2.662   0.754   5.413 -0.8844 -0.3291 -0.8949
 6227SOL    HW230318   2.729   0.878   5.448  1.4447 -0.5645 -0.1863
 6228SOL     OW30319   4.494   1.620   0.974  0.4047  0.4809  0.6118
 6228SOL    HW130320   4.575   1.659   0.941  0.6405  0.5268  1.2448
 6228SOL    HW230321   4.527   1.565   1.044 -1.1777  0.5376  1.4191
 6229SOL     OW30322   0.695   0.715   9.649  0.7132 -0.0985 -0.6678
 6229SOL    HW130323   0.643   0.695   9.572 -0.4475  1.8707 -0.3798
 6229SOL    HW230324   0.659   0.796   9.685  1.9861 -1.1100  2.8932
 6230SOL     OW30325   3.898   0.694   4.876  0.7268 -0.3452 -0.2793
 6230SOL    HW130326   3.857   0.747   4.807  2.4015  1.8510  0.4317
 6230SOL    HW230327   3.832   0.681   4.944  2.3027  0.9986  1.4733
 6231SOL     OW30328   0.667   0.590  13.004 -0.3400  0.5264 -1.0632
 6231SOL    HW130329   0.676   0.557  12.915  0.9603  0.3997 -0.8823
 6231SOL    HW230330   0.604   0.661  12.993 -0.2003  0.6025 -1.3675
 6232SOL     OW30331   1.365   4.526   7.835  0.4671  0.1161  0.5604
 6232SOL    HW130332   1.438   4.494   7.783  0.4517  0.8369  0.0942
 6232SOL    HW230333   1.390   4.618   7.834 -0.5441  0.3921 -0.8759
 6233SOL     OW30334   2.616   2.498   0.987  0.5614 -0.3187  0.0104
 6233SOL    HW130335   2.538   2.550   1.002 -0.2650 -1.4600 -0.3571
 6233SOL    HW230336   2.612   2.461   0.899  2.2518 -1.2225  0.3041
 6234SOL     OW30337   4.389   2.190   1.701  0.7456  0.2576 -0.0285
 6234SOL    HW130338   4.454   2.163   1.766 -0.6408  0.2039  1.3401
 6234SOL    HW230339   4.436   2.243   1.637  2.8220 -1.9731 -0.3271
 6235SOL     OW30340   4.253   4.269  10.789 -0.4314 -0.4014 -0.0222
 6235SOL    HW130341   4.264   4.348  10.841  0.7249 -1.1427  0.8526
 6235SOL    HW230342   4.243   4.218  10.869 -2.0665  0.0571  0.0611
 6236SOL     OW30343   0.687   0.901   6.406  0.2921 -0.6797 -0.1843
 6236SOL    HW130344   0.647   0.987   6.394  1.9906  0.2534  0.7826
 6236SOL    HW230345   0.635   0.857   6.339  0.2109 -0.1740 -0.4498
 6237SOL     OW30346   0.272   0.491   4.737 -0.2302 -0.4782 -0.0320
 6237SOL    HW130347   0.259   0.534   4.821  0.7614 -0.8770  0.3243
 6237SOL    HW230348   0.325   0.556   4.692  0.8342 -1.9304 -0.8745
 6238SOL     OW30349   2.266   3.269  11.524 -0.2188 -0.1995 -0.1368
 6238SOL    HW130350   2.233   3.209  11.458  1.0899 -0.9179 -0.1434
 6238SOL    HW230351   2.192   3.330  11.520  1.0270  1.3632  0.5703
 6239SOL     OW30352   3.001   2.383  17.284 -0.8577 -0.4293  0.6699
 6239SOL    HW130353   3.037   2.331  17.356  2.1570  1.4888  0.5163
 6239SOL    HW230354   2.911   2.385  17.317 -0.4467  0.1122  1.7747
 6240SOL     OW30355   0.050   3.708   1.978 -0.3290 -0.7584 -0.2165
 6240SOL    HW130356   4.722   3.725   1.913  1.1314 -3.9467 -2.5784
 6240SOL    HW230357   0.074   3.798   1.998  3.2958 -1.1144 -2.8528
 6241SOL     OW30358   0.091   2.897   9.449 -0.0817 -0.1371 -0.3547
 6241SOL    HW130359   0.074   2.927   9.360  1.3252 -1.2167 -0.9875
 6241SOL    HW230360   0.038   2.817   9.449  0.6271 -0.6217 -1.4565
 6242SOL     OW30361   0.682   0.435   3.703 -0.0257 -0.2832 -0.0833
 6242SOL    HW130362   0.663   0.518   3.660 -3.0038 -1.4145 -0.9731
 6242SOL    HW230363   0.690   0.367   3.636 -0.1025  1.7381 -2.1348
 6243SOL     OW30364   1.106   0.525   5.951 -0.5197  0.3425  0.2466
 6243SOL    HW130365   1.132   0.554   5.863  2.3174  0.1921  1.0174
 6243SOL    HW230366   1.012   0.532   5.934 -0.4684 -1.0738 -0.5960
 6244SOL     OW30367   0.692   0.054   9.816 -0.2605  0.4263 -0.2359
 6244SOL    HW130368   0.684   0.122   9.883  2.2842 -0.8491  1.3609
 6244SOL    HW230369   0.659   0.100   9.740  0.0219 -0.3753 -0.8437
 6245SOL     OW30370   4.514   4.536   8.631  0.5709 -0.2404  0.1672
 6245SOL    HW130371   4.602   4.509   8.606  1.7429  3.2475  0.4339
 6245SOL    HW230372   4.542   4.627   8.643 -1.7612  0.4147  0.6878
 6246SOL     OW30373   4.394   1.027  11.253  0.3876 -0.2125 -0.8724
 6246SOL    HW130374   4.342   0.974  11.193 -0.8375 -2.7744  2.4818
 6246SOL    HW230375   4.475   0.976  11.247  0.3820 -0.3423  0.1743
 6247SOL     OW30376   0.481   1.854   1.764  0.1725  0.1719 -0.3659
 6247SOL    HW130377   0.551   1.793   1.786  0.8374  0.9200 -0.4291
 6247SOL    HW230378   0.406   1.821   1.814  0.0147  1.7106  0.4037
 6248SOL     OW30379   1.376   3.824   5.602 -0.0806  0.1192 -0.2257
 6248SOL    HW130380   1.403   3.825   5.510  1.6391  0.2922  0.2742
 6248SOL    HW230381   1.303   3.763   5.590  0.6020 -1.1595  2.1087
 6249SOL     OW30382   3.928   1.240  10.275  0.5388  0.9170 -0.1852
 6249SOL    HW130383   3.981   1.316  10.253  1.7283  0.8791  2.4773
 6249SOL    HW230384   3.993   1.171  10.290  0.2703  0.5623 -0.6427
 6250SOL     OW30385   3.951   2.524   4.633  0.1100 -0.5277  0.1605
 6250SOL    HW130386   3.954   2.482   4.547  2.0510  0.1605 -0.1226
 6250SOL    HW230387   3.880   2.474   4.672 -0.4641 -0.1580 -0.4270
 6251SOL     OW30388   1.125   4.274   2.784  0.1573  0.1734 -0.1633
 6251SOL    HW130389   1.139   4.363   2.752 -1.8177  1.1746  1.7450
 6251SOL    HW230390   1.202   4.270   2.841  1.7104  0.4326 -2.2659
 6252SOL     OW30391   2.108   3.746   4.530 -0.2619 -0.0418 -0.1068
 6252SOL    HW130392   2.025   3.697   4.527  1.1256 -2.3848  0.2497
 6252SOL    HW230393   2.090   3.829   4.486  0.6968  0.0445 -0.3154
 6253SOL     OW30394   0.322   0.435   8.197 -0.3842  0.6813  0.4548
 6253SOL    HW130395   0.240   0.386   8.202  0.2615 -0.2159  2.4233
 6253SOL    HW230396   0.350   0.413   8.108  0.2329 -1.4217  1.1503
 6254SOL     OW30397   4.567   2.016   0.959 -0.1439 -0.1337  0.1292
 6254SOL    HW130398   4.587   2.007   1.052 -0.3202 -1.5003  0.0257
 6254SOL    HW230399   4.650   2.022   0.912 -0.4196  1.6590 -0.1461
 6255SOL     OW30400   0.154   3.036   0.307  0.7431  0.1301  0.4576
 6255SOL    HW130401   0.131   2.949   0.274 -0.3755  0.8068 -0.5391
 6255SOL    HW230402   0.204   3.069   0.232 -0.4632  2.6753  0.7920
 6256SOL     OW30403   2.501   1.327   6.514 -0.6080  0.3137 -0.2136
 6256SOL    HW130404   2.510   1.232   6.517  1.9686  0.5582 -0.0139
 6256SOL    HW230405   2.594   1.349   6.510 -0.8061  1.5743  2.2897
 6257SOL     OW30406   4.099   3.390   4.358  0.0663  0.0600  0.3483
 6257SOL    HW130407   4.129   3.453   4.293  1.8447  0.4904  1.5867
 6257SOL    HW230408   4.187   3.369   4.390  0.6590 -1.6952 -2.4797
 6258SOL     OW30409   0.062   0.252   1.153  0.1506 -0.1864 -0.2054
 6258SOL    HW130410   0.129   0.319   1.141 -0.8417  1.2153  2.0060
 6258SOL    HW230411   0.053   0.240   1.059 -1.1415  0.7677 -0.1990
 6259SOL     OW30412   2.917   1.159  13.863 -0.2667 -0.0877  0.1216
 6259SOL    HW130413   2.838   1.132  13.816 -0.8863  0.2049  0.9925
 6259SOL    HW230414   2.876   1.241  13.890 -1.8092 -0.4551 -1.0873
 6260SOL     OW30415   4.738   2.644   9.480  0.0606 -0.0915  0.1301
 6260SOL    HW130416   0.005   2.645   9.576 -0.3825 -0.1350  0.1563
 6260SOL    HW230417   4.661   2.588   9.481 -0.8516  1.1993  0.9559
 6261SOL     OW30418   3.176   2.732   8.129  0.1196  0.4768  0.2905
 6261SOL    HW130419   3.223   2.666   8.180  0.5433 -1.4184 -2.5471
 6261SOL    HW230420   3.201   2.709   8.040  2.7566  1.2618  0.8272
 6262SOL     OW30421   1.728   2.281   2.415  0.0830 -0.1342  0.7193
 6262SOL    HW130422   1.775   2.356   2.378 -1.6209  0.9399  0.7170
 6262SOL    HW230423   1.765   2.214   2.357 -1.6563 -0.1499 -0.3504
 6263SOL     OW30424   0.233   0.875  13.612 -0.6494 -0.0549 -0.2541
 6263SOL    HW130425   0.194   0.832  13.688 -1.9545 -1.5140 -1.7569
 6263SOL    HW230426   0.321   0.838  13.608 -1.1444 -1.3655  1.0480
 6264SOL     OW30427   0.851   2.023  11.088 -0.5185  0.2427  0.0977
 6264SOL    HW130428   0.847   1.969  11.009 -0.5883  3.0971 -1.8648
 6264SOL    HW230429   0.924   2.083  11.072  0.5586 -1.5458 -1.6580
 6265SOL     OW30430   1.466   2.186   6.106  0.0479 -0.4846  0.1315
 6265SOL    HW130431   1.427   2.130   6.173 -2.1092 -0.3095 -0.9904
 6265SOL    HW230432   1.387   2.198   6.054  0.4312  0.2552 -0.2922
 6266SOL     OW30433   3.293   4.229   3.395 -0.3508 -0.1160  0.5973
 6266SOL    HW130434   3.281   4.201   3.304 -2.3014 -0.3112  0.9158
 6266SOL    HW230435   3.385   4.205   3.407 -1.0473 -2.8284  0.6846
 6267SOL     OW30436   3.059   4.681   1.113  0.2894  0.4872 -0.2821
 6267SOL    HW130437   3.066   0.025   1.158 -0.5580 -0.3959  1.4861
 6267SOL    HW230438   3.014   4.632   1.182 -0.5488  1.3754 -0.1967
 6268SOL     OW30439   3.025   1.811   1.008  0.2832  0.1301  0.6721
 6268SOL    HW130440   2.993   1.886   0.958 -1.3424 -0.9241  0.1421
 6268SOL    HW230441   3.036   1.845   1.097  0.5418  0.1014  0.6520
 6269SOL     OW30442   3.132   0.347   0.587  0.2463 -0.5314  0.4399
 6269SOL    HW130443   3.169   0.315   0.669 -1.3587 -0.6305  1.1363
 6269SOL    HW230444   3.151   0.266   0.539  0.8609  0.0878 -0.3448
 6270SOL     OW30445   0.589   4.385   3.956  0.6477 -0.0145 -0.4203
 6270SOL    HW130446   0.513   4.396   3.899 -1.4532  3.1440  2.9697
 6270SOL    HW230447   0.663   4.376   3.896 -0.0192  1.1074 -1.4050
 6271SOL     OW30448   4.405   2.445   5.206 -0.2393 -0.0132 -0.1078
 6271SOL    HW130449   4.330   2.504   5.216 -0.4722 -0.5577  1.3347
 6271SOL    HW230450   4.359   2.364   5.187 -0.8238  0.1257  0.7394
 6272SOL     OW30451   1.026   2.871   1.701  0.4698 -0.1141 -0.1540
 6272SOL    HW130452   1.107   2.823   1.684  0.4948 -0.0900 -0.1038
 6272SOL    HW230453   0.966   2.798   1.688 -0.2836  0.6577 -0.9768
 6273SOL     OW30454   4.739   2.905   4.497  0.4811  0.0014  0.4124
 6273SOL    HW130455   4.692   2.862   4.426 -1.0365 -1.4093  2.2585
 6273SOL    HW230456   4.663   2.934   4.548 -0.2490  0.2520 -0.8349
 6274SOL     OW30457   0.026   3.963  14.266 -0.3298 -0.4950  0.2029
 6274SOL    HW130458   0.075   3.938  14.345  1.6866 -1.6383 -1.4012
 6274SOL    HW230459   4.706   3.888  14.264 -0.4964 -0.3666  0.3541
 6275SOL     OW30460   3.612   1.987   5.180  0.0533  0.1192  0.1650
 6275SOL    HW130461   3.571   1.935   5.111 -0.2882 -1.0432  1.2305
 6275SOL    HW230462   3.541   2.042   5.211 -0.4375  0.0216 -0.7949
 6276SOL     OW30463   3.078   3.381   2.823 -0.4030 -1.3446 -0.3726
 6276SOL    HW130464   2.991   3.380   2.863  0.1610  0.3374  0.9206
 6276SOL    HW230465   3.065   3.465   2.779 -0.7256 -0.1596  2.0073
 6277SOL     OW30466   1.104   1.551   7.685 -0.1707  0.7128 -0.4793
 6277SOL    HW130467   1.164   1.568   7.757  0.2063 -0.6810 -0.4557
 6277SOL    HW230468   1.071   1.468   7.719  0.7557  0.0762 -1.1238
 6278SOL     OW30469   1.008   4.113  13.212  0.1272  0.5179 -0.1766
 6278SOL    HW130470   0.987   4.027  13.248  1.9343  0.4370  0.6878
 6278SOL    HW230471   1.069   4.150  13.275 -1.1291  0.9884  0.7543
 6279SOL     OW30472   3.579   4.384   4.103 -0.0333 -0.4605  0.5725
 6279SOL    HW130473   3.499   4.436   4.110  0.0244 -0.4849  1.5100
 6279SOL    HW230474   3.607   4.392   4.194 -0.4550  0.7204  0.5948
 6280SOL     OW30475   1.908   0.947  11.923 -0.1617 -0.1692  0.4744
 6280SOL    HW130476   1.894   1.024  11.977  0.8547 -1.1583  2.1396
 6280SOL    HW230477   1.937   0.993  11.844  1.4344  0.3657  1.3671
 6281SOL     OW30478   4.522   3.362   6.002  0.0815 -0.0097  0.0564
 6281SOL    HW130479   4.589   3.416   5.960  2.0241 -1.1118  1.6966
 6281SOL    HW230480   4.492   3.416   6.075  0.1505  1.0547 -0.7092
 6282SOL     OW30481   2.187   1.212   4.426 -0.1913 -1.1915 -0.2110
 6282SOL    HW130482   2.148   1.299   4.422 -1.7540 -1.8971 -0.0986
 6282SOL    HW230483   2.128   1.173   4.490 -0.3307 -1.1589 -0.3210
 6283SOL     OW30484   4.207   1.836   7.938 -0.0276 -0.1818 -0.6849
 6283SOL    HW130485   4.258   1.898   7.990  2.2277 -3.5694  1.1191
 6283SOL    HW230486   4.150   1.896   7.890  1.1860  1.7940  0.3490
 6284SOL     OW30487   3.407   4.287  14.531 -0.1079  0.1076  0.1571
 6284SOL    HW130488   3.317   4.257  14.518 -0.0593 -0.4793  1.2055
 6284SOL    HW230489   3.406   4.377  14.497  1.5970  1.0831  2.6892
 6285SOL     OW30490   4.139   0.903   9.271  0.2062  0.1429  0.7709
 6285SOL    HW130491   4.138   0.986   9.223 -0.5433  0.3567  1.1621
 6285SOL    HW230492   4.075   0.849   9.226 -1.4803  0.5087  2.7304
 6286SOL     OW30493   1.795   3.213  13.120 -0.2866 -0.5381  0.1184
 6286SOL    HW130494   1.877   3.231  13.076  0.0108  1.0035  1.3157
 6286SOL    HW230495   1.772   3.303  13.143  0.3765 -0.0463 -1.1588
 6287SOL     OW30496   4.572   2.722  14.847 -0.2716 -1.1998  0.8134
 6287SOL    HW130497   4.567   2.668  14.768 -0.9451 -0.4958  0.3755
 6287SOL    HW230498   4.498   2.688  14.898 -1.3851 -0.1856 -0.1488
 6288SOL     OW30499   1.110   0.475   1.630  0.4656 -0.8505 -0.6076
 6288SOL    HW130500   1.063   0.437   1.704  2.4851 -1.1652  0.5165
 6288SOL    HW230501   1.101   0.406   1.563  0.8803 -0.6174 -0.9091
 6289SOL     OW30502   3.127   2.788   2.024 -0.3105 -0.5125 -0.1774
 6289SOL    HW130503   3.039   2.797   2.059  0.2117  3.2393  0.1822
 6289SOL    HW230504   3.170   2.853   2.079 -0.7944  0.6366 -1.1444
 6290SOL     OW30505   1.104   1.255   7.355  0.7284  0.1892 -0.2238
 6290SOL    HW130506   1.104   1.274   7.262 -1.6386  0.4990 -0.1574
 6290SOL    HW230507   1.111   1.342   7.394 -1.3951 -0.7268  2.2436
 6291SOL     OW30508   2.807   2.861   2.860  0.0255 -0.2233 -0.2282
 6291SOL    HW130509   2.764   2.780   2.889 -3.4011  0.8120 -2.5270
 6291SOL    HW230510   2.894   2.859   2.901 -1.1423 -0.4658  2.2707
 6292SOL     OW30511   0.957   3.588   8.287 -0.4646  0.6328  0.6567
 6292SOL    HW130512   1.034   3.592   8.345 -0.7945 -0.1148  1.1441
 6292SOL    HW230513   0.957   3.681   8.265 -3.8568 -0.1634 -2.4531
 6293SOL     OW30514   2.301   1.012   1.300  0.4837 -0.1545  0.8021
 6293SOL    HW130515   2.384   1.004   1.347 -0.2875 -0.0559  2.1688
 6293SOL    HW230516   2.320   0.950   1.230 -1.5347  0.4009 -0.2616
 6294SOL     OW30517   0.295   4.293   2.843  0.1695  0.3648 -0.8727
 6294SOL    HW130518   0.246   4.211   2.840  1.0924 -0.1890 -0.9523
 6294SOL    HW230519   0.378   4.254   2.814  0.2394  0.9046 -1.3923
 6295SOL     OW30520   3.539   4.067   7.299  0.0319  0.3313  0.7320
 6295SOL    HW130521   3.633   4.073   7.280  0.3843  0.6053  2.5451
 6295SOL    HW230522   3.510   4.031   7.215  0.7082  0.8277  0.2835
 6296SOL     OW30523   4.537   3.783  13.538  0.7868 -0.4266 -0.1846
 6296SOL    HW130524   4.452   3.817  13.510  1.7032  2.3953  0.4197
 6296SOL    HW230525   4.542   3.810  13.630  1.3358 -2.6195  0.4278
 6297SOL     OW30526   0.425   1.207   3.885  0.1890 -0.5207 -0.5011
 6297SOL    HW130527   0.454   1.133   3.831  1.8479 -0.3637  0.2126
 6297SOL    HW230528   0.513   1.218   3.920  0.6057 -0.0579 -1.7066
 6298SOL     OW30529   3.888   0.651   0.468 -0.2513  0.0787  0.3307
 6298SOL    HW130530   3.880   0.641   0.373  0.2745  0.3169  0.2599
 6298SOL    HW230531   3.971   0.699   0.474 -0.1434  0.0539 -1.0097
 6299SOL     OW30532   3.287   1.119   1.279 -0.3538 -0.3393  0.2596
 6299SOL    HW130533   3.344   1.050   1.311  0.9943  0.7967  0.2725
 6299SOL    HW230534   3.282   1.093   1.187 -2.1048  1.8897 -0.2904
 6300SOL     OW30535   3.408   4.684   6.234  0.5687 -0.5906 -0.3075
 6300SOL    HW130536   3.419   4.690   6.328  0.0726 -1.2433 -0.2081
 6300SOL    HW230537   3.503   4.685   6.222  0.3881 -0.3422 -1.7766
 6301SOL     OW30538   2.961   4.637   8.557 -0.2161  0.0834 -0.5487
 6301SOL    HW130539   3.051   4.607   8.546  0.3834  1.6482  0.0220
 6301SOL    HW230540   2.900   4.585   8.505  0.0135 -0.1207 -0.6081
 6302SOL     OW30541   2.439   2.610   8.652  0.3321  0.2213 -0.2961
 6302SOL    HW130542   2.482   2.649   8.728  1.1795 -1.3374  0.0168
 6302SOL    HW230543   2.421   2.523   8.689 -1.1470  1.5424  2.1402
 6303SOL     OW30544   3.153   1.556   7.687  0.3264  0.2295  0.3642
 6303SOL    HW130545   3.146   1.472   7.643  0.0253 -0.6829  2.1508
 6303SOL    HW230546   3.062   1.568   7.711  0.3746  1.4068 -0.0367
 6304SOL     OW30547   4.624   4.215   3.504 -0.6355  0.1213  0.6418
 6304SOL    HW130548   4.693   4.273   3.473  1.0205 -1.9500  0.4531
 6304SOL    HW230549   4.665   4.176   3.582  0.3068  0.7162  0.4325
 6305SOL     OW30550   4.242   0.698   9.056 -0.1369  0.6266  0.2741
 6305SOL    HW130551   4.150   0.723   9.045 -0.5754 -0.9283  0.4997
 6305SOL    HW230552   4.230   0.654   9.140 -0.3188 -1.6310 -0.9633
 6306SOL     OW30553   3.391   1.272   9.428 -0.3314 -0.1460  0.1456
 6306SOL    HW130554   3.335   1.328   9.375 -0.3880  0.6242  1.0209
 6306SOL    HW230555   3.322   1.224   9.474 -1.4348 -0.7705 -2.1703
 6307SOL     OW30556   2.286   0.616   2.932  0.3129  0.4377  0.4123
 6307SOL    HW130557   2.320   0.538   2.887 -0.7675  1.9482 -2.9699
 6307SOL    HW230558   2.202   0.628   2.889 -0.1512  0.5448  1.3593
 6308SOL     OW30559   1.420   4.535   3.565 -0.7044 -0.3489  0.2451
 6308SOL    HW130560   1.345   4.491   3.606  0.3865 -0.4743  2.0866
 6308SOL    HW230561   1.408   4.493   3.479 -0.6689 -2.2792  1.1762
 6309SOL     OW30562   2.178   3.378   2.642  0.0397 -0.6182 -0.2457
 6309SOL    HW130563   2.244   3.425   2.693  1.3127 -1.3378 -1.2496
 6309SOL    HW230564   2.165   3.429   2.563  0.1462 -0.3370 -0.0823
 6310SOL     OW30565   0.218   2.821   1.472 -0.1019  0.5283 -0.0963
 6310SOL    HW130566   0.259   2.876   1.540  0.7347 -0.7920  0.4600
 6310SOL    HW230567   0.228   2.880   1.397 -0.1365 -1.1391 -1.4001
 6311SOL     OW30568   2.531   0.526  17.094  0.3451 -0.0845 -0.1340
 6311SOL    HW130569   2.544   0.613  17.131 -0.5109 -0.7114  1.6666
 6311SOL    HW230570   2.620   0.492  17.102  0.9495  1.3149 -1.0647
 6312SOL     OW30571   2.180   0.033   2.688  0.0083  0.0968 -0.1595
 6312SOL    HW130572   2.174   0.112   2.635 -1.8947  0.0082 -0.0728
 6312SOL    HW230573   2.262   4.728   2.664  0.4945  1.0207 -0.2266
 6313SOL     OW30574   2.894   1.829   4.794  0.2424 -0.3155 -0.0690
 6313SOL    HW130575   2.882   1.739   4.764 -0.3568  0.2866 -1.6423
 6313SOL    HW230576   2.803   1.842   4.819  0.8000  0.2340  1.6413
 6314SOL     OW30577   3.037   0.123   8.356  0.0173  0.2875 -0.3925
 6314SOL    HW130578   3.111   0.102   8.413  0.9622 -1.2244 -2.2007
 6314SOL    HW230579   2.971   0.089   8.417  0.5318 -1.3685 -0.7577
 6315SOL     OW30580   4.295   4.284   4.118 -0.2211  0.2738  0.1450
 6315SOL    HW130581   4.260   4.373   4.120 -1.1677 -0.0679 -1.1871
 6315SOL    HW230582   4.297   4.283   4.022 -2.0260  1.7070  0.0829
 6316SOL     OW30583   2.472   3.287   1.357 -0.0949  0.6213  0.3108
 6316SOL    HW130584   2.449   3.216   1.417  0.0566  0.6179  0.3638
 6316SOL    HW230585   2.391   3.335   1.340 -0.1379  0.1036 -0.9221
 6317SOL     OW30586   1.524   3.077  14.976 -0.7902 -0.3207  0.2903
 6317SOL    HW130587   1.487   2.990  14.961 -1.9368  0.0454  0.9779
 6317SOL    HW230588   1.534   3.081  15.071 -2.5963  0.2778  0.4612
 6318SOL     OW30589   2.973   4.590   1.360 -0.4470  0.3072 -0.6036
 6318SOL    HW130590   2.895   4.621   1.407 -1.8984  0.1499 -2.9270
 6318SOL    HW230591   3.005   4.517   1.414 -0.5585  0.1217 -0.7865
 6319SOL     OW30592   3.157   0.708   0.355 -0.8527 -0.0002 -0.4740
 6319SOL    HW130593   3.065   0.732   0.345 -1.5845 -2.0987  1.1254
 6319SOL    HW230594   3.166   0.662   0.272 -1.9016  0.5546 -0.9026
 6320SOL     OW30595   2.986   2.182   8.553 -0.9091  0.3453  0.0513
 6320SOL    HW130596   3.026   2.227   8.628  0.1132  0.7246 -0.7300
 6320SOL    HW230597   2.928   2.120   8.597 -0.9740  1.7434  1.9281
 6321SOL     OW30598   1.015   2.043  11.623 -0.1680  0.2336 -0.0885
 6321SOL    HW130599   1.005   2.005  11.536  4.0712 -0.6404 -0.1961
 6321SOL    HW230600   1.003   2.136  11.603  0.6955  0.7944  2.0276
 6322SOL     OW30601   0.824   3.184  12.553 -0.0137  0.4471  0.6094
 6322SOL    HW130602   0.840   3.266  12.601  0.1367  0.6888  0.1535
 6322SOL    HW230603   0.902   3.185  12.496 -0.6497 -2.2588 -0.2716
 6323SOL     OW30604   0.624   3.612   7.659 -0.3431 -0.1412  0.3180
 6323SOL    HW130605   0.661   3.534   7.700 -0.2880 -1.2413 -1.8094
 6323SOL    HW230606   0.537   3.620   7.699  0.2008 -0.4176  1.5428
 6324SOL     OW30607   4.720   3.746   6.189  0.1236  0.0386 -0.3506
 6324SOL    HW130608   0.002   3.839   6.199 -4.2471  0.7659  2.0814
 6324SOL    HW230609   4.641   3.730   6.241  1.2158  0.0160  1.3083
 6325SOL     OW30610   3.133   4.109  16.437  0.5923 -0.2882 -0.8419
 6325SOL    HW130611   3.201   4.042  16.433  0.8899  0.0231 -1.0234
 6325SOL    HW230612   3.125   4.139  16.346 -1.4460  1.3514 -0.1304
 6326SOL     OW30613   2.375   1.937  13.929 -0.1566  0.1329  0.0494
 6326SOL    HW130614   2.423   2.007  13.883  1.9593  0.3325  2.5523
 6326SOL    HW230615   2.285   1.969  13.940 -0.8412 -2.2677  1.2571
 6327SOL     OW30616   3.722   4.453   4.349  0.2982  0.0436 -0.4909
 6327SOL    HW130617   3.766   4.538   4.349  1.8088 -0.7359  2.8951
 6327SOL    HW230618   3.688   4.454   4.439  0.5964 -1.0728 -0.3702
 6328SOL     OW30619   3.419   1.499   6.482  0.0078 -0.2551  0.0064
 6328SOL    HW130620   3.404   1.565   6.414 -1.6296 -0.4938  0.1304
 6328SOL    HW230621   3.459   1.546   6.555  0.2190  0.8689 -0.8320
 6329SOL     OW30622   3.546   0.673   9.212  0.1290  0.3480  0.4852
 6329SOL    HW130623   3.453   0.681   9.233  0.7456  1.8546  2.6134
 6329SOL    HW230624   3.581   0.750   9.257  2.1046 -0.3159  0.1031
 6330SOL     OW30625   0.080   1.495   6.844 -0.1179 -0.3804 -0.1815
 6330SOL    HW130626   4.738   1.513   6.797 -0.3007 -0.7363 -0.0047
 6330SOL    HW230627   0.128   1.443   6.780  2.4363  1.4948  0.2152
 6331SOL     OW30628   2.314   0.328   5.523 -0.3491  0.4665  0.3351
 6331SOL    HW130629   2.346   0.242   5.495  0.4039  0.7241  0.3870
 6331SOL    HW230630   2.330   0.327   5.617 -0.8403 -1.8308  0.3967
 6332SOL     OW30631   3.454   2.001   0.384  0.5284  0.5400  0.1263
 6332SOL    HW130632   3.473   2.078   0.438  0.7638 -0.8914  2.0737
 6332SOL    HW230633   3.518   2.038   0.323  0.5240  0.7171  0.2287
 6333SOL     OW30634   4.599   4.523  14.783  0.0041  0.4221  0.2138
 6333SOL    HW130635   4.639   4.443  14.815  0.3896  0.6743  0.3592
 6333SOL    HW230636   4.535   4.544  14.852 -0.2545 -2.7779  0.9311
 6334SOL     OW30637   4.327   0.699   7.419  0.6821  0.3264 -0.5891
 6334SOL    HW130638   4.353   0.773   7.474  0.3507 -0.8531  1.1870
 6334SOL    HW230639   4.404   0.643   7.428  0.1042 -0.4505 -0.4741
 6335SOL     OW30640   2.670   1.602  12.263 -0.5214  0.3836  0.3853
 6335SOL    HW130641   2.670   1.510  12.234 -0.1403 -0.2749  2.5085
 6335SOL    HW230642   2.661   1.647  12.179 -1.1153 -2.7205 -1.2210
 6336SOL     OW30643   2.901   4.510   6.250 -0.3127  0.0093  0.1373
 6336SOL    HW130644   2.938   4.424   6.272 -1.0434  0.1128  1.7325
 6336SOL    HW230645   2.957   4.559   6.310 -1.7130  0.7494  0.8321
 6337SOL     OW30646   1.549   3.815   0.772 -0.4209 -0.0101  0.3031
 6337SOL    HW130647   1.480   3.790   0.834  0.9487  0.7637  2.1264
 6337SOL    HW230648   1.549   3.745   0.708  0.1089  0.0877  0.1955
 6338SOL     OW30649   0.760   3.397   8.477  0.2755  0.0233 -0.2525
 6338SOL    HW130650   0.671   3.432   8.468  0.9018  2.0015  1.2102
 6338SOL    HW230651   0.812   3.474   8.451 -0.0315 -0.5323 -2.5696
 6339SOL     OW30652   1.173   0.225   8.998 -0.0331 -0.5569 -0.6588
 6339SOL    HW130653   1.099   0.280   9.025 -0.9198 -2.2964  0.5040
 6339SOL    HW230654   1.130   0.163   8.940  0.3779 -1.8825  0.4514
 6340SOL     OW30655   1.946   1.745   3.086 -0.4580  0.4729 -0.4265
 6340SOL    HW130656   1.905   1.707   3.008  0.0037 -1.0454  0.0884
 6340SOL    HW230657   2.013   1.678   3.099 -1.5231 -0.5631 -0.2788
 6341SOL     OW30658   3.415   2.734   7.497 -0.4139 -0.7755 -0.0178
 6341SOL    HW130659   3.359   2.747   7.573  0.1541  2.0232 -0.0881
 6341SOL    HW230660   3.503   2.707   7.524  1.6058  3.7995 -2.0172
 6342SOL     OW30661   3.618   3.817   0.557 -0.3972  0.0779  0.6452
 6342SOL    HW130662   3.554   3.865   0.609  0.1031  1.4797 -0.0370
 6342SOL    HW230663   3.573   3.818   0.472  0.9542  0.7177 -0.0756
 6343SOL     OW30664   4.312   1.034   2.022 -0.2873  0.0488 -0.0572
 6343SOL    HW130665   4.231   1.063   1.982 -0.4605 -0.4395 -0.0657
 6343SOL    HW230666   4.331   1.110   2.077  0.5771 -0.7390  0.7337
 6344SOL     OW30667   0.127   4.470   9.133  0.1684 -0.3587  0.0304
 6344SOL    HW130668   0.199   4.451   9.192  1.6418 -1.8815 -2.2585
 6344SOL    HW230669   0.145   4.404   9.066  0.0760  0.7973 -1.1432
 6345SOL     OW30670   3.718   1.297   7.399  0.1171 -0.0271 -0.1973
 6345SOL    HW130671   3.650   1.343   7.449 -0.4932 -0.5075 -0.5993
 6345SOL    HW230672   3.798   1.323   7.446 -0.3868 -1.5647  1.4864
 6346SOL     OW30673   0.290   2.070   4.887  0.6870  0.5778 -0.4028
 6346SOL    HW130674   0.365   2.037   4.936 -0.0924 -2.5121 -1.2276
 6346SOL    HW230675   0.260   1.981   4.868 -1.5091  1.6654 -2.0185
 6347SOL     OW30676   0.895   0.239   5.998 -0.5083 -0.4935 -0.1342
 6347SOL    HW130677   0.907   0.248   5.904  0.0721  1.6116  0.1324
 6347SOL    HW230678   0.854   0.323   6.017  0.3427  0.0141 -0.5735
 6348SOL     OW30679   0.996   1.050  13.247  0.3452  0.3738 -0.2170
 6348SOL    HW130680   0.977   1.092  13.331 -1.6638 -0.3497 -0.3127
 6348SOL    HW230681   0.944   1.097  13.180 -0.5725  0.8470  0.8234
 6349SOL     OW30682   1.698   1.991   8.950 -0.5030 -0.2217 -0.4528
 6349SOL    HW130683   1.622   1.949   8.911  0.1231 -0.7932 -1.0674
 6349SOL    HW230684   1.751   2.002   8.870 -0.7254  0.4036 -0.5201
 6350SOL     OW30685   4.208   2.485   2.001 -0.3880  0.1189  0.4745
 6350SOL    HW130686   4.202   2.576   1.974 -0.2200 -0.6634 -2.2035
 6350SOL    HW230687   4.183   2.445   1.917  2.4280  1.2839 -0.9075
 6351SOL     OW30688   4.000   2.841   9.781 -0.8404  0.5469  0.2269
 6351SOL    HW130689   4.051   2.766   9.810  1.1649  1.9104  0.1812
 6351SOL    HW230690   3.912   2.828   9.817 -0.1705 -1.0839  1.3045
 6352SOL     OW30691   3.148   0.386   4.522 -0.1450 -0.4325 -0.2160
 6352SOL    HW130692   3.194   0.454   4.473  0.6455 -0.9124 -0.1360
 6352SOL    HW230693   3.214   0.355   4.584  0.2627  0.0395 -0.4244
 6353SOL     OW30694   2.640   4.509   8.735 -0.1389  0.8734  0.2215
 6353SOL    HW130695   2.678   4.461   8.661  0.3078  0.7678  0.5200
 6353SOL    HW230696   2.587   4.578   8.696 -0.0244  0.3845 -0.7999
 6354SOL     OW30697   0.633   1.997   1.518  0.5629  0.4638  0.7552
 6354SOL    HW130698   0.697   1.983   1.588  1.5037  1.8515  0.1581
 6354SOL    HW230699   0.675   1.963   1.440 -1.4101  0.2211 -0.2055
 6355SOL     OW30700   3.538   2.928   7.988 -0.3047 -0.3069 -0.2445
 6355SOL    HW130701   3.566   2.852   7.937  0.1864 -0.0685 -0.3275
 6355SOL    HW230702   3.523   2.880   8.070  0.7915  2.7821  1.7490
 6356SOL     OW30703   0.992   1.711  17.076 -0.3018  0.4550 -0.5040
 6356SOL    HW130704   0.945   1.654  17.015 -2.1646 -0.8937  2.1903
 6356SOL    HW230705   0.974   1.674  17.162  1.3993  0.2489 -0.2392
 6357SOL     OW30706   0.317   0.726   4.577  0.2012 -0.2138  0.1901
 6357SOL    HW130707   0.279   0.770   4.501 -0.9881 -0.5485  0.6033
 6357SOL    HW230708   0.378   0.674   4.524 -1.8264 -1.5607 -0.8051
 6358SOL     OW30709   3.220   2.065   2.843  0.2790  0.2326 -0.3201
 6358SOL    HW130710   3.149   2.001   2.848  1.2635 -1.1602 -4.3711
 6358SOL    HW230711   3.196   2.126   2.913  0.5856  0.5692 -0.5077
 6359SOL     OW30712   2.005   2.723   8.531  0.3067  0.1427  0.5585
 6359SOL    HW130713   2.046   2.792   8.479  1.4036 -0.1821  0.9959
 6359SOL    HW230714   2.021   2.643   8.481  0.6818  1.3788 -1.2796
 6360SOL     OW30715   2.251   2.776  15.285 -0.5177  0.3767  0.7213
 6360SOL    HW130716   2.329   2.756  15.337 -0.6503 -1.8816  0.0584
 6360SOL    HW230717   2.272   2.864  15.252 -0.5525  0.4834  0.9845
 6361SOL     OW30718   0.358   0.238  16.142 -0.3928  0.4190  0.4186
 6361SOL    HW130719   0.323   0.212  16.057  1.7183 -0.9480 -0.0161
 6361SOL    HW230720   0.290   0.213  16.205  0.7534 -0.9411  1.1129
 6362SOL     OW30721   3.272   3.176  13.420 -0.5739 -0.5207 -0.1663
 6362SOL    HW130722   3.183   3.210  13.421 -0.8779 -1.2859 -0.9288
 6362SOL    HW230723   3.310   3.229  13.490 -0.7742  1.3712 -1.5186
 6363SOL     OW30724   4.202   3.508   5.963 -0.2498  0.8779  0.1835
 6363SOL    HW130725   4.233   3.419   5.948  0.5024  1.1951 -0.1516
 6363SOL    HW230726   4.229   3.549   5.880 -0.2428  2.0507  0.7616
 6364SOL     OW30727   1.559   4.441   7.366  0.3980  0.2868  0.2505
 6364SOL    HW130728   1.506   4.516   7.392 -0.1213 -0.1501  0.4536
 6364SOL    HW230729   1.515   4.367   7.408  0.3264  0.9959  1.4249
 6365SOL     OW30730   4.019   4.285   8.287  0.1312  0.1718 -0.1279
 6365SOL    HW130731   4.028   4.287   8.383  0.9312 -0.1384 -0.1970
 6365SOL    HW230732   4.093   4.234   8.255  0.3319  0.1312  0.3919
 6366SOL     OW30733   2.836   2.803   7.160 -0.1300  0.0148 -0.0282
 6366SOL    HW130734   2.898   2.832   7.227  2.7543  2.5007 -3.7377
 6366SOL    HW230735   2.797   2.889   7.142 -0.9547 -0.4101 -0.2789
 6367SOL     OW30736   1.606   2.668   3.451 -0.3667  0.0392  0.1702
 6367SOL    HW130737   1.524   2.625   3.428 -0.7515  0.6535  0.3866
 6367SOL    HW230738   1.652   2.596   3.494 -0.8472  0.6178  1.6426
 6368SOL     OW30739   2.641   0.895   8.599 -0.3077  0.1851 -0.1083
 6368SOL    HW130740   2.588   0.852   8.665 -3.6735  0.5898 -2.5285
 6368SOL    HW230741   2.620   0.852   8.516  2.3423 -1.5181  0.1269
 6369SOL     OW30742   3.599   4.705   4.022 -0.0567  0.3059 -0.2132
 6369SOL    HW130743   3.554   0.018   3.956 -0.4019 -3.5922 -3.0859
 6369SOL    HW230744   3.530   4.650   4.058 -0.1488 -0.8642 -2.1717
 6370SOL     OW30745   2.129   1.746   5.159  0.4625  0.4492 -0.2142
 6370SOL    HW130746   2.163   1.670   5.207  0.1677  0.7808  0.5307
 6370SOL    HW230747   2.084   1.803   5.222 -2.8667 -1.6410 -0.7298
 6371SOL     OW30748   0.823   0.506  17.082 -0.4066  0.2909  0.3647
 6371SOL    HW130749   0.767   0.578  17.109  0.0552  0.6853  0.2692
 6371SOL    HW230750   0.796   0.444  17.151 -1.3550 -0.6735 -0.8884
 6372SOL     OW30751   3.890   2.491   2.432  0.8377  0.0304 -0.2638
 6372SOL    HW130752   3.878   2.521   2.342 -0.6615  0.4547  0.0775
 6372SOL    HW230753   3.802   2.502   2.469  0.9977 -0.1439  0.1700
 6373SOL     OW30754   0.776   2.301   5.442  0.4068  0.1962  0.0652
 6373SOL    HW130755   0.840   2.372   5.443 -1.5769  1.9844 -0.6161
 6373SOL    HW230756   0.706   2.345   5.490 -0.0718 -0.3617 -0.1290
 6374SOL     OW30757   0.001   3.149   2.228  0.4567 -0.1291 -0.3943
 6374SOL    HW130758   4.715   3.067   2.186  1.0171 -0.0664 -0.8504
 6374SOL    HW230759   4.706   3.149   2.317 -0.6154 -2.1377 -0.8074
 6375SOL     OW30760   1.007   4.242   4.463  0.1848 -0.0282  0.1002
 6375SOL    HW130761   0.913   4.253   4.450  0.4024  1.7023  0.0055
 6375SOL    HW230762   1.035   4.200   4.382 -2.6887  1.3797 -1.6207
 6376SOL     OW30763   0.220   4.315  16.510 -0.3988  0.0664  0.4326
 6376SOL    HW130764   0.260   4.394  16.475 -2.2301  1.3533  1.2628
 6376SOL    HW230765   0.254   4.264  16.436  0.4398  1.3842 -0.0802
 6377SOL     OW30766   4.189   3.053   7.521  0.3795  0.5455  0.4282
 6377SOL    HW130767   4.238   2.971   7.524 -0.5540  0.0085  0.8129
 6377SOL    HW230768   4.108   3.048   7.572 -0.2159 -0.2619 -0.5964
 6378SOL     OW30769   2.960   0.768   1.065  0.0180 -0.5366  0.0889
 6378SOL    HW130770   3.047   0.733   1.084  1.4509  3.3148  0.5675
 6378SOL    HW230771   2.991   0.849   1.023 -0.5127  0.4902  1.6677
 6379SOL     OW30772   2.471   4.570   2.837  0.1440 -0.3757 -0.0735
 6379SOL    HW130773   2.442   4.586   2.747  1.4690  0.2797 -0.3843
 6379SOL    HW230774   2.447   4.649   2.885 -0.4623 -0.7065  0.1701
 6380SOL     OW30775   4.161   1.085   9.069  0.3263  0.4583  0.1606
 6380SOL    HW130776   4.248   1.117   9.047  1.5114 -2.1943  0.9482
 6380SOL    HW230777   4.099   1.152   9.043  1.1522  1.8694  1.8729
 6381SOL     OW30778   0.345   2.591   1.482 -0.6697 -0.1774  0.1681
 6381SOL    HW130779   0.296   2.671   1.501  0.3228  0.2669  0.8606
 6381SOL    HW230780   0.359   2.606   1.389 -0.3918  0.6329  0.3404
 6382SOL     OW30781   1.989   2.844   4.583 -0.0664  0.0464 -0.2661
 6382SOL    HW130782   2.059   2.787   4.616  0.4727  1.2719  0.7038
 6382SOL    HW230783   1.921   2.811   4.641  1.2393  1.1663  1.9058
 6383SOL     OW30784   1.935   1.540   5.738  0.2998 -0.2803 -0.3723
 6383SOL    HW130785   1.871   1.544   5.808  1.5293  1.2111  0.6567
 6383SOL    HW230786   2.009   1.493   5.777 -0.0820  0.3184  1.0422
 6384SOL     OW30787   0.271   3.828   6.288 -0.2434 -0.2450  0.0505
 6384SOL    HW130788   0.366   3.826   6.300 -0.1407  1.6561 -0.4214
 6384SOL    HW230789   0.240   3.914   6.314  0.7507 -0.3282  1.4490
 6385SOL     OW30790   0.047   0.085   8.684  0.5494 -0.1933 -0.0166
 6385SOL    HW130791   4.714   0.072   8.745 -0.7787  0.1349 -1.5140
 6385SOL    HW230792   0.105   0.149   8.724  0.4999  0.9142 -1.7125
 6386SOL     OW30793   3.421   3.606   9.888 -0.2547  0.9929 -0.2224
 6386SOL    HW130794   3.395   3.639   9.974 -0.2484 -1.0346  0.5772
 6386SOL    HW230795   3.513   3.588   9.910 -0.5620 -0.3347  0.0102
 6387SOL     OW30796   2.346   2.090  10.722  0.1006 -0.1945 -0.4043
 6387SOL    HW130797   2.298   2.029  10.665  0.0102 -1.0189  0.5714
 6387SOL    HW230798   2.327   2.173  10.678  2.6453 -1.0073 -3.0103
 6388SOL     OW30799   0.694   3.788   5.753  0.2446 -0.0730  0.2963
 6388SOL    HW130800   0.684   3.881   5.736  0.6004 -0.1282 -0.2399
 6388SOL    HW230801   0.721   3.767   5.663  0.4344 -3.2840  1.1060
 6389SOL     OW30802   1.597   0.890  17.514  0.2305 -0.1691  0.3352
 6389SOL    HW130803   1.621   0.798  17.521 -0.9632 -0.6348 -1.7116
 6389SOL    HW230804   1.622   0.908  17.424  0.4721  0.9928  0.6268
 6390SOL     OW30805   1.435   3.567   7.293 -0.5450  0.0970 -0.0027
 6390SOL    HW130806   1.507   3.623   7.321 -1.9022  1.8065  0.0414
 6390SOL    HW230807   1.359   3.597   7.343 -0.1362 -0.9961  1.2516
 6391SOL     OW30808   4.188   3.263   6.237 -0.0850  0.2019  0.1730
 6391SOL    HW130809   4.098   3.237   6.255 -1.1408  2.3203 -2.1139
 6391SOL    HW230810   4.187   3.289   6.145 -1.1954 -2.5590 -0.5915
 6392SOL     OW30811   4.316   3.144   5.665  0.2861  0.5452  0.5127
 6392SOL    HW130812   4.365   3.076   5.711 -0.0304 -0.0515 -0.0244
 6392SOL    HW230813   4.348   3.139   5.575  2.1307  0.8763  1.1348
 6393SOL     OW30814   4.633   0.465   2.321  1.0037 -0.5482  0.5440
 6393SOL    HW130815   4.586   0.545   2.298  2.3739 -0.2665 -1.3014
 6393SOL    HW230816   4.583   0.442   2.399 -0.9591 -0.6314 -0.7434
 6394SOL     OW30817   1.350   4.148   1.160 -0.0730  0.6314 -0.1117
 6394SOL    HW130818   1.335   4.199   1.080 -0.3840 -1.1309 -1.1810
 6394SOL    HW230819   1.330   4.060   1.128  1.5723  0.6976 -1.3595
 6395SOL     OW30820   3.623   0.356   6.950 -0.0195  0.4427 -0.2426
 6395SOL    HW130821   3.716   0.343   6.968 -0.2024 -0.5938 -0.0272
 6395SOL    HW230822   3.587   0.405   7.024  0.2975  1.6473 -0.8928
 6396SOL     OW30823   3.984   3.924   8.154  0.7545  0.6056 -0.0083
 6396SOL    HW130824   3.890   3.921   8.170  0.5621 -1.4330 -1.4749
 6396SOL    HW230825   4.015   3.834   8.146  0.0292  0.4540 -1.1588
 6397SOL     OW30826   0.349   1.191   4.177 -0.9872 -0.3929  0.4638
 6397SOL    HW130827   0.442   1.189   4.200 -0.6143  0.7209 -0.9177
 6397SOL    HW230828   0.359   1.157   4.088  0.7662  1.7031 -0.1366
 6398SOL     OW30829   2.016   0.081   3.019 -0.4895 -0.2540  0.3370
 6398SOL    HW130830   2.101   0.120   3.041 -0.6305  1.1590 -1.6911
 6398SOL    HW230831   2.018   4.736   3.064  2.1183  0.5828  1.8046
 6399SOL     OW30832   2.006   1.591   6.940  0.2953  0.1977 -0.6688
 6399SOL    HW130833   1.937   1.539   6.982  1.5675 -0.1598  0.9760
 6399SOL    HW230834   2.041   1.628   7.020 -1.2402  1.4099 -0.5682
 6400SOL     OW30835   1.038   2.382   3.206  0.1669  0.6030 -0.1070
 6400SOL    HW130836   1.102   2.417   3.144  0.5984 -0.0292 -0.0214
 6400SOL    HW230837   1.081   2.298   3.225 -1.4058 -0.0819  0.3591
 6401SOL     OW30838   1.443   2.755   8.953 -0.0337  0.3178  0.0232
 6401SOL    HW130839   1.426   2.664   8.977  1.5656 -0.3641 -1.4401
 6401SOL    HW230840   1.503   2.735   8.881 -1.3003 -1.9188 -0.4116
 6402SOL     OW30841   0.467   1.061  16.635  0.4081  0.5158 -0.3280
 6402SOL    HW130842   0.512   1.110  16.705  0.7672 -0.9195  0.4432
 6402SOL    HW230843   0.414   1.125  16.587  2.0936  0.3883 -2.3804
 6403SOL     OW30844   3.244   4.110  16.717 -0.7437 -0.1964 -0.0908
 6403SOL    HW130845   3.176   4.096  16.651 -0.1417 -0.9845 -0.5547
 6403SOL    HW230846   3.221   4.200  16.739 -1.3887 -0.7620  1.5036
 6404SOL     OW30847   0.959   1.085   1.431 -0.0006  0.3217  0.2104
 6404SOL    HW130848   0.963   1.026   1.506 -0.5878  0.7777  0.5931
 6404SOL    HW230849   0.865   1.076   1.415  0.1747  0.1279 -0.7089
 6405SOL     OW30850   4.654   0.034  14.890  0.2885 -0.1571  0.5335
 6405SOL    HW130851   4.625   4.689  14.854 -1.5990  1.4146 -1.5653
 6405SOL    HW230852   4.716   0.007  14.958 -0.7884 -1.5907  0.9564
 6406SOL     OW30853   1.485   2.021   8.414 -0.6134  0.9820  0.5799
 6406SOL    HW130854   1.544   2.095   8.423  2.1731 -1.4192  2.2127
 6406SOL    HW230855   1.497   2.012   8.319 -1.1207 -1.5980  0.7674
 6407SOL     OW30856   0.313   0.008   9.663 -0.2030  0.3410  0.2072
 6407SOL    HW130857   0.376   4.696   9.613  0.4579 -0.1886  1.5760
 6407SOL    HW230858   0.336   4.723   9.753 -1.5797 -2.8122 -0.3036
 6408SOL     OW30859   3.929   4.160   8.833 -0.3652  0.1967 -0.2813
 6408SOL    HW130860   3.965   4.079   8.868 -0.5000  0.8933  1.5021
 6408SOL    HW230861   4.003   4.220   8.843  0.0317 -0.2934 -0.3094
 6409SOL     OW30862   1.326   0.757   8.867 -0.4300  0.4430  0.0003
 6409SOL    HW130863   1.240   0.717   8.877 -0.0011  0.1261  2.2777
 6409SOL    HW230864   1.359   0.736   8.954 -0.5074 -1.5392 -0.4621
 6410SOL     OW30865   0.078   0.312   3.718  0.0783 -0.1789 -0.1744
 6410SOL    HW130866   0.148   0.292   3.657  0.7004 -0.7006  0.7141
 6410SOL    HW230867   0.107   0.278   3.803  3.8430  1.2354 -0.9041
 6411SOL     OW30868   2.349   2.740   2.681  0.2814  0.2474 -0.0467
 6411SOL    HW130869   2.302   2.815   2.646  1.1001 -0.4162 -2.5644
 6411SOL    HW230870   2.326   2.672   2.617  0.4860  0.4550 -0.3362
 6412SOL     OW30871   4.214   3.880   3.803 -0.4291 -0.4519  0.1499
 6412SOL    HW130872   4.233   3.964   3.762  2.9977 -0.8411  0.9446
 6412SOL    HW230873   4.119   3.881   3.796 -0.4137 -1.2767 -0.2109
 6413SOL     OW30874   3.046   2.668  12.632  0.4915  0.7143  0.4411
 6413SOL    HW130875   3.142   2.675  12.630  0.4748  0.4146 -1.7184
 6413SOL    HW230876   3.022   2.752  12.593 -2.1516  0.2798  1.1480
 6414SOL     OW30877   0.327   0.414  17.313  0.0594  0.4528  0.5159
 6414SOL    HW130878   0.244   0.375  17.285 -0.0879  0.1575  1.3721
 6414SOL    HW230879   0.363   0.444  17.229 -0.7243 -2.2304 -0.7909
 6415SOL     OW30880   0.491   1.323   8.336  0.1070  0.2288  0.2878
 6415SOL    HW130881   0.574   1.347   8.296 -0.1127  1.6620  0.6927
 6415SOL    HW230882   0.477   1.239   8.294  0.5181  0.2977  0.0124
 6416SOL     OW30883   0.263   1.037   6.585  0.2747 -0.4219 -0.1745
 6416SOL    HW130884   0.268   0.975   6.658  0.3313  0.3627  0.4840
 6416SOL    HW230885   0.169   1.032   6.572  0.1626 -0.4996  0.6436
 6417SOL     OW30886   0.506   3.902   6.914  0.3143  0.1658  0.0309
 6417SOL    HW130887   0.541   3.899   6.825  1.3407  1.4973  0.3873
 6417SOL    HW230888   0.474   3.813   6.926  0.2524  0.5970  3.1477
 6418SOL     OW30889   1.530   1.268   4.477  0.1189 -0.0736  0.3550
 6418SOL    HW130890   1.577   1.198   4.431  2.2510  0.4933  1.6720
 6418SOL    HW230891   1.452   1.267   4.421  0.0241 -1.0736  0.5078
 6419SOL     OW30892   4.107   1.632   8.087 -0.5815 -0.3490  0.4475
 6419SOL    HW130893   4.038   1.616   8.022  0.8307  0.1238 -1.1617
 6419SOL    HW230894   4.149   1.710   8.052  0.7888 -1.1877  0.2258
 6420SOL     OW30895   2.128   4.114   6.848  0.2555  0.3077  0.1532
 6420SOL    HW130896   2.131   4.069   6.933  1.0628 -0.7035 -0.4097
 6420SOL    HW230897   2.217   4.148   6.853 -0.2290  1.9523 -2.3647
 6421SOL     OW30898   1.137   2.612   5.584  0.1944 -0.2030 -0.4834
 6421SOL    HW130899   1.213   2.562   5.615  0.3059 -0.1873 -0.7337
 6421SOL    HW230900   1.159   2.633   5.493 -0.1139 -0.2600 -0.5684
 6422SOL     OW30901   3.539   3.426   8.166  0.2065 -0.2511 -0.7491
 6422SOL    HW130902   3.483   3.408   8.242  1.2718  1.4860  0.4604
 6422SOL    HW230903   3.612   3.365   8.167 -0.9374 -1.6115  2.1797
 6423SOL     OW30904   3.050   2.923   5.925  0.1546  0.5285 -0.0820
 6423SOL    HW130905   3.019   2.972   6.001 -1.3969 -0.9036  0.2039
 6423SOL    HW230906   3.138   2.914   5.960 -0.1797  0.4774  0.7442
 6424SOL     OW30907   3.449   2.955   4.962 -0.2450 -0.1871 -0.3168
 6424SOL    HW130908   3.482   2.966   4.873 -0.3883  1.3630 -0.1851
 6424SOL    HW230909   3.491   3.036   4.991 -1.0007 -0.2390  0.9012
 6425SOL     OW30910   2.081   2.946   9.397  0.1216 -0.1082  0.0259
 6425SOL    HW130911   1.987   2.942   9.413  0.1631 -2.5171 -0.3171
 6425SOL    HW230912   2.115   3.002   9.466  0.7042  1.9300 -1.8981
 6426SOL     OW30913   0.210   1.455   2.062  0.4207 -0.0234  0.4803
 6426SOL    HW130914   0.264   1.446   2.140  2.6171 -1.1232 -1.1658
 6426SOL    HW230915   0.127   1.442   2.108 -0.6276 -0.0443 -1.4294
 6427SOL     OW30916   3.800   2.735   6.311 -0.2537  0.5945 -0.9054
 6427SOL    HW130917   3.801   2.639   6.314  0.5314  0.6091 -0.5363
 6427SOL    HW230918   3.710   2.763   6.324 -0.1411  0.9555 -0.8912
 6428SOL     OW30919   3.958   0.177   0.875  0.3286  0.0731 -0.2593
 6428SOL    HW130920   3.877   0.198   0.827 -1.5555 -0.3309  2.6994
 6428SOL    HW230921   4.019   0.187   0.802  0.2280  1.3613 -0.1732
 6429SOL     OW30922   2.115   2.754   7.844  0.8625  0.2764 -0.1869
 6429SOL    HW130923   2.038   2.703   7.817  1.2658 -1.8910  2.7062
 6429SOL    HW230924   2.189   2.695   7.828 -0.1436 -0.7902 -0.9576
 6430SOL     OW30925   3.682   0.148   4.856  0.1311 -0.6361  0.8578
 6430SOL    HW130926   3.590   0.161   4.881  0.6089 -0.7524  2.7202
 6430SOL    HW230927   3.727   0.112   4.933 -0.4562 -2.2638  0.4222
 6431SOL     OW30928   0.577   4.191  17.320 -0.6374 -0.0476  0.1735
 6431SOL    HW130929   0.580   4.210  17.414  1.2272  0.5264 -0.0067
 6431SOL    HW230930   0.526   4.264  17.286  0.4199  0.8165  0.4357
 6432SOL     OW30931   3.183   2.743  16.513 -0.4593  0.0328  0.7728
 6432SOL    HW130932   3.181   2.653  16.480  0.4781  0.4160 -0.3276
 6432SOL    HW230933   3.234   2.787  16.445  0.5361 -0.9959  0.8453
 6433SOL     OW30934   2.489   3.613   2.601 -0.0663  0.3609  0.5686
 6433SOL    HW130935   2.572   3.566   2.597 -0.3099  0.0427 -0.8718
 6433SOL    HW230936   2.476   3.660   2.683  0.1593  1.8223 -0.2415
 6434SOL     OW30937   4.360   0.950   0.791  0.0615 -0.1846  0.0868
 6434SOL    HW130938   4.278   0.972   0.746 -0.4486 -0.3190  0.9630
 6434SOL    HW230939   4.325   0.923   0.876  0.1350 -3.4477 -0.9359
 6435SOL     OW30940   3.018   3.870   6.443  0.0084  0.2062 -0.3215
 6435SOL    HW130941   2.953   3.800   6.433 -0.0201 -0.1342  2.2876
 6435SOL    HW230942   3.088   3.812   6.474  0.2187  0.3791 -0.4795
 6436SOL     OW30943   0.562   0.562   6.156 -0.4911  0.4348 -0.0147
 6436SOL    HW130944   0.498   0.519   6.214  0.6313  0.0526  0.9471
 6436SOL    HW230945   0.520   0.570   6.070 -1.0331  0.7871  0.2778
 6437SOL     OW30946   4.402   1.892   5.052  0.1263 -0.0741 -0.0095
 6437SOL    HW130947   4.470   1.927   5.109 -0.1700  0.4908 -0.0019
 6437SOL    HW230948   4.414   1.800   5.074  1.0328 -0.0386 -0.3502
 6438SOL     OW30949   3.719   2.122   4.785  0.2954  0.0479  0.6231
 6438SOL    HW130950   3.676   2.039   4.806  1.2782 -0.3864  0.9081
 6438SOL    HW230951   3.795   2.087   4.738  0.1375  0.0755  0.3449
 6439SOL     OW30952   3.745   4.678   2.158 -0.6007  0.2450  0.0236
 6439SOL    HW130953   3.840   4.665   2.162 -0.7695 -0.5827  1.5740
 6439SOL    HW230954   3.708   4.590   2.169 -2.0181  0.9203  0.5787
 6440SOL     OW30955   0.874   3.645   0.962  0.0549  0.0341  0.4055
 6440SOL    HW130956   0.786   3.609   0.970  0.7883 -1.7370  0.5585
 6440SOL    HW230957   0.901   3.627   1.052 -1.2723 -1.8095  0.4313
 6441SOL     OW30958   3.564   4.638   5.795 -0.0782 -0.2716  0.2324
 6441SOL    HW130959   3.658   4.630   5.808  0.1562 -0.7545 -1.8703
 6441SOL    HW230960   3.538   4.569   5.857 -1.3210 -1.1247 -1.2336
 6442SOL     OW30961   0.555   4.042   3.545  0.0603 -0.0400  0.1348
 6442SOL    HW130962   0.521   3.964   3.503 -0.5684  0.9755 -1.2439
 6442SOL    HW230963   0.541   4.112   3.481 -2.2098  0.1439  0.8079
 6443SOL     OW30964   2.973   0.211   2.500 -0.9897  0.4418  0.3493
 6443SOL    HW130965   2.935   0.278   2.442  0.1046  0.8738  0.1203
 6443SOL    HW230966   2.926   0.225   2.582  1.0248  0.8301  1.4342
 6444SOL     OW30967   0.441   1.448  12.211  0.5458  0.0448 -0.6314
 6444SOL    HW130968   0.370   1.405  12.259  0.1778  1.4901  0.1216
 6444SOL    HW230969   0.393   1.518  12.165 -1.5330 -0.5006  0.7229
 6445SOL     OW30970   2.606   2.039  15.191 -0.2727 -0.0667  0.4661
 6445SOL    HW130971   2.607   2.101  15.265 -0.6588 -2.3931  2.4172
 6445SOL    HW230972   2.602   2.096  15.114  1.1149  1.4472  1.5007
 6446SOL     OW30973   2.732   1.213   4.291  0.4487  0.0074 -0.8003
 6446SOL    HW130974   2.762   1.123   4.306  0.3263 -0.1349 -1.3994
 6446SOL    HW230975   2.743   1.218   4.196 -1.2513 -1.2305 -1.0673
 6447SOL     OW30976   1.327   4.275   6.154  0.0457 -0.7220  0.0539
 6447SOL    HW130977   1.339   4.324   6.072 -0.6653 -0.3094  0.1910
 6447SOL    HW230978   1.371   4.192   6.138  2.3358  0.3613  0.8384
 6448SOL     OW30979   1.664   1.685   8.707  0.4193  0.2996 -0.2439
 6448SOL    HW130980   1.588   1.737   8.733  0.1010 -0.5338  0.4714
 6448SOL    HW230981   1.637   1.659   8.619  0.2447 -2.5513  0.6497
 6449SOL     OW30982   1.339   1.728   8.758  0.2414 -0.1214  0.0811
 6449SOL    HW130983   1.252   1.689   8.767  0.1528 -0.0757 -0.5279
 6449SOL    HW230984   1.341   1.774   8.674 -0.9636  2.1844  1.3381
 6450SOL     OW30985   0.857   2.372   2.376 -0.4202  0.5736  0.5044
 6450SOL    HW130986   0.867   2.285   2.338  2.8130  0.7188  0.9703
 6450SOL    HW230987   0.850   2.360   2.471 -1.9542  1.5691  0.5106
 6451SOL     OW30988   0.453   1.842   7.808 -0.0475 -0.6673  0.0971
 6451SOL    HW130989   0.425   1.761   7.764 -0.1128 -0.1090 -0.8937
 6451SOL    HW230990   0.427   1.826   7.898 -1.7297 -2.3224 -0.6904
 6452SOL     OW30991   2.948   1.595   5.974  0.3910  0.1611 -0.0289
 6452SOL    HW130992   2.970   1.597   6.068  0.2923  0.4368 -0.0108
 6452SOL    HW230993   2.854   1.575   5.977 -0.1388  2.3062 -3.4698
 6453SOL     OW30994   4.249   1.502   6.977 -0.0661 -1.0583 -0.0673
 6453SOL    HW130995   4.300   1.500   7.058  0.9074  2.5005 -0.5723
 6453SOL    HW230996   4.169   1.550   7.001  1.5406  0.8370  1.5104
 6454SOL     OW30997   1.238   3.685   3.800  0.4420 -0.1221 -0.1697
 6454SOL    HW130998   1.333   3.677   3.814  0.4060 -1.8311 -1.0056
 6454SOL    HW230999   1.235   3.766   3.749  2.3741  1.6172  2.4461
 6455SOL     OW31000   3.454   2.109  14.027  0.6839 -0.1007  0.2638
 6455SOL    HW131001   3.427   2.065  14.107 -2.5393  0.1134 -0.7033
 6455SOL    HW231002   3.532   2.053  14.020 -0.8241 -2.0984 -0.5848
 6456SOL     OW31003   4.395   4.534   3.701 -0.2015 -0.6279  0.0449
 6456SOL    HW131004   4.399   4.573   3.614  2.6509 -0.9223  0.0619
 6456SOL    HW231005   4.484   4.549   3.731 -0.5028 -0.5344  0.8953
 6457SOL     OW31006   2.992   1.386  11.877 -0.3409  0.8126 -0.3007
 6457SOL    HW131007   2.986   1.321  11.946 -2.2909  1.3009 -0.0172
 6457SOL    HW231008   3.063   1.345  11.829 -2.2542 -1.4615 -1.1479
 6458SOL     OW31009   1.539   0.502  16.068  0.7364 -0.0857  0.1603
 6458SOL    HW131010   1.527   0.597  16.064 -2.2290 -0.4126  1.4701
 6458SOL    HW231011   1.461   0.478  16.018 -0.2536  0.7020  1.3134
 6459SOL     OW31012   0.928   2.340   5.746 -0.1612  0.1388 -0.1864
 6459SOL    HW131013   0.936   2.361   5.653 -1.4272  0.1455 -0.2870
 6459SOL    HW231014   0.840   2.362   5.774 -0.3487  0.4938 -1.0387
 6460SOL     OW31015   1.176   1.804   3.858 -0.1075 -0.3326  0.5713
 6460SOL    HW131016   1.177   1.857   3.937  0.6417 -0.0360  0.3595
 6460SOL    HW231017   1.255   1.750   3.862 -0.0237 -0.4198 -1.9158
 6461SOL     OW31018   1.114   0.994   4.768 -0.0079  0.8278  0.0699
 6461SOL    HW131019   1.164   1.004   4.687 -0.3750  2.5222  0.0451
 6461SOL    HW231020   1.030   1.032   4.742  1.0462  2.4412 -0.9599
 6462SOL     OW31021   0.103   3.529   1.733 -0.0139  0.6638  0.3648
 6462SOL    HW131022   0.050   3.455   1.762  2.1178 -0.3569  1.6929
 6462SOL    HW231023   0.106   3.581   1.814 -1.0309 -0.7900  1.3302
 6463SOL     OW31024   3.200   3.849   3.119  0.0877 -0.1893 -0.2421
 6463SOL    HW131025   3.162   3.818   3.037  1.3336 -0.7891 -0.5888
 6463SOL    HW231026   3.247   3.930   3.098 -0.9010  0.4725  0.0583
 6464SOL     OW31027   0.456   3.323  16.235  0.1375  0.6571  0.1310
 6464SOL    HW131028   0.543   3.342  16.271  0.8000  1.6202 -1.9978
 6464SOL    HW231029   0.432   3.248  16.289 -2.7692  1.0533 -0.5975
 6465SOL     OW31030   3.427   0.835   5.282 -0.0863  0.3701  0.1471
 6465SOL    HW131031   3.425   0.740   5.289  1.3986  0.2313 -1.2645
 6465SOL    HW231032   3.503   0.867   5.332 -0.5308 -2.2598  2.4837
 6466SOL     OW31033   1.165   1.751   1.802  0.1970  0.5848  0.4810
 6466SOL    HW131034   1.180   1.674   1.748  1.2992  1.8968 -1.1017
 6466SOL    HW231035   1.254   1.769   1.831 -0.0293 -0.7150  1.9206
 6467SOL     OW31036   0.635   2.848  12.936 -0.0364  0.0842  0.0029
 6467SOL    HW131037   0.617   2.909  13.007  1.0786  0.1716  0.2213
 6467SOL    HW231038   0.548   2.810  12.934 -0.1730  0.4489 -1.4155
 6468SOL     OW31039   2.647   3.191  14.383 -0.1387 -0.3020  0.1914
 6468SOL    HW131040   2.566   3.239  14.400  0.4628  1.1431 -1.0646
 6468SOL    HW231041   2.671   3.158  14.470  0.7202 -0.6854 -0.1816
 6469SOL     OW31042   3.042   3.943  13.816  0.6262  0.3388 -0.3676
 6469SOL    HW131043   2.952   3.919  13.836  0.2006  0.8141 -1.7003
 6469SOL    HW231044   3.075   3.953  13.905 -0.1068 -2.3448  0.2187
 6470SOL     OW31045   1.273   4.635   5.393  0.2478  0.6345 -0.4070
 6470SOL    HW131046   1.266   4.626   5.489  1.1050  1.8880 -0.2252
 6470SOL    HW231047   1.341   4.702   5.394  0.0694  0.8011  4.3338
 6471SOL     OW31048   4.686   0.595   4.794 -0.4747 -0.1764 -0.4946
 6471SOL    HW131049   4.668   0.602   4.701 -2.1956  0.4417 -0.1269
 6471SOL    HW231050   4.701   0.502   4.809  0.0275  0.1610  1.1811
 6472SOL     OW31051   0.873   4.350   6.172  0.0926  0.3269  0.0411
 6472SOL    HW131052   0.874   4.417   6.104  0.7871 -0.3955 -0.6626
 6472SOL    HW231053   0.930   4.278   6.145 -2.9163 -1.4849 -1.4990
 6473SOL     OW31054   2.722   2.545   6.720  0.1711  0.4747 -0.5656
 6473SOL    HW131055   2.643   2.490   6.724  1.7140 -1.7662 -0.9960
 6473SOL    HW231056   2.740   2.551   6.814 -1.7287  0.0908 -0.1753
 6474SOL     OW31057   0.890   0.332  17.726 -0.1198 -0.2581  0.3254
 6474SOL    HW131058   0.985   0.324  17.732 -0.0715 -0.1240 -0.2746
 6474SOL    HW231059   0.865   0.416  17.687 -0.7255 -1.1085 -1.1118
 6475SOL     OW31060   0.797   1.618   6.043  0.0134 -0.3206  0.3420
 6475SOL    HW131061   0.703   1.609   6.024  0.7379  0.4314 -3.5519
 6475SOL    HW231062   0.819   1.643   5.953  0.8690  0.7985  0.8636
 6476SOL     OW31063   2.035   3.846   4.063  0.3674 -0.2276 -0.4651
 6476SOL    HW131064   2.012   3.888   3.980 -0.0242  0.9264  0.2290
 6476SOL    HW231065   1.964   3.783   4.079 -0.8950  1.8588  2.1133
 6477SOL     OW31066   3.761   0.430   6.333  0.0939  0.6604  0.3232
 6477SOL    HW131067   3.752   0.474   6.249  2.3337  2.3341  0.9627
 6477SOL    HW231068   3.783   0.502   6.391  0.1202 -0.4848  1.7316
 6478SOL     OW31069   3.371   0.299  14.743  0.0630  0.1740  0.1508
 6478SOL    HW131070   3.347   0.243  14.670 -0.6679  0.6580  0.0140
 6478SOL    HW231071   3.449   0.332  14.699 -1.1322  4.7751  1.4872
 6479SOL     OW31072   2.598   0.586  12.382 -0.3915  0.0548  0.0557
 6479SOL    HW131073   2.688   0.612  12.403  0.0556 -0.7534 -0.8928
 6479SOL    HW231074   2.620   0.501  12.344  0.0980  0.5974 -0.8990
 6480SOL     OW31075   2.843   3.059   3.506 -0.0077 -0.1271 -0.2689
 6480SOL    HW131076   2.825   3.140   3.553 -0.6937 -0.7799  0.5805
 6480SOL    HW231077   2.908   3.090   3.442 -0.6487  0.5518 -0.5849
 6481SOL     OW31078   3.553   2.231   6.044 -0.2693 -0.2645  0.3143
 6481SOL    HW131079   3.519   2.291   5.978 -1.6144  0.0662  1.2881
 6481SOL    HW231080   3.647   2.246   6.041 -0.5062  1.4606  1.2685
 6482SOL     OW31081   2.541   4.015   2.200  0.8433 -0.2524 -0.5085
 6482SOL    HW131082   2.550   3.982   2.290 -0.3276  1.2177  0.1505
 6482SOL    HW231083   2.525   3.937   2.148  0.8535 -0.6440  0.0821
 6483SOL     OW31084   2.204   0.542   7.750  0.1553  0.0074 -0.3554
 6483SOL    HW131085   2.286   0.522   7.703  0.7044  1.7538 -0.1391
 6483SOL    HW231086   2.230   0.621   7.797  1.8509 -0.5073 -0.4304
 6484SOL     OW31087   2.841   2.137   8.303 -0.2480  0.1596  0.6811
 6484SOL    HW131088   2.902   2.116   8.231 -0.8154  0.7838  0.0160
 6484SOL    HW231089   2.893   2.119   8.381  2.0697  1.5194 -0.5463
 6485SOL     OW31090   3.986   4.069   6.209  0.1412 -0.1642 -0.1846
 6485SOL    HW131091   4.069   4.101   6.245 -0.8284  1.3555  0.7043
 6485SOL    HW231092   3.972   3.979   6.240 -0.5323  0.5573  1.5966
 6486SOL     OW31093   0.442   2.451   3.669  0.1389 -0.1481  0.1023
 6486SOL    HW131094   0.469   2.508   3.597  0.1578  0.3383  0.5012
 6486SOL    HW231095   0.515   2.465   3.730 -0.0037  0.5202  0.1123
 6487SOL     OW31096   4.660   3.124   6.039  0.5562 -0.4939  0.1435
 6487SOL    HW131097   0.003   3.170   6.020  1.0618 -0.0347  3.4775
 6487SOL    HW231098   4.602   3.200   6.040  1.7537  0.4027  1.1341
 6488SOL     OW31099   2.843   2.503   7.239 -1.0433  0.5110  0.0593
 6488SOL    HW131100   2.767   2.451   7.267 -1.0232  0.0566 -0.7335
 6488SOL    HW231101   2.810   2.583   7.198 -1.7327  0.9099  1.3933
 6489SOL     OW31102   4.643   1.062   4.690  0.3559 -0.6969 -0.0647
 6489SOL    HW131103   4.628   1.108   4.772  1.1450 -0.2877 -0.1562
 6489SOL    HW231104   4.606   1.118   4.622 -2.6589 -0.2328  1.9682
 6490SOL     OW31105   1.525   1.490   2.998 -0.1226  0.6599  0.3952
 6490SOL    HW131106   1.526   1.540   2.916 -0.0057 -0.7180 -0.4304
 6490SOL    HW231107   1.475   1.413   2.971  0.7155 -0.5254  2.2234
 6491SOL     OW31108   0.999   0.891   4.980 -0.1741 -0.2018 -0.5883
 6491SOL    HW131109   1.019   0.931   4.895 -0.7100 -3.1927 -2.1037
 6491SOL    HW231110   0.906   0.906   4.997 -0.2969 -0.9715 -0.5783
 6492SOL     OW31111   0.899   3.526  14.786  0.1257  0.3464 -0.0071
 6492SOL    HW131112   0.812   3.560  14.807  1.0307  2.6102  0.0283
 6492SOL    HW231113   0.890   3.431  14.781  1.5097 -0.0221  4.3411
 6493SOL     OW31114   0.663   0.079   6.989 -0.4685  0.5437  0.4297
 6493SOL    HW131115   0.751   0.101   7.019 -0.1658 -0.5673  0.3285
 6493SOL    HW231116   0.627   0.050   7.073 -1.2356 -1.2201 -0.5255
 6494SOL     OW31117   1.381   2.490   8.974 -0.1054 -0.2607  0.2113
 6494SOL    HW131118   1.410   2.414   9.024  0.8941 -1.0865 -1.6131
 6494SOL    HW231119   1.386   2.455   8.885 -0.3928  1.6852 -0.5611
 6495SOL     OW31120   2.901   2.702   5.840  0.6890  1.1409 -0.0954
 6495SOL    HW131121   2.959   2.770   5.873  0.3098  0.9816  0.9207
 6495SOL    HW231122   2.820   2.732   5.882 -0.4241 -1.1357 -0.6204
 6496SOL     OW31123   0.777   3.132  12.147  0.3415 -0.3748  0.7578
 6496SOL    HW131124   0.692   3.175  12.144  0.8859  0.6408  0.1871
 6496SOL    HW231125   0.761   3.044  12.182  0.2220 -0.2428  1.0341
 6497SOL     OW31126   2.828   3.794   3.125  0.0173  0.7010 -0.0407
 6497SOL    HW131127   2.821   3.869   3.066  2.5189  0.7296 -0.2962
 6497SOL    HW231128   2.803   3.720   3.070  0.2025 -0.5566  1.5794
 6498SOL     OW31129   2.660   0.605   3.719  0.1351  0.0309 -0.4977
 6498SOL    HW131130   2.646   0.625   3.812  0.6035 -1.0574 -0.1922
 6498SOL    HW231131   2.612   0.678   3.679 -2.1869 -1.3370 -0.1585
 6499SOL     OW31132   2.489   0.174  12.165  0.2902  0.1459  0.6289
 6499SOL    HW131133   2.452   0.086  12.157 -0.4900  0.4948  0.4187
 6499SOL    HW231134   2.426   0.217  12.224 -1.0378  0.9644 -1.3828
 6500SOL     OW31135   1.164   0.041  17.399 -0.1044 -0.1711 -0.6462
 6500SOL    HW131136   1.090   0.082  17.444 -0.6403 -1.4633 -0.3183
 6500SOL    HW231137   1.139   0.038  17.307 -0.8715  2.0362 -0.4981
 6501SOL     OW31138   0.377   3.495   8.172  0.5444  0.3995 -0.4411
 6501SOL    HW131139   0.416   3.432   8.111 -0.5889 -0.0239 -0.7293
 6501SOL    HW231140   0.291   3.455   8.185  0.0288  2.3064  1.9450
 6502SOL     OW31141   0.721   1.752   5.028  0.4463 -0.5806  0.2993
 6502SOL    HW131142   0.797   1.706   4.991  0.0946 -0.4170 -0.6288
 6502SOL    HW231143   0.760   1.837   5.048  0.4859 -0.5262 -0.0076
 6503SOL     OW31144   3.328   0.018   7.381 -0.2071  0.0201 -0.8809
 6503SOL    HW131145   3.341   0.091   7.442  1.0667 -1.5396  0.7029
 6503SOL    HW231146   3.278   4.691   7.428 -0.5462  2.2498  1.9068
 6504SOL     OW31147   1.650   3.078   2.108 -0.3041 -0.0037  0.0305
 6504SOL    HW131148   1.656   3.173   2.104 -0.3600  0.0616  1.3909
 6504SOL    HW231149   1.741   3.049   2.103  0.0086  0.6232  1.9981
 6505SOL     OW31150   1.090   4.297   6.954 -0.3727  0.1556 -0.2007
 6505SOL    HW131151   1.154   4.229   6.932  2.2948  1.8839  2.1500
 6505SOL    HW231152   1.115   4.356   6.883 -0.9251  2.0800  1.1903
 6506SOL     OW31153   3.541   3.196   2.555 -0.6009  0.0770  0.1711
 6506SOL    HW131154   3.623   3.183   2.602 -0.1548 -1.2450 -0.9661
 6506SOL    HW231155   3.567   3.184   2.464  2.8949 -0.9093  1.3010
 6507SOL     OW31156   3.639   1.874  16.731 -0.4544  0.2574  0.0306
 6507SOL    HW131157   3.601   1.926  16.801 -0.3412  0.0095  0.2759
 6507SOL    HW231158   3.569   1.882  16.666  0.3991 -0.1312 -0.9507
 6508SOL     OW31159   0.993   4.538   3.841  0.2025  0.5861 -0.0734
 6508SOL    HW131160   1.059   4.579   3.785  0.4131  0.3282 -0.0112
 6508SOL    HW231161   1.039   4.529   3.925 -0.2334  0.2705  0.1306
 6509SOL     OW31162   1.789   3.190   0.779 -0.0426 -0.2961  0.1049
 6509SOL    HW131163   1.768   3.258   0.843 -3.6022 -0.9331 -0.3929
 6509SOL    HW231164   1.877   3.165   0.808 -0.3678  0.3423  1.6682
 6510SOL     OW31165   2.509   0.110  12.827  0.8132  0.1482 -0.4457
 6510SOL    HW131166   2.581   0.116  12.889  0.1339  1.9106  0.1768
 6510SOL    HW231167   2.434   0.117  12.886  2.6594 -3.7448  2.3393
 6511SOL     OW31168   1.654   0.709   3.545 -0.1494  0.4058  0.3725
 6511SOL    HW131169   1.558   0.708   3.545 -0.1400 -0.7551  3.6497
 6511SOL    HW231170   1.656   0.692   3.451  1.5132  1.3339  0.2393
 6512SOL     OW31171   2.512   4.513   2.075  0.5396 -0.8033 -0.1079
 6512SOL    HW131172   2.447   4.455   2.037  1.5108 -1.2115 -1.1657
 6512SOL    HW231173   2.584   4.455   2.048  0.0513 -1.2064 -0.5401
 6513SOL     OW31174   3.373   4.475   6.872  0.1835  0.3902 -0.2121
 6513SOL    HW131175   3.357   4.384   6.847  0.4355  0.0627  0.8246
 6513SOL    HW231176   3.281   4.501   6.868  0.0587 -0.2148 -1.2141
 6514SOL     OW31177   0.464   4.203   3.094  0.2539  0.9298  0.6458
 6514SOL    HW131178   0.418   4.259   3.032  0.2358 -0.2380 -0.3797
 6514SOL    HW231179   0.553   4.209   3.058  0.6968 -2.2055  1.1638
 6515SOL     OW31180   0.206   3.279  14.445  0.1603  0.2235  0.0706
 6515SOL    HW131181   0.162   3.309  14.365  0.9456 -0.8574 -0.7686
 6515SOL    HW231182   0.197   3.358  14.499  0.8327 -0.5097  1.2582
 6516SOL     OW31183   1.259   2.908  16.769 -0.0598  0.1318 -0.7075
 6516SOL    HW131184   1.265   2.867  16.683 -0.7432 -0.3180 -0.5457
 6516SOL    HW231185   1.317   2.984  16.770 -0.0410  0.1106 -0.2819
 6517SOL     OW31186   1.086   0.564  16.837  0.1850  0.0021  0.9665
 6517SOL    HW131187   1.074   0.617  16.758  0.8089 -0.4709  0.5504
 6517SOL    HW231188   1.006   0.512  16.845  0.8517 -1.0827  0.5392
 6518SOL     OW31189   1.463   4.202  11.366  0.2981 -0.0516  0.4051
 6518SOL    HW131190   1.452   4.107  11.356  0.4253 -0.2120  1.8217
 6518SOL    HW231191   1.527   4.206  11.437 -0.7261 -1.1183  1.3952
 6519SOL     OW31192   4.112   4.163   7.411  0.1572  0.1690 -0.1323
 6519SOL    HW131193   4.057   4.175   7.334 -1.3915 -2.3389  0.5601
 6519SOL    HW231194   4.178   4.227   7.386  0.8739 -0.2690  0.6282
 6520SOL     OW31195   4.516   3.933   6.351  0.1165  0.0978  0.4006
 6520SOL    HW131196   4.518   3.841   6.378  0.1237  0.0024  0.0783
 6520SOL    HW231197   4.571   3.977   6.416 -1.2240  0.2667  1.4030
 6521SOL     OW31198   2.664   3.577   2.233 -0.1734 -0.0921  0.1254
 6521SOL    HW131199   2.575   3.565   2.267  0.1454  1.5205  1.4864
 6521SOL    HW231200   2.709   3.620   2.305 -1.9093 -1.2436  1.8764
 6522SOL     OW31201   2.828   0.945   5.143  0.9192 -0.2649 -0.8713
 6522SOL    HW131202   2.746   0.935   5.192  0.8062  0.6335 -0.8874
 6522SOL    HW231203   2.880   0.918   5.219  0.3380 -0.7286 -0.6286
 6523SOL     OW31204   0.350   2.291  17.499 -0.2938  0.0053  0.1381
 6523SOL    HW131205   0.274   2.240  17.527 -1.0678  1.7146  1.1644
 6523SOL    HW231206   0.405   2.212  17.498  0.0152  0.2395 -0.7442
 6524SOL     OW31207   1.100   1.712   8.461  0.8388  0.4197 -0.4942
 6524SOL    HW131208   1.051   1.791   8.483 -1.5537 -1.0114 -0.6434
 6524SOL    HW231209   1.191   1.736   8.477  0.6429 -1.4151  3.2906
 6525SOL     OW31210   0.178   4.046   2.833 -0.0214  0.1677  0.2029
 6525SOL    HW131211   0.139   4.003   2.909 -0.3965  0.1955  0.0293
 6525SOL    HW231212   0.270   4.019   2.835 -0.3461 -1.0949 -1.4410
 6526SOL     OW31213   2.308   3.844   5.664  0.4669  0.3740 -0.0443
 6526SOL    HW131214   2.230   3.867   5.615  0.4292  0.2768 -0.0302
 6526SOL    HW231215   2.377   3.877   5.607 -0.2679  1.8612 -0.0710
 6527SOL     OW31216   1.255   3.355   6.049  0.3581 -0.2376 -0.0666
 6527SOL    HW131217   1.244   3.375   6.142  0.2102  0.2273 -0.1853
 6527SOL    HW231218   1.298   3.270   6.046  1.2625  0.1721  1.3762
 6528SOL     OW31219   3.257   4.629  12.608 -0.2967  0.3050 -0.4389
 6528SOL    HW131220   3.344   4.602  12.578 -0.1448  0.0906  0.2098
 6528SOL    HW231221   3.273   4.707  12.661  0.2561 -0.1769  0.0911
 6529SOL     OW31222   1.161   4.718   8.080 -0.3270 -0.2079  0.5684
 6529SOL    HW131223   1.238   4.677   8.121  0.8618  0.0610 -1.3759
 6529SOL    HW231224   1.108   4.650   8.037  0.4063 -0.8141  0.6144
 6530SOL     OW31225   0.113   3.423   9.262 -0.1242  0.3862  0.2912
 6530SOL    HW131226   0.094   3.333   9.289 -1.2269  0.6374  0.3524
 6530SOL    HW231227   0.188   3.404   9.206 -1.3444  0.0787 -1.2088
 6531SOL     OW31228   3.004   4.569   7.017 -0.1023 -0.2393  0.2234
 6531SOL    HW131229   2.921   4.546   7.059  0.4275 -1.5731  0.5449
 6531SOL    HW231230   3.000   4.514   6.939 -0.0025 -0.8170  0.6250
 6532SOL     OW31231   3.843   4.458   3.617  0.2876  0.1266 -0.7347
 6532SOL    HW131232   3.893   4.471   3.697  2.2050 -1.1013 -1.7331
 6532SOL    HW231233   3.755   4.488   3.643 -0.3571 -0.9722 -1.6269
 6533SOL     OW31234   4.717   0.613  16.141 -0.3110 -0.1943 -0.1600
 6533SOL    HW131235   0.047   0.571  16.193 -1.2162  1.8975  2.6988
 6533SOL    HW231236   0.002   0.703  16.124 -3.3368  0.5452 -0.5393
 6534SOL     OW31237   3.915   0.939   2.528 -0.3480 -0.2844  0.5143
 6534SOL    HW131238   3.878   0.865   2.480  1.1062  0.9322 -2.5426
 6534SOL    HW231239   3.836   0.994   2.533 -0.6554 -0.9967  3.1266
 6535SOL     OW31240   3.724   2.001   1.625  0.5260 -0.2185  0.1874
 6535SOL    HW131241   3.775   1.936   1.576 -0.9041 -0.6325 -0.7495
 6535SOL    HW231242   3.710   1.956   1.708 -2.5072 -0.1652 -0.3031
 6536SOL     OW31243   0.977   0.724   8.892  0.4685  0.0119 -0.3738
 6536SOL    HW131244   0.932   0.699   8.972  0.5644  1.9838  0.2996
 6536SOL    HW231245   1.000   0.816   8.907 -1.5273  0.3713  0.4008
 6537SOL     OW31246   2.874   0.416   7.782  0.5102  0.0195  0.6164
 6537SOL    HW131247   2.857   0.333   7.738 -0.1313 -0.1385  1.1752
 6537SOL    HW231248   2.957   0.399   7.828 -0.4059  0.6559  2.4896
 6538SOL     OW31249   4.039   2.541   6.140 -0.2411 -0.2209  0.5866
 6538SOL    HW131250   3.974   2.527   6.208  1.4220 -0.7793  2.0307
 6538SOL    HW231251   3.985   2.601   6.088 -0.6179 -0.3995  0.7683
 6539SOL     OW31252   4.248   1.572   4.213 -0.7099  0.1894 -0.0819
 6539SOL    HW131253   4.279   1.621   4.289 -1.6425 -0.7741  0.9313
 6539SOL    HW231254   4.306   1.607   4.146  0.1665  1.0929  1.1402
 6540SOL     OW31255   0.239   1.532   8.639  0.3145  0.0587  0.2098
 6540SOL    HW131256   0.258   1.440   8.619  0.7752  0.4458 -1.0832
 6540SOL    HW231257   0.199   1.518   8.726 -1.7005 -2.1259 -1.0555
 6541SOL     OW31258   1.942   3.256  11.938  0.0495  0.1566  0.2838
 6541SOL    HW131259   2.015   3.239  11.878 -0.3717 -2.2846  0.4542
 6541SOL    HW231260   1.964   3.344  11.969  1.6520 -0.1148 -0.0887
 6542SOL     OW31261   2.286   1.937   5.024 -0.5178 -0.1346 -0.4437
 6542SOL    HW131262   2.224   1.878   5.069 -0.8667 -1.0876 -2.1602
 6542SOL    HW231263   2.356   1.951   5.088  0.9497 -1.3059 -1.8069
 6543SOL     OW31264   3.632   1.811  11.988 -0.9775  0.7006 -1.0998
 6543SOL    HW131265   3.586   1.732  12.017 -0.2795  1.1325  1.1725
 6543SOL    HW231266   3.716   1.770  11.966 -1.7010 -0.7152 -1.1699
 6544SOL     OW31267   0.194   0.107   7.400 -0.8907 -0.3186  0.0765
 6544SOL    HW131268   0.181   0.090   7.307 -2.0513 -1.8561  0.5118
 6544SOL    HW231269   0.135   0.039   7.434  2.6759 -3.5958 -0.3729
 6545SOL     OW31270   3.257   0.335   9.151 -0.2922  0.4610 -0.3942
 6545SOL    HW131271   3.297   0.279   9.217  1.2698  1.5246 -0.4346
 6545SOL    HW231272   3.323   0.329   9.082 -0.6068  1.9061 -0.8147
 6546SOL     OW31273   1.421   4.343   9.085 -0.0838  0.9411 -0.1465
 6546SOL    HW131274   1.444   4.368   9.174 -1.2374  3.3235 -0.4953
 6546SOL    HW231275   1.465   4.258   9.079  1.5711  1.6780  1.7030
 6547SOL     OW31276   0.575   2.002   8.714  0.3001 -0.1948  0.4010
 6547SOL    HW131277   0.575   2.035   8.804  0.4405  2.4853 -0.5727
 6547SOL    HW231278   0.601   2.078   8.661  1.9644 -0.6158  0.6287
 6548SOL     OW31279   2.741   0.263   4.220  0.3680  0.1348  0.4646
 6548SOL    HW131280   2.741   0.215   4.137 -1.1094  1.9298 -0.5823
 6548SOL    HW231281   2.795   0.204   4.272 -2.3339 -1.5457  1.3591
 6549SOL     OW31282   3.791   2.796  16.102 -0.0359 -0.1122  0.2096
 6549SOL    HW131283   3.798   2.889  16.122  1.3904 -0.1525 -0.0996
 6549SOL    HW231284   3.780   2.754  16.187 -1.1299  0.4209  0.3285
 6550SOL     OW31285   0.539   3.476   8.723 -0.4748 -0.3448  0.6493
 6550SOL    HW131286   0.450   3.496   8.751 -1.7592 -1.6008 -2.5280
 6550SOL    HW231287   0.529   3.437   8.636 -1.6609  0.9617  0.1989
 6551SOL     OW31288   2.069   0.161  15.152 -0.4920  0.6019  0.7678
 6551SOL    HW131289   1.991   0.110  15.173 -0.1178 -0.4073 -0.3119
 6551SOL    HW231290   2.033   0.248  15.134 -2.3366 -0.4005 -0.3676
 6552SOL     OW31291   1.652   3.394   3.048  0.0483 -0.6014 -0.1887
 6552SOL    HW131292   1.611   3.312   3.078  0.9321 -1.0093 -0.0966
 6552SOL    HW231293   1.656   3.380   2.954 -2.5048  0.9223 -0.5311
 6553SOL     OW31294   0.927   0.946   8.216 -0.2391 -0.3176 -0.3229
 6553SOL    HW131295   0.905   0.894   8.293  1.2228 -0.5148 -0.0478
 6553SOL    HW231296   0.913   1.037   8.243  0.7240 -0.2738 -0.0044
 6554SOL     OW31297   3.876   3.604   1.911  0.1136 -0.3390 -0.2599
 6554SOL    HW131298   3.917   3.654   1.983  1.0578 -0.1555 -0.9254
 6554SOL    HW231299   3.786   3.636   1.905  0.3606 -0.4688 -4.3627
 6555SOL     OW31300   0.927   1.483  15.794  0.3228 -0.1875 -0.2333
 6555SOL    HW131301   0.842   1.510  15.760  0.5755 -0.1776 -0.8578
 6555SOL    HW231302   0.992   1.547  15.765 -0.7566  0.3296 -1.4842
 6556SOL     OW31303   1.686   0.434   2.320  0.1010  0.0869  0.0709
 6556SOL    HW131304   1.604   0.430   2.270  0.0542  1.7247  0.0184
 6556SOL    HW231305   1.653   0.375   2.388 -0.3337 -1.6224 -1.6194
 6557SOL     OW31306   0.491   2.782   0.638 -0.0886 -0.0737 -0.3150
 6557SOL    HW131307   0.418   2.833   0.602  0.6222  3.0414  2.5784
 6557SOL    HW231308   0.517   2.821   0.722  3.4080 -0.3365 -1.2813
 6558SOL     OW31309   3.249   3.727   4.057  0.1751 -0.0887  0.2806
 6558SOL    HW131310   3.241   3.634   4.035 -1.5218  0.1846 -0.2531
 6558SOL    HW231311   3.242   3.717   4.152 -0.5628  0.7676  0.3118
 6559SOL     OW31312   1.389   4.170   3.512  0.6586  0.2748  0.8891
 6559SOL    HW131313   1.327   4.214   3.570  1.6815  2.1835  0.5311
 6559SOL    HW231314   1.411   4.243   3.456 -0.5933 -0.4217 -0.5022
 6560SOL     OW31315   1.649   4.705   8.720 -0.3545  0.2847  0.0066
 6560SOL    HW131316   1.703   0.041   8.744  1.3590 -0.1987 -2.3449
 6560SOL    HW231317   1.621   4.684   8.809 -0.5549 -0.7874 -0.3086
 6561SOL     OW31318   3.848   1.088   3.961 -0.5228 -0.7551 -1.5022
 6561SOL    HW131319   3.883   1.002   3.937  0.9743 -0.1520 -1.4891
 6561SOL    HW231320   3.892   1.113   4.042 -0.6342 -0.8413 -1.4157
 6562SOL     OW31321   3.114   3.780   3.550  0.5324 -0.3828 -0.3153
 6562SOL    HW131322   3.204   3.811   3.538  0.3763  0.1453 -0.0890
 6562SOL    HW231323   3.082   3.813   3.466 -0.1085  0.5218  0.2900
 6563SOL     OW31324   4.131   2.079  10.815 -0.0510 -0.5359 -0.1186
 6563SOL    HW131325   4.221   2.067  10.846  0.9341  2.2577 -1.8975
 6563SOL    HW231326   4.135   2.165  10.774  0.2080 -0.7968 -0.6405
 6564SOL     OW31327   2.685   3.451   5.279  0.1779  0.1107 -0.3231
 6564SOL    HW131328   2.673   3.385   5.211  0.2500 -1.1323  0.8784
 6564SOL    HW231329   2.662   3.400   5.356 -1.0539 -0.0172 -0.7645
 6565SOL     OW31330   0.369   2.218   3.586 -0.8774  0.2520  0.0854
 6565SOL    HW131331   0.370   2.293   3.646  0.4538  0.3968 -0.1111
 6565SOL    HW231332   0.462   2.200   3.571 -0.6860  1.2906  0.0322
 6566SOL     OW31333   1.117   0.567   4.811 -0.0251  0.3491 -0.8014
 6566SOL    HW131334   1.151   0.641   4.760 -1.3378  2.2843  1.1226
 6566SOL    HW231335   1.086   0.508   4.743  1.0946  1.0604 -1.9148
 6567SOL     OW31336   3.977   2.708  15.701  0.2155 -0.1898 -0.7993
 6567SOL    HW131337   4.013   2.669  15.622  0.8005 -0.1201 -0.5620
 6567SOL    HW231338   4.053   2.697  15.757 -1.1965 -1.2431  0.9186
 6568SOL     OW31339   1.185   1.569  15.946 -0.2467 -0.5660  0.2007
 6568SOL    HW131340   1.113   1.507  15.952 -0.4913 -0.2597  0.4506
 6568SOL    HW231341   1.156   1.637  15.884 -0.3669 -0.5577  0.2655
 6569SOL     OW31342   4.006   3.945   3.520 -0.3948 -0.0748  0.3308
 6569SOL    HW131343   4.018   3.996   3.440 -0.3980 -2.6900 -1.3365
 6569SOL    HW231344   4.066   3.873   3.499  0.1908  0.2589  0.8396
 6570SOL     OW31345   3.164   2.183   3.086 -0.1608 -0.8821  0.2922
 6570SOL    HW131346   3.069   2.168   3.082 -0.1427 -1.0188  0.3754
 6570SOL    HW231347   3.188   2.234   3.163  1.7339 -0.9760 -0.2542
 6571SOL     OW31348   4.706   1.050   6.502 -0.1651 -0.4900  0.3366
 6571SOL    HW131349   4.623   1.029   6.544 -0.1315  3.4118  2.3510
 6571SOL    HW231350   4.680   1.136   6.469  0.4989 -0.0612  0.9316
 6572SOL     OW31351   0.564   4.054   5.716 -0.4069 -0.6147  0.2920
 6572SOL    HW131352   0.551   3.976   5.662 -1.3566  1.0859 -1.9962
 6572SOL    HW231353   0.475   4.088   5.728 -0.9563 -2.0029  0.0905
 6573SOL     OW31354   3.914   2.298  16.093 -0.1542  0.2615  0.7470
 6573SOL    HW131355   4.000   2.290  16.052 -0.7302 -0.4149 -0.3228
 6573SOL    HW231356   3.899   2.392  16.081 -0.3928  0.1004 -0.1871
 6574SOL     OW31357   0.245   1.000  15.634 -0.2483 -0.0953  0.1652
 6574SOL    HW131358   0.338   0.978  15.637 -0.0314  0.7882 -0.0294
 6574SOL    HW231359   0.212   0.933  15.574  3.9588 -0.5719 -1.5972
 6575SOL     OW31360   4.186   4.294  11.941 -0.3016  0.0317  0.5813
 6575SOL    HW131361   4.143   4.300  11.856  0.3476  1.3943  0.3465
 6575SOL    HW231362   4.169   4.201  11.958 -2.3054  0.5240  1.3639
 6576SOL     OW31363   4.203   1.188   6.043  0.0370 -0.6358  0.3230
 6576SOL    HW131364   4.288   1.157   6.013 -0.4038 -1.7470  0.2192
 6576SOL    HW231365   4.160   1.214   5.962  1.1012 -1.6784 -0.5902
 6577SOL     OW31366   0.144   0.889   4.754 -0.1776 -0.1971  0.1494
 6577SOL    HW131367   0.078   0.948   4.718 -0.8733  0.2700  2.1615
 6577SOL    HW231368   0.192   0.867   4.675 -0.0930  2.4586 -0.5464
 6578SOL     OW31369   3.941   1.875   2.165  0.3401 -0.1035  0.1128
 6578SOL    HW131370   3.860   1.925   2.154 -0.3650 -1.0289  1.1069
 6578SOL    HW231371   3.975   1.920   2.242  0.0129 -0.6255  0.5714
 6579SOL     OW31372   0.045   0.200   7.813 -0.6862  0.0240  0.0193
 6579SOL    HW131373   0.039   0.108   7.839 -0.2018 -0.8788 -3.0689
 6579SOL    HW231374   4.712   0.233   7.867 -0.5905  1.2619 -0.5973
 6580SOL     OW31375   4.221   4.395  11.238 -0.6202  0.6097  0.1394
 6580SOL    HW131376   4.317   4.398  11.242 -0.3727 -2.1001 -3.5431
 6580SOL    HW231377   4.213   4.372  11.331  1.7258 -0.1264  0.1526
 6581SOL     OW31378   4.199   1.820   3.651  0.3542 -0.4304  0.4837
 6581SOL    HW131379   4.127   1.881   3.640 -0.1485 -1.0911  0.0684
 6581SOL    HW231380   4.277   1.862   3.615  1.5765 -0.9484  2.5442
 6582SOL     OW31381   1.717   3.682   7.324  0.1024 -0.1107 -0.4587
 6582SOL    HW131382   1.728   3.722   7.237 -1.4362 -2.8832 -1.9127
 6582SOL    HW231383   1.755   3.597   7.306  1.4627  0.7195 -1.5266
 6583SOL     OW31384   3.460   0.284   0.654 -0.8650  0.9999 -0.0195
 6583SOL    HW131385   3.471   0.375   0.624  0.1167  0.8233 -0.1818
 6583SOL    HW231386   3.461   0.256   0.562  0.5505  2.1282 -0.3583
 6584SOL     OW31387   2.946   2.987   5.363  0.4938 -0.4161  0.1093
 6584SOL    HW131388   3.027   3.015   5.321  0.4263  0.0566  0.2999
 6584SOL    HW231389   2.883   3.003   5.293  1.2558  1.1875 -0.2038
 6585SOL     OW31390   0.661   3.414   3.590 -0.3423  0.4250 -0.0498
 6585SOL    HW131391   0.687   3.465   3.667  2.4291  0.0219 -0.7088
 6585SOL    HW231392   0.576   3.386   3.623 -0.4413  0.2501 -0.4549
 6586SOL     OW31393   3.305   4.609   5.503 -0.5300 -0.2972  0.5212
 6586SOL    HW131394   3.236   4.602   5.436 -1.2101  2.1457  0.9780
 6586SOL    HW231395   3.326   4.702   5.493  0.2093 -0.3944  1.1996
 6587SOL     OW31396   4.475   3.965   5.624  0.1868  0.6264 -0.1767
 6587SOL    HW131397   4.536   3.964   5.698 -0.4230  0.2381  0.3201
 6587SOL    HW231398   4.482   3.873   5.602  0.7403  0.3085  1.3473
 6588SOL     OW31399   4.215   1.140   9.689 -0.0282  0.2197 -0.3821
 6588SOL    HW131400   4.187   1.180   9.606  1.3654 -0.8624 -1.3797
 6588SOL    HW231401   4.227   1.214   9.748 -0.1771  0.7313 -0.9883
 6589SOL     OW31402   2.128   2.891   4.243  0.3161 -0.3208  0.5637
 6589SOL    HW131403   2.184   2.956   4.200 -1.3824 -0.2100 -1.4585
 6589SOL    HW231404   2.190   2.821   4.261 -0.1628 -0.5013  1.5427
 6590SOL     OW31405   4.097   3.675  10.533  0.5397 -0.3608  0.0919
 6590SOL    HW131406   4.071   3.765  10.510  1.9292  0.6119  2.3247
 6590SOL    HW231407   4.180   3.707  10.568  0.7243 -0.5615 -0.1618
 6591SOL     OW31408   0.254   0.984  14.552 -0.2561 -0.4515 -0.1221
 6591SOL    HW131409   0.325   0.929  14.583  2.5535  2.9408 -0.5662
 6591SOL    HW231410   0.294   1.023  14.474 -0.4085  0.7797  0.4222
 6592SOL     OW31411   3.960   1.760  16.070 -0.6519 -0.7460  0.2772
 6592SOL    HW131412   3.980   1.730  16.158  1.1833  0.5426  0.2985
 6592SOL    HW231413   3.937   1.853  16.074  0.6270 -0.6109  3.9746
 6593SOL     OW31414   4.283   0.794   8.329  0.4396  0.6007 -0.1296
 6593SOL    HW131415   4.338   0.871   8.341 -0.2904  1.4806 -2.5009
 6593SOL    HW231416   4.358   0.734   8.338  0.9109  1.0998 -0.7557
 6594SOL     OW31417   2.738   4.457   1.102 -0.7084  0.6116 -0.1792
 6594SOL    HW131418   2.677   4.405   1.153  0.6767 -0.3848  0.4594
 6594SOL    HW231419   2.724   4.550   1.120  1.2744  0.9942 -0.5073
 6595SOL     OW31420   1.675   4.403   5.604  0.5175  0.5730  0.1310
 6595SOL    HW131421   1.683   4.402   5.508  0.9069  0.7051  0.1632
 6595SOL    HW231422   1.592   4.446   5.626  1.3765  1.3747  1.7787
 6596SOL     OW31423   0.275   2.938   0.539 -0.2820 -0.2201 -0.0663
 6596SOL    HW131424   0.312   3.018   0.575 -0.5531 -0.1836  0.1327
 6596SOL    HW231425   0.208   2.971   0.479 -0.6063  2.4131  1.7779
 6597SOL     OW31426   1.571   2.882   4.146  0.4099 -0.4322  0.2830
 6597SOL    HW131427   1.606   2.966   4.178 -0.6729  0.0148  0.2905
 6597SOL    HW231428   1.499   2.911   4.090  0.6138 -1.0398 -0.2936
 6598SOL     OW31429   2.710   4.119   1.904  0.4137  0.5257 -0.1690
 6598SOL    HW131430   2.726   4.040   1.954 -0.8500  0.8648  0.7716
 6598SOL    HW231431   2.636   4.090   1.851 -1.4123  0.9176  2.1538
 6599SOL     OW31432   3.405   1.370   1.580 -0.0900 -0.2581 -0.1192
 6599SOL    HW131433   3.456   1.378   1.499 -2.1528 -1.2401 -1.5130
 6599SOL    HW231434   3.466   1.414   1.640 -0.7244  0.9865 -0.4127
 6600SOL     OW31435   4.458   0.855   9.098  0.1426  0.3895 -0.4974
 6600SOL    HW131436   4.401   0.785   9.068 -1.4684  2.2935 -1.8977
 6600SOL    HW231437   4.399   0.910   9.150 -0.5960 -2.0695  1.2840
 6601SOL     OW31438   3.673   3.788   6.958 -0.6894 -0.1609  0.0794
 6601SOL    HW131439   3.749   3.811   7.012 -0.0298  0.2801 -1.0336
 6601SOL    HW231440   3.609   3.850   6.992 -0.0191  1.1141 -0.9717
 6602SOL     OW31441   2.182   1.571   7.909 -0.0953 -0.2339 -0.5752
 6602SOL    HW131442   2.161   1.529   7.993  2.0601 -0.0995  0.0362
 6602SOL    HW231443   2.254   1.514   7.881  0.4188  0.2376 -0.2387
 6603SOL     OW31444   3.072   1.747   8.603  0.4411 -0.2585 -0.1077
 6603SOL    HW131445   2.978   1.736   8.617  0.3705  2.1393  1.3378
 6603SOL    HW231446   3.107   1.680   8.661 -2.1111  0.5433  2.4033
 6604SOL     OW31447   0.034   3.992   4.513 -0.6299 -0.4981  0.4357
 6604SOL    HW131448   0.043   3.897   4.507  1.5503 -0.2148 -0.8678
 6604SOL    HW231449   4.681   4.017   4.511 -1.0850 -2.1361  0.7484
 6605SOL     OW31450   4.192   0.632   5.461  0.0613  0.0781  0.1488
 6605SOL    HW131451   4.138   0.581   5.400 -2.6851  2.7901  0.3312
 6605SOL    HW231452   4.275   0.587   5.447  0.4780  1.1331 -0.7579
 6606SOL     OW31453   0.778   3.640   1.289 -0.7570  0.0791 -0.1453
 6606SOL    HW131454   0.826   3.717   1.320 -3.1721  0.7536  1.8760
 6606SOL    HW231455   0.843   3.571   1.274 -0.3546  0.4506 -0.1103
 6607SOL     OW31456   1.729   0.229   7.040  0.1697  1.0074  0.0655
 6607SOL    HW131457   1.685   0.239   7.124 -2.6094 -1.9955 -1.0690
 6607SOL    HW231458   1.656   0.191   6.992  1.3795  1.3329 -2.0430
 6608SOL     OW31459   2.943   1.664   4.387  0.3972  0.3483  0.2144
 6608SOL    HW131460   2.929   1.598   4.320 -1.1011 -0.0314  0.8925
 6608SOL    HW231461   2.852   1.694   4.398  0.2398 -0.2572  0.5603
 6609SOL     OW31462   0.533   3.034   9.698  0.5939 -0.0128 -0.1312
 6609SOL    HW131463   0.483   3.105   9.658 -0.5986 -0.5068  0.5006
 6609SOL    HW231464   0.538   2.973   9.624 -0.8921 -0.6172  0.2737
 6610SOL     OW31465   0.977   4.147  12.294 -0.6583  0.1543  0.4536
 6610SOL    HW131466   1.000   4.228  12.339  1.7833 -0.7802  0.8393
 6610SOL    HW231467   0.907   4.187  12.242  1.6136  0.6521 -2.1728
 6611SOL     OW31468   3.225   3.429   4.074  0.0689 -0.7986 -0.2995
 6611SOL    HW131469   3.256   3.435   4.165 -1.2574  1.0250  0.0213
 6611SOL    HW231470   3.300   3.385   4.032 -0.0199  0.0678 -1.3284
 6612SOL     OW31471   1.349   4.208   6.727 -0.1179  0.5119  0.0273
 6612SOL    HW131472   1.370   4.282   6.784  1.2284 -1.5134  2.1918
 6612SOL    HW231473   1.411   4.145   6.764 -1.5495 -1.5952 -1.1028
 6613SOL     OW31474   0.775   1.722   7.319  0.4513  0.5367 -1.0293
 6613SOL    HW131475   0.732   1.689   7.398  1.2283  0.8394 -0.4741
 6613SOL    HW231476   0.807   1.637   7.287 -0.5056 -0.1874 -0.0788
 6614SOL     OW31477   3.512   2.152   7.865 -0.0698 -0.2706  0.2016
 6614SOL    HW131478   3.581   2.130   7.927  0.1205  1.7339  0.6886
 6614SOL    HW231479   3.533   2.091   7.794  0.0367 -1.0389  0.9009
 6615SOL     OW31480   0.966   1.399  13.643  0.0982 -0.8185  0.1045
 6615SOL    HW131481   0.948   1.332  13.709  0.0540 -2.5798 -1.7072
 6615SOL    HW231482   1.024   1.451  13.699  0.2907 -1.0569  0.1289
 6616SOL     OW31483   1.913   1.762   3.567  0.3878  0.3518  0.6823
 6616SOL    HW131484   1.899   1.857   3.570 -0.0337  0.3327 -0.7944
 6616SOL    HW231485   2.008   1.750   3.577  0.8808  1.5685 -2.6050
 6617SOL     OW31486   0.228   3.069   5.600  0.2208 -0.2157  0.0115
 6617SOL    HW131487   0.268   2.997   5.552  4.2851  0.1475  2.8203
 6617SOL    HW231488   0.225   3.033   5.689  0.1971  1.8418  0.8430
 6618SOL     OW31489   3.816   1.780   4.680  0.0362  0.0878 -0.3082
 6618SOL    HW131490   3.739   1.759   4.628 -0.7512  0.5677  0.6659
 6618SOL    HW231491   3.890   1.770   4.619  0.4950  1.4820  0.0057
 6619SOL     OW31492   1.531   1.332  17.745  0.0392  0.4376  0.3596
 6619SOL    HW131493   1.530   1.299  17.656  1.4061 -1.2527  0.9650
 6619SOL    HW231494   1.625   1.318   0.003 -0.1160  0.9161  2.0501
 6620SOL     OW31495   1.746   0.343   4.427  0.1651 -0.6160 -0.1039
 6620SOL    HW131496   1.792   0.259   4.427  0.4750 -0.4751  3.4440
 6620SOL    HW231497   1.761   0.383   4.513 -0.3478  1.2512 -0.8787
 6621SOL     OW31498   3.377   4.314  10.529  0.1374 -0.0717  0.1842
 6621SOL    HW131499   3.383   4.302  10.434  0.6089  3.0639 -0.1875
 6621SOL    HW231500   3.378   4.225  10.563  0.9974  0.0843  0.5719
 6622SOL     OW31501   4.244   3.954   1.649 -0.1640 -0.0114  0.0936
 6622SOL    HW131502   4.307   4.026   1.655 -0.8819  0.8369 -2.6910
 6622SOL    HW231503   4.165   4.006   1.654 -1.3219 -1.9695  2.4303
 6623SOL     OW31504   3.065   1.272  16.112 -0.8553  1.1739  0.1167
 6623SOL    HW131505   3.036   1.187  16.143 -0.9624  1.7416  1.5890
 6623SOL    HW231506   3.088   1.320  16.192  0.4639 -1.9083  1.5567
 6624SOL     OW31507   1.151   4.621   6.075  0.5381 -0.0291  0.4563
 6624SOL    HW131508   1.130   4.542   6.024  0.0817  0.6821 -0.4431
 6624SOL    HW231509   1.247   4.612   6.080  0.5287 -0.2200  0.3332
 6625SOL     OW31510   1.281   3.613   5.923 -0.2262 -0.3268 -0.2192
 6625SOL    HW131511   1.202   3.639   5.875 -0.9587  0.3815  1.3490
 6625SOL    HW231512   1.263   3.521   5.944 -1.5331  0.2382  1.1695
 6626SOL     OW31513   2.695   0.258   1.945 -0.0002 -0.2704  0.3072
 6626SOL    HW131514   2.673   0.165   1.942 -0.0357 -0.2790  0.8442
 6626SOL    HW231515   2.721   0.273   1.854  1.0132 -0.2656  0.6008
 6627SOL     OW31516   0.675   3.246   2.598 -0.0497 -0.0594 -0.1381
 6627SOL    HW131517   0.594   3.216   2.558 -0.6905 -0.2228  1.2712
 6627SOL    HW231518   0.736   3.226   2.527  1.1676 -1.3824  1.2501
 6628SOL     OW31519   2.190   4.544   4.755 -0.0628 -0.1653  0.2669
 6628SOL    HW131520   2.283   4.547   4.776  0.4677  2.6431 -2.3600
 6628SOL    HW231521   2.189   4.527   4.660  0.5361  2.5249 -0.2229
 6629SOL     OW31522   0.079   3.512  15.591  0.1626  0.6027 -0.0115
 6629SOL    HW131523   0.091   3.443  15.656 -1.7870 -0.5252 -0.8521
 6629SOL    HW231524   4.738   3.490  15.543 -0.3700  2.4391  0.0248
 6630SOL     OW31525   3.511   2.955   4.324 -0.0784 -0.9578 -0.4861
 6630SOL    HW131526   3.508   2.929   4.232 -2.1767 -1.5939 -0.2225
 6630SOL    HW231527   3.512   3.051   4.323 -0.1650 -0.9600 -0.9600
 6631SOL     OW31528   2.816   4.521  17.422  0.1879  0.5510 -0.1839
 6631SOL    HW131529   2.900   4.482  17.397 -0.1194  0.7954 -1.6129
 6631SOL    HW231530   2.787   4.456  17.486 -0.3761 -1.1985 -2.2084
 6632SOL     OW31531   4.693   1.625  15.599 -0.2182 -0.8965  0.4815
 6632SOL    HW131532   0.029   1.658  15.648  1.7613 -3.7597 -0.6587
 6632SOL    HW231533   4.695   1.679  15.520 -0.9490  0.0444  1.0904
 6633SOL     OW31534   0.057   4.365   4.690 -0.2492 -0.2687  0.7433
 6633SOL    HW131535   0.143   4.324   4.678  0.4467  0.8095  2.0931
 6633SOL    HW231536   0.083   4.457   4.680 -3.1168  0.3662 -0.8131
 6634SOL     OW31537   1.225   4.549   2.712 -0.2211  0.3810 -0.0639
 6634SOL    HW131538   1.260   4.609   2.777  0.1173 -0.5002  0.5691
 6634SOL    HW231539   1.305   4.557   2.659  1.5179  2.1410  2.8543
 6635SOL     OW31540   2.022   4.281   4.574 -0.1662 -0.1601  0.2109
 6635SOL    HW131541   2.061   4.248   4.655  2.4884  0.5536 -0.7625
 6635SOL    HW231542   1.959   4.341   4.614  1.0291  1.5917 -0.5075
 6636SOL     OW31543   2.295   0.622   3.833 -0.5045  0.4586  0.5808
 6636SOL    HW131544   2.263   0.712   3.843 -0.8662  0.7484 -3.1860
 6636SOL    HW231545   2.283   0.612   3.739  1.2332  3.2311  0.0693
 6637SOL     OW31546   3.127   0.448   8.581 -0.3197 -0.3916 -0.1286
 6637SOL    HW131547   3.195   0.514   8.591  0.0390 -0.6669 -0.7944
 6637SOL    HW231548   3.099   0.458   8.490 -3.5230  0.9737  0.9743
 6638SOL     OW31549   0.622   2.848   4.668 -0.1783  0.1586  0.1548
 6638SOL    HW131550   0.674   2.885   4.597  0.0056 -0.4674 -0.0389
 6638SOL    HW231551   0.534   2.870   4.636 -0.4024 -0.3965  0.3906
 6639SOL     OW31552   3.432   4.524   0.709 -0.2306  0.0624  0.5042
 6639SOL    HW131553   3.428   4.617   0.731 -0.0893  0.7575 -2.4104
 6639SOL    HW231554   3.429   4.522   0.613 -0.8029 -0.1753  0.5300
 6640SOL     OW31555   3.757   3.636  10.613  0.3632  0.4103 -0.2290
 6640SOL    HW131556   3.721   3.549  10.593  0.9457  0.2045 -0.3801
 6640SOL    HW231557   3.672   3.666  10.647  0.5768 -1.5081  1.9572
 6641SOL     OW31558   3.603   1.773   7.194  0.4599 -0.7620  0.0081
 6641SOL    HW131559   3.528   1.808   7.145 -1.4595 -3.5884  0.9242
 6641SOL    HW231560   3.611   1.688   7.152  1.1598  0.4621 -2.3384
 6642SOL     OW31561   0.831   2.483  16.513 -0.2115  0.2575  0.5739
 6642SOL    HW131562   0.763   2.484  16.446 -0.1889  0.0569  0.5478
 6642SOL    HW231563   0.804   2.408  16.565 -0.5629  0.2420  0.3656
 6643SOL     OW31564   2.677   3.639  10.589  0.1617 -0.1744  0.0750
 6643SOL    HW131565   2.620   3.706  10.627 -2.8322 -2.2510 -0.8360
 6643SOL    HW231566   2.693   3.674  10.501  0.9995 -0.0942  0.2572
 6644SOL     OW31567   4.337   3.678   9.136 -0.1332  0.1929  0.6011
 6644SOL    HW131568   4.290   3.758   9.111 -2.3506 -0.8086  1.4834
 6644SOL    HW231569   4.330   3.684   9.232  3.2776  0.7919  0.7882
 6645SOL     OW31570   2.334   1.743  12.272  0.5111  0.1875  0.1561
 6645SOL    HW131571   2.259   1.795  12.299 -0.8011 -0.7915 -1.6366
 6645SOL    HW231572   2.399   1.813  12.276  2.9880 -2.1789  1.4528
 6646SOL     OW31573   3.811   0.097   7.206  0.1987 -0.2903  0.1851
 6646SOL    HW131574   3.723   0.087   7.242  0.6309 -0.4186  1.1943
 6646SOL    HW231575   3.799   0.150   7.127  2.1474 -2.0599 -1.2835
 6647SOL     OW31576   4.500   0.675   6.805 -0.6377 -0.6641  0.0781
 6647SOL    HW131577   4.438   0.649   6.737 -1.4511 -0.7451  0.8364
 6647SOL    HW231578   4.531   0.588   6.833 -0.5341 -0.6811 -0.0898
 6648SOL     OW31579   0.250   3.792   8.654 -0.0903  0.2527  0.3765
 6648SOL    HW131580   0.292   3.756   8.576 -1.6159 -2.8862  0.9753
 6648SOL    HW231581   0.176   3.732   8.666  0.3269 -0.3172  0.1137
 6649SOL     OW31582   3.614   1.454   4.719 -0.4157 -0.5121 -0.0713
 6649SOL    HW131583   3.662   1.381   4.759 -0.2942  0.5646  1.7913
 6649SOL    HW231584   3.671   1.482   4.647 -1.5878  0.8216 -0.4815
 6650SOL     OW31585   1.185   2.792  17.493 -0.3100 -0.3741 -0.4467
 6650SOL    HW131586   1.182   2.744  17.575  2.9230  0.8256  0.3652
 6650SOL    HW231587   1.164   2.883  17.513 -0.0134 -0.4558  0.2035
 6651SOL     OW31588   1.932   0.398  17.205 -0.3152  0.3649 -0.2443
 6651SOL    HW131589   1.936   0.381  17.299 -2.5330  0.5328 -0.1061
 6651SOL    HW231590   1.860   0.345  17.170 -0.6618  0.1651  0.7805
 6652SOL     OW31591   1.135   1.681   2.423  0.2160  0.5695  0.3407
 6652SOL    HW131592   1.147   1.710   2.333 -1.6703  1.5112  0.3828
 6652SOL    HW231593   1.204   1.721   2.475  1.5648  1.4184 -2.1342
 6653SOL     OW31594   3.626   4.220   4.658 -0.0109 -0.2045  0.3047
 6653SOL    HW131595   3.679   4.234   4.737  0.6372 -3.2593  0.4085
 6653SOL    HW231596   3.627   4.305   4.614 -0.8903 -0.3133  0.0918
 6654SOL     OW31597   3.986   0.957   5.840 -0.4458  0.5266  0.5309
 6654SOL    HW131598   4.080   0.953   5.859 -0.6705  0.2090  1.5853
 6654SOL    HW231599   3.989   1.030   5.779  0.8386  0.7389  0.8464
 6655SOL     OW31600   0.778   1.740  14.838  0.0918 -0.0505  0.2520
 6655SOL    HW131601   0.868   1.734  14.871  0.6139 -0.7384 -1.3151
 6655SOL    HW231602   0.767   1.648  14.814 -2.5118  0.2900  0.1022
 6656SOL     OW31603   1.634   2.047   5.629  0.1488 -0.0768  0.2245
 6656SOL    HW131604   1.555   2.099   5.625 -0.0846 -0.4327  0.1749
 6656SOL    HW231605   1.645   2.026   5.722  0.2836  0.3619  0.3043
 6657SOL     OW31606   1.722   2.749   8.155 -0.1632 -0.1142 -0.1494
 6657SOL    HW131607   1.810   2.751   8.117 -0.3318  1.7232 -0.4855
 6657SOL    HW231608   1.736   2.820   8.218  1.1736  0.8665 -1.5410
 6658SOL     OW31609   2.351   3.131   1.540  0.0055  0.1923 -0.1967
 6658SOL    HW131610   2.353   3.200   1.606  1.2372  0.2551 -0.2875
 6658SOL    HW231611   2.376   3.058   1.597 -1.1425 -0.2845 -0.3075
 6659SOL     OW31612   2.800   1.516  14.769  0.3707  0.3945 -0.2718
 6659SOL    HW131613   2.794   1.606  14.798 -1.4453  0.0565  0.4006
 6659SOL    HW231614   2.806   1.534  14.675  2.8760  0.0580 -0.1589
 6660SOL     OW31615   2.162   1.730   2.345  0.0233 -0.1186 -0.1090
 6660SOL    HW131616   2.175   1.780   2.425 -2.9255  0.2493  0.1426
 6660SOL    HW231617   2.252   1.707   2.320  0.0987  0.3476 -0.2597
 6661SOL     OW31618   1.479   1.504   5.526 -0.4629 -0.3121 -0.0630
 6661SOL    HW131619   1.571   1.521   5.547  0.0606 -3.8435  0.5493
 6661SOL    HW231620   1.483   1.430   5.466  1.0781 -0.4897  0.2698
 6662SOL     OW31621   1.631   0.515  11.825 -0.4076  0.0240  0.0255
 6662SOL    HW131622   1.684   0.595  11.830  0.7015 -0.6520 -0.9694
 6662SOL    HW231623   1.558   0.530  11.885 -1.8413 -0.9879 -1.4772
 6663SOL     OW31624   0.834   0.785   4.717 -0.1613  0.7937 -0.2266
 6663SOL    HW131625   0.748   0.747   4.736 -0.4580  0.7486 -1.6543
 6663SOL    HW231626   0.862   0.743   4.637  1.0811 -0.9064  1.1060
 6664SOL     OW31627   3.647   3.116   5.421  0.3467 -0.3113  1.0100
 6664SOL    HW131628   3.723   3.148   5.374  0.2044  0.2430  1.1540
 6664SOL    HW231629   3.614   3.056   5.355  0.9673  2.0695 -1.4525
 6665SOL     OW31630   4.064   1.298   6.899 -0.2304 -0.2601  0.3893
 6665SOL    HW131631   4.125   1.371   6.889 -0.6247  0.0098 -0.0618
 6665SOL    HW231632   4.107   1.246   6.966  0.5965 -0.1925 -0.0945
 6666SOL     OW31633   1.118   0.042   5.182 -0.4895 -0.2263  0.6409
 6666SOL    HW131634   1.158   0.105   5.123 -0.8495 -1.1403 -0.5714
 6666SOL    HW231635   1.190   0.012   5.238 -0.5984  0.1341  0.9773
 6667SOL     OW31636   1.995   3.446   8.510  0.1259 -0.6710 -0.1063
 6667SOL    HW131637   2.053   3.520   8.528  0.3196 -0.3373 -2.1076
 6667SOL    HW231638   1.948   3.492   8.441 -0.9562 -1.0073  0.4016
 6668SOL     OW31639   0.067   3.649   7.722 -0.0846  0.3645  0.2334
 6668SOL    HW131640   4.735   3.615   7.776 -1.0191  1.2494 -0.4395
 6668SOL    HW231641   0.080   3.739   7.753 -1.7024  0.7104 -0.0831
 6669SOL     OW31642   2.733   3.684   6.104 -0.0878  0.0187 -1.1026
 6669SOL    HW131643   2.716   3.647   6.018 -0.8795 -2.5447  0.1656
 6669SOL    HW231644   2.647   3.698   6.144 -0.6423 -3.4347 -1.0730
 6670SOL     OW31645   4.205   2.046   9.169 -0.6103  0.1332 -0.3705
 6670SOL    HW131646   4.264   2.102   9.220  0.8356 -0.7017 -1.1260
 6670SOL    HW231647   4.117   2.072   9.196 -0.3931  0.5896 -0.0921
 6671SOL     OW31648   3.286   4.501   3.799 -0.3621 -0.1017  0.3741
 6671SOL    HW131649   3.242   4.452   3.729 -0.7744 -0.6092  0.9876
 6671SOL    HW231650   3.223   4.572   3.812 -1.8598 -2.0179  3.6421
 6672SOL     OW31651   2.868   3.718   2.438 -0.4404  0.7700 -0.0813
 6672SOL    HW131652   2.961   3.707   2.460 -0.1734  3.2440  0.0117
 6672SOL    HW231653   2.832   3.761   2.515  3.5206  1.9223  1.1508
 6673SOL     OW31654   4.131   0.172   6.719 -0.0847 -0.1182 -0.3550
 6673SOL    HW131655   4.225   0.163   6.735 -0.7129  0.2704  3.6278
 6673SOL    HW231656   4.101   0.097   6.771  2.0413 -0.4801  0.3462
 6674SOL     OW31657   0.621   2.075   2.493 -0.4408  0.4843 -0.3077
 6674SOL    HW131658   0.575   2.030   2.423 -0.6307 -1.2561  0.9489
 6674SOL    HW231659   0.569   2.051   2.570  0.4019 -0.2973  0.0179
 6675SOL     OW31660   3.031   0.564   6.717 -0.1263 -0.2086  0.0077
 6675SOL    HW131661   2.981   0.633   6.675 -0.4496  1.0684  2.4602
 6675SOL    HW231662   3.095   0.560   6.646  0.2180  2.3348  0.1740
 6676SOL     OW31663   4.316   1.860   7.008  0.0022 -0.9308  0.5155
 6676SOL    HW131664   4.323   1.870   6.913  0.1924 -1.7289  0.4466
 6676SOL    HW231665   4.399   1.813   7.017 -0.0321 -1.3790 -1.5304
 6677SOL     OW31666   2.845   1.857   5.623 -0.4328 -0.1362 -0.1349
 6677SOL    HW131667   2.775   1.855   5.688  0.1138  0.5281  0.4835
 6677SOL    HW231668   2.925   1.828   5.669 -0.6679  0.5385  0.6994
 6678SOL     OW31669   2.110   2.038   7.006 -0.2082  0.2880  0.1129
 6678SOL    HW131670   2.051   2.108   7.035 -0.3388  0.4801 -0.6340
 6678SOL    HW231671   2.072   2.019   6.920  0.8108 -0.0051 -0.2655
 6679SOL     OW31672   0.981   4.095   6.485 -0.0825  0.0128 -0.4664
 6679SOL    HW131673   1.044   4.055   6.424 -0.3760 -1.5741  0.2752
 6679SOL    HW231674   1.036   4.168   6.513  0.2714 -0.2783 -0.3959
 6680SOL     OW31675   2.900   0.676   5.101  0.0494  0.3152  0.0571
 6680SOL    HW131676   2.854   0.758   5.122  0.5723  0.3062  1.2792
 6680SOL    HW231677   2.961   0.709   5.035 -0.4272 -1.8634 -1.4622
 6681SOL     OW31678   2.219   4.009   6.193 -0.0844 -0.5884 -0.5002
 6681SOL    HW131679   2.183   3.998   6.280  0.5230 -0.4942 -0.2377
 6681SOL    HW231680   2.175   4.089   6.163 -0.8785 -1.4838 -1.7556
 6682SOL     OW31681   2.268   1.028   2.578 -0.5784  0.4305 -0.0375
 6682SOL    HW131682   2.225   0.949   2.611  1.7476 -1.1947 -0.9237
 6682SOL    HW231683   2.314   0.992   2.501 -0.8732  0.5993 -0.2931
 6683SOL     OW31684   1.939   3.788   6.409  0.5246 -0.1051  0.3302
 6683SOL    HW131685   1.899   3.770   6.324  0.3852  0.0493  0.3630
 6683SOL    HW231686   2.014   3.729   6.403 -0.2527 -1.0648  0.0585
 6684SOL     OW31687   3.581   0.511  13.708 -0.1021 -0.3467  0.0501
 6684SOL    HW131688   3.664   0.472  13.680 -0.3912 -0.9761  0.0600
 6684SOL    HW231689   3.581   0.467  13.793 -1.0470 -0.1225  0.1727
 6685SOL     OW31690   2.891   2.106   5.286  0.2710  0.0613 -0.3816
 6685SOL    HW131691   2.850   2.059   5.213  1.7501 -0.6823 -0.7307
 6685SOL    HW231692   2.965   2.136   5.233 -0.5432 -0.2835 -1.7141
 6686SOL     OW31693   3.324   4.532  13.330  0.1737 -0.1663  0.2282
 6686SOL    HW131694   3.411   4.504  13.299  0.6404  0.1667  1.2320
 6686SOL    HW231695   3.276   4.449  13.331  0.7833 -0.4937  2.4400
 6687SOL     OW31696   1.704   3.906   0.981  0.6716  0.4464  0.0757
 6687SOL    HW131697   1.762   3.833   1.005 -0.7425 -0.9467 -0.7269
 6687SOL    HW231698   1.664   3.875   0.900  0.1645 -1.5346  1.0774
 6688SOL     OW31699   2.348   0.980   8.832 -0.4012 -0.0489 -0.0408
 6688SOL    HW131700   2.327   1.066   8.794 -3.0142 -0.1103  1.3420
 6688SOL    HW231701   2.291   0.985   8.908  0.8780  0.8784  0.8498
 6689SOL     OW31702   4.375   4.617   7.752 -0.0141 -0.4336 -0.5483
 6689SOL    HW131703   4.372   4.712   7.764  3.7764 -0.4134  0.3353
 6689SOL    HW231704   4.328   4.589   7.831  2.5523 -2.4272  0.2513
 6690SOL     OW31705   0.576   0.730   4.902 -0.3878  0.2817  0.1115
 6690SOL    HW131706   0.535   0.708   4.818  1.8425 -3.7239  0.0281
 6690SOL    HW231707   0.615   0.644   4.919 -1.5115 -0.3962 -0.6852
 6691SOL     OW31708   2.406   0.708   8.401  0.5437  0.1394 -0.6238
 6691SOL    HW131709   2.326   0.750   8.432 -1.4537 -1.5782 -3.3697
 6691SOL    HW231710   2.451   0.675   8.478 -1.0468  1.6381  0.9260
 6692SOL     OW31711   4.411   0.287   4.090  0.1045 -0.3899  0.3953
 6692SOL    HW131712   4.399   0.369   4.041 -1.4371 -1.2858 -0.6911
 6692SOL    HW231713   4.323   0.251   4.099 -0.5994  1.2187  0.0137
 6693SOL     OW31714   1.379   4.688   9.983  0.2695  0.1406 -0.3951
 6693SOL    HW131715   1.352   4.717   9.895  1.6295  0.1842 -0.7925
 6693SOL    HW231716   1.294   4.695  10.026  1.2941 -0.2045  1.6609
 6694SOL     OW31717   2.616   3.180   3.143  0.1739 -0.6513  0.5365
 6694SOL    HW131718   2.702   3.222   3.144 -0.0408 -0.1865 -2.7817
 6694SOL    HW231719   2.603   3.156   3.235  1.3445 -0.7008  0.6844
 6695SOL     OW31720   3.969   1.279  16.372 -0.2671  0.3202  0.0183
 6695SOL    HW131721   3.985   1.187  16.394 -0.0091  0.3442 -0.0757
 6695SOL    HW231722   3.946   1.266  16.280 -0.6246  1.6780 -0.0827
 6696SOL     OW31723   0.190   2.207   6.595  0.3975  0.6328 -0.3991
 6696SOL    HW131724   0.165   2.119   6.569  0.8959  0.3808 -0.0224
 6696SOL    HW231725   0.182   2.251   6.511 -2.2699  1.9884  0.5521
 6697SOL     OW31726   1.980   4.690  14.744  0.2436  0.1161 -0.2747
 6697SOL    HW131727   2.044   0.009  14.786  1.0530 -1.0072  0.0505
 6697SOL    HW231728   1.908   4.697  14.807 -0.8545  1.2153 -1.6506
 6698SOL     OW31729   0.435   1.015  17.606 -0.5526  0.3265  0.3128
 6698SOL    HW131730   0.358   0.962  17.627  1.0424 -2.0222  0.2176
 6698SOL    HW231731   0.407   1.046  17.520  1.0517  1.3306  0.1464
 6699SOL     OW31732   4.369   3.964   8.784 -0.3861  0.0376  0.2669
 6699SOL    HW131733   4.456   4.003   8.769  0.8720 -2.3589  1.3940
 6699SOL    HW231734   4.390   3.877   8.750  0.6011 -0.6673  2.6844
 6700SOL     OW31735   1.446   3.576   5.202 -0.2854  0.1845  0.2724
 6700SOL    HW131736   1.505   3.600   5.131 -2.1847  0.5722 -1.1844
 6700SOL    HW231737   1.510   3.542   5.264 -1.5830 -0.6774  1.1454
 6701SOL     OW31738   4.416   4.264   2.574 -0.5387 -0.2839 -0.5556
 6701SOL    HW131739   4.441   4.356   2.587 -2.8048  0.1850  0.3655
 6701SOL    HW231740   4.478   4.211   2.625 -1.4158 -0.4895  0.2881
 6702SOL     OW31741   2.632   1.752   7.086 -0.6250 -0.3890 -0.4486
 6702SOL    HW131742   2.557   1.767   7.144 -0.8816  1.3308 -1.2304
 6702SOL    HW231743   2.609   1.801   7.007 -0.2603  0.3877 -0.0674
 6703SOL     OW31744   2.438   2.833  10.796 -0.0914 -0.3679  0.0799
 6703SOL    HW131745   2.503   2.866  10.858 -0.5794 -0.3381  0.5719
 6703SOL    HW231746   2.462   2.740  10.800 -2.9577 -1.1639 -0.8291
 6704SOL     OW31747   2.328   1.256  17.313 -0.0846  0.2198 -0.2462
 6704SOL    HW131748   2.271   1.237  17.239 -0.3997 -2.4910  0.7069
 6704SOL    HW231749   2.384   1.327  17.280 -0.1234  0.2668 -0.2116
 6705SOL     OW31750   1.954   0.649  15.159  0.0293 -0.2798 -0.4883
 6705SOL    HW131751   2.042   0.687  15.160 -0.8351  1.6646  1.4479
 6705SOL    HW231752   1.926   0.658  15.250 -0.1893 -2.6405 -0.3341
 6706SOL     OW31753   2.810   3.039   5.134  0.2907 -0.1650  0.0208
 6706SOL    HW131754   2.819   2.995   5.049 -0.8720  2.1394 -1.2947
 6706SOL    HW231755   2.779   3.124   5.102  0.1698 -0.7677 -1.4282
 6707SOL     OW31756   0.217   2.777   0.213  0.3165  0.2561  0.0520
 6707SOL    HW131757   0.171   2.785   0.129 -0.7233 -2.5489  0.3661
 6707SOL    HW231758   0.238   2.684   0.222  0.5554  0.0740 -2.2888
 6708SOL     OW31759   3.112   2.807   1.740  0.3903 -0.5367  0.7525
 6708SOL    HW131760   3.128   2.899   1.720  2.1137 -1.1193 -0.5769
 6708SOL    HW231761   3.112   2.811   1.836  0.9281  2.7694  0.5972
 6709SOL     OW31762   1.222   2.264  15.868  0.3484 -0.1237  0.1425
 6709SOL    HW131763   1.149   2.314  15.831 -0.7623 -2.6630 -1.1359
 6709SOL    HW231764   1.282   2.335  15.890 -1.6056  1.0148  1.7578
 6710SOL     OW31765   1.104   1.315   5.896 -0.3665  0.5756 -0.0866
 6710SOL    HW131766   1.063   1.245   5.844 -0.2450 -0.6349  1.4712
 6710SOL    HW231767   1.112   1.385   5.831  2.4256  0.5257  0.2347
 6711SOL     OW31768   4.008   3.095   4.086 -0.2726 -0.1721 -0.7551
 6711SOL    HW131769   3.978   3.128   4.171 -1.1875 -1.3025 -0.6443
 6711SOL    HW231770   4.101   3.084   4.103 -0.7371  0.0311  2.0548
 6712SOL     OW31771   3.584   4.041   5.293 -0.6347 -1.2912  0.4620
 6712SOL    HW131772   3.584   4.020   5.387  5.1276  0.8609  0.9550
 6712SOL    HW231773   3.594   3.958   5.247 -0.7046  0.1380 -2.0828
 6713SOL     OW31774   3.570   1.577  16.548  0.1350 -0.0380 -0.0216
 6713SOL    HW131775   3.496   1.629  16.518 -0.4916 -0.8154  0.1617
 6713SOL    HW231776   3.533   1.491  16.526  1.7332 -0.1857 -2.0859
 6714SOL     OW31777   4.356   4.518  14.383  0.0689  0.3394  0.0725
 6714SOL    HW131778   4.299   4.489  14.312 -1.2566  1.6185  0.6019
 6714SOL    HW231779   4.378   4.428  14.407  1.5226  0.1987 -1.8016
 6715SOL     OW31780   3.148   0.427  15.862  1.1033  0.0402  0.4832
 6715SOL    HW131781   3.169   0.424  15.769 -0.3975 -1.3047  0.2008
 6715SOL    HW231782   3.214   0.369  15.901  0.1499 -2.0087 -0.9975
 6716SOL     OW31783   3.960   2.718   8.280  0.0613 -0.0079 -0.3112
 6716SOL    HW131784   3.971   2.623   8.281 -1.0524 -0.0804  2.8639
 6716SOL    HW231785   4.041   2.748   8.239 -0.3588 -0.0115 -1.1582
 6717SOL     OW31786   0.578   3.823   8.909 -0.3217  0.0195  0.4816
 6717SOL    HW131787   0.489   3.831   8.943 -1.1623  1.1604 -2.0313
 6717SOL    HW231788   0.584   3.730   8.930 -1.9183 -0.5191 -1.4614
 6718SOL     OW31789   1.100   2.211   3.706  0.9067  0.1943 -0.2923
 6718SOL    HW131790   1.032   2.165   3.754  0.7419  1.1804  0.4197
 6718SOL    HW231791   1.155   2.138   3.678 -0.7187 -1.3800  0.6168
 6719SOL     OW31792   1.763   3.414   6.235  0.7242  0.4269 -0.3090
 6719SOL    HW131793   1.710   3.486   6.200 -0.7694  0.1240  1.3626
 6719SOL    HW231794   1.698   3.344   6.245  2.0527 -0.7651 -0.0098
 6720SOL     OW31795   1.577   3.953   2.783 -0.4389 -0.4213 -0.3757
 6720SOL    HW131796   1.504   3.971   2.843 -1.6990 -1.3752 -1.6307
 6720SOL    HW231797   1.548   3.865   2.760  1.7397 -0.9108 -1.1785
 6721SOL     OW31798   1.161   1.641  17.554  0.1572  0.4370 -0.8715
 6721SOL    HW131799   1.129   1.632  17.644  0.6240 -1.2865 -0.8776
 6721SOL    HW231800   1.187   1.733  17.552  1.5985  0.0118 -2.2438
 6722SOL     OW31801   2.166   3.647   6.388 -0.0993 -0.1493 -0.1337
 6722SOL    HW131802   2.226   3.573   6.381  0.0403  0.0044 -0.5769
 6722SOL    HW231803   2.211   3.703   6.451  0.7846 -0.2647 -0.6620
 6723SOL     OW31804   0.351   3.179   3.329  0.0821 -0.3675  0.2528
 6723SOL    HW131805   0.394   3.259   3.359 -0.4303  0.3051 -0.8418
 6723SOL    HW231806   0.422   3.135   3.281  0.1172 -1.2538  1.1053
 6724SOL     OW31807   4.476   3.772   3.568  0.2300  0.1487 -0.4331
 6724SOL    HW131808   4.479   3.793   3.661 -0.6776  0.3890 -0.4615
 6724SOL    HW231809   4.511   3.684   3.579 -1.6390 -0.8863 -2.8250
 6725SOL     OW31810   4.620   4.132   2.764 -0.2044  0.1063  0.8684
 6725SOL    HW131811   4.694   4.120   2.824  0.6727 -0.2184 -0.2681
 6725SOL    HW231812   4.558   4.177   2.821  0.4701  0.6556  1.1687
 6726SOL     OW31813   2.132   3.379   7.374  0.6093  0.3263 -0.0050
 6726SOL    HW131814   2.108   3.419   7.458 -0.2909 -0.4162  0.0822
 6726SOL    HW231815   2.046   3.370   7.333  0.8789 -3.2057  0.2677
 6727SOL     OW31816   3.150   4.340   8.383  0.1315  0.1581 -0.1772
 6727SOL    HW131817   3.201   4.322   8.304 -0.5587  2.2854 -1.1098
 6727SOL    HW231818   3.063   4.318   8.350 -0.5709  1.2609  0.9579
 6728SOL     OW31819   1.046   3.031  14.391  0.2512 -0.1814 -0.5574
 6728SOL    HW131820   1.039   3.097  14.322  0.8677 -0.3594 -0.7880
 6728SOL    HW231821   1.129   2.999  14.355 -0.4195  1.3703 -3.4492
 6729SOL     OW31822   4.098   2.025   3.904  0.2136  0.4891 -0.6209
 6729SOL    HW131823   4.037   2.096   3.887  0.6184  0.6768 -1.2806
 6729SOL    HW231824   4.049   1.943   3.896 -1.7791  1.9294 -2.9507
 6730SOL     OW31825   0.072   1.947   6.528 -0.0122 -0.6683 -0.6668
 6730SOL    HW131826   0.039   1.917   6.443 -1.9206 -1.3938  0.3231
 6730SOL    HW231827   0.154   1.898   6.529  1.0048  1.0352 -0.3904
 6731SOL     OW31828   2.929   0.306   2.038  0.5356  0.1244  0.2978
 6731SOL    HW131829   2.839   0.285   2.015  1.4725  1.2743 -4.3917
 6731SOL    HW231830   2.962   0.255   1.964 -1.1053 -2.8022  1.5916
 6732SOL     OW31831   3.994   0.789  12.004  0.1594  0.1259 -0.1081
 6732SOL    HW131832   3.941   0.796  11.925 -1.1246  1.2556  0.8578
 6732SOL    HW231833   3.980   0.875  12.044  0.6299  0.4144 -0.5700
 6733SOL     OW31834   2.539   3.935  12.516  0.2996  0.5279 -0.1860
 6733SOL    HW131835   2.572   3.983  12.440  1.2560  0.9612  0.4987
 6733SOL    HW231836   2.499   3.860  12.471  0.8107 -0.9015  1.7510
 6734SOL     OW31837   4.639   2.271   1.567  0.5332  0.3838 -0.5311
 6734SOL    HW131838   4.698   2.214   1.616 -1.9183 -0.4624  1.4663
 6734SOL    HW231839   4.596   2.210   1.507 -1.3259  1.5323 -0.3689
 6735SOL     OW31840   4.681   3.322  15.010 -0.1399 -0.0230 -0.1382
 6735SOL    HW131841   4.737   3.358  15.078 -1.5998 -1.3606  1.7962
 6735SOL    HW231842   4.664   3.390  14.945 -1.8069 -2.1284 -1.9148
 6736SOL     OW31843   3.170   1.801   5.408 -0.0204  0.2912 -0.0912
 6736SOL    HW131844   3.209   1.863   5.347  0.9462  0.2835  0.5236
 6736SOL    HW231845   3.098   1.851   5.448 -0.2902 -1.7266  1.9794
 6737SOL     OW31846   4.512   0.055   3.007 -0.0171 -0.5711  0.3576
 6737SOL    HW131847   4.493   0.120   3.074 -1.3317  0.3596 -0.9259
 6737SOL    HW231848   4.511   0.111   2.929  0.0475 -1.0245  0.0279
 6738SOL     OW31849   0.894   0.563   9.545 -0.9830  0.1303 -0.0897
 6738SOL    HW131850   0.889   0.611   9.462 -1.3892 -0.7213 -0.5617
 6738SOL    HW231851   0.830   0.604   9.602 -1.8519 -1.0513 -0.2031
 6739SOL     OW31852   3.695   1.822   3.130  0.2494  0.0522 -0.1428
 6739SOL    HW131853   3.753   1.843   3.057  1.4959 -0.2808  0.7528
 6739SOL    HW231854   3.707   1.895   3.192 -1.3193  1.3018 -1.3173
 6740SOL     OW31855   2.992   1.467  16.973  0.4598  0.6529 -0.3787
 6740SOL    HW131856   2.906   1.425  16.969  0.9973 -0.4144 -0.7439
 6740SOL    HW231857   3.046   1.397  17.010  0.4407  0.7918 -0.0894
 6741SOL     OW31858   2.191   3.559   3.461 -0.0713 -0.1300  0.6476
 6741SOL    HW131859   2.234   3.476   3.440 -1.1056 -0.9532  1.8287
 6741SOL    HW231860   2.180   3.594   3.373 -1.0117  3.5706  2.2361
 6742SOL     OW31861   0.951   3.502   5.084 -0.3414 -0.4497 -0.4922
 6742SOL    HW131862   0.886   3.479   5.150  2.1727 -1.7779  1.4924
 6742SOL    HW231863   1.006   3.569   5.126 -1.2823 -1.3108  2.0850
 6743SOL     OW31864   1.148   1.548  12.140 -0.4931 -0.1904 -0.2381
 6743SOL    HW131865   1.234   1.557  12.181 -0.3272 -0.9401 -0.4309
 6743SOL    HW231866   1.089   1.590  12.203 -0.3126  3.1348 -2.2523
 6744SOL     OW31867   2.007   0.501   3.287  0.3984 -0.4523  0.8643
 6744SOL    HW131868   1.931   0.448   3.311  1.5620 -3.2974 -1.7490
 6744SOL    HW231869   2.001   0.567   3.357 -0.1372 -0.6408  1.0001
 6745SOL     OW31870   0.101   3.112  10.592 -0.2243  0.0730 -0.4473
 6745SOL    HW131871   0.084   3.201  10.625  1.9555  1.2461 -2.4350
 6745SOL    HW231872   0.082   3.053  10.664  0.8051  0.5579  0.2320
 6746SOL     OW31873   4.620   2.529   1.573 -0.0476 -0.5645  0.2474
 6746SOL    HW131874   4.634   2.434   1.573  1.1562 -0.4042 -1.6749
 6746SOL    HW231875   4.552   2.528   1.506  0.4653  2.2587 -0.3429
 6747SOL     OW31876   4.462   3.673   9.744  0.1325  0.1445 -0.3108
 6747SOL    HW131877   4.455   3.741   9.677  0.5056  0.2093 -0.2852
 6747SOL    HW231878   4.421   3.595   9.705  0.4623 -0.4273  0.4796
 6748SOL     OW31879   1.202   3.660   5.132 -0.4666  0.2804  0.2747
 6748SOL    HW131880   1.239   3.730   5.079 -0.4474  0.1485  0.1127
 6748SOL    HW231881   1.280   3.621   5.171 -0.2531  2.0758  1.6020
 6749SOL     OW31882   2.394   2.684  13.364 -0.2398  0.1606  0.1381
 6749SOL    HW131883   2.404   2.684  13.268 -1.2176  2.4813  0.0342
 6749SOL    HW231884   2.298   2.684  13.370 -0.2184 -0.9080  0.4041
 6750SOL     OW31885   0.436   3.264   1.729  0.3238 -0.0103  0.1315
 6750SOL    HW131886   0.416   3.320   1.654  1.5234 -0.3777 -0.4642
 6750SOL    HW231887   0.519   3.306   1.751  0.3172  1.1210 -2.0624
 6751SOL     OW31888   3.959   4.077  17.085 -0.6678  0.0738 -0.5056
 6751SOL    HW131889   3.907   3.997  17.073 -2.5661  1.0795  0.9892
 6751SOL    HW231890   3.947   4.125  17.004 -1.9280 -1.0772 -0.9992
 6752SOL     OW31891   1.996   1.083   8.597  0.2138  0.6173 -0.1935
 6752SOL    HW131892   1.989   0.990   8.618  1.0204  0.5847 -0.0863
 6752SOL    HW231893   1.972   1.078   8.504 -0.3809  0.4565 -0.0338
 6753SOL     OW31894   0.390   3.237   7.123  1.0013 -0.0266  0.2742
 6753SOL    HW131895   0.354   3.227   7.035  2.8445 -0.2267 -0.4652
 6753SOL    HW231896   0.454   3.166   7.132  0.4534 -0.3627  1.5318
 6754SOL     OW31897   3.638   0.867   9.408 -0.3482 -0.2910 -0.4777
 6754SOL    HW131898   3.638   0.942   9.468 -0.7735 -1.7272  1.3301
 6754SOL    HW231899   3.728   0.835   9.414 -0.5248 -0.7527 -0.1954
 6755SOL     OW31900   3.433   4.299   7.430 -0.5133  0.0624 -0.3419
 6755SOL    HW131901   3.470   4.227   7.379 -1.4220  0.5312 -1.6619
 6755SOL    HW231902   3.513   4.327   7.474 -0.5138 -0.0811 -0.2523
 6756SOL     OW31903   2.410   2.723   5.901  0.2745  0.2817 -0.7696
 6756SOL    HW131904   2.499   2.692   5.920 -0.2953  0.0747  1.5762
 6756SOL    HW231905   2.423   2.813   5.871  2.1297  1.2045  2.8342
 6757SOL     OW31906   2.335   0.730   7.898 -0.1125 -0.2105 -0.4259
 6757SOL    HW131907   2.394   0.803   7.920 -1.0423  0.8840 -1.5505
 6757SOL    HW231908   2.337   0.678   7.978  1.0024 -0.6112 -0.7093
 6758SOL     OW31909   4.276   2.788   3.404  0.1968 -1.1040  0.1663
 6758SOL    HW131910   4.350   2.740   3.368  0.1189 -0.4257 -0.8872
 6758SOL    HW231911   4.248   2.833   3.324 -4.5416 -2.3021  1.1300
 6759SOL     OW31912   3.920   4.007  17.550  0.5189 -0.1102 -0.0287
 6759SOL    HW131913   4.008   3.987  17.518 -0.2499  0.9157 -2.8050
 6759SOL    HW231914   3.899   4.086  17.499 -0.2524 -0.7420 -0.6937
 6760SOL     OW31915   3.563   4.072   8.617 -0.1290  0.3167 -0.2574
 6760SOL    HW131916   3.602   4.014   8.551 -0.1919  0.7834 -0.7039
 6760SOL    HW231917   3.488   4.119   8.580 -0.5622 -0.1530  0.0275
 6761SOL     OW31918   3.374   4.528  14.410 -0.8690 -0.2353 -0.2793
 6761SOL    HW131919   3.386   4.595  14.478 -2.7810  0.6605 -0.8223
 6761SOL    HW231920   3.460   4.527  14.367 -0.7179 -0.5427  0.0250
 6762SOL     OW31921   0.028   0.192   6.814 -0.4427  0.4294  0.0019
 6762SOL    HW131922   4.736   0.108   6.848  2.1647 -1.3385 -1.9746
 6762SOL    HW231923   0.096   0.156   6.757  0.7149  0.8812  1.0925
 6763SOL     OW31924   3.017   1.075  12.505 -0.2864  0.1621 -0.4000
 6763SOL    HW131925   2.985   1.046  12.420  1.8666  2.5535 -1.9914
 6763SOL    HW231926   3.104   1.107  12.482  0.3556 -0.8210  0.6412
 6764SOL     OW31927   0.704   0.633  10.774  0.5247  0.2276 -0.0490
 6764SOL    HW131928   0.692   0.709  10.831  0.0840 -0.2609  0.5125
 6764SOL    HW231929   0.713   0.560  10.834 -0.8000 -2.1987 -2.7961
 6765SOL     OW31930   1.805   1.459   3.115 -1.3864  0.1002  0.4414
 6765SOL    HW131931   1.794   1.389   3.180  0.0033 -0.1761  0.3845
 6765SOL    HW231932   1.717   1.474   3.080 -0.8958 -1.5708 -1.4632
 6766SOL     OW31933   2.542   3.064   6.079  0.0939 -0.0121  0.0514
 6766SOL    HW131934   2.635   3.074   6.059  0.7307 -3.2783  1.3470
 6766SOL    HW231935   2.503   3.073   5.992 -0.6801 -3.5861  0.0205
 6767SOL     OW31936   4.574   3.366   0.330  0.4861  0.4425 -0.0788
 6767SOL    HW131937   4.513   3.330   0.394 -0.1151 -0.3373 -1.0848
 6767SOL    HW231938   4.579   3.296   0.265  1.0197  0.4572 -0.0588
 6768SOL     OW31939   2.054   1.869  11.591  0.0021  0.0622 -0.4734
 6768SOL    HW131940   2.048   1.790  11.645  0.4367  0.4910  0.2058
 6768SOL    HW231941   1.984   1.919  11.634  1.1159  1.5817 -0.4309
 6769SOL     OW31942   2.370   4.341   8.747  0.4165  0.2905 -0.1132
 6769SOL    HW131943   2.302   4.276   8.766  1.1695  0.3102  2.5220
 6769SOL    HW231944   2.435   4.288   8.699 -0.4846  1.1332 -2.2656
 6770SOL     OW31945   0.700   1.699   6.314 -0.3335  0.2352  0.2368
 6770SOL    HW131946   0.624   1.643   6.330 -0.4964  0.4933  0.3740
 6770SOL    HW231947   0.733   1.665   6.231 -1.4113 -3.6408  1.4104
 6771SOL     OW31948   0.940   3.252   5.025 -0.4101 -0.1609  0.1984
 6771SOL    HW131949   0.916   3.259   4.933  2.0428 -0.4569 -0.4405
 6771SOL    HW231950   0.936   3.345   5.048  1.8897 -0.9150  3.6947
 6772SOL     OW31951   0.965   3.701   4.470 -0.0529 -0.1461  0.2886
 6772SOL    HW131952   1.049   3.658   4.487  0.7040  0.0550 -2.9228
 6772SOL    HW231953   1.000   3.771   4.415 -2.4707  0.0556 -0.9844
 6773SOL     OW31954   1.123   2.604   9.096  0.0700  0.0839 -0.5849
 6773SOL    HW131955   1.147   2.621   9.187 -0.5490  1.4064 -0.6754
 6773SOL    HW231956   1.207   2.560   9.078  0.0025 -0.1450 -0.3469
 6774SOL     OW31957   2.192   3.817   2.395 -0.2594 -0.1545 -0.0768
 6774SOL    HW131958   2.164   3.789   2.308 -1.3705  1.3437 -0.2022
 6774SOL    HW231959   2.212   3.909   2.380  1.4433 -0.1705  2.0633
 6775SOL     OW31960   1.194   4.393   7.502  0.1708 -0.3485 -0.1912
 6775SOL    HW131961   1.155   4.348   7.427  2.1756 -0.2449 -1.3012
 6775SOL    HW231962   1.143   4.381   7.582  0.3648 -3.6772 -0.5600
 6776SOL     OW31963   4.079   2.932  10.127  0.5168 -0.0217 -0.2730
 6776SOL    HW131964   4.069   2.996  10.057 -1.9961 -1.2848 -1.0735
 6776SOL    HW231965   4.168   2.903  10.109  0.1845 -0.1387 -1.6908
 6777SOL     OW31966   4.348   4.701   8.289 -0.5855 -0.3793 -0.1169
 6777SOL    HW131967   4.436   4.673   8.314 -1.1161 -1.4699  0.5265
 6777SOL    HW231968   4.300   4.655   8.357  0.0861  1.5643  1.6717
 6778SOL     OW31969   2.854   1.500  14.208  0.0367  0.5227  0.2049
 6778SOL    HW131970   2.911   1.557  14.261  2.1213 -0.2322 -1.2365
 6778SOL    HW231971   2.908   1.425  14.185  0.1428  0.6522  0.0322
 6779SOL     OW31972   2.797   1.158   8.619  0.0341  0.1161  0.3323
 6779SOL    HW131973   2.805   1.134   8.712 -0.7041 -0.5430  0.2296
 6779SOL    HW231974   2.772   1.072   8.585 -0.8332 -0.5540  2.6392
 6780SOL     OW31975   0.548   2.948   1.402 -0.2275 -0.0891  0.7945
 6780SOL    HW131976   0.535   3.042   1.412 -0.0252  0.1861 -1.4308
 6780SOL    HW231977   0.542   2.909   1.489  0.2162  0.4810  1.0774
 6781SOL     OW31978   3.418   0.289   2.217  0.9193  0.1029  0.0998
 6781SOL    HW131979   3.345   0.346   2.240  1.9236  1.6558 -0.5743
 6781SOL    HW231980   3.377   0.216   2.262 -0.7219  0.5030 -0.7453
 6782SOL     OW31981   2.093   2.783  12.113  0.0032 -0.2736 -0.0754
 6782SOL    HW131982   2.078   2.710  12.173 -1.3456 -1.5291 -1.9725
 6782SOL    HW231983   2.031   2.852  12.138 -0.5379 -0.4458 -0.9541
 6783SOL     OW31984   0.291   4.181  16.971 -0.2459 -0.4641 -0.1638
 6783SOL    HW131985   0.252   4.206  16.887  0.7873  0.0585 -0.4952
 6783SOL    HW231986   0.329   4.265  16.999  2.9541 -0.4524 -4.5120
 6784SOL     OW31987   1.545   3.332   7.436 -0.3964 -0.6857  0.1483
 6784SOL    HW131988   1.570   3.382   7.358 -0.9078 -0.1075  0.3634
 6784SOL    HW231989   1.457   3.360   7.458 -0.2620  0.5410 -0.9135
 6785SOL     OW31990   0.486   1.657   5.117 -0.5811 -0.0751  0.0563
 6785SOL    HW131991   0.511   1.571   5.151  1.6675  0.6691  0.3024
 6785SOL    HW231992   0.571   1.691   5.088 -0.5447  1.9261  2.5095
 6786SOL     OW31993   1.453   2.741   8.404 -0.1778 -0.1838 -0.0174
 6786SOL    HW131994   1.419   2.828   8.423 -1.0951 -1.0384  2.1442
 6786SOL    HW231995   1.548   2.740   8.415 -0.2744 -1.4970  0.7023
 6787SOL     OW31996   0.962   1.103   7.519 -0.4262 -0.1069  0.5380
 6787SOL    HW131997   0.901   1.080   7.449 -0.6642 -1.1324  1.0800
 6787SOL    HW231998   1.022   1.158   7.469 -0.2670 -0.5979  0.1816
 6788SOL     OW31999   3.019   0.798   2.349  0.1293 -0.0386 -0.0488
 6788SOL    HW132000   2.936   0.766   2.385  0.0363  1.6887  1.2736
 6788SOL    HW232001   3.009   0.892   2.368  0.4183  0.0886 -0.5380
 6789SOL     OW32002   1.059   3.900  14.595 -0.0011  0.0741  0.4820
 6789SOL    HW132003   0.984   3.875  14.540  0.3863 -0.2484  0.1023
 6789SOL    HW232004   1.073   3.808  14.618 -2.6356  0.5193  3.8930
 6790SOL     OW32005   1.600   3.055   7.298  0.5215  0.1169  0.0762
 6790SOL    HW132006   1.592   3.109   7.219 -0.4429 -0.4283 -0.2053
 6790SOL    HW232007   1.518   3.004   7.298 -0.2493  1.3538  0.0811
 6791SOL     OW32008   0.559   2.899   1.664 -0.3113  0.5652  0.3841
 6791SOL    HW132009   0.610   2.934   1.737 -0.6718  0.7630  0.5423
 6791SOL    HW232010   0.474   2.937   1.686 -0.3641  0.1468  0.8890
 6792SOL     OW32011   2.236   3.775   7.598 -0.1819  0.0041 -0.3205
 6792SOL    HW132012   2.246   3.729   7.514  0.9073 -0.8040  0.2423
 6792SOL    HW232013   2.175   3.844   7.572 -0.3343 -0.1113 -0.2684
 6793SOL     OW32014   2.394   3.816   6.132 -0.7021  0.2334  0.0776
 6793SOL    HW132015   2.433   3.865   6.060  0.3550  0.4509  0.8058
 6793SOL    HW232016   2.311   3.863   6.133 -0.4662  0.6219  2.1188
 6794SOL     OW32017   2.517   0.012   7.252  0.4220 -0.1997 -0.4194
 6794SOL    HW132018   2.532   0.027   7.159  0.3366 -1.5196 -0.6505
 6794SOL    HW232019   2.604   0.009   7.291  0.1883  0.7164  0.1659
 6795SOL     OW32020   1.072   1.677   6.085 -0.3140  0.0066  0.2269
 6795SOL    HW132021   0.983   1.647   6.067 -0.0828 -1.1799  1.1055
 6795SOL    HW232022   1.062   1.738   6.158  2.2297 -1.0471  1.4400
 6796SOL     OW32023   4.561   4.411  17.156 -0.0689 -0.5677 -1.2257
 6796SOL    HW132024   4.611   4.394  17.076  0.4314  0.0118 -1.0369
 6796SOL    HW232025   4.471   4.408  17.126 -0.7649 -2.2675  0.9938
 6797SOL     OW32026   3.374   0.848  16.242 -0.6763 -0.4947  0.5089
 6797SOL    HW132027   3.440   0.830  16.175 -1.4695 -1.3362 -0.0442
 6797SOL    HW232028   3.308   0.791  16.203 -0.6547 -0.3592  0.2772
 6798SOL     OW32029   1.010   1.401  13.172 -0.4315 -0.0027  0.2105
 6798SOL    HW132030   1.084   1.443  13.128  0.5805 -0.3569  1.5601
 6798SOL    HW232031   1.048   1.372  13.255  0.6559 -0.2671 -0.3843
 6799SOL     OW32032   2.217   2.755  11.074 -0.2431 -0.0158 -0.0454
 6799SOL    HW132033   2.191   2.766  11.166 -0.7528 -1.4988 -0.0118
 6799SOL    HW232034   2.225   2.660  11.069  0.4656  0.0648 -0.3731
 6800SOL     OW32035   4.254   0.008   2.919  0.6293 -0.5541  0.3394
 6800SOL    HW132036   4.338   4.738   2.963  1.4764  0.4567 -1.0382
 6800SOL    HW232037   4.206   4.669   2.944 -0.3513  0.1937  0.8068
 6801SOL     OW32038   2.594   2.352   7.304 -0.4885 -0.0761 -0.5409
 6801SOL    HW132039   2.499   2.336   7.301 -0.2787 -1.5975  0.9755
 6801SOL    HW232040   2.610   2.414   7.376 -0.2553 -1.1756  0.3569
 6802SOL     OW32041   2.111   2.537  16.311 -0.0182 -0.1188  0.0345
 6802SOL    HW132042   2.201   2.527  16.345  0.0522  1.9790  0.4865
 6802SOL    HW232043   2.092   2.628  16.337 -0.3240 -0.0215 -0.5308
 6803SOL     OW32044   4.028   1.122   1.920 -0.2965 -0.5077 -0.3017
 6803SOL    HW132045   3.991   1.071   1.848 -1.4840 -0.1166  0.0375
 6803SOL    HW232046   3.968   1.113   1.993  0.3594 -0.1556  0.2840
 6804SOL     OW32047   3.500   4.183  12.018 -0.0971 -0.2199  0.6560
 6804SOL    HW132048   3.422   4.191  11.962  0.0968 -1.9259  0.1575
 6804SOL    HW232049   3.553   4.124  11.965 -1.3252  1.6269 -2.7234
 6805SOL     OW32050   0.983   3.812   6.075 -0.4209  0.1791  0.7988
 6805SOL    HW132051   1.000   3.872   6.147 -1.3025  0.5062  0.7399
 6805SOL    HW232052   0.980   3.864   5.994  2.4926 -0.4060  0.3237
 6806SOL     OW32053   0.319   0.827   1.919 -0.2804  0.0310 -0.3319
 6806SOL    HW132054   0.313   0.884   1.842  3.4430 -1.0128 -1.3751
 6806SOL    HW232055   0.239   0.774   1.917 -1.1935  1.5499 -4.3059
 6807SOL     OW32056   3.474   2.451   4.431 -0.4649 -0.0903 -0.2508
 6807SOL    HW132057   3.502   2.472   4.342 -2.1139 -2.3126 -1.2998
 6807SOL    HW232058   3.450   2.358   4.424  1.8089 -0.7201  0.3197
 6808SOL     OW32059   1.616   2.101   7.429 -0.5740  0.4714 -0.7011
 6808SOL    HW132060   1.705   2.079   7.403 -1.1626 -1.2348 -1.2342
 6808SOL    HW232061   1.594   2.160   7.356  1.1826  3.4495  1.1673
 6809SOL     OW32062   0.661   1.850  13.109 -0.4483 -0.2726 -0.5351
 6809SOL    HW132063   0.653   1.925  13.050  0.0738  1.9096  2.1643
 6809SOL    HW232064   0.706   1.898  13.179 -0.4696  1.9003 -2.0100
 6810SOL     OW32065   2.613   2.867   2.339 -0.1008  0.0606 -0.0044
 6810SOL    HW132066   2.626   2.780   2.377  1.2788 -0.1798 -1.0324
 6810SOL    HW232067   2.615   2.917   2.421  1.1557  0.0802 -0.0549
 6811SOL     OW32068   2.255   0.367   4.170 -0.3800  0.2163 -0.2833
 6811SOL    HW132069   2.232   0.279   4.141 -0.1364  0.7167 -1.9917
 6811SOL    HW232070   2.332   0.377   4.114 -0.0554 -0.2602  0.0882
 6812SOL     OW32071   2.733   0.044   1.399  0.0821  0.5824 -0.2396
 6812SOL    HW132072   2.700   0.041   1.309  3.1239 -1.7289 -1.2872
 6812SOL    HW232073   2.647   0.030   1.437 -0.0376  2.8424  0.3077
 6813SOL     OW32074   3.939   1.249   9.041 -0.0418 -0.6959 -0.0056
 6813SOL    HW132075   3.875   1.285   8.980 -0.4477  1.7916  1.8910
 6813SOL    HW232076   3.983   1.328   9.074  0.9386 -1.6493  0.9671
 6814SOL     OW32077   0.407   4.021   4.318  0.2017  1.0981 -0.3543
 6814SOL    HW132078   0.466   3.952   4.348 -0.2137  1.3733  1.0831
 6814SOL    HW232079   0.365   4.047   4.400  1.5978  1.4553  0.2593
 6815SOL     OW32080   1.363   1.183   4.710 -0.2592 -0.0253 -0.6712
 6815SOL    HW132081   1.406   1.215   4.630  0.4062  1.3667  0.2495
 6815SOL    HW232082   1.412   1.231   4.777 -0.7512  0.1049 -0.4104
 6816SOL     OW32083   4.051   1.962   7.535 -0.0496  0.1421  0.0792
 6816SOL    HW132084   4.138   1.926   7.520  0.3745  1.2798 -0.2093
 6816SOL    HW232085   4.020   1.919   7.615 -1.0704 -2.2821 -1.6507
 6817SOL     OW32086   2.879   4.077  11.031 -0.4355 -0.1109  0.4380
 6817SOL    HW132087   2.969   4.082  10.998 -0.0130  0.0084  1.6105
 6817SOL    HW232088   2.859   3.986  11.007  1.8026 -0.9810  1.7809
 6818SOL     OW32089   1.908   1.258   0.942 -0.1686 -0.0617 -0.2119
 6818SOL    HW132090   1.899   1.165   0.960 -0.2805 -0.2380 -1.1929
 6818SOL    HW232091   1.952   1.286   1.022  0.7314  1.3607 -1.2087
 6819SOL     OW32092   1.047   0.374   4.626 -0.2722  0.1694  0.2767
 6819SOL    HW132093   1.111   0.306   4.645 -0.1500  0.1021 -0.3737
 6819SOL    HW232094   1.049   0.367   4.530  1.1693  1.2307  0.2181
 6820SOL     OW32095   2.080   3.282  12.536 -0.3307 -0.1248 -0.0987
 6820SOL    HW132096   2.048   3.239  12.457 -3.7702  0.6144  0.9187
 6820SOL    HW232097   2.154   3.333  12.503 -1.5432  2.0311  0.5594
 6821SOL     OW32098   3.565   3.965   4.553 -0.4570 -0.3185 -0.1956
 6821SOL    HW132099   3.637   3.921   4.600 -0.5692 -1.5094 -1.1333
 6821SOL    HW232100   3.581   4.051   4.592 -2.9201  0.0282  0.0297
 6822SOL     OW32101   0.562   0.717   0.535 -0.3366 -0.2406  0.0891
 6822SOL    HW132102   0.547   0.796   0.587 -1.1758 -0.3488  0.0056
 6822SOL    HW232103   0.521   0.644   0.581 -2.7722  1.0079 -0.0935
 6823SOL     OW32104   3.373   1.070   3.286 -0.1211 -0.4097  0.1248
 6823SOL    HW132105   3.321   1.150   3.278  2.2624  0.8501 -2.8729
 6823SOL    HW232106   3.325   1.010   3.230  1.5905  0.5154 -2.3441
 6824SOL     OW32107   0.667   0.854   8.136  0.1972 -0.1513  0.3471
 6824SOL    HW132108   0.647   0.801   8.213  0.8235  1.8439  1.8811
 6824SOL    HW232109   0.762   0.857   8.149  0.0910 -0.3613  1.1767
 6825SOL     OW32110   0.557   4.501   7.902 -0.5120  0.0050  0.3060
 6825SOL    HW132111   0.608   4.469   7.828 -2.2182 -0.5083 -0.6519
 6825SOL    HW232112   0.484   4.548   7.862 -0.1543 -0.4909 -0.9148
 6826SOL     OW32113   2.367   0.809   1.662 -0.5696 -0.1551 -0.3458
 6826SOL    HW132114   2.277   0.794   1.692 -1.0731 -1.1085 -2.3215
 6826SOL    HW232115   2.412   0.831   1.744  0.2223 -1.1283 -0.5205
 6827SOL     OW32116   0.862   2.936   4.796 -0.4075 -0.1803  0.2477
 6827SOL    HW132117   0.862   3.029   4.773  0.8647 -0.3776 -0.5228
 6827SOL    HW232118   0.772   2.905   4.783 -0.3912  0.4022 -1.2022
 6828SOL     OW32119   1.045   3.779   7.920  0.1393  0.3158 -0.1153
 6828SOL    HW132120   1.022   3.869   7.944  0.0195  0.2506  0.0154
 6828SOL    HW232121   0.958   3.742   7.934  0.3209 -0.0718 -0.0158
 6829SOL     OW32122   1.263   4.112   9.312 -0.4444  0.8942  0.4761
 6829SOL    HW132123   1.232   4.167   9.240  1.0800  0.8961 -0.1752
 6829SOL    HW232124   1.180   4.092   9.355 -1.2057  0.2839 -1.2808
 6830SOL     OW32125   0.809   4.383   9.510 -0.2006 -0.5374  0.1923
 6830SOL    HW132126   0.883   4.323   9.502 -0.2085 -0.4846 -0.2754
 6830SOL    HW232127   0.739   4.337   9.463 -0.0164  1.4266 -2.0114
 6831SOL     OW32128   3.676   3.470   2.084  0.5007 -0.8482  0.4735
 6831SOL    HW132129   3.683   3.565   2.089  3.6657 -0.9711 -1.4720
 6831SOL    HW232130   3.768   3.454   2.106  1.0198  0.8085 -0.5097
 6832SOL     OW32131   0.106   1.412   3.248  0.1624  0.8508  0.1900
 6832SOL    HW132132   0.089   1.337   3.191  1.4567  0.9979 -0.3872
 6832SOL    HW232133   0.069   1.375   3.328  1.3942 -0.1618  0.2870
 6833SOL     OW32134   4.132   1.381   5.026 -0.0399  0.0596  0.2147
 6833SOL    HW132135   4.222   1.410   5.008  0.0101 -0.3905 -0.2783
 6833SOL    HW232136   4.090   1.421   4.949  1.9938  1.4996 -0.1584
 6834SOL     OW32137   2.487   2.645  13.950 -0.0906  0.0238 -0.1125
 6834SOL    HW132138   2.394   2.623  13.954  0.1867 -0.7509  2.2057
 6834SOL    HW232139   2.485   2.739  13.970  0.2657 -0.2159  1.1104
 6835SOL     OW32140   2.241   1.210   8.717  0.1452  0.1530  0.2582
 6835SOL    HW132141   2.168   1.252   8.763  0.9315  1.7095  0.0839
 6835SOL    HW232142   2.195   1.204   8.634  0.5113 -1.4581  0.1823
 6836SOL     OW32143   3.675   2.548   8.334  0.4961 -0.4716 -0.1473
 6836SOL    HW132144   3.764   2.519   8.312  0.2586 -2.1879  1.2282
 6836SOL    HW232145   3.623   2.489   8.278  0.5787  1.0689 -1.8614
 6837SOL     OW32146   3.942   2.549   9.557 -0.3961  0.7809  0.1118
 6837SOL    HW132147   3.970   2.634   9.523  1.7466 -0.1349 -0.4178
 6837SOL    HW232148   3.892   2.562   9.638 -1.1871  1.3881 -0.4700
 6838SOL     OW32149   2.027   1.592   4.954  0.9614 -0.1580 -0.6350
 6838SOL    HW132150   2.077   1.649   5.012 -1.2438  2.3781 -1.1968
 6838SOL    HW232151   1.962   1.651   4.915  0.7890  0.0814  0.0243
 6839SOL     OW32152   2.386   0.970   8.167 -0.0086  0.3508  0.3007
 6839SOL    HW132153   2.360   1.061   8.152 -1.7502 -0.1667  0.0768
 6839SOL    HW232154   2.301   0.932   8.192  0.4745 -0.5311  0.6092
 6840SOL     OW32155   4.460   4.228  17.365  0.1339 -0.5954 -0.1772
 6840SOL    HW132156   4.463   4.295  17.297 -1.4217  0.2984  0.6402
 6840SOL    HW232157   4.553   4.208  17.377  1.1924  4.2412 -0.1316
 6841SOL     OW32158   3.574   2.099   4.130  0.8278  0.2107 -0.0359
 6841SOL    HW132159   3.646   2.125   4.187  0.2061 -3.4004  2.3873
 6841SOL    HW232160   3.602   2.147   4.052  0.9955  0.6063  0.2699
 6842SOL     OW32161   1.423   0.758   2.673 -0.6460 -0.0746  0.1382
 6842SOL    HW132162   1.363   0.830   2.690  1.8230  2.0936 -0.3939
 6842SOL    HW232163   1.369   0.709   2.611  0.8943 -1.2563 -0.2739
 6843SOL     OW32164   1.318   1.404   3.597 -0.3053 -0.3630  0.5963
 6843SOL    HW132165   1.329   1.417   3.503 -0.9545 -0.0399  0.5667
 6843SOL    HW232166   1.350   1.314   3.605  0.7613 -0.3163 -3.0207
 6844SOL     OW32167   3.291   1.330   5.553 -0.2697 -0.1320 -0.0064
 6844SOL    HW132168   3.203   1.358   5.528 -0.3810 -0.3863  0.1041
 6844SOL    HW232169   3.340   1.411   5.544  3.2449 -2.2878 -0.5580
 6845SOL     OW32170   2.356   2.540  11.640  0.1990 -0.0390 -0.0184
 6845SOL    HW132171   2.340   2.607  11.707  0.6186 -1.7887  1.8346
 6845SOL    HW232172   2.387   2.607  11.578 -0.7118 -0.1138 -0.5539
 6846SOL     OW32173   2.163   3.557   2.928 -1.0167  0.1835  0.1406
 6846SOL    HW132174   2.203   3.596   2.850  0.9641 -1.0308  0.5596
 6846SOL    HW232175   2.117   3.632   2.965 -0.9128 -0.1149  0.8728
 6847SOL     OW32176   2.338   1.256   1.146 -0.2396  0.0266  0.0780
 6847SOL    HW132177   2.251   1.215   1.144  0.6588 -1.8066 -1.5260
 6847SOL    HW232178   2.352   1.220   1.234 -2.9273 -0.3769  0.3438
 6848SOL     OW32179   0.979   1.211   3.931  0.4570  0.5717  0.1392
 6848SOL    HW132180   0.902   1.254   3.894 -1.8022 -3.0544  0.6109
 6848SOL    HW232181   1.051   1.248   3.879  0.2262 -0.5643 -1.0085
 6849SOL     OW32182   0.862   1.485   7.221 -0.4407  0.2795  0.1294
 6849SOL    HW132183   0.902   1.532   7.148 -0.7309 -0.0789 -0.2627
 6849SOL    HW232184   0.933   1.459   7.279 -1.0795 -1.5216  0.1070
 6850SOL     OW32185   4.346   3.086   4.874  0.4030 -0.0814 -0.5805
 6850SOL    HW132186   4.259   3.127   4.868 -0.7861 -2.2227  2.1300
 6850SOL    HW232187   4.395   3.148   4.929  0.3045 -0.0393 -0.5401
 6851SOL     OW32188   0.070   3.629   3.744 -0.4541 -0.1058 -0.0909
 6851SOL    HW132189   0.040   3.541   3.720  1.1125 -1.1425  1.7811
 6851SOL    HW232190   0.149   3.607   3.794  1.4849  3.2400 -1.6853
 6852SOL     OW32191   2.607   0.590   5.124  0.1008 -0.2262  0.3054
 6852SOL    HW132192   2.683   0.621   5.173  1.5689 -3.7248  0.2531
 6852SOL    HW232193   2.616   0.494   5.128 -1.8675 -0.3845  1.2018
 6853SOL     OW32194   4.103   0.814   0.486 -0.7221  1.3796 -0.2494
 6853SOL    HW132195   4.193   0.806   0.455 -1.0705  0.2564 -1.0077
 6853SOL    HW232196   4.081   0.898   0.447 -1.5510  1.1094 -0.3823
 6854SOL     OW32197   2.757   4.099  12.747 -0.1378  0.1229  0.1685
 6854SOL    HW132198   2.758   4.076  12.654  3.3426  0.8350  0.0120
 6854SOL    HW232199   2.782   4.191  12.734  3.2411 -0.8610 -0.4456
 6855SOL     OW32200   3.776   3.117  10.620  0.2762 -0.4100  0.2328
 6855SOL    HW132201   3.716   3.044  10.635 -1.0668  0.3904 -1.2248
 6855SOL    HW232202   3.863   3.080  10.635  1.3858  1.8442 -0.7170
 6856SOL     OW32203   1.079   2.628   8.575  0.3607  0.8777  0.1444
 6856SOL    HW132204   1.112   2.675   8.499  2.6484 -0.1165  0.4973
 6856SOL    HW232205   1.008   2.679   8.613 -1.1203 -0.3328 -0.9647
 6857SOL     OW32206   2.939   0.148   9.036  0.4031 -0.6712 -0.1949
 6857SOL    HW132207   2.859   0.112   8.999 -0.1097 -0.4680  0.7238
 6857SOL    HW232208   2.991   0.136   8.956  0.8230  1.9577 -0.3225
 6858SOL     OW32209   3.308   0.325   3.895  0.5907 -0.2721  0.1078
 6858SOL    HW132210   3.402   0.313   3.904  0.0976 -1.8267  3.0452
 6858SOL    HW232211   3.301   0.421   3.902  0.2879 -0.4713  2.6041
 6859SOL     OW32212   1.222   1.529  14.747 -0.0295 -0.5622 -0.3709
 6859SOL    HW132213   1.224   1.622  14.769  1.4880 -0.8417  0.6768
 6859SOL    HW232214   1.154   1.531  14.680 -0.1203 -3.0558 -0.3389
 6860SOL     OW32215   1.966   3.351   7.619  0.1924  0.0051 -0.5185
 6860SOL    HW132216   2.038   3.334   7.680  0.1800 -0.3754 -0.6123
 6860SOL    HW232217   1.943   3.258   7.613  2.4538 -0.4614 -2.0358
 6861SOL     OW32218   1.353   2.902   7.221  0.4886  0.0603  0.6455
 6861SOL    HW132219   1.299   2.892   7.299 -0.6010  2.5836  0.2190
 6861SOL    HW232220   1.389   2.813   7.224 -1.7615 -0.9022 -1.4502
 6862SOL     OW32221   4.178   2.559   7.279  0.3673  0.0488  0.1743
 6862SOL    HW132222   4.221   2.520   7.203 -1.0141  0.5479 -0.8808
 6862SOL    HW232223   4.228   2.516   7.348 -0.0062  0.5320  0.7558
 6863SOL     OW32224   2.789   3.272   9.563 -0.0601  0.3430 -0.2658
 6863SOL    HW132225   2.815   3.271   9.471 -2.5479 -0.0285 -0.9789
 6863SOL    HW232226   2.754   3.361   9.567  0.8303  0.6987 -0.5958
 6864SOL     OW32227   3.514   3.722  17.269 -0.2158  0.0439  0.2370
 6864SOL    HW132228   3.515   3.650  17.207  0.0772 -0.3638  0.7184
 6864SOL    HW232229   3.595   3.703  17.316 -0.4255  1.3776  1.1374
 6865SOL     OW32230   2.497   0.749   2.481 -0.3043  0.6547 -0.4190
 6865SOL    HW132231   2.453   0.676   2.524 -0.4154  0.6385 -0.5631
 6865SOL    HW232232   2.432   0.796   2.428 -0.1164  0.0749 -1.1607
 6866SOL     OW32233   0.008   1.267   2.116  0.8186 -0.3072 -0.1786
 6866SOL    HW132234   4.722   1.274   2.023 -0.0754  1.0606  0.1633
 6866SOL    HW232235   0.076   1.200   2.119  0.2326 -0.8946  0.0361
 6867SOL     OW32236   0.837   3.784  14.446  0.4295 -0.3747  0.1259
 6867SOL    HW132237   0.793   3.738  14.517 -0.3560  0.2681  0.0484
 6867SOL    HW232238   0.882   3.712  14.402  1.2802 -0.9493  1.9335
 6868SOL     OW32239   4.259   3.949   9.064  0.4562 -0.4745  0.0274
 6868SOL    HW132240   4.338   3.975   9.016  0.6960  1.8533  1.6775
 6868SOL    HW232241   4.184   3.970   9.008  0.5997  2.8221  1.1195
 6869SOL     OW32242   1.131   2.879  12.271  0.2877  0.0302  0.5368
 6869SOL    HW132243   1.102   2.806  12.216 -1.1342 -0.4475  1.9162
 6869SOL    HW232244   1.177   2.928  12.203  1.0931 -0.4179  0.7656
 6870SOL     OW32245   4.667   4.439   1.233 -1.0632 -0.2216 -0.2616
 6870SOL    HW132246   4.703   4.431   1.322  0.3176  5.2274 -0.3158
 6870SOL    HW232247   4.736   4.489   1.190 -1.6552 -0.2006 -1.1687
 6871SOL     OW32248   0.608   3.762   0.099  0.7889  0.8589  0.2205
 6871SOL    HW132249   0.657   3.730   0.023 -1.3953  0.9153 -1.2253
 6871SOL    HW232250   0.559   3.824   0.044 -1.1944 -1.2113 -0.3572
 6872SOL     OW32251   4.083   4.411   5.125  0.6570 -0.1111 -0.0059
 6872SOL    HW132252   4.090   4.372   5.212  0.3384 -1.6790 -0.6793
 6872SOL    HW232253   4.151   4.476   5.112  2.0264 -1.9461 -2.0487
 6873SOL     OW32254   3.905   0.279   8.538 -0.1210  0.1604  0.2139
 6873SOL    HW132255   3.920   0.365   8.499 -0.1943 -0.1293 -0.4537
 6873SOL    HW232256   3.936   0.223   8.467 -2.5606 -2.0884  0.9378
 6874SOL     OW32257   4.696   1.756  16.621 -0.0416 -0.4643 -1.1615
 6874SOL    HW132258   0.015   1.782  16.693 -0.5413 -0.0243 -0.9151
 6874SOL    HW232259   4.720   1.664  16.607 -1.4250 -0.7440 -1.7429
 6875SOL     OW32260   1.673   0.016   5.554  0.2228  0.3775 -0.5510
 6875SOL    HW132261   1.696   0.101   5.516  1.7700 -0.3552 -1.2846
 6875SOL    HW232262   1.611   4.723   5.488 -0.2801 -0.3313  0.2835
 6876SOL     OW32263   0.930   3.085   2.160  0.3007  0.0313 -0.1470
 6876SOL    HW132264   0.928   3.014   2.096  0.6219  2.9479 -3.3862
 6876SOL    HW232265   0.933   3.160   2.101 -1.2670  1.3829  1.5066
 6877SOL     OW32266   0.889   3.575   0.718 -0.0230 -0.4854 -0.0763
 6877SOL    HW132267   0.906   3.593   0.810  1.1882 -0.4515 -0.3055
 6877SOL    HW232268   0.833   3.648   0.691  1.5009  0.3523 -0.9806
 6878SOL     OW32269   3.243   2.404   5.335 -0.4544 -0.1145 -0.4260
 6878SOL    HW132270   3.280   2.487   5.304  1.5474 -1.0225 -0.4254
 6878SOL    HW232271   3.193   2.442   5.408 -0.2163  1.1507 -0.9201
 6879SOL     OW32272   2.459   0.083   5.569  0.3101 -0.2397 -0.0189
 6879SOL    HW132273   2.455   4.729   5.545  1.3105 -0.5605  1.0627
 6879SOL    HW232274   2.429   0.079   5.660  0.4548  3.1506  0.1649
 6880SOL     OW32275   1.947   4.144  16.604 -0.0604  0.0109 -0.4410
 6880SOL    HW132276   1.890   4.070  16.624 -1.2531  0.3028 -2.7267
 6880SOL    HW232277   1.897   4.226  16.611  2.5451  1.7131 -1.7897
 6881SOL     OW32278   2.335   2.204   2.995 -0.2533  0.6917 -0.1720
 6881SOL    HW132279   2.393   2.131   3.017  0.5986  1.3302 -0.2990
 6881SOL    HW232280   2.296   2.224   3.080  2.8713  1.6564  1.0027
 6882SOL     OW32281   2.968   2.325   1.125  0.3310  0.0054  0.3321
 6882SOL    HW132282   2.901   2.316   1.194  1.0344  3.2154  1.4555
 6882SOL    HW232283   2.978   2.420   1.131 -0.1647 -0.0112  1.6293
 6883SOL     OW32284   1.004   3.582  12.138  0.3088  0.1155  0.5243
 6883SOL    HW132285   1.068   3.611  12.073  2.7368 -0.8989  2.4599
 6883SOL    HW232286   0.965   3.664  12.167 -0.1838  0.5395 -1.3462
 6884SOL     OW32287   0.989   2.010   9.315  0.3457  0.1251 -0.1470
 6884SOL    HW132288   0.997   2.062   9.236 -1.7214  0.2106 -0.3084
 6884SOL    HW232289   0.992   1.923   9.275  2.9860  0.2945 -0.3306
 6885SOL     OW32290   4.332   0.628  16.084 -0.7830  0.3850  0.4167
 6885SOL    HW132291   4.382   0.650  16.163  1.4361  0.7209 -1.0820
 6885SOL    HW232292   4.246   0.609  16.122 -0.1817  2.5836  2.8847
 6886SOL     OW32293   2.527   3.910   6.597 -0.1150 -0.1162 -0.4152
 6886SOL    HW132294   2.538   3.943   6.686  1.9055 -0.2070 -0.6476
 6886SOL    HW232295   2.590   3.969   6.556  0.3055 -0.5661 -0.4018
 6887SOL     OW32296   2.043   3.885   4.830 -0.1927 -0.2709  0.2753
 6887SOL    HW132297   2.029   3.958   4.890 -0.6023  1.0707 -1.4753
 6887SOL    HW232298   2.139   3.879   4.832 -0.0284  1.9574 -2.0372
 6888SOL     OW32299   2.680   1.450   1.982 -0.1928  0.0041  0.5042
 6888SOL    HW132300   2.604   1.477   1.930 -1.8406 -0.8606  2.4338
 6888SOL    HW232301   2.681   1.354   1.980  1.0566 -0.0135  1.9780
 6889SOL     OW32302   1.524   0.669   4.070 -0.0750  0.4325 -0.0307
 6889SOL    HW132303   1.544   0.603   4.136 -0.7948  1.1470  0.9119
 6889SOL    HW232304   1.530   0.620   3.989 -0.9970  1.9834 -1.0535
 6890SOL     OW32305   3.414   0.114   2.726 -0.4733  0.3498 -0.9544
 6890SOL    HW132306   3.362   0.038   2.753 -1.0267  0.5567 -1.4338
 6890SOL    HW232307   3.424   0.155   2.812  0.4844 -1.4927 -0.1791
 6891SOL     OW32308   2.088   2.645   1.560  0.2669  0.1064 -0.6726
 6891SOL    HW132309   2.109   2.575   1.499 -0.4019 -0.1049 -0.6573
 6891SOL    HW232310   1.996   2.659   1.536  0.2163  0.7728 -0.0975
 6892SOL     OW32311   1.813   2.412  14.101  0.0518  0.7308 -0.0081
 6892SOL    HW132312   1.775   2.490  14.062  1.4375  1.1621 -0.4989
 6892SOL    HW232313   1.855   2.464  14.169 -0.6451  2.4646 -0.8997
 6893SOL     OW32314   1.117   4.439   7.765  0.5494  0.3579 -0.6205
 6893SOL    HW132315   1.200   4.463   7.806 -0.1228  0.0430  0.9082
 6893SOL    HW232316   1.055   4.466   7.833  0.8306 -2.1202  0.5738
 6894SOL     OW32317   0.552   1.786   4.430  0.7631  0.3048 -0.7174
 6894SOL    HW132318   0.580   1.781   4.522  0.1812 -0.1063 -0.5698
 6894SOL    HW232319   0.510   1.872   4.432  0.9746  0.3347  3.0678
 6895SOL     OW32320   2.880   1.905  11.169 -0.0217  0.1710  0.5523
 6895SOL    HW132321   2.970   1.896  11.199  1.1300  0.5026 -2.8305
 6895SOL    HW232322   2.873   2.000  11.157  0.6359 -0.1182 -2.2846
 6896SOL     OW32323   1.131   3.878  12.997  0.6096 -0.2450 -0.4655
 6896SOL    HW132324   1.103   3.809  13.057  1.1113 -0.1004 -0.0714
 6896SOL    HW232325   1.198   3.923  13.048 -1.9842  0.2469  2.5478
 6897SOL     OW32326   0.272   2.354   2.502 -0.1606 -0.0796 -0.1467
 6897SOL    HW132327   0.178   2.361   2.522  0.2826 -0.3820  2.0109
 6897SOL    HW232328   0.279   2.419   2.431 -0.9204 -0.2889 -0.4127
 6898SOL     OW32329   1.262   0.207   4.674 -0.0215  0.1610 -0.5020
 6898SOL    HW132330   1.304   0.131   4.713 -0.8800 -1.1043 -2.0243
 6898SOL    HW232331   1.332   0.246   4.621 -0.7301  0.3792 -1.2914
 6899SOL     OW32332   0.113   4.651   4.396 -0.0346  0.0846  0.1483
 6899SOL    HW132333   0.146   4.627   4.482 -1.0560 -0.3680  0.4136
 6899SOL    HW232334   0.155   4.734   4.372 -0.3469  0.3252  0.4384
 6900SOL     OW32335   3.187   2.812   3.799 -0.8079 -0.1892 -1.0533
 6900SOL    HW132336   3.177   2.864   3.879 -1.6870 -1.5797 -0.2594
 6900SOL    HW232337   3.094   2.800   3.783 -0.7820 -0.5890 -0.9051
 6901SOL     OW32338   1.576   3.700  10.791  0.4088 -0.7388  0.3120
 6901SOL    HW132339   1.597   3.711  10.884 -0.2081  0.1885  0.3453
 6901SOL    HW232340   1.664   3.672  10.765  0.9861  0.2127  1.2510
 6902SOL     OW32341   1.345   2.205   7.440 -0.5362 -0.2839  0.0365
 6902SOL    HW132342   1.390   2.121   7.440 -0.8430 -0.4501 -0.2217
 6902SOL    HW232343   1.393   2.262   7.379  0.5422 -0.0801  1.0667
 6903SOL     OW32344   3.029   3.532  12.234 -0.3471  0.0047 -0.2302
 6903SOL    HW132345   3.124   3.534  12.244 -0.2728 -1.9224 -0.5544
 6903SOL    HW232346   3.031   3.443  12.199 -1.4755 -0.5441  1.1016
 6904SOL     OW32347   0.371   3.593   7.775 -0.1384 -0.3005 -0.3038
 6904SOL    HW132348   0.358   3.660   7.841  1.3953  0.7882 -1.1097
 6904SOL    HW232349   0.293   3.611   7.722  0.8543 -0.0662 -1.6972
 6905SOL     OW32350   3.927   2.086  14.181  0.0493 -0.0791 -0.0555
 6905SOL    HW132351   3.914   2.181  14.187 -1.4068 -0.2379 -0.6038
 6905SOL    HW232352   3.955   2.078  14.090  0.3038  1.2212 -0.1023
 6906SOL     OW32353   0.694   2.959   1.887  0.2512  0.0216  0.0290
 6906SOL    HW132354   0.765   2.896   1.898  2.0483  1.8489 -0.9979
 6906SOL    HW232355   0.716   3.037   1.938  0.1628 -0.1940  0.3941
 6907SOL     OW32356   1.662   2.742   5.386  0.2062  0.0143 -0.2716
 6907SOL    HW132357   1.672   2.815   5.447 -0.1698  0.5371 -0.8217
 6907SOL    HW232358   1.744   2.697   5.404  0.4181 -0.1733 -1.6407
 6908SOL     OW32359   3.170   3.674   5.804  0.5767  0.0385  0.3808
 6908SOL    HW132360   3.226   3.607   5.844 -0.1747  0.3011  1.9072
 6908SOL    HW232361   3.122   3.714   5.877 -0.7226 -1.1910  0.2017
 6909SOL     OW32362   2.058   1.957   2.161  0.2594 -0.6989  0.4838
 6909SOL    HW132363   2.077   1.891   2.228 -1.2478 -0.6107  1.0109
 6909SOL    HW232364   2.029   1.907   2.085 -0.5401  1.1815 -0.4324
 6910SOL     OW32365   1.267   3.447   6.309 -0.4179 -1.0324 -0.4948
 6910SOL    HW132366   1.272   3.384   6.381 -1.1851 -1.5677 -0.9088
 6910SOL    HW232367   1.352   3.487   6.327 -0.7145 -1.0893  1.0179
 6911SOL     OW32368   3.379   1.657   8.403  0.1539 -0.2956  0.3385
 6911SOL    HW132369   3.367   1.738   8.451 -0.3744 -0.2483  0.1304
 6911SOL    HW232370   3.364   1.594   8.474  1.1690 -0.7707  0.1336
 6912SOL     OW32371   0.928   2.774   7.598 -0.2982  0.0885 -0.4275
 6912SOL    HW132372   1.012   2.729   7.596  0.5814  1.7531 -0.6562
 6912SOL    HW232373   0.908   2.760   7.505 -1.2814  3.4352 -0.7078
 6913SOL     OW32374   4.725   4.626   6.265  0.7068  0.5184  0.1599
 6913SOL    HW132375   4.719   4.722   6.265  0.1374  0.4942 -1.6118
 6913SOL    HW232376   0.074   4.614   6.301  0.0900 -1.4992  0.9561
 6914SOL     OW32377   0.353   3.367  12.634 -0.7229  0.1744  0.0392
 6914SOL    HW132378   0.337   3.332  12.722 -1.6101  2.6026  0.8463
 6914SOL    HW232379   0.389   3.455  12.647  1.0632 -0.6982  0.9976
 6915SOL     OW32380   0.091   1.360   6.072 -0.1920  0.2736 -0.6367
 6915SOL    HW132381   0.142   1.433   6.036  0.6186  0.0794  0.1289
 6915SOL    HW232382   0.162   1.318   6.120 -0.9418  1.0098  1.0899
 6916SOL     OW32383   0.667   2.758   2.759  0.6143  0.2967  0.4159
 6916SOL    HW132384   0.643   2.708   2.838 -0.9833 -0.3387 -0.4710
 6916SOL    HW232385   0.636   2.845   2.787 -0.5543 -0.0295  0.1187
 6917SOL     OW32386   0.070   0.669   0.975 -0.1302 -0.3298  0.7511
 6917SOL    HW132387   0.021   0.611   1.033  1.0965  0.7081  2.8319
 6917SOL    HW232388   0.070   0.746   1.032  1.1740  0.9308 -0.9379
 6918SOL     OW32389   2.278   0.613   7.141 -0.0881 -0.1538 -0.2434
 6918SOL    HW132390   2.302   0.699   7.177  0.8578 -0.3150 -0.4677
 6918SOL    HW232391   2.197   0.640   7.099  0.4557  0.3287 -0.9852
 6919SOL     OW32392   1.271   1.102  16.734 -0.5159  0.0151 -0.0595
 6919SOL    HW132393   1.311   1.038  16.676  3.0072 -0.1782  2.5660
 6919SOL    HW232394   1.345   1.120  16.793 -1.5028  0.4487  1.0607
 6920SOL     OW32395   1.606   0.178   4.782  0.2575  1.0479  0.5138
 6920SOL    HW132396   1.621   0.237   4.709  1.7854 -0.7867 -0.6568
 6920SOL    HW232397   1.691   0.160   4.820  0.3035  1.1773  0.4717
 6921SOL     OW32398   4.367   4.307   3.432 -0.4707 -0.6793 -0.1069
 6921SOL    HW132399   4.303   4.316   3.502 -1.4811 -0.4456 -1.0677
 6921SOL    HW232400   4.442   4.259   3.467 -1.5143 -1.3096  1.2772
 6922SOL     OW32401   1.892   4.565   5.641  0.3880  0.8680  0.8925
 6922SOL    HW132402   1.814   4.519   5.610  2.1194  0.9694 -3.6439
 6922SOL    HW232403   1.864   4.656   5.636  1.8666  1.2079 -1.1433
 6923SOL     OW32404   4.018   4.289  11.709  0.4225  0.4378 -0.3288
 6923SOL    HW132405   4.059   4.219  11.658 -0.4838  0.3222 -0.9054
 6923SOL    HW232406   3.926   4.263  11.699  0.6983 -0.1573 -1.3246
 6924SOL     OW32407   2.320   3.225   4.349  0.9103  0.4317 -0.3605
 6924SOL    HW132408   2.225   3.237   4.350  0.8148 -0.4481  0.6955
 6924SOL    HW232409   2.339   3.214   4.442 -0.0655 -0.7743 -0.3136
 6925SOL     OW32410   4.711   3.621  14.952 -0.1948  0.1559  0.4025
 6925SOL    HW132411   4.629   3.645  14.994  0.6467  1.1239  1.4859
 6925SOL    HW232412   0.020   3.568  15.016  0.8258 -1.4225 -1.6601
 6926SOL     OW32413   0.395   4.587   7.372 -0.4657  0.4843  0.7536
 6926SOL    HW132414   0.337   4.650   7.416 -2.9096 -1.6768  0.6055
 6926SOL    HW232415   0.333   4.536   7.321 -1.6911  2.5599  0.1501
 6927SOL     OW32416   0.425   3.647   3.546  0.4741 -0.5282 -0.1116
 6927SOL    HW132417   0.419   3.725   3.491  0.4011  0.1559  0.8582
 6927SOL    HW232418   0.425   3.698   3.628 -0.4491 -1.1246  0.2520
 6928SOL     OW32419   4.645   2.648   6.317  0.1876  0.2917  0.8194
 6928SOL    HW132420   4.704   2.602   6.258 -1.6937 -1.3642  0.2368
 6928SOL    HW232421   4.623   2.579   6.380 -2.7813 -1.1764 -1.8030
 6929SOL     OW32422   2.008   2.837   5.981 -0.8448 -0.3362 -0.1971
 6929SOL    HW132423   2.074   2.782   6.022  0.7180  2.1350  0.5601
 6929SOL    HW232424   2.055   2.915   5.950 -2.1053  1.4983  2.4964
 6930SOL     OW32425   1.631   2.556  14.360  0.3479 -0.4716 -0.6775
 6930SOL    HW132426   1.643   2.649  14.341 -1.3772  0.4518  2.8527
 6930SOL    HW232427   1.553   2.538  14.308 -0.5699 -1.0860  0.9291
 6931SOL     OW32428   3.670   1.990   6.271 -0.7935 -0.4620  0.1138
 6931SOL    HW132429   3.686   1.908   6.225  0.1128 -0.7261  0.9046
 6931SOL    HW232430   3.577   1.998   6.289 -0.4242 -0.0604  1.8230
 6932SOL     OW32431   3.076   3.925   6.974  0.4114  0.0374 -0.1456
 6932SOL    HW132432   3.090   3.830   6.976 -0.4867 -0.1232 -1.5641
 6932SOL    HW232433   3.015   3.926   7.048  1.0232 -0.8694  0.3680
 6933SOL     OW32434   3.955   2.894  17.138  0.5389  0.3252 -0.7916
 6933SOL    HW132435   4.014   2.949  17.190 -0.2011 -0.2393  0.6492
 6933SOL    HW232436   4.010   2.819  17.116 -0.0792 -0.4980  0.4483
 6934SOL     OW32437   3.147   3.993   6.220 -0.0662  0.0485 -0.6952
 6934SOL    HW132438   3.198   4.031   6.292  0.0625 -0.5465 -0.4711
 6934SOL    HW232439   3.064   3.977   6.264 -0.1196 -0.2197 -0.8969
 6935SOL     OW32440   3.607   2.727   7.796 -0.7172 -0.2771 -0.4240
 6935SOL    HW132441   3.599   2.633   7.780  0.5452 -0.5022  0.2060
 6935SOL    HW232442   3.668   2.744   7.725 -0.7687 -2.9304 -1.1263
 6936SOL     OW32443   2.899   0.690   0.288  0.2973 -0.2641  1.0300
 6936SOL    HW132444   2.856   0.656   0.209 -0.4917 -1.6304  2.0509
 6936SOL    HW232445   2.911   0.606   0.333  0.2399 -1.3804 -1.0283
 6937SOL     OW32446   0.456   4.383   5.556  0.1554  0.6725 -0.3877
 6937SOL    HW132447   0.473   4.341   5.471 -1.2480 -1.5904  0.4432
 6937SOL    HW232448   0.360   4.383   5.554  0.1337 -1.4618  0.6117
 6938SOL     OW32449   1.455   0.890   5.482 -0.1316 -0.7866  0.0359
 6938SOL    HW132450   1.465   0.980   5.449  0.3374 -1.0372 -0.5127
 6938SOL    HW232451   1.536   0.883   5.532 -0.0999  0.6670  0.1880
 6939SOL     OW32452   4.121   1.749   2.509 -0.3265 -0.1502 -0.1175
 6939SOL    HW132453   4.042   1.804   2.510  1.4788  2.4631  0.6264
 6939SOL    HW232454   4.188   1.818   2.504  0.6152 -0.9808  1.0137
 6940SOL     OW32455   3.149   0.980   9.216  0.4627  0.3564 -0.0336
 6940SOL    HW132456   3.232   0.953   9.254  1.1943  3.5138  0.5576
 6940SOL    HW232457   3.161   0.942   9.129 -2.2887 -1.9880  0.6130
 6941SOL     OW32458   0.008   0.963  11.678 -0.5690 -0.4907 -0.5748
 6941SOL    HW132459   4.655   0.985  11.681 -0.4294 -0.1842  1.9275
 6941SOL    HW232460   4.739   0.902  11.605  2.3964 -1.1128 -0.4210
 6942SOL     OW32461   3.900   4.426   9.933  0.2132 -0.1574  0.0362
 6942SOL    HW132462   3.814   4.465   9.945  0.0151 -0.3039 -0.8507
 6942SOL    HW232463   3.927   4.406  10.022  1.7499 -0.2051 -0.4361
 6943SOL     OW32464   0.059   3.096  14.781 -0.0685  0.0479 -0.2338
 6943SOL    HW132465   4.736   3.090  14.854 -1.8659  1.0931 -1.6936
 6943SOL    HW232466   0.027   3.026  14.724  1.8548 -1.7542  0.9010
 6944SOL     OW32467   1.996   0.302   4.038  0.2264  0.4626 -0.0842
 6944SOL    HW132468   2.032   0.329   4.122 -0.8092  2.6591 -0.3592
 6944SOL    HW232469   2.070   0.278   3.983  0.7111  1.0562  0.3210
 6945SOL     OW32470   3.790   3.430   7.376 -0.3718 -0.1785 -0.3908
 6945SOL    HW132471   3.699   3.411   7.353 -0.3004 -0.4275 -0.4561
 6945SOL    HW232472   3.792   3.523   7.399  2.7175 -0.3214 -0.1199
 6946SOL     OW32473   1.658   2.393   3.547 -0.0800 -0.1808  0.0163
 6946SOL    HW132474   1.563   2.387   3.532 -0.2651  0.5853  0.8915
 6946SOL    HW232475   1.689   2.350   3.467 -0.3291  0.5789 -0.4925
 6947SOL     OW32476   3.515   0.867   2.719  0.1001  0.2080 -0.0645
 6947SOL    HW132477   3.560   0.788   2.751  1.0263  0.2708 -1.2090
 6947SOL    HW232478   3.422   0.844   2.724  0.0811  0.7273  2.1284
 6948SOL     OW32479   2.572   0.294   7.607 -0.3810 -0.0515 -0.2452
 6948SOL    HW132480   2.501   0.354   7.585  0.2402  0.6284 -0.3691
 6948SOL    HW232481   2.627   0.320   7.532 -1.0610 -0.3878 -0.8589
 6949SOL     OW32482   3.200   1.668   5.004 -0.7738  0.0992 -0.5298
 6949SOL    HW132483   3.122   1.679   5.059 -1.2136  1.1408 -1.3412
 6949SOL    HW232484   3.277   1.665   5.061  0.4877  1.6979 -2.1378
 6950SOL     OW32485   4.393   1.275  13.868 -0.4177  0.0967 -0.2616
 6950SOL    HW132486   4.423   1.363  13.845 -0.5084 -0.3693 -2.1375
 6950SOL    HW232487   4.433   1.233  13.793 -0.3628 -1.6086  0.7282
 6951SOL     OW32488   2.525   0.589   1.019  0.2579 -0.0711  0.0635
 6951SOL    HW132489   2.577   0.510   1.011 -2.2355 -1.6884 -0.1121
 6951SOL    HW232490   2.591   0.648   0.983 -0.4953  1.0579  0.5196
 6952SOL     OW32491   2.812   2.262   7.987  0.3403 -0.2558  0.2781
 6952SOL    HW132492   2.808   2.176   8.030  2.1731 -0.1763  0.6125
 6952SOL    HW232493   2.802   2.238   7.895  1.5655  0.4733 -0.0397
 6953SOL     OW32494   3.340   0.925   6.883 -0.3349  0.2163  0.0528
 6953SOL    HW132495   3.398   0.999   6.902 -1.6498  1.5825 -1.2035
 6953SOL    HW232496   3.402   0.863   6.845 -1.3903 -1.9935  1.9666
 6954SOL     OW32497   2.694   4.683   4.744  0.5548  0.3570 -0.0078
 6954SOL    HW132498   2.778   4.727   4.750 -0.2669  1.9991 -0.6878
 6954SOL    HW232499   2.692   4.646   4.656 -1.6398  2.5761 -0.8628
 6955SOL     OW32500   3.641   0.768   6.096 -0.4918  0.4248  0.6464
 6955SOL    HW132501   3.594   0.839   6.052  1.8945  0.9032 -1.1074
 6955SOL    HW232502   3.619   0.792   6.186  0.2182 -2.0256  1.4768
 6956SOL     OW32503   1.268   1.231   7.910  0.2717  0.5960  0.8600
 6956SOL    HW132504   1.186   1.261   7.871  1.0600  1.3191 -0.2629
 6956SOL    HW232505   1.235   1.241   7.999 -1.2933 -1.9409  0.5681
 6957SOL     OW32506   1.015   4.594   7.100 -0.2091 -0.1647  0.9119
 6957SOL    HW132507   1.006   4.579   7.006  0.1303 -0.2921  0.9008
 6957SOL    HW232508   1.055   4.509   7.118 -1.4675 -1.0271 -0.3531
 6958SOL     OW32509   2.479   3.725   6.862 -0.1288 -0.2614  0.1205
 6958SOL    HW132510   2.523   3.669   6.797 -0.5582 -0.4373 -0.0189
 6958SOL    HW232511   2.518   3.810   6.844  0.1624 -0.4206 -0.0189
 6959SOL     OW32512   3.329   2.571   5.076  0.9291 -0.4737 -0.3632
 6959SOL    HW132513   3.380   2.639   5.032  1.1115 -0.4627 -0.1380
 6959SOL    HW232514   3.270   2.623   5.131 -0.9824 -3.4379  0.3929
 6960SOL     OW32515   3.958   0.610   7.816 -0.6788  0.0280  0.3676
 6960SOL    HW132516   3.983   0.690   7.771 -3.5146  0.1253 -1.0210
 6960SOL    HW232517   4.045   0.586   7.849 -0.5650 -0.0786 -0.0095
 6961SOL     OW32518   3.445   4.005   1.862  0.1084 -0.1975  0.3086
 6961SOL    HW132519   3.457   3.970   1.774 -2.5418 -0.9953  0.2592
 6961SOL    HW232520   3.351   4.019   1.853  0.3467  1.0256 -0.2241
 6962SOL     OW32521   3.281   3.700   5.294 -0.2275 -0.7417 -0.5703
 6962SOL    HW132522   3.229   3.779   5.312  2.0959  0.9895 -1.4404
 6962SOL    HW232523   3.353   3.724   5.352 -0.9691 -3.5128  1.4909
 6963SOL     OW32524   0.541   3.515   6.334 -0.2233 -0.3341  0.5097
 6963SOL    HW132525   0.541   3.603   6.298  1.3398 -0.2756  0.6750
 6963SOL    HW232526   0.635   3.513   6.349 -0.7418 -0.5282  3.7573
 6964SOL     OW32527   3.946   3.033   1.434  0.2329 -0.0343  0.4592
 6964SOL    HW132528   3.856   3.060   1.413  0.4254  0.9901  0.9771
 6964SOL    HW232529   3.983   3.019   1.347  0.4433  0.9015  0.4012
 6965SOL     OW32530   2.464   1.951   4.090 -0.1996  0.2441 -0.2553
 6965SOL    HW132531   2.553   1.937   4.124 -0.0713  2.8705  0.4284
 6965SOL    HW232532   2.472   2.038   4.053 -0.4016  0.3568 -0.0319
 6966SOL     OW32533   1.304   0.347   9.422  0.5633 -0.1607 -0.3480
 6966SOL    HW132534   1.221   0.301   9.434 -0.3439  0.7372 -3.2513
 6966SOL    HW232535   1.359   0.314   9.494 -0.6873 -0.5095  0.4478
 6967SOL     OW32536   0.905   4.504   4.289  0.0283 -0.0834  0.3105
 6967SOL    HW132537   0.966   4.544   4.351  0.8217  1.0077 -1.1749
 6967SOL    HW232538   0.957   4.498   4.208 -0.0501  1.5962  0.1403
 6968SOL     OW32539   1.016   4.149  14.737  0.2212 -0.1952 -0.2246
 6968SOL    HW132540   0.941   4.107  14.780  1.2707  0.4998  2.2616
 6968SOL    HW232541   1.033   4.085  14.668 -0.5212 -0.8543  0.2057
 6969SOL     OW32542   3.228   4.221   9.917 -0.0051  0.1675  0.0336
 6969SOL    HW132543   3.312   4.209   9.874  0.3877 -0.1228  0.8749
 6969SOL    HW232544   3.177   4.254   9.844 -1.0346 -2.4117 -0.3950
 6970SOL     OW32545   0.479   2.230   2.849  0.6124 -0.2224 -0.4928
 6970SOL    HW132546   0.497   2.295   2.782 -1.2203 -0.8873 -1.6272
 6970SOL    HW232547   0.390   2.198   2.832 -0.1233 -0.0404  3.0165
 6971SOL     OW32548   3.279   0.576   8.040 -0.0020 -0.6597  0.7481
 6971SOL    HW132549   3.271   0.646   8.105 -0.5310  1.0044 -1.1087
 6971SOL    HW232550   3.367   0.586   8.004 -0.9004  0.6001 -1.0835
 6972SOL     OW32551   4.027   1.096   7.808  0.1618 -0.1213  0.2482
 6972SOL    HW132552   4.058   1.187   7.807 -1.5139  0.4749  1.6982
 6972SOL    HW232553   4.066   1.053   7.884  0.7630  1.9770  1.1471
 6973SOL     OW32554   0.963   3.215   8.451 -0.0998  0.2061  0.0470
 6973SOL    HW132555   0.875   3.252   8.453 -0.1755  0.0963 -1.8672
 6973SOL    HW232556   0.991   3.233   8.541 -2.7104  1.5698  0.5928
 6974SOL     OW32557   4.267   4.689  16.667  0.7764 -0.3911 -0.7679
 6974SOL    HW132558   4.333   4.694  16.736  2.5931  0.4528 -2.5970
 6974SOL    HW232559   4.187   4.730  16.702  1.6023 -0.3486  1.0397
 6975SOL     OW32560   1.514   3.631   1.546  0.5601  0.4328  0.4520
 6975SOL    HW132561   1.514   3.714   1.499 -2.0945 -0.1060 -0.5062
 6975SOL    HW232562   1.600   3.636   1.587  1.2401 -0.5301 -0.8949
 6976SOL     OW32563   4.152   0.736  11.744 -0.4459  0.3776 -0.2074
 6976SOL    HW132564   4.144   0.769  11.833 -0.3860 -2.0875  0.7039
 6976SOL    HW232565   4.246   0.747  11.731 -0.1400 -0.5050  1.3729
 6977SOL     OW32566   1.013   2.903  16.259  0.7125  0.1031  0.1398
 6977SOL    HW132567   1.001   2.829  16.200 -0.3836  0.7437 -0.4349
 6977SOL    HW232568   0.930   2.915  16.305  0.1255 -1.1691 -0.6036
 6978SOL     OW32569   0.714   0.597   1.988  0.0474  0.2688  1.0131
 6978SOL    HW132570   0.759   0.552   2.059 -1.2490 -0.9847  1.0484
 6978SOL    HW232571   0.629   0.559   2.014 -0.3806 -0.1567 -1.0020
 6979SOL     OW32572   1.433   3.028   1.935 -0.5347  0.4398  0.0950
 6979SOL    HW132573   1.388   2.948   1.965  0.5318 -0.2784 -0.2280
 6979SOL    HW232574   1.467   3.059   2.019  1.1997  1.7933 -1.1250
 6980SOL     OW32575   3.605   0.437  14.634 -0.1719  0.1928  0.0229
 6980SOL    HW132576   3.553   0.416  14.556 -0.6671 -2.7785  1.1495
 6980SOL    HW232577   3.645   0.519  14.605 -0.2538  0.0915 -0.3759
 6981SOL     OW32578   2.979   0.154   5.842  0.8557  0.1998  0.0597
 6981SOL    HW132579   2.987   0.088   5.773 -1.5718  0.7024 -0.6926
 6981SOL    HW232580   2.939   0.102   5.912 -1.5648 -0.1019 -1.5620
 6982SOL     OW32581   0.984   4.555   7.961  0.4260  1.0614 -0.3562
 6982SOL    HW132582   0.919   4.621   7.936  0.0496  0.9142  0.2150
 6982SOL    HW232583   0.949   4.525   8.045 -0.1224 -1.1909 -1.3767
 6983SOL     OW32584   1.939   2.099   3.627  0.2312 -0.2836  0.0749
 6983SOL    HW132585   1.928   2.115   3.534  2.7839 -2.6634 -0.6673
 6983SOL    HW232586   1.907   2.179   3.666 -0.0903 -0.1197 -0.5335
 6984SOL     OW32587   0.519   1.962   3.005 -0.4153  0.0843  0.1207
 6984SOL    HW132588   0.516   2.057   3.001  1.0441  0.0568 -1.8173
 6984SOL    HW232589   0.607   1.951   3.040  0.6556  1.2721 -2.1990
 6985SOL     OW32590   4.433   2.303   5.798 -0.0600  0.0902 -0.8044
 6985SOL    HW132591   4.370   2.273   5.863 -0.6736 -0.4429 -1.6378
 6985SOL    HW232592   4.388   2.301   5.713 -1.4121 -0.2124 -0.0826
 6986SOL     OW32593   3.012   1.863   6.512 -0.1404  0.0538  0.2375
 6986SOL    HW132594   3.020   1.769   6.528 -0.9149  0.1476  1.2295
 6986SOL    HW232595   3.061   1.905   6.583  1.0240 -2.1921  0.7640
 6987SOL     OW32596   2.370   3.939   1.371 -0.0903  0.3846 -0.5094
 6987SOL    HW132597   2.341   3.849   1.387 -0.0686  0.5436  0.4355
 6987SOL    HW232598   2.372   3.946   1.276  4.0229  2.7238 -0.2285
 6988SOL     OW32599   1.696   0.984   4.946 -0.4925 -0.1185  0.1546
 6988SOL    HW132600   1.758   0.959   5.014 -1.4868 -2.2235  0.2660
 6988SOL    HW232601   1.612   0.961   4.984 -0.4336 -1.3064 -0.4215
 6989SOL     OW32602   4.675   4.038   6.559  0.4487 -0.0381 -0.2159
 6989SOL    HW132603   0.009   4.097   6.575 -0.8636  2.0223 -1.7685
 6989SOL    HW232604   4.705   3.960   6.605  2.5080 -0.2077 -1.8451
 6990SOL     OW32605   0.238   3.374  16.057 -0.6182 -0.3385  1.0070
 6990SOL    HW132606   0.322   3.370  16.104 -0.1840  0.2082  0.2568
 6990SOL    HW232607   0.185   3.327  16.122 -0.7000  0.6677  1.6566
 6991SOL     OW32608   2.904   0.752   1.854 -0.1980 -0.1934  0.6632
 6991SOL    HW132609   2.949   0.822   1.900 -0.5216 -0.3585  1.2309
 6991SOL    HW232610   2.981   0.709   1.817  0.2677  1.5838 -0.4414
 6992SOL     OW32611   1.402   3.087   5.198 -0.3146  0.6928  0.2067
 6992SOL    HW132612   1.370   3.000   5.176  0.9559  0.4940 -0.8430
 6992SOL    HW232613   1.497   3.075   5.191 -0.2739  1.0683  0.0949
 6993SOL     OW32614   3.860   3.621   0.518  0.0184 -0.0577  0.2970
 6993SOL    HW132615   3.779   3.663   0.488  0.4382 -0.5886 -1.5727
 6993SOL    HW232616   3.885   3.571   0.440 -0.3831  1.1464 -0.6143
 6994SOL     OW32617   3.201   2.227  12.832 -0.6543  0.0253 -0.0464
 6994SOL    HW132618   3.288   2.241  12.870  0.1293 -2.9534 -0.7286
 6994SOL    HW232619   3.150   2.307  12.844  0.8036  1.3247 -2.5637
 6995SOL     OW32620   2.553   3.717   3.757  0.1848  0.5774  0.4033
 6995SOL    HW132621   2.568   3.789   3.818  0.3937  1.5798 -0.8281
 6995SOL    HW232622   2.469   3.677   3.781 -0.6502  0.6070 -2.4412
 6996SOL     OW32623   2.576   2.489   3.334  0.1528 -0.2592  0.1869
 6996SOL    HW132624   2.596   2.444   3.253 -2.0764  1.3154 -1.2270
 6996SOL    HW232625   2.502   2.444   3.377 -1.3842  1.1913 -0.9238
 6997SOL     OW32626   2.113   3.250   5.689  0.5081 -0.1904 -0.0183
 6997SOL    HW132627   2.118   3.263   5.595  1.7483 -3.5081 -0.4212
 6997SOL    HW232628   2.086   3.331   5.732  0.6364  0.4893 -1.2412
 6998SOL     OW32629   2.663   1.394   3.412 -0.0428 -0.2140  0.4396
 6998SOL    HW132630   2.601   1.379   3.340  0.0869  0.4163  0.1985
 6998SOL    HW232631   2.620   1.443   3.481  0.8703 -0.5590  1.2458
 6999SOL     OW32632   4.731   3.899   9.733  0.3204  0.4413  0.6153
 6999SOL    HW132633   4.649   3.895   9.781  0.5045  2.2339  1.0494
 6999SOL    HW232634   0.051   3.930   9.801  0.8068  0.7085  0.0644
 7000SOL     OW32635   3.539   4.456   5.477 -0.1856 -0.2651 -0.1888
 7000SOL    HW132636   3.454   4.500   5.474  1.9134  3.9704  2.6832
 7000SOL    HW232637   3.583   4.523   5.529 -1.0880  1.2959 -1.4376
 7001SOL     OW32638   4.443   3.796   5.123  0.3498  0.0816 -1.2005
 7001SOL    HW132639   4.423   3.888   5.138  0.8668 -0.2310  1.5457
 7001SOL    HW232640   4.510   3.813   5.058  2.9741  0.8667  1.6822
 7002SOL     OW32641   0.326   3.162   2.042 -0.1137 -0.3993  0.0653
 7002SOL    HW132642   0.277   3.226   1.991 -2.8608 -1.4193  1.4376
 7002SOL    HW232643   0.361   3.103   1.975 -0.0311  0.5405 -0.7112
 7003SOL     OW32644   3.962   1.374   4.416 -0.6030 -0.1705  0.3291
 7003SOL    HW132645   3.917   1.393   4.498  3.2562  2.2647  1.8518
 7003SOL    HW232646   3.920   1.439   4.360  1.3221  0.5588 -0.2464
 7004SOL     OW32647   1.132   3.484   3.956 -0.0791 -0.5198  0.0375
 7004SOL    HW132648   1.166   3.543   3.889 -1.1185 -0.1777 -0.2033
 7004SOL    HW232649   1.042   3.511   3.935  0.3241 -0.3532 -1.5268
 7005SOL     OW32650   0.594   4.656   3.598 -0.1639 -0.0689  0.4998
 7005SOL    HW132651   0.570   0.002   3.563  2.4652  0.0727 -0.9798
 7005SOL    HW232652   0.665   4.681   3.658  0.8822 -0.0415 -0.7587
 7006SOL     OW32653   0.298   4.535  12.120 -0.4296 -0.4340 -0.4251
 7006SOL    HW132654   0.269   4.615  12.164 -0.4013 -1.7926  2.0589
 7006SOL    HW232655   0.355   4.508  12.192  0.5321 -0.3894 -1.1714
 7007SOL     OW32656   0.866   2.643   6.928 -0.4238  0.0512  0.2345
 7007SOL    HW132657   0.911   2.603   6.854 -1.1954  0.2817 -0.3562
 7007SOL    HW232658   0.931   2.607   6.988  0.8159  1.4804 -0.2574
 7008SOL     OW32659   2.763   0.603   7.172 -0.3630 -0.2479 -0.8350
 7008SOL    HW132660   2.734   0.561   7.091 -2.4328 -0.0022 -0.2267
 7008SOL    HW232661   2.811   0.679   7.139 -0.7078  1.2490  2.1158
 7009SOL     OW32662   2.848   1.603   1.022  0.4643  0.1830  0.2703
 7009SOL    HW132663   2.919   1.545   1.051 -1.2780 -1.8431  0.5167
 7009SOL    HW232664   2.901   1.682   1.028 -0.1797  0.5572  1.1404
 7010SOL     OW32665   2.604   2.429  12.197  0.0527  0.4523 -0.7134
 7010SOL    HW132666   2.655   2.362  12.153 -0.8690 -0.8313  0.1824
 7010SOL    HW232667   2.671   2.473  12.249  0.7014 -1.0925 -0.2690
 7011SOL     OW32668   4.436   3.789   9.511  0.3452  0.2452  0.9042
 7011SOL    HW132669   4.353   3.766   9.470  1.8578 -0.7138 -1.6332
 7011SOL    HW232670   4.497   3.801   9.438  0.3265 -0.4214  0.7732
 7012SOL     OW32671   4.443   3.284   7.082  0.0439  0.2760 -0.6528
 7012SOL    HW132672   4.422   3.258   7.172 -0.7473  0.6311 -0.7339
 7012SOL    HW232673   4.537   3.292   7.098 -0.1358 -1.3818  1.1606
 7013SOL     OW32674   1.625   4.308   3.283  0.3623 -0.9675  0.2665
 7013SOL    HW132675   1.617   4.341   3.193 -0.4900 -1.5478  0.1197
 7013SOL    HW232676   1.680   4.380   3.312  0.1611 -0.7030 -0.0078
 7014SOL     OW32677   0.352   1.180  11.720  0.4872  0.1183  0.6097
 7014SOL    HW132678   0.394   1.196  11.636 -0.2930  0.3856  0.2682
 7014SOL    HW232679   0.431   1.182  11.774  0.8051  1.0321  0.1215
 7015SOL     OW32680   0.624   0.729   5.827  0.1203 -0.1821  0.0164
 7015SOL    HW132681   0.711   0.740   5.866 -0.7878  0.7158  1.7997
 7015SOL    HW232682   0.589   0.817   5.816 -1.1112 -0.5580  0.9435
 7016SOL     OW32683   4.044   1.731   1.808 -0.4219 -0.1261  0.1770
 7016SOL    HW132684   4.030   1.792   1.881 -1.1113 -1.2156  0.9576
 7016SOL    HW232685   4.133   1.701   1.822 -0.2884  0.0838 -0.2075
 7017SOL     OW32686   2.616   1.024  11.949  0.2491 -0.1282 -0.2126
 7017SOL    HW132687   2.599   1.115  11.928 -1.7572 -0.9318 -2.1201
 7017SOL    HW232688   2.699   1.028  11.995  1.4086  0.3693 -2.3494
 7018SOL     OW32689   0.233   3.033  13.962 -0.0492  0.2896  0.2722
 7018SOL    HW132690   0.220   3.096  13.891  0.5124  1.0340  0.8341
 7018SOL    HW232691   0.155   2.977  13.960  1.4444 -1.7043 -0.8755
 7019SOL     OW32692   3.784   0.760   2.130  0.4016 -0.8811 -0.2814
 7019SOL    HW132693   3.779   0.742   2.224 -1.7902 -0.0364 -0.2242
 7019SOL    HW232694   3.842   0.695   2.090 -0.6022 -1.6207 -0.5433
 7020SOL     OW32695   2.213   1.610  17.221  0.2967  0.2490  0.2013
 7020SOL    HW132696   2.180   1.699  17.206  1.0667  0.6470  0.8351
 7020SOL    HW232697   2.171   1.552  17.158  0.6429  1.7087 -1.3863
 7021SOL     OW32698   2.880   2.710   9.042 -0.1258  0.1732  0.5071
 7021SOL    HW132699   2.819   2.711   8.968 -1.6048  0.8578  1.7394
 7021SOL    HW232700   2.937   2.635   9.025 -0.3580  0.3625 -1.1461
 7022SOL     OW32701   1.742   4.080  12.900 -0.3670  0.5515 -0.0415
 7022SOL    HW132702   1.657   4.124  12.908 -0.3724  0.6510 -0.6097
 7022SOL    HW232703   1.738   4.048  12.810 -0.3603 -0.3674  0.2902
 7023SOL     OW32704   1.870   0.887   4.109  0.1389 -0.0884  0.0847
 7023SOL    HW132705   1.916   0.873   4.192  3.6874 -0.8178 -1.9816
 7023SOL    HW232706   1.865   0.803   4.062  1.4727 -0.1656  0.0586
 7024SOL     OW32707   0.394   2.748  12.847 -0.1101  0.0529 -0.3803
 7024SOL    HW132708   0.431   2.753  12.759 -0.5714 -1.9367 -0.7073
 7024SOL    HW232709   0.328   2.817  12.849  0.6054  0.6649  1.8871
 7025SOL     OW32710   0.710   2.838   7.775  0.4663 -0.1979 -0.2218
 7025SOL    HW132711   0.675   2.912   7.726 -1.7116 -0.2664  1.2230
 7025SOL    HW232712   0.783   2.810   7.719  0.3587 -0.6978 -0.1102
 7026SOL     OW32713   4.060   0.083  16.768 -0.0573 -0.2422  0.2588
 7026SOL    HW132714   4.037   0.125  16.851  1.1609 -0.0272  0.4895
 7026SOL    HW232715   4.090   0.154  16.711 -0.4467 -0.1892  0.1222
 7027SOL     OW32716   4.683   1.841   3.459  0.0718 -0.2045  0.4313
 7027SOL    HW132717   4.722   1.767   3.412 -1.5023  0.5353 -2.0074
 7027SOL    HW232718   4.592   1.812   3.460  0.2032 -0.7327 -3.7225
 7028SOL     OW32719   3.973   1.761   4.237  0.8131  0.1177 -0.1544
 7028SOL    HW132720   4.037   1.693   4.215  2.2831  1.6557 -0.6648
 7028SOL    HW232721   3.942   1.770   4.146 -0.0294 -1.2784 -0.0090
 7029SOL     OW32722   2.363   3.021  11.724  0.2741 -0.1762 -0.0211
 7029SOL    HW132723   2.291   3.016  11.661 -1.4144  2.8540  1.6547
 7029SOL    HW232724   2.407   2.937  11.713  0.5712 -0.3160  2.2180
 7030SOL     OW32725   2.720   0.927  16.533 -0.5548 -0.2550 -0.3217
 7030SOL    HW132726   2.770   0.976  16.468  1.7399 -0.1975  1.4648
 7030SOL    HW232727   2.650   0.989  16.551 -0.1918  0.5850 -1.8543
 7031SOL     OW32728   4.578   0.639   6.375  0.0300  0.5233 -0.1603
 7031SOL    HW132729   4.503   0.674   6.422  0.6492 -0.3520  1.4715
 7031SOL    HW232730   4.610   0.573   6.437 -0.3267  1.2221  0.7643
 7032SOL     OW32731   1.302   3.040   3.629 -0.1443  0.0895 -0.0427
 7032SOL    HW132732   1.280   3.118   3.680 -0.3262  0.8517 -1.2929
 7032SOL    HW232733   1.390   3.056   3.595  0.0781 -0.1859  0.4016
 7033SOL     OW32734   4.465   2.109  12.966  0.3663  0.5092 -0.6132
 7033SOL    HW132735   4.507   2.068  12.891 -0.0701 -0.6668 -0.2208
 7033SOL    HW232736   4.499   2.198  12.964 -1.0867  1.0870  0.1963
 7034SOL     OW32737   4.076   4.698  15.710  0.0224  0.2491  0.7565
 7034SOL    HW132738   4.130   0.031  15.743  0.5621  0.2397 -0.0973
 7034SOL    HW232739   4.042   0.005  15.634  1.1974 -1.4229 -0.7720
 7035SOL     OW32740   1.919   1.188   3.470 -0.2912 -0.5711  0.3395
 7035SOL    HW132741   2.009   1.217   3.476 -0.7585  0.1648  3.6809
 7035SOL    HW232742   1.926   1.135   3.390  0.7753  0.4169 -0.2145
 7036SOL     OW32743   3.784   1.958   3.754  0.2465 -0.4606 -0.1200
 7036SOL    HW132744   3.843   2.033   3.763  1.0588 -1.2065  0.7338
 7036SOL    HW232745   3.715   1.997   3.701 -0.7972 -0.6752  1.0879
 7037SOL     OW32746   4.049   4.677   6.843 -0.3876 -0.1512 -0.1553
 7037SOL    HW132747   3.982   4.657   6.778 -0.2025 -1.8987  0.1877
 7037SOL    HW232748   3.986   4.662   6.913  0.2065  0.3369  0.4821
 7038SOL     OW32749   4.617   2.962   0.708 -0.2214 -0.3239 -0.0301
 7038SOL    HW132750   4.614   3.002   0.621 -1.5986  0.9617  0.6047
 7038SOL    HW232751   4.666   2.881   0.695 -0.5970 -1.0693  3.2752
 7039SOL     OW32752   2.351   0.867  11.122 -0.4997  0.1217 -0.4947
 7039SOL    HW132753   2.415   0.819  11.069  0.2371 -0.2051  0.6737
 7039SOL    HW232754   2.289   0.858  11.050 -0.6065  2.0334 -0.6427
 7040SOL     OW32755   2.631   1.446  10.753 -0.0504  0.4360 -0.2994
 7040SOL    HW132756   2.706   1.473  10.806 -1.3743 -2.4749  2.9940
 7040SOL    HW232757   2.580   1.387  10.808 -0.7850  0.8058 -0.5889
 7041SOL     OW32758   1.925   1.686   8.756  0.6446  0.0328 -0.0923
 7041SOL    HW132759   1.919   1.690   8.851  2.4793  0.2809  0.0167
 7041SOL    HW232760   1.833   1.679   8.731  0.8715  0.9712 -1.1791
 7042SOL     OW32761   3.031   3.259  12.128 -0.2739  0.4410  0.1648
 7042SOL    HW132762   2.977   3.273  12.050  0.7431 -0.5368 -0.7267
 7042SOL    HW232763   3.111   3.234  12.080 -1.1861 -0.9476 -0.6446
 7043SOL     OW32764   3.862   3.254  16.981  1.1852 -0.0278 -0.4288
 7043SOL    HW132765   3.798   3.187  17.006  0.5198  1.2149  1.1579
 7043SOL    HW232766   3.829   3.262  16.891  1.6638  1.1742 -0.4965
 7044SOL     OW32767   0.778   3.686   7.896 -0.0909  0.2021 -0.2519
 7044SOL    HW132768   0.704   3.746   7.885 -1.4074 -1.5814 -1.0817
 7044SOL    HW232769   0.757   3.647   7.981  0.9367  0.8579  0.3043
 7045SOL     OW32770   2.413   4.170   5.673 -0.4316  0.1729 -0.2471
 7045SOL    HW132771   2.412   4.242   5.737 -2.5175 -0.4258  0.3776
 7045SOL    HW232772   2.502   4.179   5.640 -0.4120  1.3283  0.1130
 7046SOL     OW32773   4.494   0.053   5.429 -0.2119  0.3963 -0.1368
 7046SOL    HW132774   4.582   0.079   5.457 -0.3999  1.9374 -0.9745
 7046SOL    HW232775   4.479   0.115   5.358 -0.6321 -1.0267 -1.2860
 7047SOL     OW32776   3.437   1.931   4.707  0.0637 -0.1472 -0.4321
 7047SOL    HW132777   3.499   1.921   4.780 -0.2432 -0.4672 -0.2178
 7047SOL    HW232778   3.358   1.933   4.761  0.7290  0.0056  0.5379
 7048SOL     OW32779   3.343   0.911  11.089  0.4822  0.2480 -0.6602
 7048SOL    HW132780   3.251   0.906  11.115  1.2182  0.9208  2.1468
 7048SOL    HW232781   3.338   0.901  10.994 -1.2017  0.9714 -0.6526
 7049SOL     OW32782   1.884   1.757  11.364  0.4076 -0.0359  0.6804
 7049SOL    HW132783   1.901   1.690  11.430  1.6073  0.2521  0.6760
 7049SOL    HW232784   1.975   1.789  11.362  0.0197  1.2015  2.3712
 7050SOL     OW32785   0.797   2.943   2.324 -0.1917 -0.4560 -0.0530
 7050SOL    HW132786   0.713   2.982   2.301 -0.1644 -1.5661 -2.1265
 7050SOL    HW232787   0.859   3.006   2.287  0.6978 -0.9180  0.6494
 7051SOL     OW32788   1.206   0.752   1.045  0.2185  0.2719  0.1399
 7051SOL    HW132789   1.216   0.706   1.129  3.2598 -0.3546 -0.5797
 7051SOL    HW232790   1.230   0.839   1.077 -1.8273  0.6643  0.6041
 7052SOL     OW32791   3.059   0.111   6.314  0.1298 -0.0250  0.2297
 7052SOL    HW132792   3.052   0.027   6.360 -0.1128 -0.7208 -1.0738
 7052SOL    HW232793   3.051   0.086   6.222  1.3204  1.2094 -0.2036
 7053SOL     OW32794   2.370   1.608   8.409 -0.1535 -0.1463  0.1071
 7053SOL    HW132795   2.326   1.587   8.492  0.6193  1.5193  0.9415
 7053SOL    HW232796   2.400   1.520   8.384  2.5375  0.6737  0.4429
 7054SOL     OW32797   4.175   0.464  16.839 -0.6406 -0.3498  0.3125
 7054SOL    HW132798   4.143   0.554  16.850 -1.0118 -0.2169 -1.8362
 7054SOL    HW232799   4.243   0.487  16.776 -0.2593 -0.8112  0.5609
 7055SOL     OW32800   3.443   1.493   9.006  0.3250  0.0186  0.2409
 7055SOL    HW132801   3.501   1.531   9.072 -1.7462  1.5576  1.1590
 7055SOL    HW232802   3.355   1.526   9.020  0.9651  2.7626 -2.3022
 7056SOL     OW32803   1.324   0.259   8.165  0.2054  0.0178  0.0779
 7056SOL    HW132804   1.272   0.193   8.209  1.6704  0.2895  2.2074
 7056SOL    HW232805   1.396   0.267   8.227 -0.0223 -0.1826  0.3640
 7057SOL     OW32806   0.534   2.440   7.527 -0.3441 -0.1485 -0.3471
 7057SOL    HW132807   0.542   2.374   7.596 -1.5089  1.5167  1.3769
 7057SOL    HW232808   0.451   2.476   7.560  0.9528  1.7437  0.8650
 7058SOL     OW32809   1.432   3.437  13.197 -0.2884  0.1680 -0.0051
 7058SOL    HW132810   1.513   3.453  13.246  0.2779  1.4207 -1.3341
 7058SOL    HW232811   1.409   3.525  13.166 -1.1412 -0.7629 -2.0388
 7059SOL     OW32812   0.626   3.672   5.977  0.3078  0.1673 -0.3938
 7059SOL    HW132813   0.717   3.673   6.008 -0.0776  0.3615  0.7574
 7059SOL    HW232814   0.645   3.720   5.897  1.4767 -0.5043 -0.5141
 7060SOL     OW32815   0.534   2.297   3.115  0.1794 -0.1627  0.2587
 7060SOL    HW132816   0.520   2.281   3.022 -1.1121  0.0500  0.4178
 7060SOL    HW232817   0.628   2.281   3.111  0.0920 -0.3538 -1.0835
 7061SOL     OW32818   0.165   2.813  17.353  0.1180  0.2091 -0.4803
 7061SOL    HW132819   0.101   2.763  17.304 -1.3204  1.4274  0.1570
 7061SOL    HW232820   0.216   2.745  17.397 -0.5209 -0.9767 -1.6092
 7062SOL     OW32821   4.268   2.152   1.998 -0.0564  0.3452  0.4253
 7062SOL    HW132822   4.360   2.145   1.972 -0.4180 -0.2493 -0.6950
 7062SOL    HW232823   4.238   2.236   1.965 -0.0617  0.5708  1.0037
 7063SOL     OW32824   3.491   1.823  11.006  0.2904  0.1846  0.0527
 7063SOL    HW132825   3.550   1.890  10.971  0.2084  0.1814 -0.0919
 7063SOL    HW232826   3.464   1.869  11.085  0.3842  1.5301 -0.7003
 7064SOL     OW32827   1.015   3.074   4.020  0.6105  0.1217  0.3235
 7064SOL    HW132828   1.060   3.027   4.091  2.4049 -0.1818 -1.0223
 7064SOL    HW232829   1.028   3.011   3.949  0.0364  0.0223  0.3108
 7065SOL     OW32830   2.950   0.019   3.175  0.2817 -0.2947  0.0402
 7065SOL    HW132831   3.029   4.716   3.140  0.7654 -0.8502  1.7707
 7065SOL    HW232832   2.890   4.721   3.110  0.8772  1.4716 -1.5067
 7066SOL     OW32833   4.736   1.200   9.288  0.0021  1.2596  0.2022
 7066SOL    HW132834   4.720   1.160   9.202 -0.9142  4.6902 -1.2286
 7066SOL    HW232835   0.061   1.136   9.318  0.1774  0.8190 -1.0828
 7067SOL     OW32836   2.390   1.087   3.132 -0.3002  0.4684  0.8498
 7067SOL    HW132837   2.390   1.091   3.036 -0.4920 -1.1447  0.7891
 7067SOL    HW232838   2.390   0.992   3.145 -0.8055  0.1509 -1.3697
 7068SOL     OW32839   1.550   4.545   7.137 -0.3925  0.0038  0.0955
 7068SOL    HW132840   1.642   4.556   7.110 -1.0055  0.5357 -1.8140
 7068SOL    HW232841   1.564   4.502   7.221  0.7467  0.9134  0.3802
 7069SOL     OW32842   1.935   2.492   7.531 -0.0392  0.1888  0.5136
 7069SOL    HW132843   1.865   2.457   7.586  0.2575 -2.0654 -0.5393
 7069SOL    HW232844   1.963   2.579   7.560  0.1904  0.0294  0.7688
 7070SOL     OW32845   2.368   3.543  11.468  0.1266 -0.4869  0.4616
 7070SOL    HW132846   2.426   3.498  11.406 -0.8252 -1.8721  0.5787
 7070SOL    HW232847   2.350   3.474  11.532 -1.9830 -0.6197 -0.2890
 7071SOL     OW32848   1.900   0.069  16.371 -0.0959  0.2118 -0.5085
 7071SOL    HW132849   1.981   0.019  16.376 -0.9380 -0.8562  1.9796
 7071SOL    HW232850   1.873   0.052  16.281  0.6922  1.3256 -0.9700
 7072SOL     OW32851   2.151   1.534   4.219 -0.3517  0.1087  0.3639
 7072SOL    HW132852   2.078   1.566   4.272 -0.2185  0.7780  0.1446
 7072SOL    HW232853   2.211   1.604   4.246 -0.8129  1.6484 -2.6111
 7073SOL     OW32854   2.532   0.733   7.378 -0.7371  0.4818  0.5528
 7073SOL    HW132855   2.491   0.774   7.302  0.0417  0.8794  0.3449
 7073SOL    HW232856   2.618   0.774   7.385  0.9262 -2.9602  0.4720
 7074SOL     OW32857   3.093   3.460   3.217  0.0702 -0.6036  0.3194
 7074SOL    HW132858   3.157   3.449   3.287  0.6678 -0.6892 -0.2431
 7074SOL    HW232859   3.131   3.540   3.179  1.6141 -1.3915  0.2057
 7075SOL     OW32860   2.697   0.309  11.516 -0.0366  0.2731 -0.2089
 7075SOL    HW132861   2.737   0.228  11.547 -1.4419  0.3176  1.7377
 7075SOL    HW232862   2.633   0.278  11.452 -0.4463 -0.6380  0.6414
 7076SOL     OW32863   3.907   1.396   4.681 -0.1949 -0.1813 -0.1537
 7076SOL    HW132864   3.942   1.479   4.713  0.5422  0.7624 -3.3880
 7076SOL    HW232865   3.909   1.349   4.764 -2.6297  0.1897  0.1405
 7077SOL     OW32866   2.214   2.955   6.786 -0.3718  0.5065 -0.3077
 7077SOL    HW132867   2.134   2.996   6.753  0.8559  2.3291 -0.9837
 7077SOL    HW232868   2.187   2.946   6.878  2.0180 -0.2365  0.3107
 7078SOL     OW32869   3.621   0.180  17.733 -0.2284 -0.0138 -0.4859
 7078SOL    HW132870   3.532   0.160   0.009  0.5449 -1.5990  0.6905
 7078SOL    HW232871   3.665   0.208   0.058 -1.6263  0.2595  0.2026
 7079SOL     OW32872   1.838   2.782   3.319  0.5839 -0.1563 -0.3195
 7079SOL    HW132873   1.837   2.826   3.404  1.0591  0.5430 -0.6725
 7079SOL    HW232874   1.781   2.707   3.333  0.2777  0.3420  1.0917
 7080SOL     OW32875   3.819   4.608   7.036  0.2144  0.5023 -0.6567
 7080SOL    HW132876   3.724   4.601   7.033  0.5207 -3.2022 -2.9541
 7080SOL    HW232877   3.829   4.682   7.095 -1.4230  1.1017 -1.1405
 7081SOL     OW32878   4.011   2.185   9.605  0.1966  0.0652  0.4891
 7081SOL    HW132879   3.974   2.249   9.665  1.8935  1.3767  0.1278
 7081SOL    HW232880   3.936   2.127   9.591 -1.6884  2.7456 -0.3743
 7082SOL     OW32881   1.531   3.110  16.533  0.4250  0.5477 -0.4998
 7082SOL    HW132882   1.464   3.124  16.601  0.9686 -1.6966  0.5328
 7082SOL    HW232883   1.483   3.046  16.480 -0.2593  0.1980  0.5408
 7083SOL     OW32884   0.188   3.868   2.350  0.4332  0.1426  0.0322
 7083SOL    HW132885   0.237   3.904   2.424 -0.1434  1.7998 -0.4036
 7083SOL    HW232886   0.157   3.789   2.395 -0.4231  0.1202 -0.6062
 7084SOL     OW32887   1.257   4.018  14.384  0.0152 -0.2413 -0.4738
 7084SOL    HW132888   1.203   3.990  14.459  1.0911  0.1719  0.4494
 7084SOL    HW232889   1.329   4.069  14.422 -0.6403 -0.2567  0.8148
 7085SOL     OW32890   4.292   3.746   8.195 -0.2682 -0.0751  0.2524
 7085SOL    HW132891   4.383   3.735   8.222 -0.4981 -1.3102  0.5229
 7085SOL    HW232892   4.254   3.711   8.276 -0.9339 -0.8729 -0.4085
 7086SOL     OW32893   0.018   1.440   7.330 -0.1151  0.2023  0.2974
 7086SOL    HW132894   0.113   1.431   7.324 -0.0176  0.2191  1.8760
 7086SOL    HW232895   4.734   1.412   7.241  2.3055 -1.2339  0.1250
 7087SOL     OW32896   1.136   2.163   2.456 -0.5883 -0.0468  0.5271
 7087SOL    HW132897   1.209   2.182   2.396 -3.7813 -0.8126 -3.6374
 7087SOL    HW232898   1.070   2.155   2.387 -1.6270  0.7470  1.4439
 7088SOL     OW32899   4.253   4.658   3.901  0.2148 -0.1721  0.6341
 7088SOL    HW132900   4.232   0.011   3.886  0.4460 -0.2341 -0.0563
 7088SOL    HW232901   4.288   4.641   3.813 -0.9394 -1.4934  0.4349
 7089SOL     OW32902   2.540   3.207  11.861  0.2978  0.2463 -0.4244
 7089SOL    HW132903   2.555   3.177  11.951 -0.6407  2.1614  0.3516
 7089SOL    HW232904   2.482   3.141  11.822  0.9555  0.1813 -1.2852
 7090SOL     OW32905   1.801   2.765   2.364 -0.6154  0.1177  0.7260
 7090SOL    HW132906   1.803   2.844   2.418  2.0774 -1.4706  2.8990
 7090SOL    HW232907   1.819   2.808   2.280 -1.7188  0.9067  0.8844
 7091SOL     OW32908   2.571   1.702   7.930 -0.3743 -0.1357  0.2699
 7091SOL    HW132909   2.535   1.771   7.986  0.6975 -0.1547  0.9923
 7091SOL    HW232910   2.602   1.770   7.870 -1.2223 -0.1395 -0.1795
 7092SOL     OW32911   0.742   4.100   9.417  0.2297 -0.8689  0.5389
 7092SOL    HW132912   0.730   4.053   9.334 -3.1896  0.5947  0.2125
 7092SOL    HW232913   0.659   4.082   9.461  0.2976 -0.8035  0.6963
 7093SOL     OW32914   3.462   1.066  10.296 -0.0976  0.4047 -0.4523
 7093SOL    HW132915   3.519   1.132  10.257 -0.4404  0.0979 -1.4830
 7093SOL    HW232916   3.518   0.990  10.282  0.2168  0.3063  1.3783
 7094SOL     OW32917   1.221   0.743   4.613 -0.7670 -0.7087  0.1032
 7094SOL    HW132918   1.295   0.709   4.561  0.1704  2.0248 -0.3258
 7094SOL    HW232919   1.208   0.832   4.583  2.0312  0.0380  1.0746
 7095SOL     OW32920   1.541   3.700   5.889 -0.0673  0.0453  0.5063
 7095SOL    HW132921   1.452   3.683   5.859  0.8828 -3.0746 -0.5468
 7095SOL    HW232922   1.556   3.608   5.914  0.7296  0.2356  0.7268
 7096SOL     OW32923   2.073   0.449  12.425  0.2538 -0.2861  0.4223
 7096SOL    HW132924   2.121   0.510  12.482 -1.6707  2.0848 -0.5040
 7096SOL    HW232925   1.989   0.495  12.419  0.8638  0.8619  0.6282
 7097SOL     OW32926   1.240   0.663   1.849  0.0822 -0.1340 -0.1313
 7097SOL    HW132927   1.198   0.619   1.775  0.3925 -1.2662  0.3728
 7097SOL    HW232928   1.169   0.664   1.913 -1.9434 -1.5547 -2.3221
 7098SOL     OW32929   1.426   3.801   2.220 -0.8164  0.5708  0.1135
 7098SOL    HW132930   1.440   3.774   2.129 -1.0149 -2.5403  0.9900
 7098SOL    HW232931   1.366   3.733   2.250 -0.3443  1.0102  2.0573
 7099SOL     OW32932   4.516   2.390  17.366  0.0822 -0.2825 -0.0641
 7099SOL    HW132933   4.563   2.444  17.429 -1.5185  1.2242 -0.1797
 7099SOL    HW232934   4.591   2.373  17.308  0.7342 -0.4825  0.8336
 7100SOL     OW32935   0.777   0.352   4.722  0.3028  0.3785 -0.0405
 7100SOL    HW132936   0.869   0.371   4.703  0.1464  1.8818  0.6493
 7100SOL    HW232937   0.781   0.259   4.703 -0.5739  0.6713 -1.5718
 7101SOL     OW32938   3.165   2.049  15.466  0.0107 -0.3290  0.2120
 7101SOL    HW132939   3.250   2.022  15.431 -0.3485 -0.2335 -0.7162
 7101SOL    HW232940   3.174   2.142  15.446 -0.6485 -0.2183  0.4318
 7102SOL     OW32941   0.552   4.297   9.669 -0.1038 -0.1863 -0.5313
 7102SOL    HW132942   0.640   4.260   9.680  0.1323  0.7249  0.6613
 7102SOL    HW232943   0.557   4.384   9.709 -0.1667  0.1307 -1.1991
 7103SOL     OW32944   3.156   2.892   3.252 -0.1428  0.1766 -0.4131
 7103SOL    HW132945   3.214   2.816   3.243  0.8518  1.0446 -1.3122
 7103SOL    HW232946   3.159   2.895   3.348 -2.4488  0.0630 -0.3314
 7104SOL     OW32947   4.562   1.446   9.734 -0.1906 -0.3262 -0.2892
 7104SOL    HW132948   4.586   1.385   9.664  0.3280  2.3208 -2.3996
 7104SOL    HW232949   4.582   1.527   9.687  0.0187 -0.7517 -0.9253
 7105SOL     OW32950   2.975   2.287   3.940 -0.0049  0.3273  0.5028
 7105SOL    HW132951   2.933   2.222   3.997  2.4707 -1.1514  0.6425
 7105SOL    HW232952   2.980   2.234   3.861  1.9340  0.1866  0.7296
 7106SOL     OW32953   4.673   2.571  17.494  0.0754 -0.3597 -0.1662
 7106SOL    HW132954   4.634   2.658  17.504  1.2340  0.4295 -2.4702
 7106SOL    HW232955   0.000   2.556  17.562  0.4919 -2.3055 -1.0086
 7107SOL     OW32956   0.019   2.274   6.796 -0.1907  0.3897 -0.5542
 7107SOL    HW132957   4.692   2.216   6.760 -0.5329  0.8040 -0.5942
 7107SOL    HW232958   0.090   2.255   6.735 -1.7953 -0.3881 -2.1756
 7108SOL     OW32959   2.015   2.962   7.694  0.0538 -0.0406  0.4508
 7108SOL    HW132960   2.076   2.918   7.754  0.0660 -0.9365 -0.2236
 7108SOL    HW232961   2.058   3.048   7.698  3.4549 -1.7182  0.0496
 7109SOL     OW32962   0.043   3.674   5.536  0.5598 -0.1651  0.2905
 7109SOL    HW132963   0.094   3.754   5.544  0.9127  0.0865 -4.0462
 7109SOL    HW232964   0.079   3.614   5.602 -0.7471 -1.6418 -0.3389
 7110SOL     OW32965   4.476   1.948   7.303  0.1756  0.2014  0.1608
 7110SOL    HW132966   4.571   1.960   7.297  0.0877  0.2081 -1.2956
 7110SOL    HW232967   4.456   1.885   7.233 -1.3196  0.8320  0.0130
 7111SOL     OW32968   2.725   1.684   3.950 -0.3348  0.2310 -0.0378
 7111SOL    HW132969   2.740   1.589   3.942 -4.3286 -0.4853  0.8091
 7111SOL    HW232970   2.733   1.701   3.857  0.6649  2.2831  0.4242
 7112SOL     OW32971   2.822   4.666  16.244 -1.0213 -0.0111  0.0124
 7112SOL    HW132972   2.839   0.013  16.207  0.4755 -0.4109 -0.2155
 7112SOL    HW232973   2.737   4.674  16.287 -2.0580 -1.9864 -1.6050
 7113SOL     OW32974   2.565   1.359  11.302 -0.1827  0.2937  0.2464
 7113SOL    HW132975   2.588   1.269  11.278 -2.1329 -0.2143  0.2037
 7113SOL    HW232976   2.603   1.406  11.229  2.2286 -1.6041  0.2837
 7114SOL     OW32977   3.572   1.711   6.624  0.4605 -0.4384 -0.5049
 7114SOL    HW132978   3.570   1.771   6.699  1.1944 -1.5795  0.4262
 7114SOL    HW232979   3.664   1.729   6.603  0.5654 -0.6930 -0.2606
 7115SOL     OW32980   2.972   1.053   2.436  0.5733 -0.3375  0.0636
 7115SOL    HW132981   3.032   1.126   2.420 -0.4453  0.4107 -0.4012
 7115SOL    HW232982   2.951   1.058   2.529 -1.6093  2.0596 -0.5365
 7116SOL     OW32983   4.130   3.729   4.984 -0.1925 -0.6536  0.6965
 7116SOL    HW132984   4.174   3.800   4.936  0.1560 -2.4523 -1.6546
 7116SOL    HW232985   4.118   3.657   4.921 -0.2315  0.2508 -0.3414
 7117SOL     OW32986   0.240   3.564  12.029  0.4062  0.7773 -1.0558
 7117SOL    HW132987   0.322   3.613  12.032  1.1770 -0.6461  0.8340
 7117SOL    HW232988   0.179   3.633  12.002 -0.4566  0.6616  0.6073
 7118SOL     OW32989   3.440   1.019   5.082 -0.3961  0.2679 -0.5920
 7118SOL    HW132990   3.416   1.107   5.111  1.2900  0.0641  1.4123
 7118SOL    HW232991   3.433   0.971   5.165 -2.5942  1.0833 -0.2822
 7119SOL     OW32992   1.751   1.063   2.977  0.0769 -0.0208 -0.3663
 7119SOL    HW132993   1.691   1.118   2.927 -0.9106  0.3938  1.2917
 7119SOL    HW232994   1.832   1.099   2.940 -2.2827  3.5698 -2.0705
 7120SOL     OW32995   1.355   3.185   0.576 -0.2665  0.5359  0.2379
 7120SOL    HW132996   1.269   3.156   0.607 -0.3349  0.3315 -0.1353
 7120SOL    HW232997   1.332   3.277   0.563 -0.5756  0.4722  0.3364
 7121SOL     OW32998   0.203   2.241   7.244  0.1974 -0.1400  0.1194
 7121SOL    HW132999   0.108   2.233   7.250  0.3965 -0.8062  2.2466
 7121SOL    HW233000   0.224   2.289   7.164  2.8124  1.3635  1.6751
 7122SOL     OW33001   2.724   1.707   2.599  0.1839  0.0409  0.0407
 7122SOL    HW133002   2.779   1.675   2.670  0.8769 -0.2649 -0.6330
 7122SOL    HW233003   2.670   1.630   2.579 -2.0182  1.5747  0.0700
 7123SOL     OW33004   2.128   2.597   3.981  0.6310  0.4004  0.0764
 7123SOL    HW133005   2.116   2.573   4.073  2.1100 -0.3372  0.0849
 7123SOL    HW233006   2.059   2.662   3.967 -0.1932 -0.7315 -1.0812
 7124SOL     OW33007   2.589   2.427  14.069  0.5793  0.4348 -0.3544
 7124SOL    HW133008   2.553   2.507  14.030 -0.2009  0.1459 -0.2321
 7124SOL    HW233009   2.677   2.424  14.031 -0.5469 -2.1484 -2.7702
 7125SOL     OW33010   1.502   3.385   3.376 -0.4663  0.2528 -0.0137
 7125SOL    HW133011   1.473   3.425   3.457 -0.1743 -3.5457  1.9620
 7125SOL    HW233012   1.504   3.460   3.317  1.5296 -0.6729 -1.1613
 7126SOL     OW33013   1.824   0.228   7.669  0.7458  0.2620 -0.1261
 7126SOL    HW133014   1.878   0.181   7.734  0.1344 -0.7920 -0.3788
 7126SOL    HW233015   1.828   0.317   7.702  0.7276 -0.9054  3.0176
 7127SOL     OW33016   3.930   0.663  12.371  0.9559  0.1929  0.8564
 7127SOL    HW133017   3.884   0.688  12.291  2.1023 -1.7102 -0.3971
 7127SOL    HW233018   3.851   0.672  12.425 -0.0349  0.2944 -0.6031
 7128SOL     OW33019   1.763   2.525  12.607 -0.1171 -0.4379 -0.4451
 7128SOL    HW133020   1.691   2.536  12.545 -2.6996 -3.8562  1.9431
 7128SOL    HW233021   1.834   2.525  12.543 -0.8573  1.1995 -1.2451
 7129SOL     OW33022   1.689   0.769   9.417  0.2366  0.1517  0.6840
 7129SOL    HW133023   1.609   0.796   9.462  0.4757  2.3781 -0.1953
 7129SOL    HW233024   1.684   0.674   9.429 -0.1735  0.2608  1.3519
 7130SOL     OW33025   3.005   1.401  11.217 -0.1920 -0.4346 -0.0392
 7130SOL    HW133026   2.948   1.456  11.163 -0.5991  0.5895  1.4491
 7130SOL    HW233027   3.016   1.469  11.283 -3.0931  0.2543 -0.2611
 7131SOL     OW33028   1.861   0.730   1.218 -0.1244 -0.1429  0.4971
 7131SOL    HW133029   1.787   0.683   1.258 -1.2927  0.8545 -0.4980
 7131SOL    HW233030   1.906   0.655   1.178 -0.2859 -0.2125  0.4436
 7132SOL     OW33031   3.849   4.630   7.984 -0.0495 -0.1869  0.0266
 7132SOL    HW133032   3.852   4.677   8.067 -1.0116 -1.7290  0.9332
 7132SOL    HW233033   3.901   4.553   8.006  1.8626  0.9866 -0.3586
 7133SOL     OW33034   3.496   3.239  12.178  0.3425  0.1937  1.0301
 7133SOL    HW133035   3.459   3.302  12.239 -5.0095  0.2149 -2.2751
 7133SOL    HW233036   3.590   3.237  12.198  0.6768 -0.0102 -0.5348
 7134SOL     OW33037   2.767   0.714   4.407 -0.2188 -0.6137  0.1191
 7134SOL    HW133038   2.686   0.664   4.400 -0.2453 -0.3362 -1.6363
 7134SOL    HW233039   2.838   0.658   4.376  0.6798  0.3705  0.4097
 7135SOL     OW33040   4.641   1.678   7.381 -0.4627  0.5576 -0.1368
 7135SOL    HW133041   4.711   1.632   7.335 -1.0684  0.6675 -1.1652
 7135SOL    HW233042   4.666   1.767   7.356  2.4897 -0.1993  0.1074
 7136SOL     OW33043   0.123   3.551   5.284  0.0825 -0.0249 -0.0413
 7136SOL    HW133044   0.174   3.492   5.340 -0.8469  0.8242  1.6979
 7136SOL    HW233045   0.100   3.621   5.345 -0.1811 -0.6275  0.5561
 7137SOL     OW33046   0.350   3.831   7.881  0.0500 -0.5277  0.0237
 7137SOL    HW133047   0.337   3.926   7.875 -0.8743 -0.7351 -1.0469
 7137SOL    HW233048   0.357   3.821   7.976 -0.9322 -0.0753  0.1453
 7138SOL     OW33049   1.702   1.317   7.659  0.5372  0.4892  0.0411
 7138SOL    HW133050   1.702   1.225   7.685 -2.9056  0.1513 -1.1376
 7138SOL    HW233051   1.609   1.334   7.677  0.2946 -0.1832 -0.5318
 7139SOL     OW33052   2.162   4.517   4.439  0.4014  0.0906  0.0006
 7139SOL    HW133053   2.248   4.530   4.398  0.0695  0.0823 -0.6952
 7139SOL    HW233054   2.097   4.548   4.377  0.8628 -0.2035 -0.6317
 7140SOL     OW33055   0.393   1.768   9.924 -0.5309  0.1333  0.4044
 7140SOL    HW133056   0.483   1.737   9.937 -0.4937  0.9501  2.1398
 7140SOL    HW233057   0.339   1.693   9.899 -0.6453  1.5390 -3.4201
 7141SOL     OW33058   1.095   1.987   1.040 -0.2659 -0.1708  0.0221
 7141SOL    HW133059   1.080   1.975   1.134 -1.7124  0.6339 -0.1072
 7141SOL    HW233060   1.047   2.069   1.034 -3.5476 -2.0703  0.1237
 7142SOL     OW33061   2.408   3.205   5.795  0.2824  0.0606  0.1567
 7142SOL    HW133062   2.352   3.228   5.869  2.2950  0.1670  1.6512
 7142SOL    HW233063   2.369   3.257   5.725 -0.0466  0.5575  0.7080
 7143SOL     OW33064   2.485   2.616  17.460  0.3228  0.4028 -0.5885
 7143SOL    HW133065   2.429   2.540  17.444 -1.7567  1.8377 -0.2470
 7143SOL    HW233066   2.449   2.688  17.408  0.3202  0.5442 -0.3936
 7144SOL     OW33067   4.723   0.037   5.958  0.3312 -0.2181  0.2793
 7144SOL    HW133068   4.715   0.114   5.902 -1.0509  0.6531  1.6685
 7144SOL    HW233069   0.053   0.069   6.016  2.0235 -1.1770 -1.2096
 7145SOL     OW33070   1.234   0.947   2.717  0.0959  0.1292  0.0279
 7145SOL    HW133071   1.259   1.035   2.687 -0.8082 -0.1389 -1.5225
 7145SOL    HW233072   1.146   0.943   2.679 -0.4229  1.7293  1.0586
 7146SOL     OW33073   1.866   2.863  11.726  0.1842  0.5668 -0.0125
 7146SOL    HW133074   1.802   2.911  11.673  2.1641  0.0574 -2.8008
 7146SOL    HW233075   1.945   2.917  11.726  2.5165 -2.8656  0.5545
 7147SOL     OW33076   3.395   0.947   9.309  0.5359 -0.0477 -0.1044
 7147SOL    HW133077   3.342   0.940   9.389 -0.1346 -1.1922 -0.6434
 7147SOL    HW233078   3.482   0.916   9.336 -0.1658 -2.5185 -0.6746
 7148SOL     OW33079   1.508   1.326   5.175  0.1949  0.1126 -0.0330
 7148SOL    HW133080   1.563   1.403   5.183 -0.2165  0.3285  0.7448
 7148SOL    HW233081   1.436   1.363   5.125  0.5666  1.2910  0.3024
 7149SOL     OW33082   3.085   3.880   2.144  0.4813  0.1585 -0.1262
 7149SOL    HW133083   3.128   3.800   2.171  1.0651 -0.6311 -3.3873
 7149SOL    HW233084   3.138   3.914   2.072 -0.3021  2.8339  0.5278
 7150SOL     OW33085   4.285   0.149  15.798 -0.2681 -0.4376 -0.4174
 7150SOL    HW133086   4.279   0.142  15.893 -0.5168  0.3536 -0.3832
 7150SOL    HW233087   4.360   0.091  15.782 -0.0040 -0.1781 -0.1201
 7151SOL     OW33088   3.078   4.266   9.692  0.4478  0.5385 -0.5709
 7151SOL    HW133089   3.076   4.349   9.643  1.8008  1.2306  0.5647
 7151SOL    HW233090   3.076   4.216   9.611  1.1685  0.1049 -0.3199
 7152SOL     OW33091   1.308   3.937  16.133  0.5325  0.3748  0.7060
 7152SOL    HW133092   1.326   3.845  16.153  0.5473 -0.1537 -1.7119
 7152SOL    HW233093   1.249   3.961  16.204 -0.2707 -0.3163  0.2752
 7153SOL     OW33094   4.690   0.076   1.369 -0.3952 -0.0227 -0.7179
 7153SOL    HW133095   4.712   0.146   1.307  1.0224 -1.2693 -1.6269
 7153SOL    HW233096   0.040   0.056   1.398 -1.1580 -0.9400  0.9409
 7154SOL     OW33097   2.692   0.982  10.140 -0.1514  0.1978  0.1989
 7154SOL    HW133098   2.735   1.041  10.202 -0.3379 -0.5553  1.0487
 7154SOL    HW233099   2.745   1.004  10.063 -1.1548  1.9058  0.0109
 7155SOL     OW33100   4.607   4.230  10.763 -0.1017 -0.2799  0.3689
 7155SOL    HW133101   4.575   4.291  10.696 -1.5987 -1.6911 -0.2072
 7155SOL    HW233102   4.533   4.170  10.768  0.3876 -0.8003  1.4451
 7156SOL     OW33103   0.373   3.004   7.643  0.2815  0.1336 -0.4025
 7156SOL    HW133104   0.291   2.989   7.595  1.0028 -0.8032 -1.3113
 7156SOL    HW233105   0.441   2.986   7.579 -1.2475 -1.6218 -1.5505
 7157SOL     OW33106   3.492   0.933   0.727  0.5149 -0.4036 -0.1645
 7157SOL    HW133107   3.509   0.968   0.640  0.1947  3.2590  1.2273
 7157SOL    HW233108   3.555   0.865   0.750 -1.0851 -1.7669  0.2228
 7158SOL     OW33109   1.376   4.621   7.446  0.1819  0.1058 -0.2867
 7158SOL    HW133110   1.383   4.695   7.507 -0.3207 -0.8215  0.8844
 7158SOL    HW233111   1.314   4.561   7.488 -0.1590 -0.2355 -1.2646
 7159SOL     OW33112   2.671   3.406   9.115 -0.4274 -0.2810 -0.4035
 7159SOL    HW133113   2.743   3.383   9.173 -0.0783  0.6098 -0.4807
 7159SOL    HW233114   2.695   3.476   9.054 -0.7962  1.4631  1.4810
 7160SOL     OW33115   3.252   3.618   7.794 -0.2205  0.1028 -0.1276
 7160SOL    HW133116   3.302   3.681   7.847  2.3374 -2.1684  0.1730
 7160SOL    HW233117   3.298   3.537   7.818 -0.9227 -0.5011 -0.8291
 7161SOL     OW33118   2.472   0.941   2.126  0.3048  0.1851 -0.3186
 7161SOL    HW133119   2.557   0.904   2.101 -0.1240 -0.9952 -0.0261
 7161SOL    HW233120   2.503   1.003   2.192  0.9006  1.2463 -1.5995
 7162SOL     OW33121   0.888   3.320   5.745  0.1739 -0.4877 -0.1170
 7162SOL    HW133122   0.980   3.305   5.723 -0.0899 -0.4387 -1.2478
 7162SOL    HW233123   0.897   3.376   5.822  0.9920  1.8298 -1.9029
 7163SOL     OW33124   3.925   1.148   3.083 -0.0873  0.1397 -0.4920
 7163SOL    HW133125   3.998   1.087   3.083 -0.9607 -0.8952  1.1219
 7163SOL    HW233126   3.848   1.094   3.063 -1.9787  3.5589 -2.4672
 7164SOL     OW33127   2.808   2.370   3.452  0.3084  0.1062  0.6356
 7164SOL    HW133128   2.730   2.402   3.406 -0.3194 -0.3070  1.4177
 7164SOL    HW233129   2.877   2.430   3.421 -0.2167  0.1021 -0.5626
 7165SOL     OW33130   4.119   0.150   4.812 -0.1309 -0.4423 -0.1710
 7165SOL    HW133131   4.159   0.119   4.731  0.7736 -1.6833  0.7435
 7165SOL    HW233132   4.044   0.091   4.820 -0.2849 -0.1365  0.6821
 7166SOL     OW33133   1.609   0.008  17.264 -0.9334 -0.4345  0.0323
 7166SOL    HW133134   1.540   0.029  17.202 -1.6740  1.5494  1.5177
 7166SOL    HW233135   1.588   4.654  17.273  2.0807 -1.0492  0.5846
 7167SOL     OW33136   3.392   3.391   4.677  0.3431 -0.3656 -0.3234
 7167SOL    HW133137   3.323   3.325   4.678 -0.2700  0.2805 -0.1066
 7167SOL    HW233138   3.468   3.342   4.646  0.0258 -0.8947 -0.2830
 7168SOL     OW33139   3.602   2.949   8.830  0.0371 -0.3739  0.0164
 7168SOL    HW133140   3.587   2.865   8.874 -0.2522 -0.8623 -1.0270
 7168SOL    HW233141   3.690   2.975   8.856  0.0943 -0.6179  0.0661
 7169SOL     OW33142   0.672   2.957   0.413 -0.6795 -0.4053 -0.2221
 7169SOL    HW133143   0.580   2.935   0.425 -0.2181 -1.8856  0.6006
 7169SOL    HW233144   0.714   2.872   0.397 -0.5067 -0.4584  0.5408
 7170SOL     OW33145   0.008   3.691   1.545  0.4582 -0.0842  0.3206
 7170SOL    HW133146   0.038   3.655   1.462  1.6998 -0.7692  1.0662
 7170SOL    HW233147   0.024   3.617   1.603 -0.1932  0.1864  0.8430
 7171SOL     OW33148   3.872   0.578   7.049 -0.3213 -0.0776 -0.1315
 7171SOL    HW133149   3.829   0.662   7.033 -1.9509 -0.5871  1.4707
 7171SOL    HW233150   3.964   0.604   7.051  0.4697 -2.8782 -1.7156
 7172SOL     OW33151   0.501   2.383   1.539  0.0887 -0.1797  0.8383
 7172SOL    HW133152   0.554   2.436   1.599 -0.0480  1.0331 -0.1050
 7172SOL    HW233153   0.437   2.448   1.509 -0.2544 -1.0536 -0.2981
 7173SOL     OW33154   0.199   3.756   2.596  0.0116  0.4621  0.5177
 7173SOL    HW133155   0.119   3.750   2.649  0.9435 -0.3285  1.8249
 7173SOL    HW233156   0.200   3.850   2.575  2.2468  0.7856  2.2069
 7174SOL     OW33157   1.858   4.320  11.932 -0.3623  0.6399 -0.4768
 7174SOL    HW133158   1.934   4.270  11.901 -0.1458  0.8965 -0.3631
 7174SOL    HW233159   1.905   4.384  11.985 -0.0208  0.3625 -0.4444
 7175SOL     OW33160   3.231   2.197   3.407 -0.4478 -0.3726 -0.3417
 7175SOL    HW133161   3.142   2.160   3.407 -0.0136 -1.4184 -0.7696
 7175SOL    HW233162   3.242   2.231   3.496  1.4685 -0.8730 -0.3835
 7176SOL     OW33163   2.096   0.542   6.613  0.3082  0.3923 -0.3112
 7176SOL    HW133164   2.015   0.581   6.581 -0.8609 -0.1278  2.0205
 7176SOL    HW233165   2.135   0.615   6.661 -0.4828 -1.0040  2.4465
 7177SOL     OW33166   4.534   1.931   7.664 -0.1430  0.4136 -0.3253
 7177SOL    HW133167   4.507   1.949   7.754  0.1854 -0.1744 -0.1133
 7177SOL    HW233168   4.611   1.877   7.682 -1.8740 -2.3351 -1.1905
 7178SOL     OW33169   2.226   3.229   0.897 -0.1729  0.1023  0.0960
 7178SOL    HW133170   2.305   3.265   0.857 -0.7993  1.2310 -0.1287
 7178SOL    HW233171   2.160   3.253   0.832  0.6260 -3.9773 -2.2084
 7179SOL     OW33172   1.892   3.304   3.991 -0.4880 -0.3156  0.3875
 7179SOL    HW133173   1.896   3.399   3.984 -0.9857 -0.4481 -1.7825
 7179SOL    HW233174   1.894   3.287   3.897  0.4132 -0.8117  0.4982
 7180SOL     OW33175   2.793   2.218  12.037 -0.3824  0.3969 -0.0993
 7180SOL    HW133176   2.859   2.270  12.082 -0.4346 -0.3653  0.8611
 7180SOL    HW233177   2.850   2.176  11.973  2.5685  2.7076  1.0019
 7181SOL     OW33178   1.577   2.997   3.399  0.2692 -0.1276 -0.0017
 7181SOL    HW133179   1.556   2.969   3.310  3.8404 -3.0291  0.0927
 7181SOL    HW233180   1.653   2.950   3.432  1.5975  1.0286 -1.4586
 7182SOL     OW33181   1.507   0.039   6.281  0.1759  0.4602 -0.1420
 7182SOL    HW133182   1.578   0.096   6.253  1.6192 -2.0288 -1.5387
 7182SOL    HW233183   1.439   0.106   6.290 -1.5180 -1.0504 -1.5559
 7183SOL     OW33184   4.511   0.298   5.223  0.3920 -0.1329 -0.3482
 7183SOL    HW133185   4.561   0.324   5.145 -0.9105  0.9682 -0.8035
 7183SOL    HW233186   4.424   0.335   5.211  1.4344  3.2876  2.4916
 7184SOL     OW33187   0.381   2.737  16.852 -0.5368  0.4371  0.4707
 7184SOL    HW133188   0.344   2.754  16.938 -0.7622  0.1398  0.4336
 7184SOL    HW233189   0.335   2.798  16.794 -0.0478  0.4737  0.1247
 7185SOL     OW33190   4.137   3.406   6.897  0.3510  0.6071 -0.1881
 7185SOL    HW133191   4.080   3.418   6.972  1.2151 -1.3565  0.7764
 7185SOL    HW233192   4.152   3.312   6.888  0.2291  0.1688  4.3186
 7186SOL     OW33193   1.444   3.114  15.251  0.0000  0.3342  0.1121
 7186SOL    HW133194   1.425   3.200  15.212 -1.4492 -0.0467 -0.0111
 7186SOL    HW233195   1.359   3.077  15.228  0.9498 -2.5619  1.3029
 7187SOL     OW33196   4.674   0.899   4.422 -0.5267 -0.0976 -0.1283
 7187SOL    HW133197   4.628   0.873   4.342 -0.9014  1.1698 -0.3153
 7187SOL    HW233198   4.593   0.917   4.469  0.1034  1.3182  0.4029
 7188SOL     OW33199   0.567   1.357   5.555 -0.1642 -0.1161  0.2515
 7188SOL    HW133200   0.501   1.288   5.545 -1.1888  0.8601  0.4341
 7188SOL    HW233201   0.526   1.441   5.535 -0.2265 -0.0713  0.5746
 7189SOL     OW33202   4.718   2.160  10.742 -0.3191 -0.1097  0.3874
 7189SOL    HW133203   0.020   2.078  10.768 -0.9092 -0.3888  0.4368
 7189SOL    HW233204   0.031   2.180  10.665  0.8195 -2.2025  0.6481
 7190SOL     OW33205   0.244   1.348   1.774  0.0364 -0.0631  0.2491
 7190SOL    HW133206   0.245   1.386   1.862 -0.6192 -0.3282  0.3721
 7190SOL    HW233207   0.151   1.357   1.753 -0.1259 -1.0899  0.5189
 7191SOL     OW33208   2.228   0.818   5.076 -0.6418 -0.1531  0.0489
 7191SOL    HW133209   2.306   0.798   5.025  0.5078  2.1036  0.9406
 7191SOL    HW233210   2.174   0.745   5.044 -0.1950  0.0485 -1.1581
 7192SOL     OW33211   4.321   2.429   2.268  0.2719  0.0902  0.4514
 7192SOL    HW133212   4.264   2.360   2.302 -0.0647 -0.6414 -1.5717
 7192SOL    HW233213   4.298   2.432   2.175  0.3736  0.5663  0.4424
 7193SOL     OW33214   0.423   1.304  11.007 -0.3966 -0.2401  0.3989
 7193SOL    HW133215   0.338   1.278  10.972 -0.6801 -0.9141  1.5925
 7193SOL    HW233216   0.488   1.288  10.938 -0.6857 -1.6786  0.4691
 7194SOL     OW33217   1.690   4.422   4.675 -0.1309  0.3438  0.0231
 7194SOL    HW133218   1.763   4.478   4.703  0.5273 -0.7424  0.4959
 7194SOL    HW233219   1.623   4.462   4.731  0.2766 -0.2241  0.9277
 7195SOL     OW33220   1.749   1.250  14.991  0.2470  0.5328 -0.5126
 7195SOL    HW133221   1.714   1.203  15.067  1.2877 -1.9820 -1.5918
 7195SOL    HW233222   1.776   1.178  14.935 -0.0849  0.6098 -0.7695
 7196SOL     OW33223   1.749   2.107   6.975 -0.0175  0.2979 -0.3101
 7196SOL    HW133224   1.828   2.130   7.024 -0.6156  3.2939 -0.7513
 7196SOL    HW233225   1.770   2.023   6.933 -1.8436  0.4023 -1.4279
 7197SOL     OW33226   4.155   0.971   8.788  0.1913  1.3921  0.7298
 7197SOL    HW133227   4.144   0.999   8.879 -1.1211  2.1434  0.3223
 7197SOL    HW233228   4.113   1.039   8.736 -0.9322  2.0972  2.5654
 7198SOL     OW33229   0.087   1.130   7.648  0.0235 -0.1897  0.1686
 7198SOL    HW133230   0.153   1.160   7.711  1.3074  1.0690 -1.7697
 7198SOL    HW233231   0.067   1.043   7.681 -1.9025 -0.2297 -1.1395
 7199SOL     OW33232   0.983   1.158   2.240  0.4360 -0.1479  0.2942
 7199SOL    HW133233   1.009   1.072   2.208  1.1747 -0.0154  0.5484
 7199SOL    HW233234   1.034   1.169   2.320  0.8011  0.4394 -0.0190
 7200SOL     OW33235   1.850   3.200   0.369  0.4134 -0.3447  0.1061
 7200SOL    HW133236   1.784   3.151   0.321  0.9828 -1.5402  0.5408
 7200SOL    HW233237   1.792   3.242   0.432  0.0953 -3.2731  1.7537
 7201SOL     OW33238   3.179   3.189   6.779  0.3015 -0.2860 -0.1363
 7201SOL    HW133239   3.155   3.221   6.692  1.3115  0.7373 -0.0304
 7201SOL    HW233240   3.198   3.273   6.820 -0.8877  0.4808 -1.1536
 7202SOL     OW33241   2.797   3.192   5.961  0.5443 -0.2308 -0.1002
 7202SOL    HW133242   2.874   3.228   5.916  1.3631  0.1740  1.6322
 7202SOL    HW233243   2.844   3.153   6.035  0.6218 -1.4204 -0.7660
 7203SOL     OW33244   0.015   4.407   8.377  0.1242  0.4387 -0.0234
 7203SOL    HW133245   0.084   4.389   8.314 -1.4337  1.0208 -1.9242
 7203SOL    HW233246   0.058   4.416   8.462  0.6210  2.3287 -0.4716
 7204SOL     OW33247   0.072   3.271   4.652  0.2282 -0.4010 -0.1151
 7204SOL    HW133248   0.136   3.201   4.641  1.1706  0.6099 -1.0696
 7204SOL    HW233249   0.035   3.267   4.564 -1.4343 -2.7017  0.7134
 7205SOL     OW33250   1.761   0.156   8.910 -0.2170 -0.4104  0.1136
 7205SOL    HW133251   1.677   0.120   8.937 -0.1565  0.5174  1.5714
 7205SOL    HW233252   1.804   0.182   8.992 -1.9919  2.0359  0.2588
 7206SOL     OW33253   1.613   3.652  17.102 -1.0848  0.4101  0.1591
 7206SOL    HW133254   1.550   3.585  17.130 -0.1129  0.6785  2.9514
 7206SOL    HW233255   1.703   3.631  17.127 -0.6761  2.4657  0.4111
 7207SOL     OW33256   1.128   0.998   4.493 -0.7326  0.4473 -0.6735
 7207SOL    HW133257   1.131   0.920   4.437 -1.4342 -0.3870  0.4569
 7207SOL    HW233258   1.110   1.066   4.427 -1.0425  0.7794 -0.2410
 7208SOL     OW33259   2.250   1.435  13.343 -0.2163 -0.6199 -0.1917
 7208SOL    HW133260   2.278   1.526  13.332 -2.9314  0.5144  2.2633
 7208SOL    HW233261   2.154   1.441  13.349 -0.3214 -2.0316 -0.3968
 7209SOL     OW33262   2.548   1.734   1.861 -0.6490 -0.2220 -0.1892
 7209SOL    HW133263   2.587   1.759   1.777 -0.2831  0.6226  0.2320
 7209SOL    HW233264   2.613   1.757   1.927 -0.5092 -0.9156 -0.0906
 7210SOL     OW33265   4.250   1.292   3.810  0.7063  0.1109 -0.3582
 7210SOL    HW133266   4.309   1.296   3.885  0.1875 -1.1447  0.1120
 7210SOL    HW233267   4.239   1.385   3.791  2.0493 -0.0361 -1.8100
 7211SOL     OW33268   0.110   1.359   5.583 -0.2859 -0.5242 -0.4542
 7211SOL    HW133269   0.052   1.434   5.576  0.3165 -0.2837 -2.7882
 7211SOL    HW233270   0.044   1.290   5.575 -0.9516  0.1742 -0.9312
 7212SOL     OW33271   1.014   4.252   1.054 -0.6082 -0.2088 -0.2568
 7212SOL    HW133272   1.005   4.191   1.128 -1.9461 -0.4700 -0.6385
 7212SOL    HW233273   0.936   4.307   1.064  0.0231  0.8310 -1.1224
 7213SOL     OW33274   1.388   2.444   4.323  0.9210  0.3316 -0.5004
 7213SOL    HW133275   1.471   2.488   4.302  0.7724  0.5437 -0.6452
 7213SOL    HW233276   1.375   2.458   4.417  1.9773 -1.4413 -0.0881
 7214SOL     OW33277   0.718   3.816   4.146 -0.4199  0.5194  0.4675
 7214SOL    HW133278   0.637   3.765   4.155 -0.5564  0.0964 -3.0847
 7214SOL    HW233279   0.782   3.745   4.136 -1.0449 -0.4142  3.0858
 7215SOL     OW33280   0.858   1.453   3.098  0.6256  0.1842 -0.0718
 7215SOL    HW133281   0.889   1.364   3.083  1.2458  0.4145 -0.1643
 7215SOL    HW233282   0.852   1.458   3.193 -1.8249  1.7940 -0.3068
 7216SOL     OW33283   1.024   3.535   0.489 -0.4827  0.1128 -0.5034
 7216SOL    HW133284   0.976   3.565   0.566 -0.9060 -1.7311 -0.0441
 7216SOL    HW233285   0.999   3.598   0.422 -1.9435 -1.3128 -1.2944
 7217SOL     OW33286   2.786   2.685   3.199  0.0237  0.0498  0.5596
 7217SOL    HW133287   2.718   2.618   3.208  0.2151 -0.0900  0.9654
 7217SOL    HW233288   2.735   2.757   3.161  1.7373 -0.4015 -2.5671
 7218SOL     OW33289   2.887   1.239   8.983  0.0224 -0.2996 -0.3561
 7218SOL    HW133290   2.854   1.168   8.928  1.4218 -0.7664 -0.5980
 7218SOL    HW233291   2.805   1.288   8.982 -0.6504 -1.3912  1.0744
 7219SOL     OW33292   0.194   4.661  16.952  0.1913  0.3545 -0.2990
 7219SOL    HW133293   0.258   4.677  16.883 -0.0875  2.8964  0.0277
 7219SOL    HW233294   0.248   4.622  17.020 -0.1745 -0.4373 -0.4574
 7220SOL     OW33295   1.535   0.910   5.151  0.2977  0.7610  0.6371
 7220SOL    HW133296   1.507   0.823   5.181 -1.0170  1.3761  1.1990
 7220SOL    HW233297   1.482   0.975   5.197 -2.5846 -1.2815  0.2050
 7221SOL     OW33298   1.127   0.244   7.716  0.4329  0.4838 -0.4232
 7221SOL    HW133299   1.210   0.222   7.757  0.3473 -2.5664 -1.9264
 7221SOL    HW233300   1.124   0.337   7.739 -0.5639  0.5137 -0.6807
 7222SOL     OW33301   3.754   2.638  12.437  0.2200  0.0191 -0.1716
 7222SOL    HW133302   3.684   2.576  12.458  0.0302  0.3527  0.1856
 7222SOL    HW233303   3.715   2.685  12.364  1.8127  1.5006 -0.0804
 7223SOL     OW33304   2.539   2.482   8.326 -0.1818 -0.9727 -0.3707
 7223SOL    HW133305   2.586   2.444   8.400  0.1353 -0.8800 -0.5292
 7223SOL    HW233306   2.448   2.450   8.332 -0.6880  0.5382 -0.0479
 7224SOL     OW33307   0.604   0.869   7.774  0.2002  0.1159  0.3967
 7224SOL    HW133308   0.688   0.872   7.820  0.1913  0.4994  0.3883
 7224SOL    HW233309   0.606   0.784   7.731  1.7272  0.4745 -0.2299
 7225SOL     OW33310   0.005   1.539  15.234 -0.3493 -0.3386  0.0150
 7225SOL    HW133311   4.699   1.467  15.277  0.0804 -0.5539  0.1048
 7225SOL    HW233312   4.736   1.610  15.299 -0.0667 -1.6605  1.4970
 7226SOL     OW33313   2.752   2.504   3.670 -0.0604 -0.2335 -0.1326
 7226SOL    HW133314   2.788   2.450   3.599  0.2237  0.9280 -0.8637
 7226SOL    HW233315   2.766   2.593   3.640 -0.7526  0.1358  0.6238
 7227SOL     OW33316   0.290   4.629   6.348 -0.4425  0.0562 -0.0071
 7227SOL    HW133317   0.310   4.711   6.393 -2.0775  1.1632 -1.2923
 7227SOL    HW233318   0.355   4.572   6.389 -0.3140 -0.7291 -1.2927
 7228SOL     OW33319   2.438   0.706   3.398 -0.0730 -0.3679 -0.6512
 7228SOL    HW133320   2.400   0.618   3.401 -1.3225  0.1561 -1.3559
 7228SOL    HW233321   2.426   0.731   3.490 -0.9659 -0.5901 -0.7098
 7229SOL     OW33322   3.126   1.137  15.362 -0.1754  0.3372  0.1594
 7229SOL    HW133323   3.173   1.090  15.294 -0.3657 -0.1971  0.4016
 7229SOL    HW233324   3.166   1.221  15.339 -0.2523  0.3941  0.2322
 7230SOL     OW33325   0.791   1.565   6.755  0.9233 -0.2084 -0.3593
 7230SOL    HW133326   0.807   1.565   6.661 -0.2411 -0.4175 -0.5579
 7230SOL    HW233327   0.717   1.504   6.759  1.9408 -1.4138  0.0311
 7231SOL     OW33328   4.599   3.638   4.605  0.0861  0.1328  0.1155
 7231SOL    HW133329   4.535   3.568   4.597 -0.3475  0.3085  1.9256
 7231SOL    HW233330   4.680   3.589   4.620 -0.1309  0.5163  2.5948
 7232SOL     OW33331   1.872   2.709   6.167  0.1419  0.1763 -0.1946
 7232SOL    HW133332   1.900   2.775   6.103 -2.4607  0.7691 -0.7162
 7232SOL    HW233333   1.928   2.635   6.146 -1.6553 -0.2185 -3.4758
 7233SOL     OW33334   4.331   4.294   3.834  0.0287  0.2694  0.2743
 7233SOL    HW133335   4.320   4.384   3.802  0.4924  1.0503  2.3180
 7233SOL    HW233336   4.277   4.241   3.776  1.0995 -2.7247  2.0180
 7234SOL     OW33337   2.982   1.764   8.340 -0.3983  0.0567  0.6758
 7234SOL    HW133338   3.020   1.677   8.329 -0.0841  0.4133 -1.0034
 7234SOL    HW233339   3.007   1.784   8.430  0.8149 -2.6969  0.9500
 7235SOL     OW33340   3.775   2.995  14.149 -0.0055 -0.4460  0.5154
 7235SOL    HW133341   3.719   2.977  14.073  0.5185 -0.9073  0.2381
 7235SOL    HW233342   3.721   2.953  14.216  0.7263  0.2536  1.5310
 7236SOL     OW33343   1.461   1.159  16.914 -0.5259  0.2719 -0.7875
 7236SOL    HW133344   1.424   1.091  16.969 -0.5407  1.6159  0.8811
 7236SOL    HW233345   1.459   1.231  16.977 -2.2183 -0.0037 -0.5507
 7237SOL     OW33346   0.112   0.694   3.815  0.4644  0.2479  0.3641
 7237SOL    HW133347   0.058   0.636   3.762  0.5897 -0.0687  0.5822
 7237SOL    HW233348   0.174   0.739   3.757  0.9421  1.4909  1.8298
 7238SOL     OW33349   2.432   4.451  11.890  0.2449 -0.4312  0.1962
 7238SOL    HW133350   2.436   4.546  11.876  2.1372 -0.4662  0.5139
 7238SOL    HW233351   2.524   4.426  11.892 -0.0019 -1.3562 -0.0247
 7239SOL     OW33352   2.800   0.893   7.417 -0.0400  0.6349  0.5882
 7239SOL    HW133353   2.876   0.855   7.372 -2.1234 -2.6172 -0.1532
 7239SOL    HW233354   2.829   0.867   7.504 -0.8141 -0.1447  0.6064
 7240SOL     OW33355   3.033   4.480   9.512 -0.0081  0.1702  0.2313
 7240SOL    HW133356   3.042   4.482   9.416  1.4271 -0.6052  0.3494
 7240SOL    HW233357   3.019   4.572   9.532  1.6244  1.0301 -2.4990
 7241SOL     OW33358   2.763   0.155  17.104 -0.4685  0.0651  0.0827
 7241SOL    HW133359   2.798   0.244  17.109 -0.9001  0.1394  1.7626
 7241SOL    HW233360   2.682   0.170  17.054  0.4106  1.2891 -0.9860
 7242SOL     OW33361   3.032   1.039   1.462 -0.5354 -0.2417  0.5237
 7242SOL    HW133362   2.955   1.034   1.520  1.1926  1.4493  2.9919
 7242SOL    HW233363   2.999   1.091   1.389 -0.3957 -0.4014  0.3483
 7243SOL     OW33364   0.393   0.248  10.406  0.2763  0.5811  0.4342
 7243SOL    HW133365   0.413   0.204  10.489  1.0390  1.3711  0.6660
 7243SOL    HW233366   0.439   0.330  10.424  0.4855  1.0903 -2.5192
 7244SOL     OW33367   2.882   3.643  10.228 -0.3535  0.3780 -0.6533
 7244SOL    HW133368   2.794   3.648  10.266 -0.5334  1.7537 -1.2807
 7244SOL    HW233369   2.916   3.565  10.273  2.1843  2.0688  0.3183
 7245SOL     OW33370   1.107   0.220   9.543 -0.4587  0.2146  0.2367
 7245SOL    HW133371   1.085   0.128   9.554  1.4890 -0.2401  0.3735
 7245SOL    HW233372   1.055   0.263   9.611 -1.5991  1.9373 -1.7337
 7246SOL     OW33373   1.334   0.251   7.898  0.6447  0.6805  0.0748
 7246SOL    HW133374   1.407   0.310   7.882 -0.5335  1.7661 -1.3640
 7246SOL    HW233375   1.320   0.252   7.993  0.6738  0.5875  0.0801
 7247SOL     OW33376   2.647   0.381   1.522 -0.4794  0.1481  0.4449
 7247SOL    HW133377   2.611   0.469   1.535  1.6927  0.8515  1.6757
 7247SOL    HW233378   2.719   0.381   1.585  1.6202 -2.1724 -1.9897
 7248SOL     OW33379   2.871   3.380  15.481  0.3510 -0.6263 -0.7478
 7248SOL    HW133380   2.943   3.411  15.427 -0.0600 -0.7084 -1.3438
 7248SOL    HW233381   2.832   3.463  15.509  2.3056  0.0707 -0.1424
 7249SOL     OW33382   0.623   2.061   8.979  0.4612  0.2198 -0.0576
 7249SOL    HW133383   0.658   2.142   9.016  1.3961  0.3726 -1.2897
 7249SOL    HW233384   0.561   2.038   9.048  0.8457  3.0363  1.2499
 7250SOL     OW33385   1.349   2.196   5.858  0.7523  0.1047 -0.1704
 7250SOL    HW133386   1.375   2.105   5.849 -1.8372 -0.6950  0.5454
 7250SOL    HW233387   1.409   2.246   5.803  1.7797  0.9590  1.7285
 7251SOL     OW33388   0.677   3.732  12.666  0.4712 -0.2407  0.5538
 7251SOL    HW133389   0.704   3.690  12.585  2.2715  1.0758  0.4759
 7251SOL    HW233390   0.748   3.704  12.723 -0.4293  1.2456  2.4354
 7252SOL     OW33391   0.565   1.201   3.084 -0.2462 -0.3601 -0.2057
 7252SOL    HW133392   0.572   1.257   3.161  0.3478  1.3272 -1.4801
 7252SOL    HW233393   0.471   1.186   3.070 -0.6040  1.9006 -0.2115
 7253SOL     OW33394   1.500   0.853   3.201 -0.2051 -0.3637  0.2811
 7253SOL    HW133395   1.458   0.840   3.117  1.2316 -1.7773 -0.2249
 7253SOL    HW233396   1.430   0.889   3.255  1.9847  0.1073  2.8462
 7254SOL     OW33397   2.530   3.706   7.553 -0.4910 -0.2454  0.6265
 7254SOL    HW133398   2.469   3.669   7.490 -1.5491  1.7476  0.5102
 7254SOL    HW233399   2.509   3.796   7.575  0.4918  0.1422 -0.0150
 7255SOL     OW33400   1.822   4.582   7.113  0.3843 -0.2855  0.2401
 7255SOL    HW133401   1.875   4.616   7.186 -2.0762  2.2230  0.8780
 7255SOL    HW233402   1.850   4.644   7.045  0.5778  1.5275  1.9759
 7256SOL     OW33403   3.855   2.488   8.588 -0.5178  0.3957 -0.0907
 7256SOL    HW133404   3.887   2.578   8.579  1.2673 -0.3247 -0.8473
 7256SOL    HW233405   3.882   2.478   8.680  0.8261 -0.6670 -0.5957
 7257SOL     OW33406   1.264   0.523   8.074  0.7661 -0.1465  0.2878
 7257SOL    HW133407   1.313   0.589   8.123 -1.4042  1.2007  0.6826
 7257SOL    HW233408   1.281   0.439   8.116  0.6924  0.1804  0.9671
 7258SOL     OW33409   0.778   0.404  13.259 -0.0172 -0.8937  0.0238
 7258SOL    HW133410   0.702   0.372  13.210 -0.2476  0.3374 -0.4324
 7258SOL    HW233411   0.841   0.400  13.187  0.2647 -1.6547  0.3134
 7259SOL     OW33412   4.263   4.062   5.473  0.4507 -0.0668 -0.3191
 7259SOL    HW133413   4.346   4.051   5.520  0.2892 -1.0502 -0.2599
 7259SOL    HW233414   4.202   4.009   5.524  0.7657  0.0140  0.1412
 7260SOL     OW33415   3.846   2.959   5.519  0.0127 -0.3270  0.6084
 7260SOL    HW133416   3.776   3.020   5.493 -0.0748 -0.8339 -0.3471
 7260SOL    HW233417   3.848   2.910   5.437 -1.0016 -0.3739  0.6102
 7261SOL     OW33418   1.691   3.842   4.865  0.4338 -0.0598 -0.0759
 7261SOL    HW133419   1.722   3.895   4.792  1.2355 -1.6586 -0.8991
 7261SOL    HW233420   1.651   3.771   4.815  0.3567 -0.1282  0.0837
 7262SOL     OW33421   1.132   1.157   5.024  0.0439 -0.4179  0.0939
 7262SOL    HW133422   1.141   1.218   4.950  2.5339  0.6663  1.2755
 7262SOL    HW233423   1.127   1.081   4.966  0.5384 -2.0492  2.1928
 7263SOL     OW33424   1.893   3.573   4.486  0.2610  0.4121 -0.3175
 7263SOL    HW133425   1.802   3.603   4.484  0.3393  0.5304 -1.6379
 7263SOL    HW233426   1.885   3.486   4.447 -0.8723  0.2202  0.3369
 7264SOL     OW33427   4.456   1.673   2.406  0.4188  0.8110  0.6835
 7264SOL    HW133428   4.444   1.615   2.331  0.0192  0.6894  0.8415
 7264SOL    HW233429   4.379   1.729   2.403 -0.7620 -0.8604 -0.1111
 7265SOL     OW33430   1.654   4.325   6.819 -0.0843  0.0552 -0.2153
 7265SOL    HW133431   1.747   4.318   6.796 -0.2069  0.3336 -0.7889
 7265SOL    HW233432   1.619   4.351   6.733 -1.8031  1.2016  0.8274
 7266SOL     OW33433   3.345   4.248   2.777 -0.3494  0.2915  0.3030
 7266SOL    HW133434   3.279   4.262   2.845 -1.1575  1.4465 -0.7274
 7266SOL    HW233435   3.381   4.161   2.795 -1.0207 -0.3523 -1.5874
 7267SOL     OW33436   2.266   1.660   0.916  0.6188 -0.3659  0.0694
 7267SOL    HW133437   2.325   1.610   0.973 -0.3109 -2.4258 -0.7737
 7267SOL    HW233438   2.192   1.600   0.915  0.1843  0.1957 -0.9809
 7268SOL     OW33439   1.454   3.565  11.264 -0.0105  0.0814  0.2702
 7268SOL    HW133440   1.365   3.598  11.272  0.3999  1.5589 -1.2537
 7268SOL    HW233441   1.503   3.647  11.254 -4.2411  2.9267  3.2870
 7269SOL     OW33442   1.260   1.483   4.225 -0.5017  0.6195  0.2315
 7269SOL    HW133443   1.292   1.405   4.270  0.0804  1.0704  0.5962
 7269SOL    HW233444   1.327   1.496   4.158  1.3405  0.9494  2.1487
 7270SOL     OW33445   0.564   0.609   5.541 -0.3808 -1.0245  0.3634
 7270SOL    HW133446   0.524   0.696   5.530 -0.2009 -1.0822 -0.6936
 7270SOL    HW233447   0.651   0.636   5.513 -0.3290  0.2248  1.6670
 7271SOL     OW33448   0.039   0.662   8.622 -0.5700 -0.0901 -0.4107
 7271SOL    HW133449   0.073   0.629   8.705  1.3483  2.3529 -0.2323
 7271SOL    HW233450   4.710   0.601   8.594  0.7820 -1.0573 -1.6044
 7272SOL     OW33451   3.249   0.386   6.617 -0.1458  0.2682 -0.6033
 7272SOL    HW133452   3.276   0.350   6.533  3.3051 -0.6025  0.8523
 7272SOL    HW233453   3.334   0.417   6.649 -0.7897 -0.4620  1.8534
 7273SOL     OW33454   1.927   2.691  16.965 -0.1536  0.3554 -0.1375
 7273SOL    HW133455   1.936   2.614  16.909 -4.1557 -0.3118  0.1167
 7273SOL    HW233456   1.948   2.662  17.053 -0.8966 -1.4776 -0.5614
 7274SOL     OW33457   0.760   2.237   7.665 -0.0097 -0.4082 -0.3908
 7274SOL    HW133458   0.687   2.289   7.699  3.0981  3.4772  0.3990
 7274SOL    HW233459   0.720   2.151   7.655 -0.1882 -0.2216 -1.3315
 7275SOL     OW33460   2.679   4.211  15.122  0.1098 -0.2986  0.5498
 7275SOL    HW133461   2.713   4.271  15.056 -1.2872  1.9769  1.8910
 7275SOL    HW233462   2.619   4.272  15.165 -0.7841 -0.3256 -0.6655
 7276SOL     OW33463   1.630   2.863   5.806 -0.1220  0.1080 -0.0800
 7276SOL    HW133464   1.675   2.780   5.793  0.2461  0.0609  1.5603
 7276SOL    HW233465   1.643   2.899   5.718  1.5236  0.5699  0.3577
 7277SOL     OW33466   2.473   2.543   5.268  0.5012  0.2787  0.0290
 7277SOL    HW133467   2.555   2.513   5.309  0.1629  0.8937  1.1499
 7277SOL    HW233468   2.416   2.466   5.274 -0.5114  1.1908  2.0738
 7278SOL     OW33469   3.571   1.080   1.557 -0.0942 -0.3480  0.0001
 7278SOL    HW133470   3.615   1.164   1.570  0.7217 -0.7362 -0.2285
 7278SOL    HW233471   3.638   1.013   1.542 -0.3090 -0.7436  0.8017
 7279SOL     OW33472   2.944   3.593   3.634 -0.2267  0.3835 -0.0368
 7279SOL    HW133473   3.002   3.520   3.656  0.8833  1.5529  0.9273
 7279SOL    HW233474   3.003   3.668   3.624 -0.8093  1.0587  1.4735
 7280SOL     OW33475   4.309   1.372   6.627  0.0974  0.1795  0.0701
 7280SOL    HW133476   4.352   1.337   6.705 -0.9767 -0.6747  0.2870
 7280SOL    HW233477   4.299   1.292   6.576  0.5018  1.1561 -1.5257
 7281SOL     OW33478   4.448   1.936   2.710 -0.8424 -0.7736 -0.6713
 7281SOL    HW133479   4.386   1.928   2.637 -0.8344 -1.8241 -0.5597
 7281SOL    HW233480   4.526   1.940   2.655 -1.2895  0.1009 -1.2483
 7282SOL     OW33481   1.091   4.336   8.581  0.9346 -0.1782  0.0238
 7282SOL    HW133482   1.158   4.369   8.521  0.1288 -0.5820 -1.1177
 7282SOL    HW233483   1.020   4.400   8.574 -0.4206 -1.4267  2.5482
 7283SOL     OW33484   1.439   3.441   4.840 -0.2377 -0.2257  0.3063
 7283SOL    HW133485   1.430   3.380   4.913  2.6602  1.6150  2.1847
 7283SOL    HW233486   1.445   3.381   4.765 -1.4382 -1.4055  1.1484
 7284SOL     OW33487   4.344   3.404   1.306  0.2548 -0.1005 -0.2335
 7284SOL    HW133488   4.388   3.320   1.317 -0.5183 -0.3223  1.1538
 7284SOL    HW233489   4.267   3.391   1.362 -1.1954  0.5843 -2.0920
 7285SOL     OW33490   3.500   2.928  14.055 -0.1385 -0.0605 -0.4831
 7285SOL    HW133491   3.483   2.857  14.118  1.0288 -0.0144 -0.1152
 7285SOL    HW233492   3.426   2.914  13.996 -0.4906  1.6044 -0.4563
 7286SOL     OW33493   0.703   1.245   3.960  0.2142  0.1559  0.9265
 7286SOL    HW133494   0.718   1.191   4.038 -4.2908  0.2680  1.8647
 7286SOL    HW233495   0.697   1.334   3.994 -1.7712  0.3643  0.0179
 7287SOL     OW33496   1.461   3.976   6.856  0.5108 -0.1527 -0.1256
 7287SOL    HW133497   1.504   3.970   6.941  1.3447 -3.4610 -0.7730
 7287SOL    HW233498   1.475   3.885   6.829 -2.1142 -0.9468  1.1404
 7288SOL     OW33499   3.238   4.518   9.823 -0.0231 -0.3911  0.0854
 7288SOL    HW133500   3.157   4.551   9.863 -0.3813 -0.7955 -0.3074
 7288SOL    HW233501   3.239   4.550   9.733 -0.3095 -1.2543 -0.2257
 7289SOL     OW33502   3.783   0.596   2.597  0.0879 -0.6100  0.7369
 7289SOL    HW133503   3.838   0.623   2.671  0.4922 -0.9551  0.5642
 7289SOL    HW233504   3.780   0.500   2.598 -3.5047 -0.4826  1.2076
 7290SOL     OW33505   1.793   2.327   7.697 -0.3761  0.1541 -0.3228
 7290SOL    HW133506   1.829   2.247   7.660  0.3834  0.0669  0.6209
 7290SOL    HW233507   1.806   2.317   7.791  2.6530 -0.4453 -0.7990
 7291SOL     OW33508   3.441   3.427   9.019  0.0950  0.1557 -0.4667
 7291SOL    HW133509   3.460   3.407   9.111 -1.7788  1.8548  0.3024
 7291SOL    HW233510   3.482   3.350   8.979  0.4145  0.1382 -0.1114
 7292SOL     OW33511   3.388   3.452   1.678  0.4554 -0.4337  0.4376
 7292SOL    HW133512   3.410   3.452   1.772 -1.7963 -0.2113  0.9802
 7292SOL    HW233513   3.293   3.451   1.688  0.2516  1.3101 -1.4333
 7293SOL     OW33514   3.247   2.221   3.721 -0.0379  0.5150  0.1849
 7293SOL    HW133515   3.268   2.306   3.758  1.0316 -0.0722  0.9253
 7293SOL    HW233516   3.152   2.230   3.713 -0.2214 -0.2751  1.4309
 7294SOL     OW33517   1.533   1.015  14.785 -0.0670  0.5185 -0.3673
 7294SOL    HW133518   1.604   1.023  14.848  0.8785  1.3611 -1.5452
 7294SOL    HW233519   1.466   1.042  14.848 -0.2908 -0.2181 -0.2940
 7295SOL     OW33520   2.264   2.339   6.049  0.5594 -0.6822  0.1358
 7295SOL    HW133521   2.254   2.244   6.053  0.4998 -0.7649 -1.9456
 7295SOL    HW233522   2.292   2.353   5.958 -1.2110  2.3994  0.0636
 7296SOL     OW33523   0.221   0.212  16.691  0.2508 -0.5443  0.4507
 7296SOL    HW133524   0.132   0.236  16.719  0.4916  0.2485  0.5453
 7296SOL    HW233525   0.225   0.117  16.703 -1.7541 -0.8442 -1.2623
 7297SOL     OW33526   1.666   1.670  14.484  0.3344  0.7580  0.4029
 7297SOL    HW133527   1.672   1.658  14.390  1.0737  3.8452  0.0537
 7297SOL    HW233528   1.618   1.590  14.507  1.0615  0.8972  2.4236
 7298SOL     OW33529   2.870   0.503   5.296 -0.5099 -0.2921  0.6190
 7298SOL    HW133530   2.886   0.568   5.227 -1.2548 -1.2300 -0.4395
 7298SOL    HW233531   2.958   0.487   5.329  0.9314  0.2579 -2.9349
 7299SOL     OW33532   2.914   1.626  11.856  0.3861  0.0598  0.0900
 7299SOL    HW133533   2.937   1.533  11.856 -2.3655 -0.6167 -1.3763
 7299SOL    HW233534   2.989   1.665  11.902  1.4896 -1.0526 -0.7617
 7300SOL     OW33535   1.717   1.572   6.677 -0.3361  0.6295  0.2202
 7300SOL    HW133536   1.738   1.482   6.703  2.3142  1.1573 -0.1195
 7300SOL    HW233537   1.645   1.557   6.615 -0.1716 -1.2528  0.4877
 7301SOL     OW33538   2.004   2.933   7.265 -0.0626  0.2270  0.4521
 7301SOL    HW133539   2.016   3.018   7.223 -0.3173  0.1571  0.2397
 7301SOL    HW233540   2.034   2.878   7.193  1.1100  0.1010  1.0238
 7302SOL     OW33541   3.583   2.869  10.713 -0.5929 -0.1646 -0.1944
 7302SOL    HW133542   3.566   2.921  10.792 -0.9631 -0.1401 -0.2915
 7302SOL    HW233543   3.614   2.790  10.758 -0.7541  0.7186  1.4762
 7303SOL     OW33544   4.605   1.952   2.478 -0.1601  0.5757  0.0684
 7303SOL    HW133545   4.599   1.869   2.431 -0.7675  0.7237 -0.1130
 7303SOL    HW233546   4.579   2.018   2.414 -1.4160 -2.0685 -2.1096
 7304SOL     OW33547   2.346   3.752   3.245 -0.2469  0.0289 -0.1231
 7304SOL    HW133548   2.432   3.725   3.277 -1.0804 -0.4640  1.7088
 7304SOL    HW233549   2.309   3.665   3.230 -0.7570 -0.0333  1.5307
 7305SOL     OW33550   1.958   2.830   5.701 -0.2860 -0.3479 -0.1046
 7305SOL    HW133551   1.949   2.769   5.774  1.5157  0.5844  0.8836
 7305SOL    HW233552   2.026   2.891   5.728  0.5240 -1.4572  0.3523
 7306SOL     OW33553   0.891   2.175   0.586  0.1541 -0.1707 -0.3896
 7306SOL    HW133554   0.947   2.203   0.514  2.7968  0.2505  1.8540
 7306SOL    HW233555   0.870   2.262   0.620  0.4265 -0.6784  1.0865
 7307SOL     OW33556   0.694   3.620  14.959 -0.1860  0.4805 -0.4554
 7307SOL    HW133557   0.667   3.598  15.048  1.4015  0.6804  0.0734
 7307SOL    HW233558   0.611   3.643  14.917  0.3493 -0.4765 -2.0459
 7308SOL     OW33559   1.137   0.832  13.369 -0.5726  0.2429  0.1216
 7308SOL    HW133560   1.091   0.748  13.371 -0.7477  0.3968  2.4449
 7308SOL    HW233561   1.085   0.879  13.304  1.0151  1.5492 -0.1974
 7309SOL     OW33562   0.619   3.000  17.363 -0.0274 -0.6490 -0.4272
 7309SOL    HW133563   0.531   2.974  17.336 -1.6544  2.9436  1.3139
 7309SOL    HW233564   0.647   3.054  17.289 -1.5194 -0.4750 -0.8653
 7310SOL     OW33565   2.219   2.231  16.324 -0.1279 -0.8690 -0.0778
 7310SOL    HW133566   2.256   2.153  16.366 -0.5552 -0.7362  0.5441
 7310SOL    HW233567   2.277   2.305  16.338  0.3493 -0.6755 -3.1924
 7311SOL     OW33568   0.281   0.085   1.185  0.6053 -0.3840 -0.2384
 7311SOL    HW133569   0.190   0.110   1.199  0.3931 -1.0195 -0.5005
 7311SOL    HW233570   0.325   0.127   1.260 -0.4249 -0.5320  0.4446
 7312SOL     OW33571   3.241   3.897  14.470  0.1975 -0.1829 -0.0727
 7312SOL    HW133572   3.178   3.839  14.428 -0.2696 -0.2125  0.6632
 7312SOL    HW233573   3.320   3.845  14.480  0.6308  0.4295 -0.3122
 7313SOL     OW33574   4.474   0.547   1.852  0.3914  0.4457 -0.3066
 7313SOL    HW133575   4.440   0.602   1.923  0.7766  0.1497  0.1100
 7313SOL    HW233576   4.478   0.460   1.893 -0.1899  0.1448 -0.8981
 7314SOL     OW33577   0.199   3.444  17.641 -0.0217  0.3297  0.1265
 7314SOL    HW133578   0.131   3.488  17.591  0.5572  1.3958  0.2702
 7314SOL    HW233579   0.271   3.424  17.580  2.0009  1.3479  2.1733
 7315SOL     OW33580   4.295   0.151   0.267 -0.2519 -0.2172  0.1048
 7315SOL    HW133581   4.338   0.071   0.297 -1.7687 -0.1947  2.3472
 7315SOL    HW233582   4.252   0.120   0.188 -0.8941 -2.1209  1.2070
 7316SOL     OW33583   2.237   3.665   2.169  0.4280  0.2269 -0.3679
 7316SOL    HW133584   2.308   3.609   2.202  1.9271  1.4630 -1.4538
 7316SOL    HW233585   2.187   3.592   2.131  0.3317 -0.6848  1.5260
 7317SOL     OW33586   3.275   2.458   1.851  0.2637  0.0108 -0.2217
 7317SOL    HW133587   3.246   2.514   1.779 -0.5751 -0.5066 -0.2838
 7317SOL    HW233588   3.200   2.402   1.868 -0.7955  1.4160 -0.2426
 7318SOL     OW33589   2.006   1.207   2.900 -0.0154 -0.5056 -0.0765
 7318SOL    HW133590   2.041   1.293   2.919  0.1986 -0.6542  0.1994
 7318SOL    HW233591   2.013   1.211   2.805  0.5106 -0.1755 -0.0206
 7319SOL     OW33592   4.387   1.988   5.766 -0.2916 -0.6112  0.5050
 7319SOL    HW133593   4.351   2.042   5.837 -1.9254  0.7277 -1.3436
 7319SOL    HW233594   4.419   2.050   5.700 -0.3097 -0.5845  0.5214
 7320SOL     OW33595   4.264   3.067   3.898 -0.2179 -0.0750  0.0937
 7320SOL    HW133596   4.323   3.121   3.950  0.4300  0.0521 -0.7745
 7320SOL    HW233597   4.273   3.103   3.810 -0.3163 -1.5168 -0.5037
 7321SOL     OW33598   3.933   3.195   6.301 -0.2178  0.0941 -0.9281
 7321SOL    HW133599   3.964   3.198   6.392  2.1659  1.4198 -1.7639
 7321SOL    HW233600   3.890   3.280   6.293 -1.4953 -0.7277 -2.7075
 7322SOL     OW33601   2.668   1.228   3.942  0.2930 -0.1763  0.3843
 7322SOL    HW133602   2.739   1.274   3.897  2.0807 -2.4811  0.8601
 7322SOL    HW233603   2.668   1.148   3.890 -0.9182  1.2405 -1.8560
 7323SOL     OW33604   2.488   1.396   5.412 -0.6374 -0.4668  0.2407
 7323SOL    HW133605   2.485   1.359   5.323 -0.8802  3.0175 -1.1802
 7323SOL    HW233606   2.445   1.331   5.467  1.2275 -0.3036  1.8802
 7324SOL     OW33607   2.359   1.346   1.451 -0.0476  0.5145 -0.1383
 7324SOL    HW133608   2.364   1.432   1.493 -1.0871  1.4582 -1.9129
 7324SOL    HW233609   2.271   1.314   1.470  0.2043  1.1585  2.0370
 7325SOL     OW33610   0.332   2.412   5.643 -0.0671  0.8662 -0.1627
 7325SOL    HW133611   0.340   2.415   5.738  0.6408 -2.2346 -0.1009
 7325SOL    HW233612   0.250   2.457   5.627  1.3642  2.7641 -2.1076
 7326SOL     OW33613   0.138   0.810   3.416 -0.2611  0.0474 -0.0162
 7326SOL    HW133614   0.103   0.899   3.409 -0.3506  0.0834  0.8933
 7326SOL    HW233615   0.119   0.768   3.332  0.8930  0.5574 -0.5375
 7327SOL     OW33616   1.397   3.217   3.135  0.0283 -0.0056 -0.0528
 7327SOL    HW133617   1.317   3.253   3.097  1.7894  1.6489 -2.1782
 7327SOL    HW233618   1.427   3.279   3.202 -0.3415  1.0738 -0.8875
 7328SOL     OW33619   4.276   2.131   5.032 -0.0580  0.5990 -0.1173
 7328SOL    HW133620   4.223   2.121   5.111 -0.0418 -1.1942 -0.3236
 7328SOL    HW233621   4.321   2.047   5.027  0.4188  1.0849 -4.1715
 7329SOL     OW33622   3.220   1.032  16.732 -0.2774 -0.8940 -0.1802
 7329SOL    HW133623   3.224   1.033  16.637  1.6938  0.0053 -0.0911
 7329SOL    HW233624   3.126   1.042  16.744 -0.0958  2.7527 -1.6491
 7330SOL     OW33625   4.576   3.795  17.645  0.1047  0.1363 -0.0104
 7330SOL    HW133626   4.565   3.889  17.656 -2.9017 -0.0330 -1.6298
 7330SOL    HW233627   4.608   3.770  17.732 -2.7468 -0.2723  0.9072
 7331SOL     OW33628   0.742   3.226   1.961  0.2632 -0.0060 -0.4419
 7331SOL    HW133629   0.694   3.277   1.895  1.7903  0.6642 -1.0394
 7331SOL    HW233630   0.823   3.274   1.949  1.7779 -2.3200  0.5819
 7332SOL     OW33631   3.398   3.214   4.037 -0.0628 -0.2704 -0.3006
 7332SOL    HW133632   3.422   3.186   4.126  0.8218 -1.9345 -1.0655
 7332SOL    HW233633   3.474   3.175   3.995  0.3865 -0.1117  0.3558
 7333SOL     OW33634   2.095   3.751   1.484 -0.1291  0.0553  0.3606
 7333SOL    HW133635   2.168   3.708   1.439  0.3586 -0.5141  1.7045
 7333SOL    HW233636   2.013   3.731   1.439  0.8211 -0.8604 -0.9489
 7334SOL     OW33637   3.910   1.544   1.160  0.5383  0.2256 -0.1397
 7334SOL    HW133638   3.986   1.500   1.199  0.0464  0.7678  1.4381
 7334SOL    HW233639   3.851   1.471   1.183  1.8077  0.1816  2.9531
 7335SOL     OW33640   0.059   2.762   0.633 -0.3560  0.4781 -0.0687
 7335SOL    HW133641   0.147   2.799   0.642  0.4521 -1.2675 -0.9170
 7335SOL    HW233642   0.078   2.669   0.627 -1.6270  0.1859  0.3213
 7336SOL     OW33643   4.432   1.163   3.619  0.2055 -0.5597 -0.0499
 7336SOL    HW133644   4.372   1.210   3.677  1.6351  3.0434 -1.4930
 7336SOL    HW233645   4.461   1.243   3.576  0.7393 -0.0544  1.2470
 7337SOL     OW33646   2.200   2.548   5.464 -0.0571  0.1819  0.9789
 7337SOL    HW133647   2.230   2.458   5.465 -1.1098 -0.1811 -0.4553
 7337SOL    HW233648   2.249   2.595   5.531  2.7473  0.2932 -1.1326
 7338SOL     OW33649   4.428   3.890   7.816 -0.2933 -0.1298 -0.0697
 7338SOL    HW133650   4.503   3.906   7.874  1.0820 -0.4268 -1.7652
 7338SOL    HW233651   4.453   3.950   7.745  1.1502  1.9544  2.1748
 7339SOL     OW33652   0.089   1.635   4.086 -0.4421  0.1802 -0.6780
 7339SOL    HW133653   0.142   1.563   4.121  1.3935  1.8869  0.0542
 7339SOL    HW233654   0.150   1.648   4.014 -2.7544  0.1147 -2.6443
 7340SOL     OW33655   1.909   0.458   8.705 -0.0103  0.1795  0.0297
 7340SOL    HW133656   1.929   0.370   8.736 -2.9159 -0.0390  1.2765
 7340SOL    HW233657   1.976   0.512   8.745 -0.4745  0.1496  0.8392
 7341SOL     OW33658   2.791   4.718   6.638  0.2207 -0.0956 -0.4104
 7341SOL    HW133659   2.854   0.044   6.669 -0.9478  0.4357  0.8120
 7341SOL    HW233660   2.732   0.024   6.578 -1.4301 -2.0179 -0.2379
 7342SOL     OW33661   2.472   2.443   8.915 -0.6013 -0.0773 -0.3417
 7342SOL    HW133662   2.479   2.402   9.001  0.0022  1.4328  0.3345
 7342SOL    HW233663   2.410   2.388   8.867  1.3612 -0.6926 -2.1949
 7343SOL     OW33664   3.278   4.625   9.585  0.2236 -0.7165 -0.3560
 7343SOL    HW133665   3.209   4.669   9.536 -2.8709 -2.7760  2.1369
 7343SOL    HW233666   3.313   4.561   9.522  1.6263  0.0953 -0.4201
 7344SOL     OW33667   3.765   1.039   9.780 -0.2891 -0.8154  0.4408
 7344SOL    HW133668   3.845   1.021   9.829  1.0038 -1.2847 -1.8323
 7344SOL    HW233669   3.806   1.023   9.695 -1.3871  2.5777 -0.7415
 7345SOL     OW33670   1.169   3.829   0.472  0.3441  0.2733 -0.0318
 7345SOL    HW133671   1.117   3.771   0.416 -1.6152  1.8577  0.1350
 7345SOL    HW233672   1.259   3.798   0.468  0.0221 -0.3350 -2.3716
 7346SOL     OW33673   2.949   0.898  12.283  0.6631  0.3261  0.4824
 7346SOL    HW133674   2.936   0.829  12.348  3.6851 -0.3501  0.3825
 7346SOL    HW233675   2.953   0.848  12.201 -1.7384  0.1967  0.4467
 7347SOL     OW33676   1.493   3.938   8.925  0.1028  0.4770  0.0109
 7347SOL    HW133677   1.522   3.954   8.836 -2.0091  1.1778 -0.5507
 7347SOL    HW233678   1.506   3.844   8.944 -2.1395  0.6111  2.3139
 7348SOL     OW33679   0.672   2.248   4.658  0.3231 -0.2880 -0.3469
 7348SOL    HW133680   0.679   2.158   4.690 -0.2777 -0.3054 -0.2555
 7348SOL    HW233681   0.577   2.262   4.653  0.2243 -0.5045  0.8921
 7349SOL     OW33682   0.035   1.935   7.316  0.4758  0.1605  0.2649
 7349SOL    HW133683   0.091   1.974   7.383 -0.4616 -2.4957  2.5767
 7349SOL    HW233684   0.100   1.908   7.252 -0.5406  0.0732 -0.7427
 7350SOL     OW33685   4.055   0.059  15.327  0.5692  0.1042 -0.2294
 7350SOL    HW133686   3.960   0.059  15.318  0.5398  1.1848  0.0464
 7350SOL    HW233687   4.065   0.123  15.397 -2.9123  0.3948  0.0066
 7351SOL     OW33688   3.386   3.029   0.372 -0.3178  0.5691  0.3976
 7351SOL    HW133689   3.311   3.082   0.399 -1.8621 -1.7402  0.5836
 7351SOL    HW233690   3.456   3.091   0.392  0.5366  0.0344 -0.9525
 7352SOL     OW33691   4.248   0.449   7.918 -0.7083 -0.3340  0.0470
 7352SOL    HW133692   4.289   0.528   7.954 -1.9693  0.9357 -1.2818
 7352SOL    HW233693   4.245   0.472   7.825 -0.6238  1.3435  0.4462
 7353SOL     OW33694   3.030   1.720   5.761  0.4268 -0.3346 -0.6660
 7353SOL    HW133695   2.990   1.672   5.834  0.8800 -2.5304 -1.8695
 7353SOL    HW233696   3.092   1.767   5.817  1.0430 -1.3066 -0.5425
 7354SOL     OW33697   4.347   3.544   8.018 -0.1199  0.5221  0.3276
 7354SOL    HW133698   4.346   3.459   8.063 -0.7520  1.3494  1.8745
 7354SOL    HW233699   4.291   3.596   8.076  1.3693  0.3915  1.8678
 7355SOL     OW33700   3.815   3.059  16.146  0.1791 -0.1441  0.4582
 7355SOL    HW133701   3.780   3.136  16.190  1.4443  0.6216  0.1176
 7355SOL    HW233702   3.775   3.071  16.060 -1.5004  2.2692  1.5844
 7356SOL     OW33703   0.664   3.223   3.863 -0.2156 -0.1254 -0.5240
 7356SOL    HW133704   0.638   3.310   3.894 -1.3855 -0.7105  0.1566
 7356SOL    HW233705   0.598   3.168   3.904 -0.6190  0.4139 -0.4466
 7357SOL     OW33706   2.729   4.130  11.444  0.1231 -0.1463  0.0729
 7357SOL    HW133707   2.670   4.180  11.500  0.9122  1.3664 -0.4535
 7357SOL    HW233708   2.770   4.066  11.502  0.5190  1.8877  2.0257
 7358SOL     OW33709   1.815   2.140   3.362  0.5981 -0.1363  0.1975
 7358SOL    HW133710   1.849   2.218   3.318  0.4483 -0.3217 -0.2502
 7358SOL    HW233711   1.736   2.123   3.311 -1.1717 -1.5944  3.4520
 7359SOL     OW33712   1.516   1.953   6.745  0.3206 -0.2489 -0.4939
 7359SOL    HW133713   1.575   1.891   6.787 -0.0074 -0.1663  0.0937
 7359SOL    HW233714   1.535   1.948   6.651 -1.2077  1.4737 -0.8897
 7360SOL     OW33715   1.719   1.058   7.666  0.0855  0.0408  0.3718
 7360SOL    HW133716   1.660   1.001   7.715 -1.2848  0.2864 -0.9778
 7360SOL    HW233717   1.708   1.035   7.574  1.0045  3.1935 -0.5151
 7361SOL     OW33718   2.744   3.712  11.547  0.0756  0.3947 -0.5402
 7361SOL    HW133719   2.752   3.706  11.642 -0.6164 -1.2909 -0.5812
 7361SOL    HW233720   2.671   3.772  11.533  1.2513  1.8456 -0.5164
 7362SOL     OW33721   1.504   0.394   2.761 -0.2828 -0.0053 -0.3716
 7362SOL    HW133722   1.548   0.317   2.797 -0.7001 -0.8889 -1.7695
 7362SOL    HW233723   1.569   0.415   2.694  2.4484 -1.2400  1.8965
 7363SOL     OW33724   0.466   0.052   9.048 -0.0731 -0.0420 -0.1552
 7363SOL    HW133725   0.410   0.059   9.126 -2.2030  0.2782 -1.6919
 7363SOL    HW233726   0.483   4.699   9.029 -1.4042 -0.2192 -0.5292
 7364SOL     OW33727   3.571   1.431   7.611 -0.6150  0.3063 -0.3695
 7364SOL    HW133728   3.543   1.481   7.688 -0.0530 -2.6477  1.7321
 7364SOL    HW233729   3.495   1.433   7.553  0.0423  0.4045 -1.2291
 7365SOL     OW33730   2.333   2.091   7.548  0.0865 -0.4821  0.4724
 7365SOL    HW133731   2.333   2.091   7.644  0.9576 -0.4647  0.4649
 7365SOL    HW233732   2.331   2.000   7.518 -0.8148 -0.5304  0.6703
 7366SOL     OW33733   2.276   4.178   7.651 -0.7546  0.4095 -0.2996
 7366SOL    HW133734   2.295   4.174   7.557  0.6419  1.1858 -0.0476
 7366SOL    HW233735   2.306   4.091   7.676 -2.0143 -0.1304 -0.6689
 7367SOL     OW33736   3.171   2.697   5.302  0.0118 -0.6469  0.0082
 7367SOL    HW133737   3.091   2.685   5.251 -1.4138  1.8052  1.6503
 7367SOL    HW233738   3.206   2.775   5.258 -1.2150  0.5397  1.1191
 7368SOL     OW33739   2.916   0.122   4.790  0.5709  0.1114  0.2341
 7368SOL    HW133740   2.893   0.172   4.869  0.7605  0.4813  0.0535
 7368SOL    HW233741   2.981   0.061   4.825 -1.7677 -2.2856  0.3239
 7369SOL     OW33742   2.687   2.363   8.740  0.3042 -0.4520  0.4650
 7369SOL    HW133743   2.744   2.328   8.809 -0.3528 -2.6002 -0.0770
 7369SOL    HW233744   2.612   2.390   8.792 -1.1168 -1.6366 -0.9861
 7370SOL     OW33745   3.564   3.772   7.573  0.7081 -0.5409  0.5343
 7370SOL    HW133746   3.489   3.735   7.526  1.2874 -0.4351 -0.4613
 7370SOL    HW233747   3.516   3.836   7.626 -1.5751 -0.7396 -1.3024
 7371SOL     OW33748   0.086   0.794   7.740 -0.2739  0.4884  0.1885
 7371SOL    HW133749   0.150   0.794   7.669  0.0645  3.1822  0.5040
 7371SOL    HW233750   0.152   0.776   7.807 -0.0390 -2.7462 -0.8842
 7372SOL     OW33751   2.150   4.261   6.413 -0.6403  0.1496  0.6213
 7372SOL    HW133752   2.074   4.300   6.457 -1.5078  0.1396 -0.8609
 7372SOL    HW233753   2.146   4.167   6.431 -0.8618  0.0292 -0.0623
 7373SOL     OW33754   0.475   3.699  16.368  0.6192  0.1946  0.7146
 7373SOL    HW133755   0.395   3.648  16.360  1.2644 -1.0943  2.5130
 7373SOL    HW233756   0.494   3.684  16.460 -1.6139  0.3810  1.1980
 7374SOL     OW33757   1.324   1.450  13.759  0.4914 -0.2852 -0.1841
 7374SOL    HW133758   1.264   1.525  13.756 -0.2956 -0.8994  0.1501
 7374SOL    HW233759   1.408   1.471  13.719  0.2663 -0.0699 -0.5426
 7375SOL     OW33760   4.449   0.321   5.793 -0.5331 -0.1142  0.3640
 7375SOL    HW133761   4.424   0.251   5.854 -1.1426 -0.2237 -0.0153
 7375SOL    HW233762   4.538   0.293   5.772 -1.3901 -2.9523  0.4146
 7376SOL     OW33763   0.283   4.057   7.015  0.5459 -0.0547  0.8373
 7376SOL    HW133764   0.345   4.130   7.011  0.0315  0.1038 -4.6018
 7376SOL    HW233765   0.332   3.988   6.971  1.5561  0.4718  1.1292
 7377SOL     OW33766   0.534   3.010   2.301  0.0024 -0.4033 -0.4414
 7377SOL    HW133767   0.459   2.961   2.267 -0.4533  0.2038 -0.3096
 7377SOL    HW233768   0.485   3.087   2.332 -0.2911 -0.1574 -1.5122
 7378SOL     OW33769   4.628   4.420  12.702  0.6952  0.0657  0.2574
 7378SOL    HW133770   4.534   4.416  12.717  0.3270 -0.2191 -2.1733
 7378SOL    HW233771   4.624   4.484  12.631 -1.7057 -1.4172 -0.9213
 7379SOL     OW33772   2.731   4.641   7.532 -0.4887 -0.3617  0.0114
 7379SOL    HW133773   2.808   4.616   7.482 -0.7556 -1.0488 -0.0516
 7379SOL    HW233774   2.768   4.680   7.611 -1.1765 -2.1773  1.2296
 7380SOL     OW33775   3.703   4.098  12.941 -0.0083  0.8283  0.1637
 7380SOL    HW133776   3.607   4.097  12.940  0.0019 -0.9229  0.4625
 7380SOL    HW233777   3.720   4.037  13.013 -0.8953  0.5507  0.1446
 7381SOL     OW33778   1.873   3.256   1.128 -0.6108 -0.3497  0.3254
 7381SOL    HW133779   1.911   3.186   1.074  0.5676  0.4487  0.1227
 7381SOL    HW233780   1.822   3.311   1.069 -0.7850  1.1049  1.8140
 7382SOL     OW33781   4.494   2.624   6.921  0.5055 -0.1348 -0.5223
 7382SOL    HW133782   4.513   2.689   6.853  2.1742 -0.3194 -0.2195
 7382SOL    HW233783   4.585   2.604   6.941  0.1620 -2.5580 -1.4318
 7383SOL     OW33784   2.143   2.844   8.320  0.0755  0.4937  0.3112
 7383SOL    HW133785   2.141   2.852   8.224  1.9311  1.3623  0.3341
 7383SOL    HW233786   2.230   2.803   8.318  0.6099  1.5483  2.2777
 7384SOL     OW33787   2.976   4.531   9.249 -0.5682 -0.3989 -1.2905
 7384SOL    HW133788   2.978   4.619   9.210  0.2594 -0.5171 -1.5164
 7384SOL    HW233789   3.025   4.488   9.179 -0.1663 -0.4192 -0.9981
 7385SOL     OW33790   3.437   1.518   2.264 -0.0651 -1.0233 -0.2800
 7385SOL    HW133791   3.526   1.516   2.300 -0.0268  0.9888 -0.2858
 7385SOL    HW233792   3.403   1.597   2.306 -0.4204 -1.3409  0.0304
 7386SOL     OW33793   3.029   2.596   3.100  0.0373  0.8524 -0.1980
 7386SOL    HW133794   2.969   2.664   3.128  0.2969  0.8086  0.4694
 7386SOL    HW233795   2.978   2.567   3.025  0.2454  1.1567 -0.4566
 7387SOL     OW33796   1.065   0.598   2.949 -0.7190  0.0951 -0.1684
 7387SOL    HW133797   1.047   0.660   2.879 -2.1273 -0.9085 -0.6901
 7387SOL    HW233798   1.038   0.516   2.909 -0.5650  0.0395 -0.1599
 7388SOL     OW33799   2.145   1.824   6.432 -0.6026  0.1101 -0.4471
 7388SOL    HW133800   2.094   1.900   6.404 -0.8752  0.0900 -0.0071
 7388SOL    HW233801   2.227   1.870   6.446 -1.1326  0.8810  0.1202
 7389SOL     OW33802   2.952   4.262   1.788 -0.4553  0.2153  0.9048
 7389SOL    HW133803   2.990   4.294   1.869 -0.4810  0.1738  0.9338
 7389SOL    HW233804   2.891   4.197   1.823 -0.1390 -0.9637 -0.6677
 7390SOL     OW33805   4.297   3.842  14.694 -0.2552 -0.2986 -0.2605
 7390SOL    HW133806   4.212   3.874  14.665  0.0248  1.3417  0.6875
 7390SOL    HW233807   4.262   3.809  14.777  0.7247 -1.3515 -0.2753
 7391SOL     OW33808   2.860   3.737  14.494 -0.1046 -0.2373 -0.2418
 7391SOL    HW133809   2.784   3.690  14.458 -0.5601  0.1876  0.1721
 7391SOL    HW233810   2.839   3.733  14.587 -1.1750 -0.7087 -0.5034
 7392SOL     OW33811   0.133   0.676   8.060 -0.2955 -0.2801  0.0586
 7392SOL    HW133812   0.117   0.596   8.010  1.6260 -0.1564 -0.7532
 7392SOL    HW233813   0.229   0.681   8.055 -0.0207 -3.7509  1.7553
 7393SOL     OW33814   1.228   3.057   8.703  0.3295  0.5984 -0.1405
 7393SOL    HW133815   1.163   3.127   8.695 -0.1906  0.3825  2.1111
 7393SOL    HW233816   1.217   3.036   8.796  1.1769 -0.4981 -0.2911
 7394SOL     OW33817   3.893   4.190   3.664  0.0588 -0.0810  0.3857
 7394SOL    HW133818   3.874   4.284   3.665 -3.3384 -0.7498 -0.4101
 7394SOL    HW233819   3.808   4.147   3.676 -0.6582  1.0773 -0.4399
 7395SOL     OW33820   2.155   4.510  13.063  0.3645  0.2909 -0.0443
 7395SOL    HW133821   2.123   4.569  12.995 -1.6676 -2.2231 -1.2797
 7395SOL    HW233822   2.152   4.423  13.023  1.3071  0.2298  0.0092
 7396SOL     OW33823   0.192   0.311  16.403 -0.6150 -0.0842 -0.2523
 7396SOL    HW133824   0.155   0.223  16.413  4.2845 -2.2049 -0.3151
 7396SOL    HW233825   0.203   0.338  16.495 -0.3131 -2.0193  0.2898
 7397SOL     OW33826   3.382   0.886   5.605  0.2343 -0.3394  0.0079
 7397SOL    HW133827   3.469   0.855   5.634  0.7771  0.3823 -0.8545
 7397SOL    HW233828   3.403   0.966   5.557  0.7874 -2.5455 -3.3700
 7398SOL     OW33829   1.484   0.763  16.057  0.4298  0.3077  0.0677
 7398SOL    HW133830   1.555   0.825  16.077  2.1127 -0.9722 -1.9193
 7398SOL    HW233831   1.450   0.800  15.976 -0.4963 -0.6060  0.0470
 7399SOL     OW33832   3.457   3.225   4.311  0.1359 -0.1460  0.2140
 7399SOL    HW133833   3.374   3.247   4.353 -0.5244  0.3807 -1.3861
 7399SOL    HW233834   3.510   3.303   4.327 -0.2804  0.5035 -1.6451
 7400SOL     OW33835   1.552   0.183   8.342 -0.2207 -0.1120  0.1343
 7400SOL    HW133836   1.638   0.219   8.366  0.1988 -1.9791  1.4914
 7400SOL    HW233837   1.590   0.097   8.322 -0.2276  0.4402 -2.2129
 7401SOL     OW33838   3.353   0.322   6.094 -0.1750 -0.0744  0.6090
 7401SOL    HW133839   3.413   0.389   6.061 -1.4632 -1.0030 -3.6422
 7401SOL    HW233840   3.381   0.238   6.059  1.2122  0.6035  0.0850
 7402SOL     OW33841   2.473   1.962   9.284 -0.4646 -0.4932 -0.4083
 7402SOL    HW133842   2.392   1.918   9.257 -0.1076 -0.2281 -1.8842
 7402SOL    HW233843   2.524   1.883   9.302 -0.6957 -0.2316  1.4105
 7403SOL     OW33844   0.067   0.322   8.236 -0.1845  0.0473  0.1048
 7403SOL    HW133845   0.026   0.403   8.268  1.3539  0.5735  0.7137
 7403SOL    HW233846   4.723   0.285   8.204  0.2702 -1.5052  0.7224
 7404SOL     OW33847   0.706   1.786   8.611 -0.7083  0.2287  0.0668
 7404SOL    HW133848   0.692   1.721   8.680  2.2112 -0.6319 -0.1812
 7404SOL    HW233849   0.664   1.865   8.646  0.3342  0.4628  0.7984
 7405SOL     OW33850   3.501   0.705   7.940  0.0134 -0.4980  0.2443
 7405SOL    HW133851   3.583   0.736   7.901  0.3654  0.7187  1.9361
 7405SOL    HW233852   3.447   0.785   7.933  1.6171  0.5656  0.1332
 7406SOL     OW33853   3.940   1.299   9.631  0.0216  0.3793  0.4832
 7406SOL    HW133854   3.877   1.315   9.701  0.1823  1.8420  0.2944
 7406SOL    HW233855   3.944   1.204   9.637 -1.6766  0.3392  1.0354
 7407SOL     OW33856   2.486   2.386   2.844 -0.0958 -0.0793 -0.2254
 7407SOL    HW133857   2.425   2.415   2.777  0.3526 -1.4823 -1.2326
 7407SOL    HW233858   2.432   2.318   2.886 -0.2406  0.0587 -0.1901
 7408SOL     OW33859   0.059   0.570  10.059  0.0956  0.6082 -0.0638
 7408SOL    HW133860   0.135   0.520  10.088 -0.3332 -0.8413 -1.4568
 7408SOL    HW233861   0.048   0.628  10.134 -1.5194 -2.4965  2.0806
 7409SOL     OW33862   4.664   1.735  17.017  0.3451  0.7878  0.7601
 7409SOL    HW133863   4.701   1.654  16.982  0.7267  1.1975  0.2309
 7409SOL    HW233864   4.661   1.800  16.948 -0.2318  1.2613  1.2354
 7410SOL     OW33865   3.867   2.735  15.114  0.1598  0.1558 -0.1100
 7410SOL    HW133866   3.803   2.680  15.070  1.5138 -0.6365 -1.0790
 7410SOL    HW233867   3.902   2.678  15.182 -0.1680  0.2843  0.1665
 7411SOL     OW33868   0.023   2.233   4.558  0.3569  0.3792  0.1013
 7411SOL    HW133869   0.030   2.258   4.650  1.5827 -1.3646  0.4760
 7411SOL    HW233870   0.054   2.143   4.566  0.6134  0.6457  2.0751
 7412SOL     OW33871   1.982   2.198   3.097  0.0378 -0.9472 -0.2862
 7412SOL    HW133872   1.903   2.199   3.042  0.3906  0.9634 -0.7708
 7412SOL    HW233873   1.945   2.164   3.178 -0.5554  1.8429  0.5939
 7413SOL     OW33874   1.334   4.678   0.680  0.0804  0.0201  0.4494
 7413SOL    HW133875   1.374   0.016   0.718  1.8559 -1.1729  1.0104
 7413SOL    HW233876   1.259   4.713   0.632 -0.2348 -1.0395  0.1541
 7414SOL     OW33877   3.513   3.511   2.418  0.0864  0.8780 -0.0040
 7414SOL    HW133878   3.505   3.606   2.418  0.0782  0.8746 -2.0798
 7414SOL    HW233879   3.456   3.483   2.490  0.0393  2.2344  0.4852
 7415SOL     OW33880   1.641   2.220   8.156  0.5776  0.1614  0.0684
 7415SOL    HW133881   1.677   2.210   8.244  0.9525 -0.6829 -0.1828
 7415SOL    HW233882   1.624   2.128   8.135  0.4505  0.2365 -0.1668
 7416SOL     OW33883   0.524   3.135  16.741  0.3752 -0.2073  0.1215
 7416SOL    HW133884   0.548   3.198  16.808 -1.5264 -1.6967  2.2083
 7416SOL    HW233885   0.465   3.080  16.792 -0.9243 -0.7779 -1.9808
 7417SOL     OW33886   0.789   3.112   5.593 -0.1318 -0.1497 -0.2544
 7417SOL    HW133887   0.810   3.185   5.652  0.7962 -0.2594 -0.4487
 7417SOL    HW233888   0.770   3.046   5.659  1.2810 -0.6041 -0.2842
 7418SOL     OW33889   1.926   3.149   6.276  0.3907  0.1581 -0.1783
 7418SOL    HW133890   1.897   3.162   6.186  0.1097  0.0978 -0.0966
 7418SOL    HW233891   2.000   3.094   6.249  1.8119  1.9847  0.0046
 7419SOL     OW33892   3.888   1.793   1.106  0.4865 -0.0617 -0.4932
 7419SOL    HW133893   3.821   1.803   1.039 -0.8059 -2.4347  0.4581
 7419SOL    HW233894   3.897   1.700   1.124  0.7352  0.0949  0.2169
 7420SOL     OW33895   2.932   4.259   4.831  0.4955 -0.3511  0.0202
 7420SOL    HW133896   2.860   4.265   4.768  1.1239 -0.5748 -0.7222
 7420SOL    HW233897   2.887   4.258   4.915  1.1687  0.2676  0.3877
 7421SOL     OW33898   1.872   3.003  15.695  0.0938 -0.0618 -0.1152
 7421SOL    HW133899   1.781   3.019  15.670  0.1900  0.2236 -0.2827
 7421SOL    HW233900   1.880   3.035  15.785  0.6019  3.7295 -1.5250
 7422SOL     OW33901   3.940   1.827  13.682  0.1392 -0.1591  0.0424
 7422SOL    HW133902   3.926   1.756  13.619 -1.1155  0.2337 -0.1163
 7422SOL    HW233903   4.036   1.826  13.693  0.2135  2.8778 -0.2303
 7423SOL     OW33904   2.618   2.139   9.556 -0.1678 -0.0327 -0.0776
 7423SOL    HW133905   2.600   2.154   9.463 -2.3830  1.8781  0.6683
 7423SOL    HW233906   2.691   2.076   9.556  0.3081  0.5206  0.1606
 7424SOL     OW33907   2.106   1.046   1.538  0.0110  0.5143  0.4148
 7424SOL    HW133908   2.164   1.039   1.462 -1.3715 -0.7325 -0.5143
 7424SOL    HW233909   2.030   0.995   1.511  1.2768 -0.5355 -1.1586
 7425SOL     OW33910   0.051   1.202   5.036  0.2092 -0.0940  0.2972
 7425SOL    HW133911   0.056   1.114   5.074 -1.3329 -0.3598 -0.0915
 7425SOL    HW233912   4.709   1.228   5.081  1.4193  0.5704  2.0902
 7426SOL     OW33913   3.653   1.781  11.385 -0.7595  0.4419 -0.0839
 7426SOL    HW133914   3.653   1.701  11.439 -0.1764  0.9165  0.6216
 7426SOL    HW233915   3.676   1.741  11.302 -1.5306 -0.7352  0.2585
 7427SOL     OW33916   1.998   0.275   6.734 -0.8836  0.0380 -0.1939
 7427SOL    HW133917   2.006   0.336   6.808  0.5882  1.4120 -1.4846
 7427SOL    HW233918   2.055   0.329   6.679 -2.0717  2.3831  0.8915
 7428SOL     OW33919   0.768   4.042   3.713 -0.3099  1.0578 -0.3344
 7428SOL    HW133920   0.696   4.051   3.651 -1.0177 -1.5935  0.1307
 7428SOL    HW233921   0.770   4.127   3.758 -0.3232 -1.0358  3.5936
 7429SOL     OW33922   3.706   4.087   6.262  0.4367  0.6087  0.7023
 7429SOL    HW133923   3.797   4.091   6.232 -0.0033  0.7079 -0.6590
 7429SOL    HW233924   3.686   4.151   6.330  2.9147  2.8298 -0.6372
 7430SOL     OW33925   0.187   1.751   6.815 -0.7000  0.4192 -0.5730
 7430SOL    HW133926   0.246   1.761   6.890  0.7644  0.4102 -1.7123
 7430SOL    HW233927   0.151   1.663   6.826 -1.5014  0.8989  0.6818
 7431SOL     OW33928   2.537   1.558  16.914  0.1734  0.1489 -0.1834
 7431SOL    HW133929   2.617   1.512  16.889  1.5172  1.3205  2.0156
 7431SOL    HW233930   2.540   1.635  16.858  1.0713 -0.3736 -0.8512
 7432SOL     OW33931   2.932   1.456   1.359  0.1234 -0.0856 -0.2749
 7432SOL    HW133932   2.885   1.374   1.343 -1.4730  1.2336 -2.3214
 7432SOL    HW233933   3.022   1.426   1.354 -0.0027 -0.8278  1.6291
 7433SOL     OW33934   4.457   3.964   7.278  0.4837 -0.4400  0.8008
 7433SOL    HW133935   4.489   3.874   7.270 -0.6439 -0.6962 -0.7262
 7433SOL    HW233936   4.379   3.948   7.330 -0.6371  0.2189 -0.6901
 7434SOL     OW33937   0.637   3.438   7.385 -0.0043 -0.0866 -0.3480
 7434SOL    HW133938   0.614   3.516   7.334 -1.2857 -0.4662 -0.3521
 7434SOL    HW233939   0.641   3.474   7.474 -3.1761 -1.4840  0.3647
 7435SOL     OW33940   3.888   0.342   5.168 -0.1147 -0.3676 -0.1592
 7435SOL    HW133941   3.912   0.349   5.076 -1.4999 -1.1042 -0.5855
 7435SOL    HW233942   3.839   0.259   5.168  0.0763 -0.4826 -2.6032
 7436SOL     OW33943   1.551   4.145   4.177  0.1618 -0.6531 -0.0441
 7436SOL    HW133944   1.590   4.226   4.207 -0.6843 -0.5090  0.6682
 7436SOL    HW233945   1.513   4.172   4.093  0.8633  0.5577  0.0376
 7437SOL     OW33946   3.225   4.042  13.643 -0.2731 -0.2687  0.2952
 7437SOL    HW133947   3.162   4.098  13.599 -0.2219 -0.1380  0.3899
 7437SOL    HW233948   3.165   3.973  13.672  0.8881 -0.8586  1.3204
 7438SOL     OW33949   2.777   1.856  13.020  0.8918 -0.5015  0.3031
 7438SOL    HW133950   2.698   1.806  13.038  1.2194 -0.4873  1.7640
 7438SOL    HW233951   2.801   1.814  12.937 -0.1755 -0.3482 -0.0814
 7439SOL     OW33952   1.345   0.707   2.135 -0.0132  0.1234  0.5073
 7439SOL    HW133953   1.392   0.790   2.128 -1.4481  0.7202 -1.9349
 7439SOL    HW233954   1.253   0.731   2.120  0.0378  1.3567  2.1347
 7440SOL     OW33955   3.929   1.801   3.930  0.0573 -0.0614  0.5002
 7440SOL    HW133956   3.875   1.867   3.887  0.9554  0.7627  0.6354
 7440SOL    HW233957   3.905   1.719   3.886 -1.3891  0.1425  0.9299
 7441SOL     OW33958   1.128   2.462   2.805 -0.3394 -0.0107  0.3091
 7441SOL    HW133959   1.118   2.373   2.771  0.9143 -0.3050  0.7136
 7441SOL    HW233960   1.128   2.513   2.724 -2.8073 -1.9164 -0.8819
 7442SOL     OW33961   3.764   1.150   7.718 -0.6572  0.1392 -0.0565
 7442SOL    HW133962   3.844   1.112   7.753 -2.0412 -2.1967  0.6009
 7442SOL    HW233963   3.797   1.239   7.711 -2.1599  0.4566 -3.2659
 7443SOL     OW33964   2.502   3.461   0.608  0.3642 -0.5409  0.2645
 7443SOL    HW133965   2.517   3.404   0.684 -1.9897  1.2075  2.0413
 7443SOL    HW233966   2.426   3.503   0.648 -0.4046  0.4256 -2.2269
 7444SOL     OW33967   2.703   2.352   8.480 -0.0240 -0.0866 -1.0917
 7444SOL    HW133968   2.699   2.352   8.576  0.2479  2.1484 -1.0916
 7444SOL    HW233969   2.755   2.275   8.456  2.0649  0.8077  0.5527
 7445SOL     OW33970   2.084   0.607   9.254 -0.5386 -0.4568 -0.4752
 7445SOL    HW133971   1.991   0.596   9.237 -0.0300 -4.4217 -0.6197
 7445SOL    HW233972   2.119   0.600   9.165  1.6622  0.7011  0.2968
 7446SOL     OW33973   1.515   1.972   8.133  0.1133  0.0881 -0.0413
 7446SOL    HW133974   1.421   1.960   8.120  0.2511 -0.6626 -0.3071
 7446SOL    HW233975   1.556   1.898   8.089 -1.2874 -0.7142 -0.0069
 7447SOL     OW33976   3.756   3.348   4.277 -0.1765 -0.1214  0.3581
 7447SOL    HW133977   3.800   3.422   4.319  2.0881  0.3588 -2.8813
 7447SOL    HW233978   3.811   3.269   4.285 -0.5574 -0.2898  1.3002
 7448SOL     OW33979   1.646   2.036   7.722  0.3009  0.9823 -0.0964
 7448SOL    HW133980   1.707   2.066   7.654  1.6098 -0.8087  0.2956
 7448SOL    HW233981   1.671   1.944   7.728 -1.0343  0.6828  0.8067
 7449SOL     OW33982   0.083   4.153   7.396  0.1268  0.1102  0.3042
 7449SOL    HW133983   0.053   4.063   7.395  0.2611  0.0529  1.2320
 7449SOL    HW233984   0.143   4.141   7.470 -0.6646 -2.6639  0.4653
 7450SOL     OW33985   1.878   4.187   5.530  0.4890 -0.7665 -0.1655
 7450SOL    HW133986   1.969   4.180   5.559  0.5183 -1.9340 -0.5359
 7450SOL    HW233987   1.848   4.265   5.577 -0.7917 -0.6949 -1.1086
 7451SOL     OW33988   2.680   1.115   0.731  0.8542 -0.0277 -0.0502
 7451SOL    HW133989   2.670   1.176   0.657  0.1185  1.1622  1.0382
 7451SOL    HW233990   2.616   1.051   0.700  1.4462 -0.7676  0.2459
 7452SOL     OW33991   4.447   3.599   3.168  0.4705  0.8211 -0.1946
 7452SOL    HW133992   4.526   3.652   3.158  1.3567 -0.1828  1.4191
 7452SOL    HW233993   4.384   3.672   3.170 -0.1111  0.3213 -0.2344
 7453SOL     OW33994   4.288   2.664   4.936  0.1956  0.2845 -0.1840
 7453SOL    HW133995   4.261   2.579   4.901 -0.7955  0.4821  0.1025
 7453SOL    HW233996   4.257   2.649   5.026  0.8559  0.7257  0.1117
 7454SOL     OW33997   4.441   3.256   4.027 -1.0354 -0.4906  0.1178
 7454SOL    HW133998   4.446   3.310   4.107  0.9056  1.3383 -1.2162
 7454SOL    HW233999   4.484   3.175   4.052  2.2306 -0.1307 -4.4028
 7455SOL     OW34000   1.288   1.044   8.985 -0.3827 -0.0953 -0.5814
 7455SOL    HW134001   1.200   1.011   8.999 -0.6981  0.8889 -0.2680
 7455SOL    HW234002   1.322   0.983   8.920  2.1061  1.0090 -0.3269
 7456SOL     OW34003   2.215   2.859   1.851 -0.4882  0.2667  0.1174
 7456SOL    HW134004   2.273   2.793   1.889  0.1563  0.1234 -1.1247
 7456SOL    HW234005   2.256   2.864   1.765  0.7455 -0.6579  0.6516
 7457SOL     OW34006   4.499   0.385   1.299 -0.1514  0.2097 -0.3322
 7457SOL    HW134007   4.408   0.403   1.273  0.1128  0.3230 -1.1924
 7457SOL    HW234008   4.501   0.388   1.394  1.0127  1.4026 -0.3919
 7458SOL     OW34009   0.198   3.191  13.710 -0.4460  0.5339 -0.5219
 7458SOL    HW134010   0.273   3.242  13.679 -0.7483 -0.3121 -2.6155
 7458SOL    HW234011   0.128   3.243  13.671 -1.5054 -0.4547  0.0751
 7459SOL     OW34012   1.793   2.349  14.460  0.3498  0.6031 -0.4454
 7459SOL    HW134013   1.760   2.426  14.413 -0.9765 -0.3236 -1.0379
 7459SOL    HW234014   1.826   2.294  14.389  2.1993  1.6872 -0.4109
 7460SOL     OW34015   0.934   0.773  17.699  0.6169  0.4378 -0.3498
 7460SOL    HW134016   0.859   0.821  17.664  0.4711  1.0049  0.7319
 7460SOL    HW234017   0.927   0.791   0.038  0.2973  0.0454 -0.2968
 7461SOL     OW34018   4.621   4.736   9.888 -0.1777 -0.3757 -0.0082
 7461SOL    HW134019   4.580   0.055   9.824  3.0224  0.6066 -1.1405
 7461SOL    HW234020   4.685   4.700   9.826 -1.0189  0.1104 -1.1657
 7462SOL     OW34021   0.656   4.449  17.128  0.2494  0.3661  0.0745
 7462SOL    HW134022   0.595   4.523  17.132  0.5655  0.6236  0.1256
 7462SOL    HW234023   0.608   4.398  17.063 -0.5440  1.5601 -0.2775
 7463SOL     OW34024   3.707   1.164  10.168  0.2478 -0.4646  0.1835
 7463SOL    HW134025   3.745   1.201  10.088 -0.6427  1.1752  0.5402
 7463SOL    HW234026   3.781   1.178  10.228  0.3736  1.2774 -0.3842
 7464SOL     OW34027   1.073   1.750   6.365  0.0445  0.2332  0.3599
 7464SOL    HW134028   1.168   1.749   6.373  0.0645  0.1495  0.0990
 7464SOL    HW234029   1.057   1.666   6.408 -0.4507  0.4357  0.5692
 7465SOL     OW34030   2.689   3.243   9.803 -0.8858  0.6450 -0.1099
 7465SOL    HW134031   2.741   3.241   9.723 -1.7734  0.7963 -0.6878
 7465SOL    HW234032   2.746   3.301   9.854  1.1884 -1.5305  0.1041
 7466SOL     OW34033   0.323   1.199   5.187 -0.8074  0.2557  0.1799
 7466SOL    HW134034   0.334   1.149   5.106 -1.1748  0.4742 -0.0025
 7466SOL    HW234035   0.227   1.201   5.191 -0.7556  3.6682 -0.2737
 7467SOL     OW34036   3.704   0.397   2.781 -1.0087 -0.4380 -0.1480
 7467SOL    HW134037   3.797   0.402   2.802 -0.6735  0.2095 -1.7990
 7467SOL    HW234038   3.673   0.352   2.860 -1.0468 -0.8979 -0.4241
 7468SOL     OW34039   2.149   0.118   1.634  0.5597 -0.3070 -0.0984
 7468SOL    HW134040   2.116   0.196   1.678  1.8739  0.1798  0.0167
 7468SOL    HW234041   2.238   0.152   1.626  0.5658 -0.8353 -2.1242
 7469SOL     OW34042   2.617   2.062   4.893 -0.1736 -0.2269 -0.1684
 7469SOL    HW134043   2.541   2.063   4.951  2.2445 -1.2930  2.9904
 7469SOL    HW234044   2.676   2.020   4.955  0.2298  0.4426 -0.1030
 7470SOL     OW34045   1.003   0.053   7.570  0.5741 -0.1535 -0.1678
 7470SOL    HW134046   1.005   0.087   7.480  0.2823 -0.4954 -0.3026
 7470SOL    HW234047   1.056   0.120   7.613 -0.0759  0.1681  0.1270
 7471SOL     OW34048   3.320   2.574   8.300 -0.5434  0.2590  0.0980
 7471SOL    HW134049   3.404   2.534   8.276 -0.5155  1.2259 -1.4099
 7471SOL    HW234050   3.276   2.500   8.340  1.8028 -1.2603 -0.1306
 7472SOL     OW34051   2.943   2.910   8.485  0.3287 -0.7348  0.5445
 7472SOL    HW134052   2.864   2.963   8.488  1.0881  0.3599  1.3634
 7472SOL    HW234053   2.976   2.947   8.567  1.5514 -0.1220 -0.2298
 7473SOL     OW34054   2.326   2.943  12.029 -0.7514  0.2556 -0.8790
 7473SOL    HW134055   2.362   2.942  11.940 -0.4474 -3.5568 -0.7320
 7473SOL    HW234056   2.251   2.883  12.030  0.8128 -1.7336 -1.8084
 7474SOL     OW34057   0.034   4.296   5.807 -0.2293  0.2262 -0.0875
 7474SOL    HW134058   0.007   4.231   5.871  0.2885  1.9388  1.8875
 7474SOL    HW234059   0.109   4.342   5.843  1.9302 -1.9458 -1.8135
 7475SOL     OW34060   3.989   2.007  11.642 -0.7290  0.0855 -0.2892
 7475SOL    HW134061   3.937   1.995  11.562 -0.5285 -0.0348 -0.4040
 7475SOL    HW234062   4.079   2.003  11.608 -1.2208 -2.5854 -1.2916
 7476SOL     OW34063   4.657   4.290   6.436  0.2961  0.2909 -0.5406
 7476SOL    HW134064   4.664   4.211   6.490 -1.3601  0.6734  0.2380
 7476SOL    HW234065   4.721   4.352   6.470  1.9342 -1.9643  0.4945
 7477SOL     OW34066   3.237   1.192   8.482 -0.0139  0.4608  0.3029
 7477SOL    HW134067   3.284   1.161   8.404 -0.2437 -3.0285  1.5956
 7477SOL    HW234068   3.143   1.199   8.462 -0.0237 -2.6537 -0.7746
 7478SOL     OW34069   2.481   3.648   2.969  0.4281 -0.6013 -0.2297
 7478SOL    HW134070   2.473   3.697   3.051  1.6915  1.8552 -1.5591
 7478SOL    HW234071   2.407   3.589   2.982  0.3095 -0.6557 -1.1590
 7479SOL     OW34072   2.539   1.104   9.173  0.2507 -0.1692  0.2396
 7479SOL    HW134073   2.514   1.162   9.101 -0.9280  1.5355  2.0383
 7479SOL    HW234074   2.608   1.158   9.212 -0.4524  1.2613 -0.5085
 7480SOL     OW34075   2.618   2.414   9.197 -0.3054  0.6928 -0.1339
 7480SOL    HW134076   2.579   2.474   9.261 -3.7139 -0.0757 -1.4961
 7480SOL    HW234077   2.607   2.333   9.247 -1.1679  0.9882  0.1636
 7481SOL     OW34078   0.743   2.900  14.009  0.0055  0.0704 -0.5556
 7481SOL    HW134079   0.752   2.847  13.930 -0.8152  0.8505 -1.1729
 7481SOL    HW234080   0.647   2.901  14.014  0.1245  0.0473  1.7114
 7482SOL     OW34081   2.286   0.639   9.070 -0.3280  0.0695 -0.2907
 7482SOL    HW134082   2.323   0.721   9.102  1.8209 -0.3563 -1.7160
 7482SOL    HW234083   2.368   0.591   9.058 -0.9046 -1.3674  1.4308
 7483SOL     OW34084   3.192   4.628   2.212 -0.0286  0.2376 -0.1836
 7483SOL    HW134085   3.184   4.611   2.118 -1.9668 -1.7711  0.3655
 7483SOL    HW234086   3.239   4.547   2.231 -2.7768 -0.6206  2.9548
 7484SOL     OW34087   0.885   1.232  14.475  0.7473  0.5012  0.3545
 7484SOL    HW134088   0.979   1.219  14.480  0.5370 -0.5706  1.3754
 7484SOL    HW234089   0.854   1.262  14.560  3.7145 -2.2022  2.3707
 7485SOL     OW34090   1.725   0.356  11.635  0.1629 -0.9024 -0.2919
 7485SOL    HW134091   1.807   0.405  11.628 -0.1620 -0.0198  2.3157
 7485SOL    HW234092   1.696   0.405  11.711  1.2525  0.1291 -0.5408
 7486SOL     OW34093   1.254   0.285   2.766 -1.5336 -0.3799 -0.1286
 7486SOL    HW134094   1.208   0.355   2.812 -0.3897  1.2073 -1.4223
 7486SOL    HW234095   1.339   0.326   2.754 -2.3578  1.5280  0.6410
 7487SOL     OW34096   2.022   4.041   5.043 -0.2454 -0.0124  0.4672
 7487SOL    HW134097   1.958   4.081   5.102  0.2158  2.3497 -0.6530
 7487SOL    HW234098   2.078   3.998   5.108 -1.2456 -0.2996  1.1394
 7488SOL     OW34099   1.597   4.115   9.095 -0.6395  0.3379  0.0376
 7488SOL    HW134100   1.611   4.043   9.157  0.9599 -1.1571 -2.0693
 7488SOL    HW234101   1.561   4.061   9.025  0.4988 -1.7389  1.0426
 7489SOL     OW34102   2.527   2.776  15.375  0.0222 -0.3812 -0.2230
 7489SOL    HW134103   2.525   2.745  15.465 -3.8218  0.3867 -0.0791
 7489SOL    HW234104   2.622   2.786  15.363 -0.1589 -0.2470 -1.5883
 7490SOL     OW34105   1.967   3.582   6.951  0.2674 -0.3404 -0.0444
 7490SOL    HW134106   1.973   3.641   6.876 -0.9500  1.8049  1.5507
 7490SOL    HW234107   1.876   3.588   6.982  0.8312  0.7115  1.3821
 7491SOL     OW34108   0.724   0.778   7.168  0.1744  0.5150 -0.1703
 7491SOL    HW134109   0.775   0.707   7.128  0.2693  0.0803  0.7193
 7491SOL    HW234110   0.684   0.821   7.093 -2.0738 -2.2147 -0.5290
 7492SOL     OW34111   3.462   3.643   4.584 -0.4485  0.4516  0.2371
 7492SOL    HW134112   3.428   3.559   4.615  0.6954  0.4225  1.4259
 7492SOL    HW234113   3.430   3.704   4.650 -0.2146  0.9068 -0.0693
 7493SOL     OW34114   3.305   2.542   1.562  0.2158  0.0440 -0.1945
 7493SOL    HW134115   3.343   2.629   1.572  1.0150 -0.4577  1.2074
 7493SOL    HW234116   3.267   2.548   1.474 -0.9655  1.3261  0.4097
 7494SOL     OW34117   2.835   1.000   6.762 -0.0708 -0.7157 -0.4462
 7494SOL    HW134118   2.878   1.075   6.720 -3.1796  1.3580  0.0224
 7494SOL    HW234119   2.913   0.948   6.780 -0.9592 -0.9266  2.6417
 7495SOL     OW34120   2.951   1.701   5.157  0.0372  0.3079  0.0096
 7495SOL    HW134121   2.902   1.618   5.156 -0.2304  0.4573  0.4131
 7495SOL    HW234122   2.979   1.694   5.248  0.2182  0.2770 -0.0500
 7496SOL     OW34123   0.213   3.830   9.611  0.0495  0.2291 -0.6763
 7496SOL    HW134124   0.177   3.778   9.540 -0.8031 -1.2849  0.8695
 7496SOL    HW234125   0.128   3.858   9.647  0.5840 -0.2592  0.9886
 7497SOL     OW34126   0.918   4.538   2.762  0.3960  0.2239  0.3866
 7497SOL    HW134127   0.913   4.614   2.821 -2.1664  1.4022 -1.3642
 7497SOL    HW234128   1.013   4.529   2.748  0.6418 -0.4819  2.3778
 7498SOL     OW34129   2.815   3.669   6.401  0.4424  0.1420 -0.4111
 7498SOL    HW134130   2.727   3.688   6.366  0.4971  0.5242 -0.3475
 7498SOL    HW234131   2.860   3.625   6.329  0.6803 -0.2224 -0.0344
 7499SOL     OW34132   0.410   4.652   4.960 -0.5655  0.2825 -0.1162
 7499SOL    HW134133   0.390   4.656   4.867 -1.3753  1.3664  0.1084
 7499SOL    HW234134   0.500   4.620   4.955 -0.4288  0.8385 -1.1163
 7500SOL     OW34135   2.132   0.648  14.900  0.1472  0.2434  0.0538
 7500SOL    HW134136   2.098   0.669  14.986 -1.4807 -0.3635 -0.4406
 7500SOL    HW234137   2.212   0.700  14.904 -0.0457  0.5146  0.3905
 7501SOL     OW34138   4.411   0.821  11.801 -0.4660 -0.0660 -0.1837
 7501SOL    HW134139   4.467   0.887  11.760 -1.3259 -1.9463 -4.3438
 7501SOL    HW234140   4.363   0.876  11.863 -0.2246  0.0295 -0.0778
 7502SOL     OW34141   4.207   1.778   5.219  0.0655  0.1365  0.2315
 7502SOL    HW134142   4.282   1.752   5.165  0.0452  0.4855  0.0343
 7502SOL    HW234143   4.161   1.821   5.147 -1.4715  0.7208  1.5633
 7503SOL     OW34144   3.351   4.275   5.375  0.4113 -0.6204 -0.0929
 7503SOL    HW134145   3.436   4.310   5.402 -0.2042  1.7607 -1.1881
 7503SOL    HW234146   3.376   4.199   5.321  1.7746  0.4092 -0.9250
 7504SOL     OW34147   1.662   0.743   8.414 -0.6305 -0.1438 -0.0871
 7504SOL    HW134148   1.618   0.769   8.494  2.1166  0.3784  1.2449
 7504SOL    HW234149   1.741   0.702   8.448  0.6393  0.1995 -2.6009
 7505SOL     OW34150   0.729   0.712  17.420  0.0592  0.2925  0.0028
 7505SOL    HW134151   0.679   0.632  17.432  0.6742 -0.1093 -0.1403
 7505SOL    HW234152   0.720   0.733  17.328 -4.1964 -1.7972 -0.0635
 7506SOL     OW34153   0.708   4.481   4.503  0.2248  0.7632  0.6992
 7506SOL    HW134154   0.766   4.490   4.427  0.2184  0.2488  0.6334
 7506SOL    HW234155   0.636   4.433   4.463  1.1584  0.7468 -0.9519
 7507SOL     OW34156   2.868   3.261   1.545  0.5340  0.6216 -0.5437
 7507SOL    HW134157   2.900   3.191   1.488  0.8623  0.9212 -0.7342
 7507SOL    HW234158   2.948   3.311   1.567  0.7936  0.0286 -0.1378
 7508SOL     OW34159   3.266   1.709  10.279  0.0856  0.1724 -0.4662
 7508SOL    HW134160   3.328   1.781  10.281 -0.0899  0.2916  0.5920
 7508SOL    HW234161   3.251   1.698  10.373 -0.7211 -0.3941 -0.6605
 7509SOL     OW34162   3.698   2.367   4.664  0.1335 -0.1998 -0.3013
 7509SOL    HW134163   3.701   2.308   4.739  3.2159  0.3358 -0.0058
 7509SOL    HW234164   3.674   2.300   4.600 -0.4695  1.8896 -2.2468
 7510SOL     OW34165   1.167   0.660   6.852 -0.0737  0.4692 -0.2817
 7510SOL    HW134166   1.096   0.719   6.827 -0.2878  0.1521 -0.4231
 7510SOL    HW234167   1.160   0.595   6.782  0.1263  0.5017 -0.3309
 7511SOL     OW34168   1.148   2.940   2.529 -0.1526 -0.0504  0.3930
 7511SOL    HW134169   1.063   2.899   2.547 -0.3314 -0.2659 -1.0171
 7511SOL    HW234170   1.198   2.903   2.602  1.5681 -0.2811 -0.9262
 7512SOL     OW34171   1.279   1.083  11.127 -0.4523  0.4447 -0.4822
 7512SOL    HW134172   1.322   0.998  11.114  0.4986  0.7906  0.3088
 7512SOL    HW234173   1.293   1.132  11.046  0.8779  0.9865  0.0780
 7513SOL     OW34174   4.569   2.645   7.468  0.2874 -0.3362  0.1430
 7513SOL    HW134175   4.605   2.681   7.387 -0.5218  1.3425  0.5278
 7513SOL    HW234176   4.497   2.587   7.440  0.7499 -0.9555  0.2255
 7514SOL     OW34177   3.733   0.201   4.454 -0.1526  0.0645  0.3204
 7514SOL    HW134178   3.736   0.281   4.507 -0.7364  0.7808 -0.7298
 7514SOL    HW234179   3.641   0.203   4.427 -0.0268 -1.6992 -0.2128
 7515SOL     OW34180   2.361   4.229   2.187  0.1003 -0.7110 -0.3344
 7515SOL    HW134181   2.358   4.279   2.105  1.5278  0.1419  0.1465
 7515SOL    HW234182   2.423   4.157   2.192 -0.7076 -1.3682  0.3706
 7516SOL     OW34183   3.845   3.726  11.900  0.4098  0.6790 -0.0238
 7516SOL    HW134184   3.857   3.821  11.911  0.2900  0.7606 -0.5549
 7516SOL    HW234185   3.887   3.712  11.815  0.3517  0.2628  0.0168
 7517SOL     OW34186   4.418   2.271   8.678 -0.8068  0.3354 -0.1767
 7517SOL    HW134187   4.476   2.342   8.651 -0.4244 -1.2205 -3.4541
 7517SOL    HW234188   4.451   2.205   8.616  1.4569  1.1122  0.1794
 7518SOL     OW34189   4.290   0.298   9.555  0.4021  0.1869  0.2634
 7518SOL    HW134190   4.212   0.295   9.500  0.4910  2.1909  0.0189
 7518SOL    HW234191   4.321   0.208   9.552 -0.7204 -0.2406  1.4807
 7519SOL     OW34192   0.920   3.338   1.500  0.4734  0.2371  0.0304
 7519SOL    HW134193   1.013   3.330   1.478  0.5331 -2.7017  1.2764
 7519SOL    HW234194   0.892   3.249   1.480  1.1896 -0.1150  0.5628
 7520SOL     OW34195   1.949   1.083   2.235 -0.1533  0.2902 -0.0597
 7520SOL    HW134196   2.040   1.115   2.240 -0.8813  2.5634 -1.2675
 7520SOL    HW234197   1.946   1.031   2.315  0.7163 -1.0002 -0.8646
 7521SOL     OW34198   1.061   2.129   2.030 -0.3920 -0.1986  0.1840
 7521SOL    HW134199   1.031   2.042   2.004 -0.1131 -0.0783 -0.5361
 7521SOL    HW234200   1.044   2.173   1.947  0.5921 -2.0886 -1.0267
 7522SOL     OW34201   3.868   0.018   8.209 -0.1184 -0.3566 -0.3228
 7522SOL    HW134202   3.958   0.048   8.224 -1.3018  2.6698  0.7045
 7522SOL    HW234203   3.869   4.689   8.275  1.6359 -0.7038 -0.7040
 7523SOL     OW34204   0.071   4.611   9.725 -0.2661 -0.1443 -0.1537
 7523SOL    HW134205   0.103   4.565   9.802  1.6346 -0.6825 -1.2779
 7523SOL    HW234206   0.143   4.671   9.705 -1.7183  0.8471 -2.3959
 7524SOL     OW34207   4.014   4.300  17.680 -0.3948 -0.3258  0.0636
 7524SOL    HW134208   3.931   4.261  17.654 -0.0056 -1.3679  0.3643
 7524SOL    HW234209   4.062   4.289  17.598 -2.9068  0.0178 -1.4418
 7525SOL     OW34210   4.025   1.637   3.507  0.4711 -0.6025 -0.0571
 7525SOL    HW134211   3.996   1.547   3.522 -0.4311 -0.0745  1.3679
 7525SOL    HW234212   4.098   1.635   3.569  0.6331 -2.9089 -0.3278
 7526SOL     OW34213   1.192   4.335  11.250  0.6566  0.9252  0.7015
 7526SOL    HW134214   1.133   4.274  11.295 -1.0901  1.7007 -0.5362
 7526SOL    HW234215   1.271   4.281  11.245 -0.7239 -0.8777 -1.7189
 7527SOL     OW34216   3.132   3.409   3.673  0.3618 -0.1715  0.7345
 7527SOL    HW134217   3.176   3.374   3.596  1.9850  1.8610  0.7281
 7527SOL    HW234218   3.097   3.334   3.721  0.3440 -0.7267 -0.1617
 7528SOL     OW34219   3.920   1.002   1.705  0.2001  0.3367  0.3907
 7528SOL    HW134220   3.879   1.086   1.685 -0.0245 -0.3054 -1.8072
 7528SOL    HW234221   3.910   0.949   1.626  2.6421 -2.6830  2.0732
 7529SOL     OW34222   2.038   1.870   7.616 -0.2004 -0.4418 -0.0704
 7529SOL    HW134223   2.115   1.901   7.663  0.0583  1.8771 -2.0353
 7529SOL    HW234224   2.046   1.776   7.635  1.2954 -0.4066 -0.5414
 7530SOL     OW34225   3.241   2.611   3.469  0.3621  0.2598  0.5324
 7530SOL    HW134226   3.315   2.597   3.527  0.5766  2.0287  0.6879
 7530SOL    HW234227   3.204   2.699   3.481 -0.4976 -0.4059  2.8382
 7531SOL     OW34228   1.244   1.155   9.686  0.2723  0.2890  0.1222
 7531SOL    HW134229   1.315   1.219   9.689  0.6855 -0.1557 -0.2759
 7531SOL    HW234230   1.266   1.084   9.747  2.0266  1.2324  0.5571
 7532SOL     OW34231   2.749   3.444   3.835 -0.2468 -0.2373  0.0259
 7532SOL    HW134232   2.760   3.531   3.873  0.3834  0.2011 -1.1587
 7532SOL    HW234233   2.838   3.407   3.835  0.3334  1.1512  0.3752
 7533SOL     OW34234   2.467   1.106   1.880  0.2801  0.5123  0.2529
 7533SOL    HW134235   2.457   1.052   1.958  0.1437  3.7953  2.5196
 7533SOL    HW234236   2.560   1.129   1.877  0.2549  0.8827  2.5406
 7534SOL     OW34237   2.102   1.832   4.544  0.3792 -0.4790  0.2669
 7534SOL    HW134238   2.095   1.834   4.639  0.3811 -0.6627  0.2725
 7534SOL    HW234239   2.192   1.810   4.521  0.9465  2.7577 -0.5581
 7535SOL     OW34240   2.705   1.156   1.958  0.5670 -0.0133  0.1205
 7535SOL    HW134241   2.732   1.095   2.026  1.6214 -0.1883 -0.4718
 7535SOL    HW234242   2.787   1.156   1.910 -0.3016 -1.5082 -1.3479
 7536SOL     OW34243   0.703   2.697   8.286 -0.5044  0.1194 -0.0966
 7536SOL    HW134244   0.741   2.691   8.198 -0.5115  0.1227 -0.0999
 7536SOL    HW234245   0.745   2.779   8.314 -0.5213 -0.3470  1.2824
 7537SOL     OW34246   0.457   4.036   2.787  0.2929 -0.0413  0.1726
 7537SOL    HW134247   0.519   3.965   2.806 -2.8733 -2.4900  1.3420
 7537SOL    HW234248   0.498   4.048   2.701  1.3141  0.1747  0.6818
 7538SOL     OW34249   0.743   1.855   3.922  0.1360 -0.2626 -0.7378
 7538SOL    HW134250   0.832   1.875   3.892 -1.0955  1.9601 -3.0145
 7538SOL    HW234251   0.727   1.779   3.866 -1.9333 -1.0349  0.9058
 7539SOL     OW34252   1.744   3.715  17.727  0.1181 -0.1952  1.0106
 7539SOL    HW134253   1.679   3.694  17.659  0.8782  1.2155 -0.1599
 7539SOL    HW234254   1.801   3.770  17.672 -0.0592 -0.4236  0.5941
 7540SOL     OW34255   2.264   3.535   0.803 -0.2763 -0.3366 -0.4326
 7540SOL    HW134256   2.195   3.524   0.738 -1.7346 -2.5349  1.4765
 7540SOL    HW234257   2.209   3.527   0.881  0.0631 -1.7317 -0.3378
 7541SOL     OW34258   0.221   2.713  17.070  0.2590  0.3681 -0.2433
 7541SOL    HW134259   0.137   2.745  17.102  0.8502  0.4734  1.2203
 7541SOL    HW234260   0.192   2.669  16.991 -1.9611 -0.5536  1.0839
 7542SOL     OW34261   2.153   3.193   8.025  0.3644 -0.1949 -0.3566
 7542SOL    HW134262   2.186   3.109   8.057 -0.6089 -0.8091 -0.9467
 7542SOL    HW234263   2.147   3.252   8.101  0.9707 -0.1179 -0.3705
 7543SOL     OW34264   0.218   2.534   4.741  0.2505 -0.3060  0.3215
 7543SOL    HW134265   0.175   2.452   4.764  0.9900 -0.3253  1.6031
 7543SOL    HW234266   0.145   2.596   4.730  1.0682  0.8321  1.3606
 7544SOL     OW34267   4.634   1.698   1.226 -0.1680  0.1987 -0.2337
 7544SOL    HW134268   4.681   1.693   1.142  0.9995 -2.6076  0.6112
 7544SOL    HW234269   4.623   1.792   1.242  1.3398  0.6843 -1.9374
 7545SOL     OW34270   4.419   1.544   7.478  0.4176  0.5195 -0.2685
 7545SOL    HW134271   4.494   1.601   7.461  0.4365  0.1713 -1.3806
 7545SOL    HW234272   4.436   1.499   7.561 -1.3811  1.5144  0.6380
 7546SOL     OW34273   0.758   1.330   2.376  0.3771  0.0764 -0.1333
 7546SOL    HW134274   0.713   1.411   2.401  1.3416  0.9977 -1.3879
 7546SOL    HW234275   0.779   1.352   2.285 -1.1137 -0.2651 -0.5685
 7547SOL     OW34276   0.965   3.614   2.947  0.3545  0.0428  0.2116
 7547SOL    HW134277   0.876   3.624   2.913  1.4330 -0.4959 -2.7301
 7547SOL    HW234278   0.962   3.528   2.990 -0.2608  0.2018  0.4820
 7548SOL     OW34279   0.696   0.992  17.715  0.0309 -0.2952  0.7736
 7548SOL    HW134280   0.617   0.989  17.662 -0.7151 -0.8704  1.9179
 7548SOL    HW234281   0.720   1.084  17.702 -1.5784 -0.2221 -1.5188
 7549SOL     OW34282   3.078   3.900   2.536  0.3057  0.7833  0.4231
 7549SOL    HW134283   3.035   3.950   2.466  0.3300 -3.2522 -2.4360
 7549SOL    HW234284   3.071   3.963   2.609 -0.6352 -0.0106  1.0238
 7550SOL     OW34285   1.774   3.527   7.721  0.2448  0.1536 -0.6433
 7550SOL    HW134286   1.735   3.536   7.634 -3.2644  0.4366  0.9776
 7550SOL    HW234287   1.858   3.483   7.705  1.0871  1.3200  0.5893
 7551SOL     OW34288   0.717   3.225   3.317 -0.1934  0.4173 -0.0254
 7551SOL    HW134289   0.736   3.132   3.326  0.6580  0.7183  1.2555
 7551SOL    HW234290   0.736   3.268   3.400  2.0509 -0.3208 -0.1687
 7552SOL     OW34291   1.648   2.596   4.224  0.2892 -0.5747  0.0137
 7552SOL    HW134292   1.602   2.680   4.227 -0.4428 -1.0103  1.3436
 7552SOL    HW234293   1.732   2.606   4.268  0.7333 -2.2667 -0.4348
 7553SOL     OW34294   1.451   3.049   8.922 -0.7744  0.2706 -0.4319
 7553SOL    HW134295   1.457   2.956   8.944 -3.6826 -0.4308 -2.5962
 7553SOL    HW234296   1.432   3.043   8.829  1.3520 -3.1101 -0.6208
 7554SOL     OW34297   4.381   4.357  11.443  0.3925  0.9279 -0.4115
 7554SOL    HW134298   4.410   4.281  11.493  1.3832  1.3715 -0.3130
 7554SOL    HW234299   4.442   4.422  11.478  1.9742 -0.7718 -0.0318
 7555SOL     OW34300   0.814   4.236   7.091 -0.0722 -0.0330  0.1011
 7555SOL    HW134301   0.902   4.247   7.054 -0.0317  0.8809  0.4561
 7555SOL    HW234302   0.850   4.213   7.177  2.5504  0.8983 -0.7522
 7556SOL     OW34303   4.180   4.201   5.016  0.3881 -0.1204  0.2022
 7556SOL    HW134304   4.116   4.156   4.961 -0.0511  0.5381  0.1767
 7556SOL    HW234305   4.134   4.274   5.057  1.4571  1.1994 -0.9587
 7557SOL     OW34306   4.292   0.481  13.350 -0.5394 -0.2309 -0.4599
 7557SOL    HW134307   4.289   0.405  13.408 -1.1690 -1.1814 -1.7206
 7557SOL    HW234308   4.272   0.447  13.262 -0.4828  0.0279 -0.5729
 7558SOL     OW34309   0.134   3.915  12.516  0.3731 -0.0635  0.6719
 7558SOL    HW134310   0.188   3.836  12.524 -1.2202 -1.5054 -3.0125
 7558SOL    HW234311   0.046   3.880  12.511  0.0551  1.2215 -2.3725
 7559SOL     OW34312   3.395   1.104   7.285  0.3336  0.4222 -0.6131
 7559SOL    HW134313   3.347   1.041   7.231 -0.1107  0.4678 -0.2773
 7559SOL    HW234314   3.483   1.105   7.248  1.2590 -1.0344  1.5109
 7560SOL     OW34315   3.672   3.355   7.049 -0.3772  0.1602  0.2963
 7560SOL    HW134316   3.628   3.344   7.134 -0.3000 -2.3894  0.0027
 7560SOL    HW234317   3.666   3.266   7.014 -0.1086  0.3174 -0.1470
 7561SOL     OW34318   4.528   0.487   9.768  0.1028  0.1190 -0.8784
 7561SOL    HW134319   4.542   0.502   9.862 -1.2576 -0.0232 -0.6482
 7561SOL    HW234320   4.442   0.529   9.758 -0.0246  0.4257  1.4701
 7562SOL     OW34321   2.057   2.328   2.440 -0.8414  0.0132 -0.1713
 7562SOL    HW134322   1.993   2.388   2.403 -1.2476 -1.1656 -1.3791
 7562SOL    HW234323   2.108   2.299   2.364 -0.1375 -2.1973  1.1239
 7563SOL     OW34324   0.952   2.886   1.959  0.0349  0.1964  0.0629
 7563SOL    HW134325   1.037   2.890   2.001  0.0500  0.1785  0.0341
 7563SOL    HW234326   0.972   2.911   1.869  0.1378 -0.5361 -0.1160
 7564SOL     OW34327   2.796   3.353   8.440  0.1387 -0.0568 -0.0342
 7564SOL    HW134328   2.886   3.365   8.410  0.1181 -0.5785 -0.3142
 7564SOL    HW234329   2.748   3.408   8.378  0.0439 -0.4219 -0.2895
 7565SOL     OW34330   2.356   3.316   1.733  0.3195 -0.0399 -0.1706
 7565SOL    HW134331   2.450   3.322   1.750  0.3977 -2.1196  0.1694
 7565SOL    HW234332   2.329   3.363   1.812  0.7365 -1.4067  0.7982
 7566SOL     OW34333   4.135   3.341   7.734  0.3764 -0.1181 -0.1137
 7566SOL    HW134334   4.125   3.294   7.651 -0.6205 -1.7055  0.9122
 7566SOL    HW234335   4.107   3.429   7.710  2.7271  0.3078 -1.3259
 7567SOL     OW34336   4.471   0.239   3.195 -0.0435  0.0215  0.0063
 7567SOL    HW134337   4.482   0.334   3.198  0.7480 -0.0447 -0.6779
 7567SOL    HW234338   4.542   0.202   3.248  0.9070 -0.1434 -1.3801
 7568SOL     OW34339   1.784   1.302   0.072  0.1094 -0.4650  0.5613
 7568SOL    HW134340   1.793   1.325   0.164  2.7109 -1.0267  0.4381
 7568SOL    HW234341   1.873   1.312   0.040 -0.5077  0.5402 -0.8262
 7569SOL     OW34342   0.775   2.204   7.990 -0.4057 -0.5633  0.0239
 7569SOL    HW134343   0.754   2.253   7.911 -1.6101 -2.8026 -1.0626
 7569SOL    HW234344   0.770   2.116   7.951  0.9012 -1.1893  1.2394
 7570SOL     OW34345   1.137   2.508   7.364  0.4696 -0.6343 -0.3328
 7570SOL    HW134346   1.140   2.557   7.446 -0.0546 -0.0602 -0.6599
 7570SOL    HW234347   1.103   2.424   7.395 -0.1395 -1.2740 -2.7492
 7571SOL     OW34348   0.861   3.002   8.713 -0.0250  0.1803 -0.5618
 7571SOL    HW134349   0.777   3.035   8.681  0.3158  0.7614 -0.8411
 7571SOL    HW234350   0.879   3.074   8.774  2.0748 -0.4244 -0.4952
 7572SOL     OW34351   1.648   0.657  10.528  0.2688 -0.1507  0.0045
 7572SOL    HW134352   1.716   0.657  10.595 -0.5407  0.1637  0.8223
 7572SOL    HW234353   1.570   0.663  10.583 -0.4463 -0.1014 -1.0078
 7573SOL     OW34354   4.691   3.337   2.040 -0.0850  0.6039 -0.8714
 7573SOL    HW134355   4.738   3.271   2.091 -1.0328  1.0543  0.5951
 7573SOL    HW234356   0.007   3.350   1.963  0.2762 -2.5653 -1.1498
 7574SOL     OW34357   1.263   3.952  17.482  0.4087  0.0425  0.0406
 7574SOL    HW134358   1.173   3.943  17.450 -0.0842  0.0048  1.4607
 7574SOL    HW234359   1.247   4.014  17.553 -0.5572  1.1364 -1.1305
 7575SOL     OW34360   1.989   1.121   4.057  0.4505  0.1703 -0.7194
 7575SOL    HW134361   1.936   1.042   4.067  1.2012 -0.1174  0.9503
 7575SOL    HW234362   1.944   1.159   3.982  0.2244 -1.3330 -1.3479
 7576SOL     OW34363   3.444   3.635   4.950 -0.3657 -0.4759 -0.1184
 7576SOL    HW134364   3.375   3.582   4.990  0.4532  0.0641  1.9870
 7576SOL    HW234365   3.401   3.702   4.898 -1.3523 -1.6357 -0.7926
 7577SOL     OW34366   1.596   4.138   8.554  0.3146 -0.0082  0.6446
 7577SOL    HW134367   1.538   4.070   8.586 -0.6044 -0.1621 -1.3689
 7577SOL    HW234368   1.586   4.135   8.458  0.2293  2.0186  0.5714
 7578SOL     OW34369   3.478   1.772   7.571 -0.5526 -0.0087  0.2096
 7578SOL    HW134370   3.458   1.696   7.517  0.8878 -1.4458  1.6935
 7578SOL    HW234371   3.454   1.751   7.661  0.6975 -0.0874  0.5150
 7579SOL     OW34372   0.022   3.285   0.697 -0.2663  0.5314 -0.2388
 7579SOL    HW134373   0.059   3.321   0.617 -2.4827  1.0317 -1.0489
 7579SOL    HW234374   0.087   3.215   0.709 -0.3628  0.7702  1.6094
 7580SOL     OW34375   4.349   0.920   9.800 -0.1636  0.7233  0.5313
 7580SOL    HW134376   4.320   0.999   9.754 -0.4438  1.9270  2.7525
 7580SOL    HW234377   4.416   0.957   9.859  0.2196  0.1534  0.4479
 7581SOL     OW34378   3.953   4.050   2.532  0.9515 -0.4465 -0.1707
 7581SOL    HW134379   3.925   3.991   2.462 -2.6518  0.3928  0.5915
 7581SOL    HW234380   4.047   4.063   2.521  1.3037 -2.2842  0.5391
 7582SOL     OW34381   3.283   3.592   2.097  0.5293  0.2017  0.1808
 7582SOL    HW134382   3.323   3.644   2.167  0.8910 -1.4665  1.2249
 7582SOL    HW234383   3.214   3.547   2.146  1.0720  0.4778  1.1914
 7583SOL     OW34384   4.681   1.696   9.662  0.0034 -0.8064 -0.1794
 7583SOL    HW134385   0.020   1.718   9.612  1.0981  0.5016  2.0962
 7583SOL    HW234386   4.718   1.703   9.750 -0.2845 -0.5261 -0.0768
 7584SOL     OW34387   2.066   2.346  16.124  0.1420 -0.5079 -0.1280
 7584SOL    HW134388   2.060   2.432  16.165  0.2231 -1.2231  1.4003
 7584SOL    HW234389   2.130   2.303  16.181  0.8070 -0.5890 -0.9239
 7585SOL     OW34390   0.069   0.225  13.960 -0.2786 -0.2763  0.0209
 7585SOL    HW134391   0.016   0.295  13.999 -0.4351  0.5424 -1.6395
 7585SOL    HW234392   0.015   0.148  13.977  0.7129 -1.1581 -0.8571
 7586SOL     OW34393   4.619   1.825   8.776 -0.5150  0.0617  0.2334
 7586SOL    HW134394   4.674   1.904   8.768 -1.0865  0.6398  2.0004
 7586SOL    HW234395   4.685   1.765   8.742  0.9193  1.7326  0.0769
 7587SOL     OW34396   2.191   1.233   0.457 -0.2190  0.0984  0.2243
 7587SOL    HW134397   2.208   1.139   0.462 -1.0077 -0.0635 -0.0400
 7587SOL    HW234398   2.186   1.257   0.365  1.2692 -1.2140 -0.1769
 7588SOL     OW34399   4.219   0.153  17.735  0.1842 -0.6214  0.4260
 7588SOL    HW134400   4.254   0.078  17.688  0.8187 -0.4008  0.5501
 7588SOL    HW234401   4.127   0.155  17.707 -0.1525 -0.7420  1.5066
 7589SOL     OW34402   1.290   1.870  16.854 -0.1841  0.4548  0.3651
 7589SOL    HW134403   1.338   1.790  16.876  0.4107  0.6662 -0.1645
 7589SOL    HW234404   1.361   1.915  16.808  0.2381 -1.0076 -0.4047
 7590SOL     OW34405   2.042   0.346  14.875 -0.6539  0.0290  0.2112
 7590SOL    HW134406   2.078   0.271  14.828  0.6090 -0.3252  1.7476
 7590SOL    HW234407   2.060   0.406  14.802 -2.8687  0.5088  0.0496
 7591SOL     OW34408   0.949   3.232   6.469 -0.6962 -0.2813  0.4436
 7591SOL    HW134409   0.953   3.178   6.548 -0.8904 -0.4494  0.3388
 7591SOL    HW234410   0.945   3.322   6.503  2.1276 -0.9015  2.3946
 7592SOL     OW34411   1.464   4.225  13.688 -0.1945 -0.3588 -0.1491
 7592SOL    HW134412   1.429   4.263  13.769 -1.0321  0.1801 -0.7648
 7592SOL    HW234413   1.391   4.196  13.634 -0.2852  0.3756 -0.4284
 7593SOL     OW34414   4.308   3.588   6.995 -0.9954  0.0510 -0.7344
 7593SOL    HW134415   4.352   3.507   7.022 -2.7541 -1.2805 -1.8577
 7593SOL    HW234416   4.240   3.545   6.943 -2.2058  1.2243 -0.1136
 7594SOL     OW34417   3.230   2.137   1.190 -0.4983 -0.2718 -0.0918
 7594SOL    HW134418   3.251   2.045   1.204  0.2169 -0.1490 -0.3696
 7594SOL    HW234419   3.204   2.143   1.098  0.6655 -1.4568 -0.5039
 7595SOL     OW34420   2.251   2.236   4.514  0.5080  0.2142  0.3510
 7595SOL    HW134421   2.266   2.163   4.455 -2.3169 -1.8190  2.1330
 7595SOL    HW234422   2.180   2.202   4.570  0.8428  0.1080  0.7099
 7596SOL     OW34423   3.358   2.369   6.210 -0.3457 -0.7810  0.4934
 7596SOL    HW134424   3.396   2.300   6.157  2.8696  1.8824 -0.6539
 7596SOL    HW234425   3.378   2.345   6.300  0.4324  0.8579  0.7533
 7597SOL     OW34426   3.477   3.887  10.966 -0.1915  0.3821  0.0461
 7597SOL    HW134427   3.472   3.830  11.043  0.3946  0.2442 -0.0207
 7597SOL    HW234428   3.505   3.968  11.008 -1.5561  1.9516 -2.0816
 7598SOL     OW34429   2.442   3.470  11.804 -0.3149  0.4411 -0.0022
 7598SOL    HW134430   2.482   3.388  11.832 -0.0226  1.3282  2.1707
 7598SOL    HW234431   2.516   3.520  11.769 -0.5243 -0.3531 -1.5706
 7599SOL     OW34432   2.010   2.423   4.642 -0.5335  0.1304 -0.2661
 7599SOL    HW134433   2.018   2.329   4.624 -1.8607 -0.0031 -0.1267
 7599SOL    HW234434   1.955   2.430   4.721 -1.6286 -4.0638 -0.6209
 7600SOL     OW34435   3.371   3.981   5.634 -0.0520 -0.3527 -0.0032
 7600SOL    HW134436   3.396   4.071   5.653  0.7871 -0.2068 -1.8355
 7600SOL    HW234437   3.279   3.998   5.614 -0.0017  1.9568  1.7382
 7601SOL     OW34438   4.019   1.427   6.588  0.1097  0.0229  0.5984
 7601SOL    HW134439   4.044   1.374   6.512  2.1199  0.6039  0.8348
 7601SOL    HW234440   4.099   1.420   6.641  0.2456 -1.9393  0.1329
 7602SOL     OW34441   1.707   3.188   2.461 -0.5662  0.4246 -0.1245
 7602SOL    HW134442   1.744   3.206   2.374  1.0202 -0.1701  0.4350
 7602SOL    HW234443   1.772   3.235   2.513  0.5983 -2.3594  0.9230
 7603SOL     OW34444   0.076   2.588   8.238  0.1226  0.5554  0.6136
 7603SOL    HW134445   0.092   2.568   8.330  0.4733  1.7436  0.8151
 7603SOL    HW234446   0.129   2.666   8.220  0.3872  0.5285  1.2686
 7604SOL     OW34447   2.935   2.696   9.663 -0.2391 -0.3302  0.6129
 7604SOL    HW134448   2.991   2.695   9.740 -0.5715  0.9498  0.8694
 7604SOL    HW234449   2.892   2.778   9.688  2.2683  0.6583  1.6869
 7605SOL     OW34450   2.373   2.645   3.855  0.1632  0.3612  0.3940
 7605SOL    HW134451   2.305   2.606   3.910  0.1885 -0.4406 -0.1360
 7605SOL    HW234452   2.419   2.696   3.921  1.6946 -2.8567  1.8154
 7606SOL     OW34453   0.436   0.460   3.538  0.1089 -0.5149 -0.0915
 7606SOL    HW134454   0.342   0.444   3.532  0.0096  0.4073 -0.8906
 7606SOL    HW234455   0.438   0.547   3.580  0.0478 -1.3358  1.6169
 7607SOL     OW34456   1.889   3.804   5.056 -0.2141  0.3169 -0.2879
 7607SOL    HW134457   1.841   3.856   4.991  0.1208  1.7291  0.5965
 7607SOL    HW234458   1.846   3.719   5.048 -0.1991  0.2677  0.1855
 7608SOL     OW34459   2.106   3.076   5.887  0.1576 -0.5145  0.0772
 7608SOL    HW134460   2.084   3.115   5.802 -3.0334 -0.8319  0.7578
 7608SOL    HW234461   2.180   3.136   5.902  0.6294 -1.0996  0.0972
 7609SOL     OW34462   3.417   2.759   6.996  0.1876  0.1514 -0.3969
 7609SOL    HW134463   3.474   2.835   7.003  0.5701 -0.2881  1.4106
 7609SOL    HW234464   3.454   2.690   7.053  0.1211 -1.1193 -1.9011
 7610SOL     OW34465   0.018   3.960   6.989 -0.0178 -0.3796  0.4191
 7610SOL    HW134466   4.717   3.937   6.905 -0.1621  0.1418  0.3431
 7610SOL    HW234467   0.111   3.958   6.968  0.4549  2.6096  2.2127
 7611SOL     OW34468   0.891   0.613   5.464  0.3627  0.0721 -0.1643
 7611SOL    HW134469   0.857   0.583   5.381 -1.6790 -1.0629  1.0901
 7611SOL    HW234470   0.925   0.695   5.428  2.4862  0.6336  3.0788
 7612SOL     OW34471   1.439   1.167   3.529 -0.8277 -0.1833 -0.2060
 7612SOL    HW134472   1.448   1.113   3.451 -0.5839  2.3984 -1.9743
 7612SOL    HW234473   1.521   1.148   3.576 -0.5643 -1.4992 -1.2018
 7613SOL     OW34474   4.629   3.310   2.881 -0.3292  0.3065  0.1308
 7613SOL    HW134475   4.600   3.323   2.972 -0.2795 -0.8014  0.3027
 7613SOL    HW234476   4.592   3.382   2.830 -0.8340  0.5223  0.7910
 7614SOL     OW34477   3.578   1.490   1.747  0.3557  0.5840 -0.3016
 7614SOL    HW134478   3.655   1.460   1.794  0.1856  0.6168 -0.0018
 7614SOL    HW234479   3.508   1.477   1.811  2.2680 -2.5453  1.1291
 7615SOL     OW34480   2.796   0.499  10.400  0.5569  0.1593  0.6825
 7615SOL    HW134481   2.817   0.441  10.473  2.2508  0.1439  0.1843
 7615SOL    HW234482   2.728   0.452  10.351  1.0692 -0.4859  0.5800
 7616SOL     OW34483   0.505   1.403   5.212  0.1749  0.2289  0.2972
 7616SOL    HW134484   0.526   1.406   5.305 -1.5534 -0.5367  0.7219
 7616SOL    HW234485   0.446   1.327   5.207  1.5463 -0.7835 -0.9469
 7617SOL     OW34486   2.894   3.187  11.851  0.5904 -0.2804  0.7139
 7617SOL    HW134487   2.863   3.198  11.761  2.1390  0.5140  0.2761
 7617SOL    HW234488   2.862   3.098  11.868 -2.1448  0.2577 -1.6096
 7618SOL     OW34489   3.020   2.949   2.558 -0.5605 -0.5269  0.9081
 7618SOL    HW134490   3.030   3.027   2.504  0.1643 -0.4735  1.1261
 7618SOL    HW234491   3.101   2.965   2.606  0.3796  1.9021 -1.5303
 7619SOL     OW34492   1.776   4.716  10.580 -0.0239 -0.7616  0.2968
 7619SOL    HW134493   1.797   4.692  10.490 -2.2954  1.8743 -0.9275
 7619SOL    HW234494   1.701   0.033  10.562  2.0877  2.0103  0.2612
 7620SOL     OW34495   4.354   3.307   9.090  0.1153  0.0960 -0.1023
 7620SOL    HW134496   4.425   3.326   9.152 -0.2873  3.7809 -0.7386
 7620SOL    HW234497   4.345   3.391   9.045  0.1143 -0.4134 -1.0376
 7621SOL     OW34498   3.603   4.422   3.443  0.4869  0.4466 -0.1999
 7621SOL    HW134499   3.607   4.502   3.389 -0.6772  0.0107 -0.9427
 7621SOL    HW234500   3.580   4.448   3.532 -0.5476 -1.4090  0.0737
 7622SOL     OW34501   3.190   2.618  15.324 -0.6794 -0.3179  0.1757
 7622SOL    HW134502   3.214   2.677  15.252 -1.0795 -1.8793 -1.2169
 7622SOL    HW234503   3.213   2.670  15.401  1.4901 -0.0126 -0.6526
 7623SOL     OW34504   2.837   2.516   8.054  0.1923 -0.4217  0.7212
 7623SOL    HW134505   2.826   2.425   8.025  1.3661  0.7252 -3.3217
 7623SOL    HW234506   2.907   2.508   8.119  0.5436  2.0032  0.6436
 7624SOL     OW34507   0.436   0.059  10.593 -0.1631  0.1105 -0.2121
 7624SOL    HW134508   0.513   0.035  10.644 -0.6132 -0.9587 -0.0497
 7624SOL    HW234509   0.435   4.716  10.544 -1.7210 -0.1709  0.2967
 7625SOL     OW34510   1.279   1.895   7.590  0.5464 -0.2839  0.3834
 7625SOL    HW134511   1.309   1.810   7.621 -0.4891 -1.1128 -0.8863
 7625SOL    HW234512   1.298   1.886   7.496  0.1359 -0.1300  0.2871
 7626SOL     OW34513   3.663   0.898  10.203  0.0130 -0.2465 -0.0106
 7626SOL    HW134514   3.691   0.989  10.194  3.0956 -1.1778  0.1536
 7626SOL    HW234515   3.752   0.863  10.206 -0.1798 -0.6976  0.3961
 7627SOL     OW34516   4.255   3.802   3.140 -0.7871  0.1277  0.5258
 7627SOL    HW134517   4.208   3.885   3.144 -0.6225  0.3581 -2.6047
 7627SOL    HW234518   4.240   3.787   3.233  0.4944 -1.3503  0.5028
 7628SOL     OW34519   3.626   3.817  12.242 -0.4717 -0.3200 -0.2597
 7628SOL    HW134520   3.656   3.796  12.331 -0.4621  2.4838  0.4167
 7628SOL    HW234521   3.577   3.900  12.245 -1.6131 -1.0103  0.2443
 7629SOL     OW34522   1.230   0.203   7.000  0.0635  0.0829  0.2627
 7629SOL    HW134523   1.203   0.118   6.967 -0.6113  0.8322 -1.1294
 7629SOL    HW234524   1.267   0.187   7.087  1.6239  1.1904 -0.1863
 7630SOL     OW34525   2.939   3.656   1.785  0.0090 -0.1156 -0.1124
 7630SOL    HW134526   2.938   3.621   1.874  0.1462  1.3797  0.4691
 7630SOL    HW234527   2.850   3.689   1.772  0.0751 -0.4308 -1.3479
 7631SOL     OW34528   1.240   0.510   8.388  0.4742  0.5312  0.4074
 7631SOL    HW134529   1.246   0.465   8.472  0.0369 -1.5057 -0.6652
 7631SOL    HW234530   1.329   0.515   8.353  0.5169 -1.0088  0.3167
 7632SOL     OW34531   1.728   1.889   4.263 -0.5472  0.3806 -0.2252
 7632SOL    HW134532   1.807   1.943   4.257 -1.4521  1.8835  1.2152
 7632SOL    HW234533   1.757   1.804   4.232 -1.9204 -0.7667  1.6371
 7633SOL     OW34534   0.401   2.613  10.968  0.5822  0.1764 -0.2308
 7633SOL    HW134535   0.322   2.595  10.917 -1.6838  1.6306  2.7187
 7633SOL    HW234536   0.460   2.656  10.907 -0.4796 -0.4475 -1.6921
 7634SOL     OW34537   4.411   2.921  17.725  0.2050 -0.2614 -0.2568
 7634SOL    HW134538   4.474   2.874   0.024  2.2786 -0.1936 -2.5779
 7634SOL    HW234539   4.354   2.948   0.042 -0.2242 -0.7351 -0.4215
 7635SOL     OW34540   2.249   1.615   7.394  0.2746 -0.0370 -0.3145
 7635SOL    HW134541   2.233   1.554   7.466 -2.0883 -0.4351 -1.1562
 7635SOL    HW234542   2.227   1.705   7.415  3.2880 -0.1230  2.9905
 7636SOL     OW34543   2.405   2.732   8.373  0.1216 -0.3392 -0.3367
 7636SOL    HW134544   2.458   2.673   8.319  0.8972 -0.0023  0.0469
 7636SOL    HW234545   2.435   2.696   8.456  0.5148  1.3958  0.2835
 7637SOL     OW34546   1.599   3.778   2.457  0.2008 -0.1803 -0.4811
 7637SOL    HW134547   1.563   3.768   2.369  2.8582  0.8683 -1.6747
 7637SOL    HW234548   1.629   3.869   2.461  1.5767 -0.7600  3.0043
 7638SOL     OW34549   2.708   2.009   2.564  0.0215 -0.6232 -0.1408
 7638SOL    HW134550   2.737   1.940   2.623 -2.2043 -1.6008 -0.1583
 7638SOL    HW234551   2.768   2.082   2.575 -0.6289  0.2494 -2.4080
 7639SOL     OW34552   1.166   0.050   2.574 -0.1196  0.0660  0.1972
 7639SOL    HW134553   1.259   0.027   2.576  0.0672  0.8664  0.5392
 7639SOL    HW234554   1.135   4.723   2.636 -1.4476 -0.2422 -0.8097
 7640SOL     OW34555   1.802   1.981  14.967 -0.2314  0.2724 -0.4470
 7640SOL    HW134556   1.845   1.968  14.883 -2.1684 -0.3758 -1.3398
 7640SOL    HW234557   1.861   2.044  15.008 -0.3593  0.1059 -0.0016
 7641SOL     OW34558   0.545   1.423   2.076  0.3719  0.2196 -0.1730
 7641SOL    HW134559   0.600   1.351   2.106  1.5777  1.1783 -0.0735
 7641SOL    HW234560   0.481   1.415   2.147  1.7917  0.4762  1.1314
 7642SOL     OW34561   4.120   2.383   2.881  0.0891  0.6917 -0.1899
 7642SOL    HW134562   4.180   2.333   2.936  0.1759  0.9360 -0.0621
 7642SOL    HW234563   4.186   2.419   2.822  0.5172 -1.1526 -0.8298
 7643SOL     OW34564   0.663   1.446   2.667 -0.4701  0.4676  0.9644
 7643SOL    HW134565   0.637   1.452   2.759 -0.8629  0.0417  0.8809
 7643SOL    HW234566   0.642   1.356   2.643  2.8780 -0.0983  0.1426
 7644SOL     OW34567   3.919   3.505   2.808  0.7871 -0.0183 -0.0097
 7644SOL    HW134568   3.907   3.450   2.886  0.7573  0.4285  0.2999
 7644SOL    HW234569   3.965   3.443   2.752  1.3362 -0.0051  0.4251
 7645SOL     OW34570   3.257   2.439   4.673 -0.2454  0.1641 -0.2802
 7645SOL    HW134571   3.338   2.421   4.625 -1.7704  0.7614 -3.1126
 7645SOL    HW234572   3.232   2.524   4.638  0.7378 -0.1758 -1.8298
 7646SOL     OW34573   0.342   1.138   8.729 -0.0159 -0.3629  0.1948
 7646SOL    HW134574   0.264   1.182   8.762  0.0411 -0.1643  0.0634
 7646SOL    HW234575   0.295   1.081   8.668  1.9841 -1.9241  0.1299
 7647SOL     OW34576   4.226   3.074   2.606 -0.0134 -0.3293 -0.6699
 7647SOL    HW134577   4.274   2.991   2.606 -0.5220 -0.6250 -0.8057
 7647SOL    HW234578   4.150   3.041   2.557  1.1040  1.0670 -3.3643
 7648SOL     OW34579   3.051   0.292   1.528  0.6448  0.1669 -0.0402
 7648SOL    HW134580   3.136   0.292   1.573  0.9406 -0.6569 -0.5926
 7648SOL    HW234581   3.020   0.382   1.535  0.2094 -0.1880  2.7095
 7649SOL     OW34582   1.431   1.785   1.830 -0.3416 -0.0385  0.1396
 7649SOL    HW134583   1.415   1.879   1.826  2.8053  0.4827 -0.5779
 7649SOL    HW234584   1.503   1.779   1.893 -0.7676 -0.2012  0.6092
 7650SOL     OW34585   4.218   4.031   2.472  0.5515 -0.4615  0.0514
 7650SOL    HW134586   4.303   4.006   2.508 -0.2101 -1.5650  1.0600
 7650SOL    HW234587   4.239   4.022   2.379 -0.8775 -0.4370 -0.2703
 7651SOL     OW34588   3.035   0.755  13.569 -0.0532 -0.1590  0.0574
 7651SOL    HW134589   3.129   0.765  13.585 -0.4668  3.8048 -0.0020
 7651SOL    HW234590   3.000   0.813  13.636 -1.2555  1.0307 -1.6119
 7652SOL     OW34591   4.477   3.695  15.607  0.0852  0.2000  0.1809
 7652SOL    HW134592   4.420   3.619  15.600  0.2446  0.0891  0.0847
 7652SOL    HW234593   4.477   3.725  15.516  1.4657 -2.2442 -0.6268
 7653SOL     OW34594   0.666   0.196   5.417 -0.1474  0.4758  0.1752
 7653SOL    HW134595   0.609   0.237   5.352  0.0435  1.2788  0.5156
 7653SOL    HW234596   0.715   0.130   5.368 -2.3507  0.3335 -1.7902
 7654SOL     OW34597   3.768   3.274   7.723  0.0213 -0.3858  0.2646
 7654SOL    HW134598   3.726   3.360   7.731 -0.8145 -0.9852  2.4181
 7654SOL    HW234599   3.712   3.235   7.791 -0.6714 -1.1653 -0.7644
 7655SOL     OW34600   4.139   0.572   7.029  0.1688 -0.4938 -0.0954
 7655SOL    HW134601   4.129   0.478   7.044 -0.6661 -0.4194 -0.2008
 7655SOL    HW234602   4.230   0.597   7.046  0.1342 -1.1537  1.0160
 7656SOL     OW34603   0.511   2.374   2.627 -0.2285  0.1576  0.5337
 7656SOL    HW134604   0.428   2.357   2.582 -0.2190  1.0867  0.1575
 7656SOL    HW234605   0.521   2.467   2.604 -3.1895  0.3710  0.0161
 7657SOL     OW34606   3.588   1.841  14.037 -0.3360 -0.3525 -0.0158
 7657SOL    HW134607   3.675   1.836  13.999 -0.6867  1.7809 -1.0958
 7657SOL    HW234608   3.573   1.746  14.039 -3.9920  0.2254 -0.2731
 7658SOL     OW34609   0.330   4.639  14.772 -0.1144 -0.2176  0.3369
 7658SOL    HW134610   0.302   4.717  14.724  2.5025  1.0754  0.9375
 7658SOL    HW234611   0.419   4.666  14.796 -0.4589 -0.6071  2.0893
 7659SOL     OW34612   2.946   3.170   6.967  0.1099  0.5142 -0.6006
 7659SOL    HW134613   3.027   3.138   6.927  0.8427 -0.2870  1.5331
 7659SOL    HW234614   2.879   3.133   6.908  0.5715 -1.0773 -0.1395
 7660SOL     OW34615   0.797   3.633   2.132  0.4767  0.1175 -0.3791
 7660SOL    HW134616   0.803   3.728   2.125 -1.7060  0.3137  0.3225
 7660SOL    HW234617   0.819   3.626   2.225 -0.3371  1.5710 -0.0759
 7661SOL     OW34618   4.293   0.645  14.668 -0.2422 -0.2927  0.3904
 7661SOL    HW134619   4.355   0.587  14.711  0.9224 -0.1716 -1.1052
 7661SOL    HW234620   4.353   0.696  14.613 -0.0649  0.3207  1.1556
 7662SOL     OW34621   3.890   1.397   3.553  0.6284 -0.4450 -0.8065
 7662SOL    HW134622   3.815   1.444   3.589 -0.8372 -1.3539 -2.6631
 7662SOL    HW234623   3.904   1.327   3.617 -1.9600  0.8843  1.2383
 7663SOL     OW34624   0.112   4.623   4.686  0.1554  0.5196  0.8371
 7663SOL    HW134625   0.036   4.645   4.740  0.7556  3.3254  0.5322
 7663SOL    HW234626   0.159   4.704   4.707 -1.2248  1.8205 -1.1225
 7664SOL     OW34627   3.511   3.437   7.289 -0.0900  0.6372  0.2921
 7664SOL    HW134628   3.514   3.531   7.271  2.3985  0.3079 -1.0792
 7664SOL    HW234629   3.433   3.419   7.342  0.5046  1.4221  1.4392
 7665SOL     OW34630   1.842   4.440   8.565 -0.1602 -0.5510  0.3545
 7665SOL    HW134631   1.842   4.425   8.659  0.3071 -1.3402  0.2235
 7665SOL    HW234632   1.749   4.454   8.544  0.1362 -0.3443 -0.8107
 7666SOL     OW34633   0.784   2.295   4.313  0.0462  0.2634  0.5669
 7666SOL    HW134634   0.841   2.219   4.322  1.4179  1.1559 -0.5562
 7666SOL    HW234635   0.712   2.263   4.367 -0.0463 -1.6130 -0.6788
 7667SOL     OW34636   3.303   4.356  10.995 -0.0025 -0.0266 -0.3195
 7667SOL    HW134637   3.220   4.400  11.015 -0.6388 -1.5964  0.4553
 7667SOL    HW234638   3.352   4.410  10.933  0.7595 -1.2476 -0.7810
 7668SOL     OW34639   3.295   0.263   6.378  0.3285  0.3268 -0.2787
 7668SOL    HW134640   3.225   0.205   6.346  1.7331 -1.4425 -0.1096
 7668SOL    HW234641   3.347   0.272   6.298 -0.0394  3.6365 -0.1464
 7669SOL     OW34642   2.894   2.145   3.063  0.4418 -0.0286 -0.7150
 7669SOL    HW134643   2.837   2.185   2.997 -0.4717 -1.4581 -0.7857
 7669SOL    HW234644   2.851   2.173   3.143  0.3292  0.3855 -0.9213
 7670SOL     OW34645   1.348   3.805   4.436 -0.2865 -0.1719  0.2316
 7670SOL    HW134646   1.372   3.802   4.344  0.1296 -3.9899  0.4666
 7670SOL    HW234647   1.335   3.900   4.443 -0.5899 -0.1545 -0.5765
 7671SOL     OW34648   4.610   3.441   6.859 -0.0848  0.7907 -0.1250
 7671SOL    HW134649   4.625   3.358   6.904 -0.0710  0.0238 -1.5323
 7671SOL    HW234650   4.627   3.509   6.924 -1.0516 -0.2641  1.2318
 7672SOL     OW34651   3.145   1.090  14.597  0.1572 -0.0524  0.0141
 7672SOL    HW134652   3.157   1.004  14.635  0.0287 -0.7631 -1.5516
 7672SOL    HW234653   3.093   1.131  14.666 -0.0035  0.1526 -0.2294
 7673SOL     OW34654   2.590   0.021   0.034 -0.0754  0.6427  0.6289
 7673SOL    HW134655   2.619   4.673   0.059 -1.2364 -0.4592 -1.8402
 7673SOL    HW234656   2.670   0.073   0.024  1.2628 -1.7043 -0.9679
 7674SOL     OW34657   4.636   1.527   4.901  0.5040  0.3029 -0.5724
 7674SOL    HW134658   4.673   1.615   4.904  2.5832 -0.6275  1.0765
 7674SOL    HW234659   4.656   1.502   4.811 -0.3717 -1.8940 -0.1432
 7675SOL     OW34660   4.544   0.634  15.939  0.1445  0.0256 -0.2151
 7675SOL    HW134661   4.467   0.654  15.992  0.7634 -1.2318  1.1755
 7675SOL    HW234662   4.604   0.629  16.013  1.0135 -1.1484 -1.0002
 7676SOL     OW34663   3.058   1.520   1.717 -0.3708  0.6842 -0.4310
 7676SOL    HW134664   3.090   1.431   1.712 -0.6736  0.4771  1.3373
 7676SOL    HW234665   3.035   1.524   1.624  1.9177 -3.2225 -1.1256
 7677SOL     OW34666   1.435   0.803   9.830 -0.6320 -0.0932  0.0818
 7677SOL    HW134667   1.383   0.783   9.908 -1.6533  1.5382 -0.1616
 7677SOL    HW234668   1.525   0.779   9.853 -0.3115  0.3451 -0.7163
 7678SOL     OW34669   0.043   4.673   2.479  0.5828  0.3213 -0.6482
 7678SOL    HW134670   0.102   4.609   2.520  2.0087  0.9310 -1.7660
 7678SOL    HW234671   4.710   4.671   2.542  0.4468 -0.8702 -0.8521
 7679SOL     OW34672   1.101   2.718   3.879 -0.2745 -0.3101  0.1819
 7679SOL    HW134673   1.078   2.805   3.847 -0.6194  0.2519  1.9381
 7679SOL    HW234674   1.104   2.666   3.799 -1.2197 -0.5501  0.3020
 7680SOL     OW34675   1.384   1.305   6.648 -0.0287  0.3742  0.0205
 7680SOL    HW134676   1.429   1.244   6.706  1.3726  2.0028  0.6023
 7680SOL    HW234677   1.325   1.250   6.595 -0.7448  0.6570  0.5253
 7681SOL     OW34678   1.590   4.037   3.326  0.3518  0.2534 -0.4306
 7681SOL    HW134679   1.606   4.132   3.321  0.9607  0.2231  1.0524
 7681SOL    HW234680   1.525   4.036   3.395 -0.6751 -0.1564 -1.4004
 7682SOL     OW34681   4.727   2.523   2.112 -0.0665 -0.1754 -0.4277
 7682SOL    HW134682   0.045   2.584   2.159 -1.5532 -0.4702  1.7725
 7682SOL    HW234683   4.645   2.571   2.117 -1.1047 -1.9845 -0.1486
 7683SOL     OW34684   1.793   4.485   7.630  0.1201  0.4366  0.5342
 7683SOL    HW134685   1.707   4.459   7.598 -1.0330  1.6045  2.7016
 7683SOL    HW234686   1.791   4.578   7.608 -1.4682  0.7346  1.9575
 7684SOL     OW34687   2.238   2.113   3.956  0.7336  0.0259  0.0824
 7684SOL    HW134688   2.303   2.155   4.012  1.1091 -0.7745  0.2445
 7684SOL    HW234689   2.157   2.142   3.998 -1.1594 -0.3706 -3.2226
 7685SOL     OW34690   0.054   4.082  13.492 -0.5470  0.0908  0.6194
 7685SOL    HW134691   0.117   4.126  13.436 -0.8968  1.6854  1.4970
 7685SOL    HW234692   0.060   3.990  13.464 -1.1387  0.8569 -1.9452
 7686SOL     OW34693   3.691   3.103  16.801  0.0577 -0.8602  0.2941
 7686SOL    HW134694   3.722   3.062  16.721  1.2694 -0.8774  0.7569
 7686SOL    HW234695   3.693   3.028  16.861  1.5179 -1.5840 -0.6654
 7687SOL     OW34696   1.721   2.155   2.923 -0.3584 -0.0220 -0.3336
 7687SOL    HW134697   1.747   2.205   2.846  1.7089 -0.2152  0.2206
 7687SOL    HW234698   1.750   2.066   2.902  0.6783  0.3162 -0.3519
 7688SOL     OW34699   3.818   2.633   8.048  0.1532 -0.5604  0.1416
 7688SOL    HW134700   3.894   2.666   7.999 -0.1753 -1.3711 -0.9332
 7688SOL    HW234701   3.832   2.680   8.130  0.4765 -0.6004  0.1120
 7689SOL     OW34702   0.895   0.310   9.751  0.3442 -0.2004 -0.1033
 7689SOL    HW134703   0.899   0.375   9.820 -4.4587 -1.6736  1.5601
 7689SOL    HW234704   0.807   0.310   9.714 -0.7017  0.1094  2.3641
 7690SOL     OW34705   1.419   1.205   2.999  0.2499  0.1095  0.3588
 7690SOL    HW134706   1.332   1.215   2.962  1.2750 -2.9294 -2.8774
 7690SOL    HW234707   1.457   1.175   2.916  1.0643  0.6019  0.5524
 7691SOL     OW34708   3.496   3.986   1.591 -0.2763 -0.0318  0.1684
 7691SOL    HW134709   3.418   3.960   1.543  0.2919  0.7238 -1.1700
 7691SOL    HW234710   3.560   3.929   1.548 -1.7878 -1.3948 -0.2728
 7692SOL     OW34711   0.518   1.859   6.051 -0.5391 -0.1091 -0.0150
 7692SOL    HW134712   0.518   1.764   6.038  2.4148 -0.4262  2.2885
 7692SOL    HW234713   0.610   1.864   6.077 -1.0297  1.8994  1.4029
 7693SOL     OW34714   3.373   0.058   1.595 -0.6528 -0.4875 -0.0981
 7693SOL    HW134715   3.350   0.148   1.570 -0.2604 -0.2274  0.4541
 7693SOL    HW234716   3.432   0.088   1.665 -0.4877  0.1725 -0.5208
 7694SOL     OW34717   1.723   2.013   2.034  0.0423 -0.3093 -0.2303
 7694SOL    HW134718   1.723   2.054   1.947  2.6137  0.3418  0.0776
 7694SOL    HW234719   1.689   1.926   2.015 -1.0693 -0.0615  0.5749
 7695SOL     OW34720   3.271   0.767   2.699  0.2428  0.1648 -0.0634
 7695SOL    HW134721   3.275   0.674   2.723 -1.4331  0.0938 -0.0448
 7695SOL    HW234722   3.253   0.763   2.605 -1.3044 -0.6386  0.2653
 7696SOL     OW34723   3.834   0.962   8.931  0.2261 -1.1153 -0.1961
 7696SOL    HW134724   3.861   1.053   8.929 -2.6186 -0.2874 -1.6797
 7696SOL    HW234725   3.740   0.979   8.928  0.2003 -1.0469  0.9125
 7697SOL     OW34726   4.274   1.742   5.880  0.3244 -0.1924 -0.1379
 7697SOL    HW134727   4.318   1.827   5.886 -0.1370 -0.1028  1.8367
 7697SOL    HW234728   4.200   1.777   5.831 -0.1727 -0.6947  0.2645
 7698SOL     OW34729   2.812   3.358   2.888  0.2751 -0.1111 -0.3648
 7698SOL    HW134730   2.746   3.332   2.823  0.8839 -0.1540 -0.9699
 7698SOL    HW234731   2.789   3.300   2.961  0.5845 -0.1145 -0.2737
 7699SOL     OW34732   1.988   0.117  17.649  0.2847  1.2252 -0.0422
 7699SOL    HW134733   1.968   0.145  17.738  0.3163  1.8357 -0.2250
 7699SOL    HW234734   2.084   0.112  17.655  0.1386 -0.5351  0.8401
 7700SOL     OW34735   0.366   2.570   8.882  0.0409  0.1714  0.2580
 7700SOL    HW134736   0.423   2.493   8.891 -1.2617 -0.9570 -0.9163
 7700SOL    HW234737   0.380   2.585   8.788  1.0109  1.4736  0.6258
 7701SOL     OW34738   3.794   3.096   1.849  0.0914 -0.1672 -0.4820
 7701SOL    HW134739   3.791   3.188   1.824  0.6968 -0.3039 -1.0550
 7701SOL    HW234740   3.869   3.056   1.805 -0.0942 -2.7902  1.5330
 7702SOL     OW34741   4.094   2.858   3.166  0.3554  0.4073  1.0959
 7702SOL    HW134742   4.093   2.767   3.138  1.0197  0.6714  0.1776
 7702SOL    HW234743   4.051   2.911   3.099  1.2662  0.1363  0.2890
 7703SOL     OW34744   3.479   1.516   2.697 -0.0263 -0.5406  0.1549
 7703SOL    HW134745   3.559   1.568   2.688  0.6149 -1.5003  0.2657
 7703SOL    HW234746   3.506   1.429   2.668  1.5062 -0.2285  0.6489
 7704SOL     OW34747   3.885   1.080   0.571  0.0577 -0.0252 -0.2149
 7704SOL    HW134748   3.830   1.010   0.536  1.7960 -0.8244 -1.3636
 7704SOL    HW234749   3.812   1.138   0.592 -0.3661  0.0262 -1.8596
 7705SOL     OW34750   2.513   2.932  13.899 -0.1039 -0.0823 -0.1626
 7705SOL    HW134751   2.598   2.932  13.857 -0.8944 -2.4508 -1.7515
 7705SOL    HW234752   2.518   3.020  13.936  1.4797 -0.6655  1.0206
 7706SOL     OW34753   0.961   0.939   6.080 -0.2297  0.1418 -0.0241
 7706SOL    HW134754   0.872   0.904   6.078 -0.2180  0.2861 -4.0461
 7706SOL    HW234755   1.016   0.861   6.080 -1.1772 -0.5239 -0.6721
 7707SOL     OW34756   2.258   2.728   5.277  0.6142 -0.2015  0.0033
 7707SOL    HW134757   2.231   2.660   5.339 -2.1627  0.9686  0.0998
 7707SOL    HW234758   2.333   2.680   5.240 -1.0284 -0.3565 -3.1690
 7708SOL     OW34759   1.530   2.963   1.304 -0.5510 -0.1523 -0.0771
 7708SOL    HW134760   1.535   2.932   1.394  0.1117 -0.3791 -0.1910
 7708SOL    HW234761   1.454   3.021   1.299  0.6791  1.4093 -0.9498
 7709SOL     OW34762   1.415   4.521  10.452  0.4432 -0.0367  0.1635
 7709SOL    HW134763   1.387   4.463  10.381  1.3818  0.8197 -0.9086
 7709SOL    HW234764   1.481   4.470  10.499 -0.3131  0.1153  1.4007
 7710SOL     OW34765   4.280   1.784   9.070  0.4555  0.1463 -0.1916
 7710SOL    HW134766   4.263   1.866   9.116 -2.3687 -0.0776 -0.8620
 7710SOL    HW234767   4.300   1.733   9.149 -1.1444 -0.8453 -0.4293
 7711SOL     OW34768   4.125   2.299   7.875 -0.0851  0.0114 -0.5823
 7711SOL    HW134769   4.203   2.354   7.885 -0.1600 -0.1922  1.1610
 7711SOL    HW234770   4.049   2.345   7.909 -0.1890  0.1353 -0.9825
 7712SOL     OW34771   0.987   0.356   2.855  1.0519  0.0809 -0.2495
 7712SOL    HW134772   1.013   0.296   2.925  2.9540 -0.1502 -1.1488
 7712SOL    HW234773   0.899   0.378   2.885  0.4492 -0.4591 -1.6156
 7713SOL     OW34774   1.768   1.647  12.904 -0.3875  0.3112  0.7201
 7713SOL    HW134775   1.750   1.591  12.979 -0.7958  0.5739  0.8149
 7713SOL    HW234776   1.861   1.666  12.914 -0.4045  0.7252  0.1226
 7714SOL     OW34777   3.902   0.694   9.378 -0.1241  0.5895  0.2862
 7714SOL    HW134778   3.970   0.641   9.337  0.2454  0.9706  0.4068
 7714SOL    HW234779   3.934   0.701   9.468  0.4189  0.1733  0.1249
 7715SOL     OW34780   1.543   1.189   5.401 -0.3302  0.0749 -0.7279
 7715SOL    HW134781   1.631   1.179   5.435 -0.4174  1.1581 -0.1867
 7715SOL    HW234782   1.563   1.238   5.321  1.4010 -1.2839 -1.1062
 7716SOL     OW34783   2.249   1.199   8.421  0.3030 -1.0709  0.0442
 7716SOL    HW134784   2.332   1.239   8.394  1.1044 -2.1974  0.8729
 7716SOL    HW234785   2.278   1.108   8.421  1.1525 -0.8038 -0.1410
 7717SOL     OW34786   2.160   4.073   2.296 -0.0909 -0.0726 -0.1298
 7717SOL    HW134787   2.228   4.134   2.264 -0.7255 -0.2113 -1.7663
 7717SOL    HW234788   2.090   4.083   2.231 -2.5943 -0.8883  2.4900
 7718SOL     OW34789   0.591   3.306   4.260 -0.1566  0.2183 -0.5774
 7718SOL    HW134790   0.604   3.224   4.308 -0.2508  0.7216  0.3019
 7718SOL    HW234791   0.651   3.362   4.309 -0.0362 -0.7410  0.3836
 7719SOL     OW34792   4.326   1.194   3.305  0.4072  0.2919 -0.3757
 7719SOL    HW134793   4.241   1.175   3.346  0.2088 -3.8417 -2.5930
 7719SOL    HW234794   4.299   1.269   3.252  2.1735  0.5087 -0.9482
 7720SOL     OW34795   0.166   1.782   2.118 -0.0269  0.0422  0.0566
 7720SOL    HW134796   0.191   1.732   2.041  3.5346 -0.1414  1.3589
 7720SOL    HW234797   0.246   1.776   2.170 -1.3824 -2.1941  1.9096
 7721SOL     OW34798   3.824   4.584   8.684 -0.2527  0.0122 -0.0116
 7721SOL    HW134799   3.805   4.542   8.600  0.4405  2.6595 -1.5005
 7721SOL    HW234800   3.877   4.656   8.651 -1.7536  0.6299 -1.0491
 7722SOL     OW34801   4.031   4.496  11.535  0.0886 -0.4714 -0.4416
 7722SOL    HW134802   4.033   4.418  11.590 -0.7405  0.0130  0.2975
 7722SOL    HW234803   4.107   4.545  11.567  0.4388 -0.9547 -0.5494
 7723SOL     OW34804   2.083   0.840   2.674 -0.1099 -0.0826 -0.6696
 7723SOL    HW134805   2.096   0.888   2.756  0.9489  0.4267 -1.1449
 7723SOL    HW234806   2.104   0.750   2.701 -0.0335  0.4514  1.0215
 7724SOL     OW34807   4.165   1.744   2.968 -0.0327  0.0792  0.4416
 7724SOL    HW134808   4.155   1.828   3.012 -0.5755  0.0486  0.3747
 7724SOL    HW234809   4.209   1.688   3.033 -1.8621 -0.9611  0.8111
 7725SOL     OW34810   3.954   0.382   4.917 -0.4768 -0.3744  0.7697
 7725SOL    HW134811   3.969   0.459   4.861 -1.0954 -2.1552 -1.8109
 7725SOL    HW234812   4.035   0.332   4.905 -0.2294  0.0313  0.7210
 7726SOL     OW34813   2.756   1.301   8.367 -0.1173  0.3125 -0.7328
 7726SOL    HW134814   2.826   1.235   8.375  1.0767  1.4933 -1.4093
 7726SOL    HW234815   2.780   1.333   8.280  2.2144  1.0764  0.1885
 7727SOL     OW34816   3.202   2.366   0.498 -0.1660 -0.4020  0.7777
 7727SOL    HW134817   3.146   2.443   0.488  0.0855 -0.3573 -0.1932
 7727SOL    HW234818   3.176   2.302   0.433  1.3915  0.1757 -0.4347
 7728SOL     OW34819   1.216   1.926   4.124 -0.3148  0.2034  0.1631
 7728SOL    HW134820   1.249   1.927   4.214  1.8805 -0.1219 -0.6317
 7728SOL    HW234821   1.175   2.013   4.119  2.4916  1.3550 -2.6432
 7729SOL     OW34822   0.777   2.022   4.173 -0.3157  0.6476 -0.4630
 7729SOL    HW134823   0.743   1.953   4.116  1.2842 -1.6952  1.4163
 7729SOL    HW234824   0.711   2.029   4.242 -0.4240 -0.6548 -0.4335
 7730SOL     OW34825   3.982   2.117   6.937 -0.4993  0.3802  0.4744
 7730SOL    HW134826   3.895   2.112   6.975 -0.1528 -0.7722  1.1071
 7730SOL    HW234827   3.972   2.059   6.861 -1.9090 -0.5557  1.3829
 7731SOL     OW34828   2.323   3.654   1.379  0.1320  0.2490  0.3898
 7731SOL    HW134829   2.393   3.641   1.443  1.4181 -0.1288 -1.0808
 7731SOL    HW234830   2.348   3.581   1.322  0.1775  0.5024  0.0860
 7732SOL     OW34831   0.714   2.347  15.305 -0.0966  0.0249 -0.0799
 7732SOL    HW134832   0.777   2.321  15.373  1.2169 -0.1644 -1.3583
 7732SOL    HW234833   0.739   2.301  15.225  0.4481 -1.0580  0.7189
 7733SOL     OW34834   2.876   3.893   3.397 -0.6759 -0.0099 -0.0716
 7733SOL    HW134835   2.837   3.879   3.310  0.8869  4.0559 -1.4246
 7733SOL    HW234836   2.830   3.834   3.457 -0.4065 -0.1366  0.0105
 7734SOL     OW34837   0.431   1.925   3.480  0.2758  0.0179  0.4954
 7734SOL    HW134838   0.414   2.006   3.529 -0.7569 -0.1769  0.4623
 7734SOL    HW234839   0.524   1.938   3.461  0.4750 -2.2754 -0.0176
 7735SOL     OW34840   4.403   0.095   9.063 -0.0361 -0.4842  0.0934
 7735SOL    HW134841   4.470   0.128   9.123 -1.0463  0.5938  0.6074
 7735SOL    HW234842   4.324   0.087   9.115  0.3102 -1.8473  0.4123
 7736SOL     OW34843   4.563   2.413  12.306  0.2904 -0.6085  0.5592
 7736SOL    HW134844   4.640   2.418  12.362  0.1109  0.1142  0.7484
 7736SOL    HW234845   4.596   2.454  12.226 -0.6594  0.3988  0.6848
 7737SOL     OW34846   4.019   1.734   9.883  0.1735  0.2568  0.0648
 7737SOL    HW134847   3.941   1.681   9.867 -0.0167  0.2810  0.9214
 7737SOL    HW234848   3.989   1.824   9.869 -0.8844 -0.4491 -2.2919
 7738SOL     OW34849   2.366   2.738   6.793  0.2961 -0.7830 -0.2247
 7738SOL    HW134850   2.313   2.816   6.811  1.7795 -0.1979  1.6338
 7738SOL    HW234851   2.386   2.753   6.700 -0.4115 -0.4027 -0.3219
 7739SOL     OW34852   0.111   3.914   1.460 -0.5256 -0.1635 -0.3002
 7739SOL    HW134853   0.025   3.956   1.458 -0.9694 -0.9825  1.8918
 7739SOL    HW234854   0.087   3.826   1.487  1.0859 -0.9839 -1.5510
 7740SOL     OW34855   2.636   1.654  14.117  0.0452  0.0239 -0.7012
 7740SOL    HW134856   2.706   1.594  14.144 -2.4411 -2.2881  0.6750
 7740SOL    HW234857   2.601   1.677  14.203 -0.7540  2.9546 -1.8128
 7741SOL     OW34858   4.681   1.583   5.575 -0.0660  0.0801 -0.8626
 7741SOL    HW134859   4.608   1.645   5.579  0.5063  0.6925 -0.0095
 7741SOL    HW234860   4.735   1.624   5.507 -0.5525  1.0635 -0.6721
 7742SOL     OW34861   3.590   3.693   7.275  0.1002  0.1133  0.2702
 7742SOL    HW134862   3.680   3.723   7.265  0.4224 -0.6290  1.0175
 7742SOL    HW234863   3.570   3.714   7.366 -2.1905  2.2385 -0.7241
 7743SOL     OW34864   1.432   1.343   5.889  0.4824  0.4291  0.0826
 7743SOL    HW134865   1.386   1.335   5.972  2.3994  0.7030  1.1815
 7743SOL    HW234866   1.430   1.253   5.858 -0.1645 -0.0599  1.5250
 7744SOL     OW34867   3.982   4.128   2.987  0.4529 -1.2280 -0.8235
 7744SOL    HW134868   4.023   4.050   3.025 -0.4338 -0.6680  1.3009
 7744SOL    HW234869   3.914   4.101   2.925  0.7769  1.1779 -2.2067
 7745SOL     OW34870   3.585   1.666   8.229  0.4339  0.1874 -0.4423
 7745SOL    HW134871   3.525   1.650   8.301 -0.1818 -2.3750 -1.5338
 7745SOL    HW234872   3.566   1.757   8.207  0.8600  0.4901  0.4497
 7746SOL     OW34873   4.287   0.766   7.844 -0.5628 -0.1260 -0.2458
 7746SOL    HW134874   4.207   0.805   7.809  0.4920  1.0280 -1.3905
 7746SOL    HW234875   4.338   0.845   7.859 -1.0984 -0.3883  2.9238
 7747SOL     OW34876   0.308   0.432   1.143 -0.5611  0.5478 -0.1300
 7747SOL    HW134877   0.331   0.525   1.144 -0.0031  0.4087  0.4671
 7747SOL    HW234878   0.346   0.399   1.062 -0.7942  0.6969 -0.2958
 7748SOL     OW34879   1.571   1.167  17.517  0.2358  0.0467  0.4760
 7748SOL    HW134880   1.579   1.173  17.421 -0.6220 -1.7664  0.2946
 7748SOL    HW234881   1.546   1.075  17.512  1.9318 -0.5592  2.9125
 7749SOL     OW34882   2.842   4.302  11.259 -0.1518 -0.0564  0.6422
 7749SOL    HW134883   2.825   4.378  11.315  2.1213  0.0898  1.1390
 7749SOL    HW234884   2.795   4.228  11.297  0.3842 -1.4063 -1.3368
 7750SOL     OW34885   2.988   2.275   9.264  0.3310 -0.2758  0.1190
 7750SOL    HW134886   2.961   2.185   9.250 -1.3100 -0.4020  3.9647
 7750SOL    HW234887   3.071   2.272   9.217  0.8251 -1.4489  1.0948
 7751SOL     OW34888   0.941   3.131   3.047 -0.0141  0.4608  0.4283
 7751SOL    HW134889   0.907   3.101   2.962  0.4103 -1.0778  0.8098
 7751SOL    HW234890   0.982   3.048   3.071  0.4642  0.5939  0.0632
 7752SOL     OW34891   2.352   2.244   3.433 -0.3045 -0.4232 -0.1768
 7752SOL    HW134892   2.301   2.267   3.355 -0.2626 -0.3925 -0.1954
 7752SOL    HW234893   2.304   2.282   3.506  0.4068  0.2100 -0.0350
 7753SOL     OW34894   2.962   1.767   2.286  0.0138  0.6498  0.2561
 7753SOL    HW134895   2.998   1.816   2.360  0.3788  0.5688  0.1341
 7753SOL    HW234896   3.018   1.801   2.216  1.6103 -0.8156  0.8293
 7754SOL     OW34897   3.510   1.620   3.555 -0.1842  0.1778 -0.1808
 7754SOL    HW134898   3.504   1.665   3.471  0.1739  1.6134  0.5619
 7754SOL    HW234899   3.580   1.668   3.601 -0.6410  1.6415 -1.0041
 7755SOL     OW34900   4.639   0.459   9.514 -0.5191 -0.1987 -0.0139
 7755SOL    HW134901   4.583   0.508   9.455 -0.4409  1.0921  0.9740
 7755SOL    HW234902   4.607   0.480   9.602 -0.8082 -1.6302  0.2150
 7756SOL     OW34903   3.659   3.500   5.224  0.8719 -0.3837 -0.7649
 7756SOL    HW134904   3.616   3.424   5.264 -0.5795  0.5822 -0.4858
 7756SOL    HW234905   3.659   3.561   5.297 -0.3915 -1.5071  0.1575
 7757SOL     OW34906   3.719   3.028  12.027 -0.1396 -0.2952 -0.2553
 7757SOL    HW134907   3.681   3.098  11.972 -0.1239 -0.7306 -0.8204
 7757SOL    HW234908   3.678   2.951  11.988 -0.7713  0.8209 -1.7927
 7758SOL     OW34909   4.697   3.011   2.650 -0.2764  0.5761 -0.2897
 7758SOL    HW134910   0.006   3.021   2.732 -0.1365 -1.5999 -0.1047
 7758SOL    HW234911   4.701   3.098   2.611 -0.5935  1.3521  1.4158
 7759SOL     OW34912   2.964   3.633   2.737 -0.2089 -0.6685  0.9405
 7759SOL    HW134913   2.877   3.633   2.776 -0.0536 -0.4389  1.2966
 7759SOL    HW234914   2.999   3.718   2.766 -1.3302  0.8157 -1.9936
 7760SOL     OW34915   2.427   1.908   8.078 -0.1207 -0.3629 -0.1759
 7760SOL    HW134916   2.341   1.916   8.119  0.8622  0.0161  1.8270
 7760SOL    HW234917   2.474   1.985   8.113 -0.3359 -1.6399  2.9282
 7761SOL     OW34918   2.970   4.378   3.284 -0.2006 -0.2543  0.0853
 7761SOL    HW134919   2.908   4.358   3.213 -0.7833  1.1244  0.2167
 7761SOL    HW234920   3.041   4.409   3.227 -2.1747 -0.0069 -2.2415
 7762SOL     OW34921   2.406   2.809   6.535  0.2656  0.3153 -0.5170
 7762SOL    HW134922   2.326   2.859   6.551 -0.8002 -0.8766 -2.0633
 7762SOL    HW234923   2.433   2.839   6.448 -2.7177  0.2025 -1.4574
 7763SOL     OW34924   3.640   3.072  13.392 -0.2991 -0.5642 -0.3091
 7763SOL    HW134925   3.623   2.986  13.431  0.0947  0.4306  2.0727
 7763SOL    HW234926   3.724   3.094  13.431 -1.4128  0.6669  1.4001
 7764SOL     OW34927   2.697   1.475   4.954  0.2682 -0.2262 -0.5625
 7764SOL    HW134928   2.680   1.383   4.974 -2.0944  0.0669 -1.2661
 7764SOL    HW234929   2.778   1.474   4.902  1.2722 -1.6040  1.0148
 7765SOL     OW34930   2.945   3.265   1.123  0.0682 -0.0193 -0.1586
 7765SOL    HW134931   2.896   3.274   1.205  1.2986 -1.6792  0.7568
 7765SOL    HW234932   3.003   3.342   1.123  1.9795 -1.4620  0.0479
 7766SOL     OW34933   2.818   1.379   5.609 -0.3022  0.5654 -0.2638
 7766SOL    HW134934   2.785   1.298   5.571 -3.7043  0.8599  2.0124
 7766SOL    HW234935   2.799   1.360   5.701  1.4308 -2.7221 -0.5956
 7767SOL     OW34936   4.605   3.556   6.608 -0.1574 -0.0269  0.4949
 7767SOL    HW134937   4.514   3.541   6.583  0.3353  0.6746 -1.7134
 7767SOL    HW234938   4.614   3.496   6.682  0.5682  0.3782  0.7352
 7768SOL     OW34939   1.076   0.858   2.118  0.1651  0.2504  0.2610
 7768SOL    HW134940   1.126   0.906   2.053  1.0435 -1.3900 -0.2849
 7768SOL    HW234941   0.989   0.857   2.078 -0.6668  0.4113  2.0683
 7769SOL     OW34942   3.991   4.519   3.348  0.2546 -0.0169 -0.7449
 7769SOL    HW134943   3.956   4.479   3.428  1.3458 -2.2733 -1.3945
 7769SOL    HW234944   4.016   4.444   3.293  1.2481 -0.2089 -0.0267
 7770SOL     OW34945   3.012   1.002   3.335 -0.1049  0.5213 -0.6792
 7770SOL    HW134946   3.006   0.931   3.270  3.0717 -0.4027  0.0433
 7770SOL    HW234947   2.936   1.050   3.304 -0.3625 -1.4685 -3.1642
 7771SOL     OW34948   1.019   3.940   9.081 -0.1719 -0.1523  0.1602
 7771SOL    HW134949   0.960   3.879   9.037 -0.1755  0.2685 -0.4032
 7771SOL    HW234950   1.076   3.959   9.007  0.4063 -1.1627  0.3301
 7772SOL     OW34951   4.619   3.433   8.537  0.3138 -0.1012 -0.4206
 7772SOL    HW134952   4.543   3.379   8.559  1.2593 -1.3869 -0.3069
 7772SOL    HW234953   4.678   3.370   8.495 -0.0902  1.1463 -2.8128
 7773SOL     OW34954   4.042   4.379   2.060 -0.2084  0.6064  0.0423
 7773SOL    HW134955   3.954   4.382   2.022 -1.0541  1.4645  2.0294
 7773SOL    HW234956   4.050   4.285   2.073  1.4187  0.4967 -1.8037
 7774SOL     OW34957   1.391   2.611   5.945 -0.1401 -0.6352 -0.3790
 7774SOL    HW134958   1.354   2.527   5.919 -0.5712 -0.4880 -0.2307
 7774SOL    HW234959   1.465   2.581   5.998 -1.1144  1.3150  2.0822
 7775SOL     OW34960   0.690   4.032   0.475  0.1086 -0.0358  0.1170
 7775SOL    HW134961   0.613   4.066   0.522 -0.5457  2.4155 -2.7353
 7775SOL    HW234962   0.756   4.075   0.529  0.9256 -1.8955  0.6229
 7776SOL     OW34963   0.324   2.790   4.552 -0.1782 -0.6873  0.2418
 7776SOL    HW134964   0.384   2.758   4.485 -0.6929  1.2740 -1.1505
 7776SOL    HW234965   0.243   2.742   4.536 -1.8428  2.4478 -0.7449
 7777SOL     OW34966   3.890   3.413   8.815 -0.0397  0.3071  0.0596
 7777SOL    HW134967   3.909   3.320   8.802  0.9920  0.1953  2.2981
 7777SOL    HW234968   3.797   3.412   8.839  0.3159 -0.5816  1.4459
 7778SOL     OW34969   4.442   3.853   6.724  0.5947 -0.2441  0.3366
 7778SOL    HW134970   4.408   3.888   6.806 -1.0435 -0.2485 -0.3234
 7778SOL    HW234971   4.362   3.851   6.672  0.7359 -1.2770  0.1691
 7779SOL     OW34972   3.553   1.382   3.839  0.9189 -0.3489 -0.3668
 7779SOL    HW134973   3.629   1.432   3.869  0.8378  0.3989 -1.4076
 7779SOL    HW234974   3.552   1.313   3.905 -2.9791 -0.3687 -0.4537
 7780SOL     OW34975   3.909   3.678   0.765 -0.6355  0.5125 -0.6039
 7780SOL    HW134976   3.924   3.590   0.798  2.0480  1.2437  0.1411
 7780SOL    HW234977   3.893   3.658   0.673  0.4740 -0.1659 -0.6435
 7781SOL     OW34978   1.150   0.863   5.218  0.2668 -0.8119 -0.1466
 7781SOL    HW134979   1.195   0.947   5.212  0.3133 -0.7444  1.1215
 7781SOL    HW234980   1.070   0.877   5.167 -0.5565  0.5883  1.5371
 7782SOL     OW34981   3.222   3.392   7.428  0.0706 -0.4228 -0.1075
 7782SOL    HW134982   3.135   3.407   7.464 -0.1294  0.9282 -1.1736
 7782SOL    HW234983   3.202   3.315   7.376 -4.4518  0.5051  0.2760
 7783SOL     OW34984   2.845   0.070  13.852  0.1906 -0.1340  0.0620
 7783SOL    HW134985   2.916   0.125  13.820 -0.0328  0.2700  0.2685
 7783SOL    HW234986   2.875   0.048  13.940 -0.0459 -1.2198 -0.1308
 7784SOL     OW34987   4.503   1.216  16.434 -0.3373 -0.3510  0.1608
 7784SOL    HW134988   4.458   1.297  16.460  0.5687  0.1450  0.1986
 7784SOL    HW234989   4.513   1.231  16.340 -0.4355 -0.5309  0.1229
 7785SOL     OW34990   0.827   3.919   4.582 -0.3042  0.0558  0.7062
 7785SOL    HW134991   0.847   3.846   4.524  1.4650  1.6544 -0.6738
 7785SOL    HW234992   0.827   3.996   4.525  0.3903 -0.3965  0.1061
 7786SOL     OW34993   0.100   1.498   4.399 -0.4828 -0.0116  0.1125
 7786SOL    HW134994   0.160   1.496   4.325 -0.6368  3.1625 -0.0773
 7786SOL    HW234995   0.101   1.411   4.440  1.1385 -0.7590 -1.5084
 7787SOL     OW34996   0.578   2.997   5.418  0.4825 -0.0224 -0.2389
 7787SOL    HW134997   0.630   3.015   5.496  2.5597 -0.1176 -1.5834
 7787SOL    HW234998   0.631   2.949   5.354 -0.4678 -2.1875  0.5722
 7788SOL     OW34999   0.683   2.389   7.057  0.3984  0.0771  0.0795
 7788SOL    HW135000   0.670   2.302   7.095 -1.2269 -0.2833 -1.2995
 7788SOL    HW235001   0.755   2.370   6.996  0.1302 -2.4134  0.5445
 7789SOL     OW35002   3.547   3.519   0.573  0.4385 -0.1490 -0.0795
 7789SOL    HW135003   3.491   3.596   0.562  0.7672  0.3050  1.2934
 7789SOL    HW235004   3.595   3.543   0.653 -0.1874  1.2919 -0.1314
 7790SOL     OW35005   0.746   0.455   2.985 -0.5272 -0.0217  0.3459
 7790SOL    HW135006   0.657   0.419   2.980 -1.0014  1.1828  0.1834
 7790SOL    HW235007   0.738   0.546   3.012 -0.1293 -0.1679  0.9514
 7791SOL     OW35008   0.132   3.429   8.245  0.1203 -0.1449 -0.1409
 7791SOL    HW135009   0.065   3.470   8.190 -2.1169  0.1036  2.7234
 7791SOL    HW235010   0.085   3.347   8.261  1.0417 -0.9571 -1.6479
 7792SOL     OW35011   3.142   3.939   0.133  0.1978  0.3468 -0.6246
 7792SOL    HW135012   3.102   4.008   0.080 -2.2205 -0.3010  0.4046
 7792SOL    HW235013   3.180   3.884   0.064 -1.1353 -1.6107  0.1888
 7793SOL     OW35014   1.828   3.966   7.201 -0.0215  0.0275  0.1430
 7793SOL    HW135015   1.804   4.038   7.259  0.7061  0.3919 -0.0111
 7793SOL    HW235016   1.756   3.974   7.139 -1.4142  0.0645  1.7702
 7794SOL     OW35017   0.512   3.242   1.403 -0.3822 -0.8104 -0.4295
 7794SOL    HW135018   0.438   3.270   1.348 -1.7081 -1.5305  0.9976
 7794SOL    HW235019   0.566   3.321   1.398  0.3629 -1.2162  1.3853
 7795SOL     OW35020   4.600   2.930   5.655  0.6256 -0.4211  0.1358
 7795SOL    HW135021   4.603   3.021   5.628 -1.2111 -0.6132 -0.7726
 7795SOL    HW235022   4.630   2.885   5.576 -1.3014 -1.1027 -0.2244
 7796SOL     OW35023   4.198   2.720   7.047 -0.3207  0.3202 -0.0535
 7796SOL    HW135024   4.177   2.804   7.087  3.2082  0.2971  1.8678
 7796SOL    HW235025   4.293   2.712   7.040 -0.4547 -1.8083  0.6715
 7797SOL     OW35026   3.620   1.149   4.364  0.1175 -0.7053  0.4400
 7797SOL    HW135027   3.704   1.128   4.406 -0.9262 -0.7693  2.4890
 7797SOL    HW235028   3.584   1.224   4.411 -0.7903 -0.7622 -0.1783
 7798SOL     OW35029   4.165   0.297   9.298 -0.5780  0.6092 -0.0429
 7798SOL    HW135030   4.134   0.299   9.207  0.7325 -1.1710 -0.5118
 7798SOL    HW235031   4.215   0.216   9.301 -2.0255 -0.2631  0.3341
 7799SOL     OW35032   1.067   4.125   4.945  0.2337 -0.3742 -0.7779
 7799SOL    HW135033   1.104   4.050   4.898  2.4881 -0.3760  1.0363
 7799SOL    HW235034   0.984   4.143   4.900  0.8843 -0.8751 -2.1636
 7800SOL     OW35035   3.690   3.014   1.306 -0.0344  0.1787  0.0868
 7800SOL    HW135036   3.710   2.957   1.231  0.5592 -0.0443  0.4116
 7800SOL    HW235037   3.658   2.948   1.367 -0.0272 -1.0675 -1.2520
 7801SOL     OW35038   1.752   0.985   4.680  0.1980 -0.7325 -0.0438
 7801SOL    HW135039   1.764   1.012   4.771 -1.8635 -0.8684  0.2787
 7801SOL    HW235040   1.663   0.955   4.696  0.4851 -2.0350 -0.8748
 7802SOL     OW35041   0.837   2.275  13.297 -1.0499  0.2645  0.1012
 7802SOL    HW135042   0.919   2.293  13.252 -0.1236  0.0690  1.7213
 7802SOL    HW235043   0.842   2.179  13.289  1.9905  0.3605  0.7548
 7803SOL     OW35044   4.109   1.448  13.900  0.1022 -0.6089 -0.5161
 7803SOL    HW135045   4.085   1.356  13.905 -1.8975  0.0771  2.8591
 7803SOL    HW235046   4.045   1.473  13.967 -0.6879  0.0330 -1.5221
 7804SOL     OW35047   2.078   1.459   3.084  1.0093  0.2649  0.4802
 7804SOL    HW135048   2.115   1.445   3.171  0.6543 -1.4686  0.3442
 7804SOL    HW235049   1.983   1.448   3.092  1.2635 -1.0952  1.5798
 7805SOL     OW35050   2.175   4.724  13.236 -0.1166  0.1501  0.0135
 7805SOL    HW135051   2.085   0.016  13.244 -1.2725 -3.3331  1.0410
 7805SOL    HW235052   2.160   4.637  13.198 -1.0169 -0.1224  0.9825
 7806SOL     OW35053   4.113   0.823  16.164  0.6119  0.7933  0.0108
 7806SOL    HW135054   4.166   0.788  16.235  1.4169  0.2247 -0.8751
 7806SOL    HW235055   4.177   0.843  16.096  1.5823 -1.9266  0.1451
 7807SOL     OW35056   1.658   3.280   0.552  0.0869 -0.4233  0.2438
 7807SOL    HW135057   1.573   3.241   0.576  0.0693 -1.3286 -1.2908
 7807SOL    HW235058   1.707   3.260   0.632  1.3895 -1.8344 -0.9057
 7808SOL     OW35059   2.758   2.534   6.460  0.2519  0.3171  0.0404
 7808SOL    HW135060   2.703   2.464   6.424 -0.7098  0.5423  1.0574
 7808SOL    HW235061   2.736   2.527   6.553  0.1487  4.2869  0.3039
 7809SOL     OW35062   4.296   1.610   6.491 -0.3602 -0.1941 -0.0401
 7809SOL    HW135063   4.303   1.520   6.523 -0.4650 -0.1843  0.0094
 7809SOL    HW235064   4.383   1.628   6.456  0.3751 -4.9789 -0.6664
 7810SOL     OW35065   3.957   2.966   2.527  0.2762 -0.0970 -0.0517
 7810SOL    HW135066   3.890   2.970   2.458  0.2636  1.9682  0.0949
 7810SOL    HW235067   3.911   2.910   2.590  0.0283 -0.5196 -0.6139
 7811SOL     OW35068   0.069   4.240   5.160 -0.3314  0.6998  0.0191
 7811SOL    HW135069   4.737   4.189   5.198 -0.3952  1.2755  0.6695
 7811SOL    HW235070   0.119   4.255   5.240  1.2161 -0.6799 -0.6929
 7812SOL     OW35071   1.168   4.561  14.569  0.2007  0.1798  0.6596
 7812SOL    HW135072   1.089   4.514  14.595  0.5855 -0.6728  0.2716
 7812SOL    HW235073   1.224   4.492  14.605 -0.2801  0.1670  1.3822
 7813SOL     OW35074   1.002   0.513  14.492  0.4995 -0.4720  0.9149
 7813SOL    HW135075   1.015   0.602  14.523 -0.0080 -0.2206  0.4047
 7813SOL    HW235076   1.061   0.504  14.417  1.9467  0.6949  1.9360
 7814SOL     OW35077   3.774   1.534   3.020  0.1262  0.0047 -0.2709
 7814SOL    HW135078   3.805   1.500   3.104  1.5749  0.6691 -0.5383
 7814SOL    HW235079   3.741   1.618   3.051  1.1677 -0.0020  0.8280
 7815SOL     OW35080   3.368   3.608  15.125 -0.2321 -0.0231  0.1032
 7815SOL    HW135081   3.308   3.549  15.169  0.4858  0.1753  1.3438
 7815SOL    HW235082   3.321   3.632  15.045 -1.2560  1.3861  1.1223
 7816SOL     OW35083   4.654   1.192   7.430 -0.2882  0.2091 -0.6989
 7816SOL    HW135084   4.694   1.278   7.415  0.7302 -0.2224 -0.5040
 7816SOL    HW235085   4.704   1.170   7.509 -1.1167 -2.9750 -1.0748
 7817SOL     OW35086   1.723   3.147  16.084 -0.2673 -0.1022  1.0005
 7817SOL    HW135087   1.788   3.128  16.016 -1.0708  0.4180  0.0870
 7817SOL    HW235088   1.770   3.215  16.131  1.4584 -0.9640  0.5303
 7818SOL     OW35089   3.907   4.188   7.226 -0.2126  0.1282  0.1099
 7818SOL    HW135090   3.923   4.218   7.136  2.0416 -1.0469  0.1355
 7818SOL    HW235091   3.839   4.250   7.252  0.0151  0.6611 -0.5498
 7819SOL     OW35092   2.201   3.577   7.788  0.1690  0.1840 -0.1029
 7819SOL    HW135093   2.196   3.656   7.733  2.3970 -1.1339 -2.1956
 7819SOL    HW235094   2.281   3.548   7.744  0.8417  0.1847  1.1352
 7820SOL     OW35095   4.581   4.597   4.084 -0.3101  0.1302 -0.2501
 7820SOL    HW135096   4.491   4.567   4.080 -0.9736  2.1916 -0.9997
 7820SOL    HW235097   4.579   4.687   4.052  4.1183  1.1318  2.2743
 7821SOL     OW35098   1.831   3.330   2.022  0.4502 -0.6966 -0.4922
 7821SOL    HW135099   1.897   3.266   2.047  0.1041 -1.0644 -0.5184
 7821SOL    HW235100   1.820   3.290   1.936  1.9403  0.1018 -1.0517
 7822SOL     OW35101   0.851   0.708   3.112  0.0664  0.0755  0.5653
 7822SOL    HW135102   0.918   0.668   3.056  1.4042  1.2883  1.2884
 7822SOL    HW235103   0.867   0.801   3.095 -2.9263  0.3094 -0.9115
 7823SOL     OW35104   0.495   0.989   7.487  0.3233  0.1840 -0.0242
 7823SOL    HW135105   0.563   0.928   7.516  0.1773  1.3358  2.7328
 7823SOL    HW235106   0.521   1.007   7.397 -0.1322  2.0080  0.2021
 7824SOL     OW35107   4.504   2.132   2.322 -0.1055 -0.0017  1.0486
 7824SOL    HW135108   4.492   2.187   2.399 -0.7755  0.4278  0.6350
 7824SOL    HW235109   4.417   2.139   2.284  0.4661 -3.6482 -1.0145
 7825SOL     OW35110   2.443   3.417   3.812  0.2760  0.1852  0.1090
 7825SOL    HW135111   2.451   3.372   3.728  2.7688 -0.0360  0.4531
 7825SOL    HW235112   2.535   3.425   3.837  0.3959 -3.1491  0.7525
 7826SOL     OW35113   1.808   1.288   8.033  0.3781 -0.1210 -0.2736
 7826SOL    HW135114   1.731   1.244   7.997 -0.1879 -0.0927  0.8881
 7826SOL    HW235115   1.851   1.209   8.067 -1.8281 -0.7185  1.1505
 7827SOL     OW35116   0.647   3.011   3.699  0.6497  0.0768  0.1114
 7827SOL    HW135117   0.702   3.062   3.758  1.2365  0.9551 -1.1941
 7827SOL    HW235118   0.570   3.065   3.683 -0.3181 -1.2994  0.1345
 7828SOL     OW35119   2.388   4.490   0.866  0.1085 -0.3644 -0.1798
 7828SOL    HW135120   2.421   4.573   0.831 -0.8235 -0.0672 -0.3365
 7828SOL    HW235121   2.295   4.510   0.871  0.9818  3.6138  0.7248
 7829SOL     OW35122   2.631   3.321   5.513  0.2262  0.1935 -0.0030
 7829SOL    HW135123   2.664   3.380   5.581  2.2253 -0.5850 -0.2700
 7829SOL    HW235124   2.679   3.242   5.537 -0.5592 -0.3839 -0.3711
 7830SOL     OW35125   0.436   0.725  12.618  0.0803  0.5757  0.0889
 7830SOL    HW135126   0.399   0.665  12.682 -2.1891  1.8457 -0.0160
 7830SOL    HW235127   0.400   0.705  12.532 -0.9425 -1.6293  1.0514
 7831SOL     OW35128   3.069   4.295   1.265  0.0080 -0.6088  0.5917
 7831SOL    HW135129   3.018   4.305   1.184  0.6623 -2.3764 -0.0277
 7831SOL    HW235130   3.097   4.386   1.277  0.8055 -0.9509  1.2740
 7832SOL     OW35131   2.384   2.830   7.612 -0.4918  0.1339  0.0727
 7832SOL    HW135132   2.318   2.802   7.548  0.0985  0.9256 -0.8988
 7832SOL    HW235133   2.377   2.760   7.676  1.3565 -0.9958 -0.9582
 7833SOL     OW35134   3.341   2.971   6.706 -0.2853  0.1744 -0.1603
 7833SOL    HW135135   3.251   3.004   6.699 -0.2268  0.2437 -0.6035
 7833SOL    HW235136   3.371   3.022   6.781 -1.0280  0.9219 -0.3625
 7834SOL     OW35137   4.509   2.683  16.986 -0.5228  0.3005 -0.0978
 7834SOL    HW135138   4.518   2.638  16.902  0.2159  1.0724 -0.4342
 7834SOL    HW235139   4.453   2.756  16.961 -0.6335  1.2947  3.1449
 7835SOL     OW35140   1.987   3.635   8.238  0.2098 -0.0357  1.1573
 7835SOL    HW135141   1.914   3.593   8.192  1.3877 -1.0810  0.2442
 7835SOL    HW235142   2.040   3.661   8.163  0.2077  0.9850  1.5077
 7836SOL     OW35143   0.141   2.819  14.319 -0.4022 -0.0966 -0.2086
 7836SOL    HW135144   0.175   2.861  14.397  3.7612 -1.3585 -1.3456
 7836SOL    HW235145   0.227   2.794  14.287 -1.2669  1.1789 -3.5498
 7837SOL     OW35146   3.994   0.350   2.783  0.0491  0.2989  0.1434
 7837SOL    HW135147   4.039   0.372   2.701 -2.0601  1.3352 -0.7351
 7837SOL    HW235148   4.067   0.326   2.840 -0.1078  0.8516  0.5743
 7838SOL     OW35149   1.192   1.947   0.807 -0.0842 -0.3132  0.0422
 7838SOL    HW135150   1.185   2.024   0.750 -1.5600 -0.4530  0.0499
 7838SOL    HW235151   1.174   1.975   0.897  1.9165  0.0160  0.3384
 7839SOL     OW35152   1.800   3.598   3.156 -0.3160  0.0745  0.4170
 7839SOL    HW135153   1.793   3.563   3.245  2.9584 -2.8117 -0.4655
 7839SOL    HW235154   1.751   3.534   3.104  1.8240 -0.5930 -0.7454
 7840SOL     OW35155   3.145   1.959  11.214 -0.1482 -0.0348 -0.1169
 7840SOL    HW135156   3.218   1.972  11.153 -0.5684  0.7037 -0.4639
 7840SOL    HW235157   3.169   1.875  11.254  1.3870  0.8641  0.8834
 7841SOL     OW35158   2.718   0.516  12.852 -0.4854  0.2517  0.3639
 7841SOL    HW135159   2.693   0.454  12.784 -0.8604  0.4587  0.3127
 7841SOL    HW235160   2.643   0.574  12.841  0.4166  1.3444 -0.1197
 7842SOL     OW35161   3.963   3.990  10.336  0.5326  0.0145 -0.1079
 7842SOL    HW135162   3.953   4.077  10.376 -1.0962 -0.7874  1.2193
 7842SOL    HW235163   3.871   3.990  10.312  0.2615 -0.5298  0.9180
 7843SOL     OW35164   0.157   1.699   4.537 -0.7292  0.2288  0.4089
 7843SOL    HW135165   0.178   1.649   4.616  0.0861  0.0302  0.0681
 7843SOL    HW235166   0.119   1.638   4.474  1.6523 -3.5092  2.5890
 7844SOL     OW35167   3.264   0.739   1.109 -0.2636  0.5589 -0.5993
 7844SOL    HW135168   3.348   0.785   1.104  0.5379 -0.7709  0.9628
 7844SOL    HW235169   3.287   0.694   1.190 -1.5318  1.1802  0.1040
 7845SOL     OW35170   4.072   4.527   2.959  0.1098  0.0225  0.5004
 7845SOL    HW135171   4.036   4.472   2.889  0.3221  2.3660 -1.4541
 7845SOL    HW235172   4.053   4.481   3.041  3.9550  0.1887  1.4823
 7846SOL     OW35173   3.727   2.137   4.489 -0.2943 -0.2491 -0.3786
 7846SOL    HW135174   3.781   2.095   4.422  0.4627  1.3262 -0.7533
 7846SOL    HW235175   3.765   2.094   4.566  1.2093 -2.0349 -2.1267
 7847SOL     OW35176   2.796   2.847  14.532 -0.7690 -0.1578 -0.4042
 7847SOL    HW135177   2.779   2.860  14.439  1.5324  1.1107 -0.6429
 7847SOL    HW235178   2.705   2.826  14.557 -0.1437 -0.7449  1.4394
 7848SOL     OW35179   3.337   1.436   3.677  0.3968  0.3001 -0.2208
 7848SOL    HW135180   3.392   1.442   3.755 -1.9516 -2.3978  1.5961
 7848SOL    HW235181   3.396   1.476   3.612  1.2324 -1.3987 -0.5132
 7849SOL     OW35182   2.929   3.887   0.481 -0.0871 -0.3636 -0.4788
 7849SOL    HW135183   2.962   3.942   0.410  3.7793 -0.6543  1.1560
 7849SOL    HW235184   3.001   3.906   0.540 -0.4350 -1.6427  0.3594
 7850SOL     OW35185   2.714   2.270   4.259  0.4135  0.6930 -0.2645
 7850SOL    HW135186   2.663   2.324   4.199  0.5775  2.6000  1.2866
 7850SOL    HW235187   2.802   2.306   4.246  0.0077  1.8816  0.2928
 7851SOL     OW35188   2.648   4.183  13.499  0.0087 -0.0104  0.7553
 7851SOL    HW135189   2.584   4.119  13.530 -0.9414  1.7846  2.5265
 7851SOL    HW235190   2.583   4.244  13.463  1.2309  0.0595 -1.3576
 7852SOL     OW35191   0.558   1.430   6.701 -0.1702  0.1052 -0.2146
 7852SOL    HW135192   0.495   1.473   6.643 -0.1561  0.2350 -0.1328
 7852SOL    HW235193   0.547   1.336   6.689 -2.7891  0.4281 -0.4413
 7853SOL     OW35194   1.069   1.965   5.722  0.3290  0.2173 -0.2722
 7853SOL    HW135195   1.042   1.890   5.669  2.0747  0.7596 -1.9427
 7853SOL    HW235196   1.079   2.025   5.649 -0.1800  0.3479 -0.2337
 7854SOL     OW35197   0.525   4.576   8.298 -0.5628 -0.5625  0.3872
 7854SOL    HW135198   0.572   4.660   8.299 -0.9908 -0.3232  0.4887
 7854SOL    HW235199   0.437   4.611   8.284 -0.0225  0.8200  0.3902
 7855SOL     OW35200   2.772   3.892   3.962 -0.2779 -0.0403  0.4695
 7855SOL    HW135201   2.684   3.930   3.948 -0.1510 -0.1137 -0.5798
 7855SOL    HW235202   2.811   3.925   3.881 -0.8768 -0.0283  0.1830
 7856SOL     OW35203   0.073   4.528   8.624 -0.0159  0.8219  0.1740
 7856SOL    HW135204   0.063   4.623   8.624 -3.1749  0.4817 -0.1984
 7856SOL    HW235205   0.121   4.536   8.707  1.8406  4.2710 -1.2457
 7857SOL     OW35206   0.565   0.997   1.302 -0.6964  0.0287  0.4767
 7857SOL    HW135207   0.572   0.909   1.265  2.6771  0.1837  0.7465
 7857SOL    HW235208   0.633   1.038   1.248 -0.2700 -0.0642  0.9352
 7858SOL     OW35209   3.919   2.719   1.379 -0.3694  0.2816 -0.1861
 7858SOL    HW135210   3.875   2.638   1.402  1.0942 -0.4264  0.1526
 7858SOL    HW235211   3.839   2.767   1.398  0.0142  1.4291 -1.3707
 7859SOL     OW35212   4.343   1.510   4.644  0.0919 -0.4561  0.2871
 7859SOL    HW135213   4.277   1.446   4.618 -0.1046  0.4578 -1.4037
 7859SOL    HW235214   4.324   1.580   4.582  1.4183 -0.2227  0.1338
 7860SOL     OW35215   0.340   3.110  12.541  0.7523  0.6300 -0.0277
 7860SOL    HW135216   0.428   3.076  12.557 -0.8259 -3.4871 -0.1238
 7860SOL    HW235217   0.351   3.192  12.589  1.1045  0.9668 -0.6840
 7861SOL     OW35218   1.379   4.688  17.130 -0.0436 -0.1871 -0.1523
 7861SOL    HW135219   1.331   0.026  17.100 -0.9618 -0.2676  1.0777
 7861SOL    HW235220   1.329   4.619  17.086 -0.8190  0.0194  0.4064
 7862SOL     OW35221   4.437   1.790  11.910  0.0209  0.2387  0.0803
 7862SOL    HW135222   4.473   1.876  11.931  2.1003 -0.1412 -1.8159
 7862SOL    HW235223   4.466   1.786  11.818  1.0460  0.8147  0.3756
 7863SOL     OW35224   1.083   2.921   3.167 -0.2452 -0.1446 -0.4312
 7863SOL    HW135225   1.074   2.930   3.262  1.9682 -0.8684 -0.1598
 7863SOL    HW235226   1.158   2.861   3.162 -0.5256 -0.6584  1.4340
 7864SOL     OW35227   3.380   0.013  13.476  0.5217 -0.3287  0.2570
 7864SOL    HW135228   3.316   0.009  13.547 -0.7950 -0.2064 -0.9262
 7864SOL    HW235229   3.345   4.684  13.419  1.5240 -1.6042  1.1623
 7865SOL     OW35230   1.671   1.689  14.218 -0.0586 -0.4279 -0.1755
 7865SOL    HW135231   1.708   1.776  14.234  0.8539 -0.7359 -0.5926
 7865SOL    HW235232   1.582   1.718  14.201 -0.1313  0.1464  1.2130
 7866SOL     OW35233   3.163   0.482   2.396 -0.2326  0.7373 -0.4572
 7866SOL    HW135234   3.219   0.430   2.453  0.7821  0.9759 -1.2372
 7866SOL    HW235235   3.217   0.561   2.408 -0.0195  0.7040 -1.1998
 7867SOL     OW35236   3.340   3.488   2.963 -0.1311  0.1432 -0.6626
 7867SOL    HW135237   3.295   3.407   2.938  1.0571 -0.5417 -0.6000
 7867SOL    HW235238   3.336   3.482   3.058  2.0705 -0.3144 -0.6075
 7868SOL     OW35239   2.456   1.771   0.755 -0.1829  0.1180 -0.2140
 7868SOL    HW135240   2.523   1.718   0.799  0.2164  0.8378  0.0528
 7868SOL    HW235241   2.384   1.752   0.815 -1.3606 -1.4506 -2.1387
 7869SOL     OW35242   1.674   4.406  11.785  0.0859  0.5058 -0.2186
 7869SOL    HW135243   1.655   4.497  11.810 -1.4998  0.1234 -0.0419
 7869SOL    HW235244   1.723   4.361  11.853 -3.8388 -1.4744  1.2856
 7870SOL     OW35245   2.512   1.381   3.196  1.5507 -0.2602 -0.3962
 7870SOL    HW135246   2.472   1.305   3.152 -2.9546  0.6971  2.0166
 7870SOL    HW235247   2.428   1.419   3.224  0.0103 -4.3538  0.5832
 7871SOL     OW35248   1.381   0.111   4.316  0.1792  0.1856 -0.6236
 7871SOL    HW135249   1.349   0.030   4.356 -1.1536  0.6001 -0.8615
 7871SOL    HW235250   1.325   0.140   4.244  0.6177  0.1103 -0.9945
 7872SOL     OW35251   3.774   1.571   4.445  0.0345 -0.4046 -0.4041
 7872SOL    HW135252   3.730   1.553   4.361 -2.0146 -0.0580  0.5876
 7872SOL    HW235253   3.726   1.653   4.456  1.8113  0.7695 -1.4245
 7873SOL     OW35254   4.049   4.087   4.804 -0.2263  0.0688  0.5220
 7873SOL    HW135255   4.042   4.172   4.760  0.3149 -0.1672 -0.0088
 7873SOL    HW235256   3.979   4.030   4.772  0.4921  0.6412 -2.0532
 7874SOL     OW35257   2.716   3.230   2.240 -0.3173  0.5850 -0.1873
 7874SOL    HW135258   2.751   3.157   2.190 -0.6013  1.0996 -1.1391
 7874SOL    HW235259   2.665   3.282   2.178  0.5625 -0.6189 -1.9192
 7875SOL     OW35260   0.110   2.715   6.980  0.1321 -0.6388 -0.0740
 7875SOL    HW135261   0.094   2.670   6.898 -2.1561  1.2642 -0.6431
 7875SOL    HW235262   0.206   2.713   6.989  0.2032  0.6565 -0.5583
 7876SOL     OW35263   3.988   4.216  10.468 -0.3424  0.2557  0.4735
 7876SOL    HW135264   3.910   4.239  10.518  0.6097  1.1231  1.5517
 7876SOL    HW235265   4.063   4.220  10.528  1.0421 -0.4203 -1.2130
 7877SOL     OW35266   2.838   2.906   6.315  0.2679 -0.3406  0.0814
 7877SOL    HW135267   2.872   2.818   6.333  0.5327 -0.2284  0.1295
 7877SOL    HW235268   2.772   2.921   6.383  2.0158  0.5127  1.5814
 7878SOL     OW35269   0.748   0.437  10.968  0.2260  0.0201  0.4209
 7878SOL    HW135270   0.756   0.489  11.049  1.6573  3.1219 -1.6939
 7878SOL    HW235271   0.753   0.347  11.000  1.2432 -0.2747 -0.5758
 7879SOL     OW35272   2.634   0.031   0.908  0.7843  0.2768  0.0485
 7879SOL    HW135273   2.596   4.728   0.831  0.2884 -0.3904  0.6567
 7879SOL    HW235274   2.729   0.021   0.897  0.8934  0.8105  0.5184
 7880SOL     OW35275   1.367   2.964   3.984  0.2297  1.0544  0.4039
 7880SOL    HW135276   1.363   3.037   3.922  1.9022 -1.5213 -2.7403
 7880SOL    HW235277   1.273   2.970   4.004  0.2970 -0.6064  1.2793
 7881SOL     OW35278   3.929   1.581  14.044 -0.7427 -0.0061 -0.1250
 7881SOL    HW135279   3.902   1.672  14.058  0.3798  0.1596  0.9671
 7881SOL    HW235280   3.870   1.556  13.973  0.0325  0.9701 -1.1188
 7882SOL     OW35281   4.687   2.394   2.553  0.1491  0.0298  0.3501
 7882SOL    HW135282   4.612   2.415   2.609  0.9002  0.6509  1.1475
 7882SOL    HW235283   4.703   2.485   2.526  0.1683  0.0068  0.2845
 7883SOL     OW35284   4.426   2.585  11.460  0.4284  0.1017 -0.4476
 7883SOL    HW135285   4.458   2.560  11.374 -0.8605  1.3846 -1.3088
 7883SOL    HW235286   4.334   2.560  11.448 -0.2061  2.6944 -1.1329
 7884SOL     OW35287   3.500   2.883   3.178  0.5914 -0.6556  0.0628
 7884SOL    HW135288   3.453   2.802   3.156 -0.7150 -0.2085  1.2133
 7884SOL    HW235289   3.433   2.950   3.172 -0.0150 -1.3348 -0.6854
 7885SOL     OW35290   0.225   4.521  13.696 -0.7958  0.0303  0.2672
 7885SOL    HW135291   0.200   4.494  13.607  1.9133 -0.5370 -0.3453
 7885SOL    HW235292   0.189   4.609  13.687  0.2687  0.5893  1.5307
 7886SOL     OW35293   4.547   1.340  13.504  0.2899 -0.0723 -0.0630
 7886SOL    HW135294   4.497   1.416  13.535 -0.9045 -1.2165  0.8216
 7886SOL    HW235295   4.503   1.266  13.544 -2.0725  1.1208 -0.4233
 7887SOL     OW35296   2.192   1.280   7.381 -0.1359 -0.4201  0.1908
 7887SOL    HW135297   2.185   1.212   7.314 -2.0111  0.8159 -0.8870
 7887SOL    HW235298   2.108   1.322   7.363 -1.0350 -2.3526 -0.0737
 7888SOL     OW35299   2.181   1.338   0.209 -0.1724 -0.4534 -0.2135
 7888SOL    HW135300   2.182   1.434   0.205 -2.6625 -0.5257 -2.4064
 7888SOL    HW235301   2.179   1.310   0.117 -0.7129  0.3106 -0.4429
 7889SOL     OW35302   4.324   2.254   3.607  0.1013 -0.3987  0.6741
 7889SOL    HW135303   4.300   2.321   3.670  0.6016 -0.4872  0.9521
 7889SOL    HW235304   4.388   2.291   3.546 -1.5023  0.0555 -0.7440
 7890SOL     OW35305   2.882   0.185   0.936 -0.2485  0.3495  0.0550
 7890SOL    HW135306   2.894   0.249   1.007 -1.2152 -2.6185  2.8919
 7890SOL    HW235307   2.935   0.109   0.957  0.3188  0.4633 -0.9666
 7891SOL     OW35308   2.565   2.498   8.051 -0.1920 -0.5017  0.0759
 7891SOL    HW135309   2.659   2.515   8.058  0.0840 -2.4224  1.2432
 7891SOL    HW235310   2.553   2.499   8.146 -1.1248 -1.2568 -0.0240
 7892SOL     OW35311   1.559   3.610   9.872  0.1453 -0.1568 -0.1516
 7892SOL    HW135312   1.655   3.605   9.873  0.1737  0.1602 -2.2765
 7892SOL    HW235313   1.540   3.687   9.925  0.5734  0.2729 -0.6244
 7893SOL     OW35314   0.456   2.554   8.343 -0.3934 -0.4585  0.0122
 7893SOL    HW135315   0.526   2.613   8.315 -1.8672  0.9804 -0.6545
 7893SOL    HW235316   0.503   2.494   8.402  0.0608  2.2577  2.4393
 7894SOL     OW35317   1.158   3.451  10.610  0.3311  0.2422 -0.5129
 7894SOL    HW135318   1.244   3.493  10.610  0.0939  0.7239 -1.1337
 7894SOL    HW235319   1.124   3.474  10.696 -0.1395 -1.1608 -0.3215
 7895SOL     OW35320   3.495   0.548   2.121 -0.6747  0.7442 -0.4315
 7895SOL    HW135321   3.533   0.542   2.209 -1.2580 -0.5857 -0.2671
 7895SOL    HW235322   3.457   0.460   2.129 -0.8891  1.0367  1.9685
 7896SOL     OW35323   3.862   0.148   2.940  0.5713  0.1543  0.1326
 7896SOL    HW135324   3.948   0.157   2.981 -0.0040 -0.3493  1.4800
 7896SOL    HW235325   3.886   0.212   2.873 -1.7851  0.1356 -0.7472
 7897SOL     OW35326   0.208   2.360   7.841 -0.0984 -0.3582 -0.2601
 7897SOL    HW135327   0.151   2.436   7.830 -1.2614 -1.2609 -0.4865
 7897SOL    HW235328   0.203   2.333   7.933 -1.4303  1.0472  0.0697
 7898SOL     OW35329   4.261   2.649   9.330 -0.1085 -0.0281  0.1139
 7898SOL    HW135330   4.233   2.707   9.401  2.5449  1.4290  0.0014
 7898SOL    HW235331   4.222   2.563   9.341 -0.1247 -0.2314 -1.5331
 7899SOL     OW35332   4.339   1.414   6.287  0.0235 -0.1120  0.2367
 7899SOL    HW135333   4.365   1.504   6.307  2.6383 -0.7803 -0.1322
 7899SOL    HW235334   4.345   1.415   6.191  1.1146  1.5200  0.3195
 7900SOL     OW35335   2.851   1.813   6.858  0.0330 -0.4433  0.1368
 7900SOL    HW135336   2.908   1.781   6.788 -0.0063  0.5072 -0.3357
 7900SOL    HW235337   2.855   1.739   6.918  0.1741 -1.6699 -1.3784
 7901SOL     OW35338   2.816   2.118  12.759 -0.2346 -0.0386 -0.5652
 7901SOL    HW135339   2.743   2.056  12.751 -0.6410  0.3036  0.5601
 7901SOL    HW235340   2.888   2.061  12.732 -0.4642 -0.7984  0.4641
 7902SOL     OW35341   4.685   1.085   3.716 -0.2902 -0.9057 -0.6834
 7902SOL    HW135342   4.599   1.075   3.675 -0.7802  1.0807 -0.1240
 7902SOL    HW235343   4.685   1.003   3.766  0.9429 -1.1630 -1.1031
 7903SOL     OW35344   0.735   4.329   4.181 -0.9135 -0.0192 -0.2139
 7903SOL    HW135345   0.778   4.410   4.207 -2.2169 -0.0507  2.1185
 7903SOL    HW235346   0.696   4.354   4.097 -0.6730  0.2965 -0.2305
 7904SOL     OW35347   4.288   4.705  17.539 -0.3561  0.2811  0.3051
 7904SOL    HW135348   4.227   4.640  17.575 -0.2236  0.1370  0.2678
 7904SOL    HW235349   4.349   4.646  17.494 -2.3735 -1.7456  0.1991
 7905SOL     OW35350   0.030   1.024   1.885 -0.1712  0.0030  0.3249
 7905SOL    HW135351   0.114   1.053   1.849 -0.7626  1.4009  0.0601
 7905SOL    HW235352   4.702   1.080   1.846  0.4287  0.9802  0.6985
 7906SOL     OW35353   0.165   3.919   5.595 -0.6444  0.0914  0.0226
 7906SOL    HW135354   0.170   3.943   5.503 -0.1813 -1.8013 -0.4484
 7906SOL    HW235355   0.083   3.957   5.627 -1.1664  0.5036 -1.8238
 7907SOL     OW35356   2.699   4.333   7.768 -0.5658 -0.0019 -0.6532
 7907SOL    HW135357   2.697   4.290   7.683  2.0220 -0.6531 -0.3771
 7907SOL    HW235358   2.782   4.376   7.748 -0.2633 -0.2821 -0.0082
 7908SOL     OW35359   0.175   2.958  12.881 -0.3879 -0.1769  0.1788
 7908SOL    HW135360   0.133   2.872  12.882 -2.5728  0.8860 -0.9053
 7908SOL    HW235361   0.100   3.014  12.861  0.8598  0.4618 -2.6485
 7909SOL     OW35362   0.802   2.433   7.393  0.6202 -0.0770 -0.2034
 7909SOL    HW135363   0.805   2.356   7.337 -0.8976  0.3061 -0.7980
 7909SOL    HW235364   0.710   2.425   7.418  0.8004 -0.4016  0.3603
 7910SOL     OW35365   4.275   1.930  11.578  0.4984 -0.3777  0.1876
 7910SOL    HW135366   4.367   1.918  11.602  0.6055  0.7335  0.3149
 7910SOL    HW235367   4.272   2.017  11.539 -1.0502 -0.9840 -1.0454
 7911SOL     OW35368   3.847   0.053   2.426  0.4920  0.1489 -0.3334
 7911SOL    HW135369   3.812   0.139   2.449 -0.7312 -0.5150  0.3063
 7911SOL    HW235370   3.806   0.045   2.340  2.9523  1.9428 -1.6783
 7912SOL     OW35371   3.879   2.492   2.904  0.1697 -0.3146  0.0623
 7912SOL    HW135372   3.886   2.586   2.887  1.5249 -0.5927 -0.8649
 7912SOL    HW235373   3.968   2.468   2.878  0.9816 -0.3741  2.8184
 7913SOL     OW35374   3.631   3.903   5.795 -0.1583  0.0947  0.3257
 7913SOL    HW135375   3.639   3.982   5.849 -0.9586  1.8001 -2.0273
 7913SOL    HW235376   3.536   3.894   5.793 -0.1905  1.0692 -3.3835
 7914SOL     OW35377   1.742   3.402   0.936  0.0067 -0.4697 -0.3909
 7914SOL    HW135378   1.770   3.450   0.858  0.3604 -0.6596 -0.3797
 7914SOL    HW235379   1.665   3.451   0.967  0.7034 -0.2277  0.9566
 7915SOL     OW35380   2.236   1.865   2.586  0.7534  0.4009  0.3158
 7915SOL    HW135381   2.218   1.949   2.628  2.1650  0.5996  0.5056
 7915SOL    HW235382   2.226   1.813   2.666  0.7095  1.1471  0.7998
 7916SOL     OW35383   3.243   1.610   5.630 -0.0424  0.2533 -0.5185
 7916SOL    HW135384   3.155   1.620   5.665  0.5347  0.2006  0.9803
 7916SOL    HW235385   3.227   1.675   5.563 -3.1607 -0.7384 -0.7222
 7917SOL     OW35386   0.079   4.077  10.830 -0.5155 -0.0625  0.5098
 7917SOL    HW135387   0.010   4.142  10.819 -1.8396 -1.4722  0.4017
 7917SOL    HW235388   0.090   4.084  10.925  1.4925  0.2190  0.2385
 7918SOL     OW35389   2.616   1.920  12.712  0.6965 -0.4550 -0.1735
 7918SOL    HW135390   2.538   1.959  12.672 -0.2873 -1.0174  1.1906
 7918SOL    HW235391   2.577   1.843  12.754 -1.4287  0.1296 -1.0814
 7919SOL     OW35392   3.761   1.297   2.663 -0.1982  0.1487  0.6661
 7919SOL    HW135393   3.849   1.334   2.668  0.2422 -0.7004 -1.0494
 7919SOL    HW235394   3.746   1.285   2.757  0.6173  0.1779  0.7984
 7920SOL     OW35395   3.754   0.759  11.820 -0.2531  0.5922  0.3804
 7920SOL    HW135396   3.785   0.668  11.827  0.3897  1.0660  3.7327
 7920SOL    HW235397   3.665   0.745  11.789 -0.8175  3.6814  0.6320
 7921SOL     OW35398   0.077   3.500  10.476  0.1346 -0.6940 -0.0141
 7921SOL    HW135399   0.138   3.539  10.413 -2.4175 -0.4654 -2.3556
 7921SOL    HW235400   0.003   3.560  10.474 -0.7284 -1.7088  1.7483
 7922SOL     OW35401   2.616   2.120   7.497  0.0452  0.1355  0.3186
 7922SOL    HW135402   2.529   2.117   7.537 -0.3864  2.8172 -0.3967
 7922SOL    HW235403   2.609   2.174   7.418 -0.9814 -1.4253 -0.6436
 7923SOL     OW35404   0.753   0.548  16.819  0.1102 -0.6400 -0.6013
 7923SOL    HW135405   0.792   0.521  16.902  1.1689 -0.7729 -1.1363
 7923SOL    HW235406   0.694   0.477  16.792 -0.6508  0.5175 -1.9940
 7924SOL     OW35407   0.299   4.183  14.907  0.0355 -0.4582 -0.0325
 7924SOL    HW135408   0.272   4.222  14.990  1.4399 -0.6737  0.5229
 7924SOL    HW235409   0.314   4.253  14.845  0.1622 -0.9195 -0.5181
 7925SOL     OW35410   1.219   3.707   2.996  0.2428  0.6397 -0.1694
 7925SOL    HW135411   1.268   3.714   2.915  1.1213 -1.5598  0.1741
 7925SOL    HW235412   1.145   3.651   2.971  1.6068  0.0607 -2.8836
 7926SOL     OW35413   4.564   0.437   7.144 -0.0015  0.6990 -0.3743
 7926SOL    HW135414   4.640   0.383   7.165  1.6247  2.9783 -0.3237
 7926SOL    HW235415   4.506   0.369   7.111 -0.3110 -0.4121  2.4893
 7927SOL     OW35416   4.464   2.147   9.249  0.3738  0.9668  0.3473
 7927SOL    HW135417   4.549   2.189   9.260  1.1325  0.3357 -3.2332
 7927SOL    HW235418   4.474   2.128   9.156  0.2768  0.1003  0.5194
 7928SOL     OW35419   3.932   1.004   1.297  0.0453  0.0866  0.3126
 7928SOL    HW135420   3.974   1.056   1.228 -0.0814  0.5976  0.6189
 7928SOL    HW235421   3.839   1.020   1.279  0.4829 -1.3137 -3.1732
 7929SOL     OW35422   3.057   3.493   2.231  0.0139 -0.7855  0.1080
 7929SOL    HW135423   3.029   3.482   2.321  0.5312  2.8129  0.7301
 7929SOL    HW235424   3.073   3.401   2.209  2.3438 -0.2938 -0.2935
 7930SOL     OW35425   0.625   2.706   6.802  0.6094  0.1545  0.0160
 7930SOL    HW135426   0.652   2.789   6.763  0.2701  0.2436 -0.0338
 7930SOL    HW235427   0.704   2.689   6.853  0.9928  2.8491  0.3130
 7931SOL     OW35428   3.560   3.232   6.608 -0.0042  0.4493 -0.0149
 7931SOL    HW135429   3.467   3.241   6.586  0.3855  0.6357 -1.5948
 7931SOL    HW235430   3.592   3.154   6.563  1.2176  0.0797  1.5095
 7932SOL     OW35431   3.132   2.292   1.412 -0.0785 -0.0749 -0.1676
 7932SOL    HW135432   3.109   2.383   1.400  0.5016  0.4905  2.9080
 7932SOL    HW235433   3.124   2.260   1.322 -1.1507 -0.6706  0.1463
 7933SOL     OW35434   4.260   1.456   5.347 -0.5355 -0.1635  0.0961
 7933SOL    HW135435   4.190   1.521   5.337 -1.0057 -0.9384 -1.6511
 7933SOL    HW235436   4.300   1.484   5.430 -1.1890 -0.2167  0.4338
 7934SOL     OW35437   3.920   4.561   6.370 -0.2083 -0.1571  0.3065
 7934SOL    HW135438   3.981   4.622   6.328 -0.1075 -0.8129 -0.5042
 7934SOL    HW235439   3.954   4.474   6.351  1.1494  0.7208 -1.3758
 7935SOL     OW35440   2.453   1.446   7.923  0.1659  0.0069 -0.1821
 7935SOL    HW135441   2.503   1.409   7.996 -0.9940 -0.8218  0.1940
 7935SOL    HW235442   2.498   1.530   7.926  2.0241 -1.0050 -0.1980
 7936SOL     OW35443   1.260   0.650   5.735  0.3365  0.3540 -0.1842
 7936SOL    HW135444   1.296   0.731   5.770  2.2700  0.5451 -2.5602
 7936SOL    HW235445   1.278   0.658   5.641 -2.5490  0.7417 -0.7015
 7937SOL     OW35446   3.967   1.566  17.083  0.1978 -0.1417 -0.7872
 7937SOL    HW135447   4.024   1.594  17.154 -0.8693  0.0073  0.0102
 7937SOL    HW235448   4.036   1.548  17.019  0.0713  0.7166 -1.1674
 7938SOL     OW35449   4.694   3.575   7.467 -0.3527 -0.2585 -0.2197
 7938SOL    HW135450   0.019   3.504   7.473 -2.3671 -1.7842  3.4544
 7938SOL    HW235451   4.703   3.625   7.548 -1.2984  0.5232 -0.5951
 7939SOL     OW35452   3.173   3.646   4.392 -0.0365 -0.6856  0.0409
 7939SOL    HW135453   3.209   3.725   4.430 -0.1179  0.5927 -2.5443
 7939SOL    HW235454   3.254   3.605   4.364 -0.2664 -1.5272  0.5894
 7940SOL     OW35455   1.539   3.339   2.208  0.6985  0.4167  0.6667
 7940SOL    HW135456   1.454   3.348   2.166  0.2317 -1.9144  1.1465
 7940SOL    HW235457   1.532   3.388   2.291  0.9948  0.1263  0.8648
 7941SOL     OW35458   0.955   3.494   0.104 -0.4822 -0.0525 -0.1301
 7941SOL    HW135459   0.935   3.556   0.174  1.6151 -1.0366  1.3332
 7941SOL    HW235460   0.973   3.559   0.036 -0.3292  0.5117  0.4541
 7942SOL     OW35461   4.395   0.124   6.729 -0.0558  0.5576  0.1604
 7942SOL    HW135462   4.403   0.034   6.696  1.1995  0.9073 -0.4902
 7942SOL    HW235463   4.436   0.166   6.653  2.1288 -0.9082  0.5133
 7943SOL     OW35464   2.768   2.017   8.616 -0.5099 -0.2355  0.9610
 7943SOL    HW135465   2.793   1.928   8.641 -0.9442 -0.9767 -1.2327
 7943SOL    HW235466   2.714   2.006   8.539 -0.6539 -0.7595  1.1369
 7944SOL     OW35467   4.208   0.654  15.481 -0.1478  0.0862  0.0809
 7944SOL    HW135468   4.230   0.735  15.436  1.2299  0.3173  1.1316
 7944SOL    HW235469   4.245   0.681  15.566 -0.7856  0.3214  0.2812
 7945SOL     OW35470   1.364   3.299   1.870 -0.4559  0.5274  0.3796
 7945SOL    HW135471   1.306   3.327   1.941 -0.0343  0.0380  0.9270
 7945SOL    HW235472   1.361   3.203   1.876  0.3538  0.4720 -0.0433
 7946SOL     OW35473   2.291   3.913  15.012 -0.4667  0.4148  0.4074
 7946SOL    HW135474   2.328   3.856  14.944 -1.6476  0.2200 -0.0773
 7946SOL    HW235475   2.367   3.951  15.056  1.1716 -2.9178  0.3957
 7947SOL     OW35476   4.603   3.663   9.096 -0.2642 -0.0741 -0.0890
 7947SOL    HW135477   4.508   3.672   9.092 -0.2535  0.5351  0.9632
 7947SOL    HW235478   4.625   3.752   9.067  0.9984 -0.2314  0.3862
 7948SOL     OW35479   0.285   3.399   4.145  0.0204  0.6985 -0.2127
 7948SOL    HW135480   0.301   3.329   4.209 -1.2937  1.2076  0.6620
 7948SOL    HW235481   0.230   3.459   4.193 -0.7980 -1.4318  1.5154
 7949SOL     OW35482   0.441   0.500   1.679  0.7130  0.4324  0.1708
 7949SOL    HW135483   0.373   0.453   1.729 -1.0292  2.9067  0.1137
 7949SOL    HW235484   0.415   0.471   1.592 -0.0259  1.7440 -0.0453
 7950SOL     OW35485   0.009   1.500   1.369  0.2583 -0.4686 -0.0949
 7950SOL    HW135486   4.708   1.579   1.332  0.8015  0.2601  0.8767
 7950SOL    HW235487   4.677   1.457   1.417  0.3150 -1.1210 -0.5998
 7951SOL     OW35488   3.059   1.064   5.028 -0.4534  0.1271  0.4715
 7951SOL    HW135489   2.983   1.017   5.062  1.3472 -3.8877 -1.0444
 7951SOL    HW235490   3.113   0.985   5.024  0.2266  0.6247 -0.2838
 7952SOL     OW35491   4.279   4.057   8.212  0.4518  0.2859  0.6734
 7952SOL    HW135492   4.242   3.996   8.149 -1.7858  1.1741  1.1389
 7952SOL    HW235493   4.363   4.084   8.173 -0.1650  1.0355 -0.1500
 7953SOL     OW35494   0.351   2.525  13.632 -0.0509  0.4359 -0.2282
 7953SOL    HW135495   0.284   2.524  13.701  0.1573 -0.0545 -0.0291
 7953SOL    HW235496   0.313   2.467  13.565 -1.8898 -0.3218  1.4580
 7954SOL     OW35497   3.455   1.451   7.118 -0.3195 -0.4909 -0.8594
 7954SOL    HW135498   3.544   1.445   7.152 -0.8547 -1.6839  0.3946
 7954SOL    HW235499   3.464   1.509   7.043 -0.4074  0.8292  0.1447
 7955SOL     OW35500   0.069   4.045   9.250  0.3781  0.0822  0.1526
 7955SOL    HW135501   0.047   4.136   9.269 -0.3575 -0.2117  0.7206
 7955SOL    HW235502   0.149   4.034   9.302 -0.4654  0.4009  1.5132
 7956SOL     OW35503   3.758   3.778   8.898 -0.3797 -0.4143 -0.3728
 7956SOL    HW135504   3.750   3.870   8.871  0.6195 -1.2514 -3.5442
 7956SOL    HW235505   3.714   3.779   8.983  0.7775  0.8288  0.2105
 7957SOL     OW35506   0.243   3.193   8.930  0.0972 -0.6456  0.4940
 7957SOL    HW135507   0.305   3.160   8.865 -0.3547  1.7248 -1.1655
 7957SOL    HW235508   0.184   3.229   8.864  1.4486 -0.7660 -0.7610
 7958SOL     OW35509   2.410   0.881   4.842 -0.2100 -0.3546 -0.3221
 7958SOL    HW135510   2.423   0.975   4.843 -1.4839 -0.1823  0.4779
 7958SOL    HW235511   2.423   0.870   4.748 -1.4399  2.2562 -0.7863
 7959SOL     OW35512   2.166   1.167   8.067 -0.0730 -0.5111 -0.2939
 7959SOL    HW135513   2.161   1.262   8.083 -3.5732 -0.9358  0.9982
 7959SOL    HW235514   2.078   1.135   8.085  0.3569 -0.9906  1.0090
 7960SOL     OW35515   0.842   2.701   7.355 -0.1164  0.4194  0.0824
 7960SOL    HW135516   0.834   2.606   7.343 -1.0208  0.7159 -1.6316
 7960SOL    HW235517   0.750   2.713   7.379 -0.1036 -2.7235  1.7653
 7961SOL     OW35518   2.708   3.279   5.053  0.1346  0.5776  0.6382
 7961SOL    HW135519   2.779   3.312   4.998 -0.3913 -0.3440 -0.5713
 7961SOL    HW235520   2.629   3.291   5.000  0.3712 -1.7982 -0.2556
 7962SOL     OW35521   1.608   1.732   2.026  0.3217 -0.4146 -0.0498
 7962SOL    HW135522   1.552   1.685   2.089 -0.7261 -0.5001 -1.0440
 7962SOL    HW235523   1.692   1.706   2.063 -0.1838 -0.8478  0.8114
 7963SOL     OW35524   3.605   3.042   4.739 -0.7329 -0.0445  0.3924
 7963SOL    HW135525   3.651   3.074   4.662  0.2754  0.4677  1.2238
 7963SOL    HW235526   3.636   2.952   4.729 -0.0871  0.0028  1.9552
 7964SOL     OW35527   4.634   3.113  14.534 -0.1170  0.0986  0.1481
 7964SOL    HW135528   4.729   3.109  14.530 -0.1521 -0.8635  0.3898
 7964SOL    HW235529   4.612   3.174  14.463  1.3178 -0.2478 -0.5884
 7965SOL     OW35530   2.557   1.232   8.102 -0.5207 -0.1128 -0.1026
 7965SOL    HW135531   2.610   1.310   8.118  2.3301 -2.4942  1.9918
 7965SOL    HW235532   2.628   1.168   8.096  1.0253  1.6481 -0.2941
 7966SOL     OW35533   0.586   3.063  10.116  0.8576  0.4327  0.0750
 7966SOL    HW135534   0.559   3.148  10.081 -1.5837 -1.0910 -1.7200
 7966SOL    HW235535   0.544   3.005  10.053  0.2055  0.7635  0.2050
 7967SOL     OW35536   3.226   2.335   8.404  0.1355  0.2523 -0.3141
 7967SOL    HW135537   3.299   2.309   8.348  0.5420  1.1748 -0.2049
 7967SOL    HW235538   3.174   2.255   8.411  0.4120  0.1028  0.0325
 7968SOL     OW35539   4.437   1.450   9.035 -0.8395  0.0552 -0.2095
 7968SOL    HW135540   4.456   1.491   8.951  1.2032  0.9019  0.6689
 7968SOL    HW235541   4.342   1.446   9.041 -0.8350  0.3434  0.0571
 7969SOL     OW35542   0.873   3.749   2.428 -0.4465 -0.7289  0.1748
 7969SOL    HW135543   0.950   3.693   2.431 -1.2828 -1.8006  1.5725
 7969SOL    HW235544   0.807   3.698   2.476 -2.0592  2.4523  1.3938
 7970SOL     OW35545   1.835   1.690  14.696  0.1296 -0.1892 -0.6029
 7970SOL    HW135546   1.816   1.601  14.726 -0.9825  0.6909  1.2908
 7970SOL    HW235547   1.795   1.680  14.609 -0.0155  2.4480 -0.8398
 7971SOL     OW35548   2.017   2.498  16.813  0.1945  0.2547  0.0294
 7971SOL    HW135549   2.019   2.466  16.722 -2.4333 -0.8175  0.3557
 7971SOL    HW235550   2.107   2.530  16.809  0.3001 -0.2825 -1.9348
 7972SOL     OW35551   0.533   0.528   3.940  0.6217  0.2430  0.2986
 7972SOL    HW135552   0.611   0.563   3.983  0.5112 -0.1293  0.8076
 7972SOL    HW235553   0.575   0.467   3.880  1.1468  0.2066  0.7135
 7973SOL     OW35554   3.075   4.733   4.997  0.0799 -0.0662  0.3244
 7973SOL    HW135555   3.094   0.071   5.049  3.8649 -1.2258  0.6892
 7973SOL    HW235556   2.988   4.707   5.026 -0.2358 -1.1025 -1.5381
 7974SOL     OW35557   1.756   2.792   7.297 -0.2456 -0.3186  0.1408
 7974SOL    HW135558   1.846   2.823   7.291  0.4602 -2.5059 -0.4337
 7974SOL    HW235559   1.712   2.875   7.280 -0.4610 -0.4091  0.2520
 7975SOL     OW35560   3.801   4.537  16.764 -0.0122 -0.2263 -0.1557
 7975SOL    HW135561   3.729   4.529  16.826  1.0488  0.3693  1.1629
 7975SOL    HW235562   3.739   4.559  16.694 -1.8352 -0.7745  1.2861
 7976SOL     OW35563   0.746   4.200   0.903 -0.7866 -0.2723  0.2261
 7976SOL    HW135564   0.668   4.236   0.860  0.5477  2.0979 -0.2413
 7976SOL    HW235565   0.713   4.179   0.990  1.4350  0.6794  1.3054
 7977SOL     OW35566   1.909   1.665  17.538 -0.3267 -0.1304 -0.5720
 7977SOL    HW135567   1.978   1.612  17.499 -0.5357 -0.3174 -0.6886
 7977SOL    HW235568   1.932   1.631  17.625 -1.7030 -1.6051 -0.7768
 7978SOL     OW35569   2.122   2.985  16.204  0.0124 -0.0050  0.5876
 7978SOL    HW135570   2.212   2.958  16.186  0.0914  1.0910 -0.6983
 7978SOL    HW235571   2.123   2.990  16.300 -1.8855 -1.0514  0.6640
 7979SOL     OW35572   2.244   0.284  16.001 -0.2425  0.0392 -0.4354
 7979SOL    HW135573   2.321   0.326  15.963  0.6382 -0.8756  0.3130
 7979SOL    HW235574   2.209   0.365  16.039 -1.0398 -0.1141 -0.8493
 7980SOL     OW35575   2.742   4.255   8.533 -0.1289  0.1620 -0.5712
 7980SOL    HW135576   2.778   4.310   8.464 -2.5986 -0.9841 -2.7484
 7980SOL    HW235577   2.657   4.241   8.493 -0.2360 -2.2155  0.4745
 7981SOL     OW35578   3.315   2.173   1.912  0.4453 -0.2662 -0.5186
 7981SOL    HW135579   3.236   2.134   1.876 -0.1054 -0.8637  1.3034
 7981SOL    HW235580   3.364   2.219   1.845  2.6505 -1.1440  0.4870
 7982SOL     OW35581   0.908   3.498   6.669 -0.2373  0.0928  0.0017
 7982SOL    HW135582   0.987   3.526   6.716  2.1155 -2.0790 -2.6279
 7982SOL    HW235583   0.874   3.582   6.640  1.1539  0.1427 -1.5086
 7983SOL     OW35584   2.701   0.115  15.915 -0.2202  0.0638  0.1342
 7983SOL    HW135585   2.735   0.039  15.962 -0.0841  1.4371  2.2937
 7983SOL    HW235586   2.786   0.148  15.886 -1.1456 -0.9365 -3.6454
 7984SOL     OW35587   2.017   1.443   8.699  0.4208 -0.0191  0.0914
 7984SOL    HW135588   1.961   1.517   8.722  3.2309  1.7856  1.0851
 7984SOL    HW235589   2.022   1.389   8.778  1.4315 -0.9273 -0.6032
 7985SOL     OW35590   3.026   3.095   1.397  0.1333 -0.0327  0.0553
 7985SOL    HW135591   3.041   3.005   1.425 -0.3520  0.0889  0.7088
 7985SOL    HW235592   3.110   3.101   1.352 -0.2529  0.2519 -0.6194
 7986SOL     OW35593   3.465   0.930   1.009  0.7605  0.1472  0.2652
 7986SOL    HW135594   3.487   0.933   0.916 -0.2340  0.2580  0.0364
 7986SOL    HW235595   3.417   1.012   1.017 -0.8815 -0.8159  0.3462
 7987SOL     OW35596   2.272   3.289  14.350 -0.3402  0.4061  0.1171
 7987SOL    HW135597   2.328   3.357  14.388 -0.0319  0.5126 -0.5258
 7987SOL    HW235598   2.247   3.237  14.426  0.3797  0.1203  0.1614
 7988SOL     OW35599   0.686   2.947   6.699 -0.3427 -0.7193  0.5235
 7988SOL    HW135600   0.759   2.977   6.754 -0.5631  0.7237  0.0475
 7988SOL    HW235601   0.632   3.025   6.714  0.1800  0.1580 -2.1093
 7989SOL     OW35602   4.718   1.259   1.704  0.9583 -0.1245 -0.5662
 7989SOL    HW135603   4.651   1.300   1.650  1.8597  1.2394 -0.6442
 7989SOL    HW235604   0.003   1.203   1.630 -1.0632 -1.2350 -0.4018
 7990SOL     OW35605   1.857   2.890   9.567  0.0118  0.8799 -0.0735
 7990SOL    HW135606   1.886   2.806   9.602 -1.2818  0.7058  0.5800
 7990SOL    HW235607   1.766   2.888   9.594 -0.1055  1.3032 -0.4317
 7991SOL     OW35608   1.709   1.139   3.653 -0.1817 -0.0622  0.3073
 7991SOL    HW135609   1.752   1.148   3.738  1.6412 -0.9554 -0.5306
 7991SOL    HW235610   1.775   1.164   3.589 -1.3228 -0.9400 -1.2239
 7992SOL     OW35611   4.499   2.538   7.708  0.1492  0.3694  0.2480
 7992SOL    HW135612   4.549   2.457   7.720 -1.5508 -0.5930  0.8308
 7992SOL    HW235613   4.539   2.565   7.626  0.8593  1.1487  0.8481
 7993SOL     OW35614   4.590   2.581   4.094  0.5157  0.1684  0.0083
 7993SOL    HW135615   4.605   2.659   4.039  0.1718  1.0816  1.2112
 7993SOL    HW235616   4.665   2.526   4.072  0.0853 -0.3557 -0.1357
 7994SOL     OW35617   2.515   4.669  11.386  0.0111 -0.3819 -0.0587
 7994SOL    HW135618   2.429   4.711  11.381  0.0747 -0.5219 -2.3267
 7994SOL    HW235619   2.488   4.621  11.307 -2.5650 -0.3727  0.8457
 7995SOL     OW35620   0.227   2.949  16.754 -0.2883 -0.4141 -0.2170
 7995SOL    HW135621   0.240   2.949  16.660  0.2588 -3.2104 -0.1433
 7995SOL    HW235622   0.146   2.898  16.759 -1.4558  1.7593  2.9707
 7996SOL     OW35623   3.960   1.380   7.552 -0.2728  0.0614 -0.3744
 7996SOL    HW135624   3.961   1.474   7.531  0.8865 -0.5985 -3.3196
 7996SOL    HW235625   4.021   1.351   7.484 -0.2686 -1.4057  0.2749
 7997SOL     OW35626   1.185   2.413   5.854  0.3154  0.0362  0.1938
 7997SOL    HW135627   1.098   2.399   5.817  0.2811 -2.6826  1.2901
 7997SOL    HW235628   1.231   2.329   5.847  1.5608  0.6778  0.6630
 7998SOL     OW35629   2.695   1.088  12.257  0.1788 -0.2663  0.2602
 7998SOL    HW135630   2.637   1.030  12.306 -1.4304  0.3415 -0.9320
 7998SOL    HW235631   2.776   1.038  12.252  0.4592  0.2410 -0.3138
 7999SOL     OW35632   0.836   1.225  13.034 -0.6033 -0.0493 -0.2992
 7999SOL    HW135633   0.797   1.279  12.965 -1.3801 -1.0834 -0.6840
 7999SOL    HW235634   0.895   1.293  13.066 -0.7103  0.4429 -1.1352
 8000SOL     OW35635   2.732   0.941   1.291  0.8736  0.5213  0.0925
 8000SOL    HW135636   2.646   0.943   1.332  0.5203  3.3497 -0.8090
 8000SOL    HW235637   2.769   0.856   1.316 -0.3101  0.2538  0.9497
 8001SOL     OW35638   0.496   4.017  13.366 -0.0434 -0.3256 -0.1050
 8001SOL    HW135639   0.504   3.989  13.457 -0.5562  1.4983  0.4900
 8001SOL    HW235640   0.587   4.038  13.345  0.4694 -2.1299  0.3575
 8002SOL     OW35641   3.119   1.222  16.390  0.2463  0.0949 -0.0251
 8002SOL    HW135642   3.157   1.135  16.404 -0.3712  0.0038  1.1540
 8002SOL    HW235643   3.176   1.277  16.443 -0.5691  0.7865  0.1345
 8003SOL     OW35644   4.241   0.532   3.996 -0.5036  0.0991 -0.3821
 8003SOL    HW135645   4.192   0.570   4.068 -1.6920  1.6178 -1.9884
 8003SOL    HW235646   4.170   0.525   3.932 -0.1887  2.0676 -0.9447
 8004SOL     OW35647   3.995   3.932  16.695  0.1653 -0.2652 -0.6184
 8004SOL    HW135648   3.996   3.847  16.651  0.5121 -0.0225 -1.0735
 8004SOL    HW235649   4.039   3.989  16.633 -0.9930  0.7268 -0.5296
 8005SOL     OW35650   0.810   4.338   3.792 -0.3685 -0.2604  0.0246
 8005SOL    HW135651   0.795   4.353   3.698  0.1033 -2.5872 -0.4284
 8005SOL    HW235652   0.845   4.424   3.815 -1.1218 -0.9487  3.6235
 8006SOL     OW35653   4.394   1.726   3.994 -0.8310  0.2813 -0.0578
 8006SOL    HW135654   4.449   1.792   3.953 -0.6401 -1.4585 -2.5735
 8006SOL    HW235655   4.325   1.788   4.018  1.5067  2.0051  2.2100
 8007SOL     OW35656   2.252   2.482  10.763 -0.1941  0.1413  0.0225
 8007SOL    HW135657   2.328   2.540  10.761  0.1299 -0.3994 -2.5647
 8007SOL    HW235658   2.282   2.432  10.687 -1.2116 -0.3027 -0.0800
 8008SOL     OW35659   0.731   3.428  13.507 -0.2579 -0.2202  0.5084
 8008SOL    HW135660   0.790   3.450  13.435 -0.3636  1.1333  0.8355
 8008SOL    HW235661   0.786   3.386  13.573 -0.6491 -1.1125  0.2700
 8009SOL     OW35662   1.055   2.181   9.116  0.5234 -0.6153  0.0365
 8009SOL    HW135663   1.126   2.243   9.131  0.1128  0.0086 -0.5403
 8009SOL    HW235664   1.001   2.229   9.052 -1.1267 -2.3035  0.1419
 8010SOL     OW35665   1.610   3.182   3.600  0.4005 -0.2985 -0.3460
 8010SOL    HW135666   1.563   3.253   3.556 -0.9664 -1.2386 -0.4030
 8010SOL    HW235667   1.614   3.125   3.524  1.4815  1.0803 -1.3299
 8011SOL     OW35668   4.173   1.476   1.216  0.4707 -0.4582 -0.3436
 8011SOL    HW135669   4.255   1.514   1.249  0.9640 -0.7741 -1.2263
 8011SOL    HW235670   4.160   1.392   1.259  0.7715  0.0111  0.6570
 8012SOL     OW35671   0.137   3.262   1.855  0.6196  0.1619  0.2560
 8012SOL    HW135672   0.103   3.175   1.872 -0.4469  0.2004 -1.7019
 8012SOL    HW235673   0.151   3.262   1.761  0.7999 -0.8005  0.2819
 8013SOL     OW35674   1.067   0.382   6.178  0.5909 -0.3270 -0.3457
 8013SOL    HW135675   1.103   0.442   6.113  0.8211  1.5059  1.4729
 8013SOL    HW235676   1.035   0.307   6.128  2.4444 -1.3959  0.0524
 8014SOL     OW35677   4.096   1.084   0.392  0.2567 -0.0916  0.5755
 8014SOL    HW135678   4.040   1.103   0.468  0.3244 -2.1606  1.1428
 8014SOL    HW235679   4.139   1.167   0.375  1.0164 -0.5819  0.1085
 8015SOL     OW35680   2.738   3.712   7.073 -0.7887  0.1990  0.1838
 8015SOL    HW135681   2.704   3.623   7.086 -0.5283  0.2718  1.3501
 8015SOL    HW235682   2.705   3.726   6.985 -4.2128 -0.2100  1.4029
 8016SOL     OW35683   3.547   0.436  17.704 -0.2286  0.4281 -0.1356
 8016SOL    HW135684   3.628   0.468  17.665  1.3660 -0.2586  2.6282
 8016SOL    HW235685   3.566   0.344  17.721 -1.6270 -0.1656 -1.6609
 8017SOL     OW35686   0.356   1.951   1.525 -0.0132 -0.8011  0.1574
 8017SOL    HW135687   0.356   2.019   1.593  0.8638  0.6611 -1.2933
 8017SOL    HW235688   0.442   1.917   1.549 -0.3112 -0.7891  1.2581
 8018SOL     OW35689   2.415   3.554   2.351 -0.3286  0.7074  0.4333
 8018SOL    HW135690   2.387   3.464   2.370 -0.3721  0.2908 -1.5811
 8018SOL    HW235691   2.447   3.572   2.439 -3.1985  0.2379  1.5731
 8019SOL     OW35692   0.295   4.376  14.720 -0.0243 -0.0415  0.2526
 8019SOL    HW135693   0.323   4.468  14.717 -0.6261  0.1822  1.3974
 8019SOL    HW235694   0.219   4.369  14.662  0.1559 -2.2803  0.3012
 8020SOL     OW35695   1.777   1.965  14.269 -0.0880 -0.5395 -0.4134
 8020SOL    HW135696   1.801   2.057  14.268  1.2741 -0.8834  1.5880
 8020SOL    HW235697   1.695   1.964  14.319  0.3027  0.4649  0.2373
 8021SOL     OW35698   2.380   4.466   9.672 -0.5969  0.3051 -0.0983
 8021SOL    HW135699   2.323   4.390   9.663  0.0496 -0.4249  1.9415
 8021SOL    HW235700   2.444   4.454   9.602  0.7548 -2.0557  1.5431
 8022SOL     OW35701   4.438   1.680   6.236 -0.1346 -0.5127  0.0875
 8022SOL    HW135702   4.508   1.694   6.173 -0.6984  0.0343 -0.4105
 8022SOL    HW235703   4.442   1.764   6.281 -1.1051  0.5763 -1.9024
 8023SOL     OW35704   3.486   4.408   0.979 -0.0568  0.2214 -0.1441
 8023SOL    HW135705   3.564   4.357   0.959  1.1354  1.1693  2.0381
 8023SOL    HW235706   3.477   4.461   0.900 -0.2625 -1.6431 -1.3749
 8024SOL     OW35707   0.294   2.881   2.520 -0.1893  0.2452  0.7267
 8024SOL    HW135708   0.220   2.826   2.495  0.7914  0.1809 -2.0817
 8024SOL    HW235709   0.318   2.930   2.441 -2.2429 -0.4474 -0.3371
 8025SOL     OW35710   3.678   0.813  16.459  0.4217  0.4554  0.6042
 8025SOL    HW135711   3.608   0.773  16.407 -1.7616 -0.4103  4.1649
 8025SOL    HW235712   3.760   0.791  16.414 -1.1501  2.0324 -3.0563
 8026SOL     OW35713   1.714   0.885   5.607  0.3872 -0.3103  0.1452
 8026SOL    HW135714   1.764   0.942   5.548 -0.0918 -1.3039 -1.1947
 8026SOL    HW235715   1.710   0.952   5.675  2.4885 -0.8514  0.8252
 8027SOL     OW35716   2.770   3.185  11.608  0.3833 -0.0851  0.0838
 8027SOL    HW135717   2.764   3.279  11.594  1.5442 -0.3489 -2.1282
 8027SOL    HW235718   2.680   3.155  11.610  1.1509 -2.3562  1.0780
 8028SOL     OW35719   4.711   2.340   3.274 -0.1273  0.1045  0.0937
 8028SOL    HW135720   4.730   2.432   3.256  0.5698  0.3359  2.0425
 8028SOL    HW235721   0.057   2.302   3.295 -0.3678 -0.8680 -0.6890
 8029SOL     OW35722   4.107   2.714  14.946  0.1835 -0.2337 -0.3806
 8029SOL    HW135723   4.166   2.786  14.967  1.2413 -1.3384  0.4900
 8029SOL    HW235724   4.044   2.722  15.017 -1.1559  0.2525 -1.6404
 8030SOL     OW35725   2.900   4.168   3.666 -0.0439  0.3026 -0.0551
 8030SOL    HW135726   2.947   4.085   3.672 -0.1759  0.3674  2.0609
 8030SOL    HW235727   2.976   4.226   3.664 -0.3843  0.6773 -1.7193
 8031SOL     OW35728   1.986   3.744   2.993  0.0202  0.0481  0.0552
 8031SOL    HW135729   1.929   3.752   2.917  1.2545  0.6422 -0.8053
 8031SOL    HW235730   1.931   3.695   3.054  0.3409 -2.4423 -1.6967
 8032SOL     OW35731   3.147   3.630   4.887  0.2883 -0.0365  0.1975
 8032SOL    HW135732   3.168   3.719   4.915  2.1598  0.0688 -1.5189
 8032SOL    HW235733   3.141   3.586   4.972 -1.2784 -0.6110 -0.2123
 8033SOL     OW35734   0.961   4.606   6.834  0.4928  0.4154 -0.0605
 8033SOL    HW135735   0.971   4.701   6.828 -0.0818  0.4371 -0.7507
 8033SOL    HW235736   0.908   4.576   6.760 -0.8327  1.6314  0.3840
 8034SOL     OW35737   0.670   1.122  13.403 -0.3234 -0.3065 -0.1874
 8034SOL    HW135738   0.679   1.049  13.464  1.4653 -0.7742 -1.0064
 8034SOL    HW235739   0.755   1.153  13.433  0.7740 -2.4480 -1.1550
 8035SOL     OW35740   0.183   3.442  14.210 -0.6142 -0.1226  0.3619
 8035SOL    HW135741   0.212   3.481  14.127  1.1586 -3.8428 -0.7743
 8035SOL    HW235742   0.144   3.369  14.162 -0.2211 -0.3225  0.3535
 8036SOL     OW35743   0.283   2.535   6.614 -0.0852 -0.3908  0.0396
 8036SOL    HW135744   0.266   2.461   6.556 -0.5952 -0.8053  0.7129
 8036SOL    HW235745   0.345   2.502   6.679 -0.2758 -0.5052  0.1665
 8037SOL     OW35746   0.710   1.248   7.806 -0.4543 -0.2717 -0.1510
 8037SOL    HW135747   0.702   1.303   7.728  1.3287 -0.0400 -0.1730
 8037SOL    HW235748   0.629   1.198   7.793 -1.7007  1.3362  1.4625
 8038SOL     OW35749   0.907   4.500  17.059 -0.3325 -0.0651 -0.5360
 8038SOL    HW135750   0.818   4.496  17.094  0.1290  1.1235  0.7977
 8038SOL    HW235751   0.889   4.463  16.972 -1.4158  0.5441 -0.5822
 8039SOL     OW35752   2.919   0.248  15.827  0.6071  0.4013  0.4151
 8039SOL    HW135753   2.952   0.337  15.842 -1.2920  1.5173 -2.0419
 8039SOL    HW235754   2.988   0.199  15.784 -1.1608  0.0548 -2.0093
 8040SOL     OW35755   4.008   2.569   6.910  0.4049 -0.0190  0.4124
 8040SOL    HW135756   4.083   2.600   6.961  0.7141 -0.0669 -0.0076
 8040SOL    HW235757   3.954   2.523   6.974  0.2755 -0.2244  0.1572
 8041SOL     OW35758   0.792   0.436   2.604  0.1704  0.0572  0.1921
 8041SOL    HW135759   0.858   0.501   2.627  1.2099 -0.9485  0.0556
 8041SOL    HW235760   0.843   0.356   2.605  0.3038  0.1553  1.0450
 8042SOL     OW35761   1.078   3.897   2.727 -0.5045  0.0094 -0.1618
 8042SOL    HW135762   1.124   3.816   2.749 -0.5185  0.6250  2.1037
 8042SOL    HW235763   1.034   3.914   2.810 -0.2005 -0.9808  0.2059
 8043SOL     OW35764   4.592   4.075   8.716 -0.0698 -0.9637  1.1033
 8043SOL    HW135765   4.674   4.119   8.695 -0.3004 -0.9961  0.1518
 8043SOL    HW235766   4.551   4.062   8.630  0.1561 -0.3072  0.9010
 8044SOL     OW35767   1.566   4.556   2.227  0.1031  0.4484 -0.2523
 8044SOL    HW135768   1.638   4.609   2.193 -1.1881  1.5823 -1.2181
 8044SOL    HW235769   1.519   4.533   2.148 -1.2271 -3.1768  1.6053
 8045SOL     OW35770   1.315   4.290   2.475 -0.4305 -0.1262 -0.3184
 8045SOL    HW135771   1.386   4.268   2.535 -0.7512 -0.3254 -0.0135
 8045SOL    HW235772   1.282   4.375   2.503  2.6496  0.3544  1.7839
 8046SOL     OW35773   4.108   2.686  14.533  0.2470  0.2842  0.3462
 8046SOL    HW135774   4.023   2.672  14.490  0.7721 -0.9975 -0.2758
 8046SOL    HW235775   4.177   2.667  14.470 -0.8024  0.7314 -0.9546
 8047SOL     OW35776   2.255   0.038   9.422 -0.1144  0.5207 -0.3462
 8047SOL    HW135777   2.280   0.115   9.371  2.7245  0.2396  0.6082
 8047SOL    HW235778   2.238   4.722   9.346  0.7863  1.3156 -1.1322
 8048SOL     OW35779   2.662   1.847   8.960 -0.5098 -0.5250 -0.3693
 8048SOL    HW135780   2.744   1.840   9.009 -0.4519 -1.3421 -0.5811
 8048SOL    HW235781   2.625   1.759   8.970  0.0908 -0.8483 -0.9817
 8049SOL     OW35782   3.603   2.976   4.058 -0.1317  0.0781 -0.5906
 8049SOL    HW135783   3.560   2.935   3.983  2.6539 -2.6867 -0.7015
 8049SOL    HW235784   3.681   2.975   4.002  1.3402 -1.7558  1.4587
 8050SOL     OW35785   4.508   0.876   4.166  0.0830 -0.2642 -0.2665
 8050SOL    HW135786   4.455   0.950   4.137  0.9429  0.9928  1.3388
 8050SOL    HW235787   4.587   0.877   4.113  0.5429 -0.7157  0.4066
 8051SOL     OW35788   3.238   1.880   3.249  0.1482  0.4832 -0.2218
 8051SOL    HW135789   3.162   1.884   3.192  0.0182  0.0085 -0.0804
 8051SOL    HW235790   3.268   1.793   3.225  1.7968  1.8792 -3.2185
 8052SOL     OW35791   1.057   1.721   8.819 -0.5560 -0.2577 -0.8426
 8052SOL    HW135792   1.081   1.792   8.878 -0.6037 -2.7967  2.2001
 8052SOL    HW235793   1.013   1.767   8.746 -1.2498 -1.8717 -1.4427
 8053SOL     OW35794   0.699   2.570  13.838  0.0595 -0.3238 -0.2082
 8053SOL    HW135795   0.750   2.496  13.806 -1.5413 -1.4274 -0.2306
 8053SOL    HW235796   0.616   2.568  13.790 -0.9074 -1.3913  1.4605
 8054SOL     OW35797   0.188   3.127  16.950 -0.2889 -0.3541  0.9982
 8054SOL    HW135798   0.150   3.057  17.004 -1.1525  0.0998  0.9826
 8054SOL    HW235799   0.204   3.081  16.867 -2.7420  0.4702  0.0886
 8055SOL     OW35800   1.122   3.998  12.034  0.2603 -0.1078  0.0793
 8055SOL    HW135801   1.186   4.067  12.018 -0.4173  0.6994  0.8572
 8055SOL    HW235802   1.118   3.994  12.129  1.7307 -0.5259  0.1243
 8056SOL     OW35803   3.296   2.382   7.607 -0.5449 -0.0664 -0.2352
 8056SOL    HW135804   3.215   2.398   7.656  0.9816  0.7117  2.0180
 8056SOL    HW235805   3.317   2.290   7.626  0.3659  0.3063  0.5599
 8057SOL     OW35806   3.926   3.621  17.408 -0.2490  0.0808  0.2565
 8057SOL    HW135807   3.892   3.532  17.401  1.8062 -0.6979  0.0692
 8057SOL    HW235808   3.941   3.628  17.502  2.3868 -1.1608 -0.0666
 8058SOL     OW35809   2.027   3.991   1.895 -0.1661 -0.0367 -0.3471
 8058SOL    HW135810   1.947   3.965   1.940  0.3173  0.2849  0.7068
 8058SOL    HW235811   2.089   3.927   1.930  0.6333  0.1106 -1.4804
 8059SOL     OW35812   4.391   1.216   7.560 -0.2773  0.4010  0.0670
 8059SOL    HW135813   4.429   1.278   7.622 -0.3061 -0.7431  1.2421
 8059SOL    HW235814   4.464   1.215   7.499  0.0281 -0.1408  0.4412
 8060SOL     OW35815   3.091   1.842   2.533  0.0542  0.5490  0.4578
 8060SOL    HW135816   3.064   1.811   2.619 -0.2497 -1.1246 -0.2308
 8060SOL    HW235817   3.069   1.935   2.526 -5.3778 -0.8187 -0.8919
 8061SOL     OW35818   2.528   1.472   9.229  0.5625 -0.0955  0.4637
 8061SOL    HW135819   2.442   1.459   9.270  0.3126 -0.8776 -0.2863
 8061SOL    HW235820   2.593   1.475   9.299  1.8353  1.1887 -0.7614
 8062SOL     OW35821   3.868   3.340  17.340 -0.3440  0.0246 -0.0156
 8062SOL    HW135822   3.896   3.288  17.265 -2.9758 -0.3526 -0.7392
 8062SOL    HW235823   3.813   3.273  17.381 -1.1090  0.4525 -0.3280
 8063SOL     OW35824   1.199   1.031   9.427 -0.5408  0.1480  0.2884
 8063SOL    HW135825   1.257   0.967   9.468  1.9056  1.1817 -1.5800
 8063SOL    HW235826   1.175   1.076   9.508  3.8102  0.0923  1.5912
 8064SOL     OW35827   2.680   1.663  11.998  0.7393 -0.2539 -0.0290
 8064SOL    HW135828   2.654   1.732  11.937  0.7086 -0.3268 -0.0988
 8064SOL    HW235829   2.764   1.639  11.959 -0.9822 -3.9870 -1.4829
 8065SOL     OW35830   3.265   1.024   4.646  0.0448 -0.2170 -0.2052
 8065SOL    HW135831   3.178   1.058   4.663  0.0014  0.7953 -2.4685
 8065SOL    HW235832   3.247   0.930   4.642  1.2635 -0.4811  0.2830
 8066SOL     OW35833   4.303   4.097   3.211  0.0844  0.5918 -0.4107
 8066SOL    HW135834   4.334   4.130   3.126  0.4334 -2.4580 -1.4801
 8066SOL    HW235835   4.300   4.179   3.261  1.9259  0.1480  0.4378
 8067SOL     OW35836   0.437   2.618  15.217 -0.0617  0.0144  0.3128
 8067SOL    HW135837   0.509   2.652  15.164  3.1628 -4.9401  1.5457
 8067SOL    HW235838   0.420   2.536  15.170 -0.7145  0.1748  0.2645
 8068SOL     OW35839   0.448   2.927   1.980  0.3903 -0.0922  0.0575
 8068SOL    HW135840   0.478   2.840   2.005  0.6926  0.1981  0.6892
 8068SOL    HW235841   0.533   2.969   1.982 -0.3997  1.4846  0.4001
 8069SOL     OW35842   1.704   1.236  16.492  0.1301  0.3935  0.4994
 8069SOL    HW135843   1.796   1.212  16.492  0.3760  1.3248  0.1711
 8069SOL    HW235844   1.691   1.276  16.578  3.1304  0.2164  1.0219
 8070SOL     OW35845   0.783   4.074  14.828 -0.8149  0.0444  0.5516
 8070SOL    HW135846   0.728   4.057  14.752 -1.4080 -1.0804  1.2274
 8070SOL    HW235847   0.754   4.010  14.893 -3.1322  0.7537  0.1961
 8071SOL     OW35848   2.651   3.760  10.313 -0.7412  0.3544  0.0051
 8071SOL    HW135849   2.646   3.840  10.260  1.2176  0.5174  0.0727
 8071SOL    HW235850   2.601   3.697  10.259  1.4842 -2.0791  0.7909
 8072SOL     OW35851   2.077   2.636   2.539 -0.2928  0.7028 -0.5000
 8072SOL    HW135852   2.054   2.684   2.619 -2.3321 -0.5879 -0.3268
 8072SOL    HW235853   2.017   2.563   2.549  1.9126 -1.0683 -0.3392
 8073SOL     OW35854   3.971   3.227  13.213  0.2419  0.2501 -0.0869
 8073SOL    HW135855   3.891   3.203  13.165  0.0961 -0.9985  0.7736
 8073SOL    HW235856   3.935   3.205  13.299 -1.6738  1.0629 -0.6521
 8074SOL     OW35857   1.075   3.230   2.401 -0.3398 -0.3754  0.3174
 8074SOL    HW135858   1.006   3.177   2.361  0.2632  0.2140 -1.4710
 8074SOL    HW235859   1.148   3.173   2.378 -1.8476 -1.9240 -0.6342
 8075SOL     OW35860   1.481   0.367   7.562  0.0810  0.1827  0.3637
 8075SOL    HW135861   1.420   0.407   7.500  0.6656 -1.7462 -1.4547
 8075SOL    HW235862   1.507   0.445   7.612 -1.4941  0.9927 -0.0809
 8076SOL     OW35863   0.913   2.422  11.019 -0.0686 -0.2363 -0.3224
 8076SOL    HW135864   0.823   2.449  11.037  0.0311  0.1016 -0.3229
 8076SOL    HW235865   0.952   2.502  10.983  1.6182 -0.5230  0.8780
 8077SOL     OW35866   2.350   0.623   8.144 -0.3393 -0.2189  0.3623
 8077SOL    HW135867   2.360   0.664   8.230  2.1229  1.2728 -0.6288
 8077SOL    HW235868   2.271   0.570   8.148  0.4622 -1.3984  0.7730
 8078SOL     OW35869   1.179   4.168  16.840 -0.2211 -0.6782 -0.4887
 8078SOL    HW135870   1.204   4.191  16.750 -0.2543  0.3902 -0.2147
 8078SOL    HW235871   1.264   4.151  16.879  0.6270 -1.2574 -2.5775
 8079SOL     OW35872   2.645   4.369   7.349 -0.0653  0.4229 -0.0363
 8079SOL    HW135873   2.732   4.376   7.390 -0.2800  0.2836  0.4473
 8079SOL    HW235874   2.603   4.299   7.399  2.4350 -0.4892  0.8213
 8080SOL     OW35875   4.694   1.124  17.529  0.6567  0.3692  0.0597
 8080SOL    HW135876   4.610   1.130  17.575  0.7325 -1.3453  0.4257
 8080SOL    HW235877   4.682   1.048  17.472 -0.4936 -0.5149  1.4659
 8081SOL     OW35878   2.449   3.041   8.337  0.5017 -0.2686 -0.0777
 8081SOL    HW135879   2.413   2.960   8.300 -0.4798 -0.7228  1.8598
 8081SOL    HW235880   2.532   3.010   8.372  0.6013  1.0096  0.8189
 8082SOL     OW35881   0.748   4.649   9.507 -0.3349 -0.5840  0.2205
 8082SOL    HW135882   0.716   4.662   9.417  1.7172 -1.5159 -0.6388
 8082SOL    HW235883   0.796   4.567   9.513  0.5490 -0.1620 -1.0220
 8083SOL     OW35884   3.816   2.323   5.990 -0.1268  0.0320  0.9203
 8083SOL    HW135885   3.796   2.349   5.900 -0.9734  3.3775  2.0459
 8083SOL    HW235886   3.868   2.246   5.967 -2.4541 -1.3261  0.2139
 8084SOL     OW35887   3.227   0.147   8.886 -0.0583 -0.0776  0.0305
 8084SOL    HW135888   3.230   0.220   8.947  1.7676 -1.2240  1.3204
 8084SOL    HW235889   3.294   0.086   8.917 -0.3709 -0.6428 -0.4028
 8085SOL     OW35890   2.322   0.602   5.488 -0.5463  0.5895 -0.6590
 8085SOL    HW135891   2.331   0.510   5.462  0.2729  0.9941 -1.7939
 8085SOL    HW235892   2.229   0.619   5.470 -1.3628 -0.9770  2.0203
 8086SOL     OW35893   3.795   1.476   4.009 -0.2851  0.4456  0.4300
 8086SOL    HW135894   3.887   1.504   4.014 -0.0005 -0.5643  0.7552
 8086SOL    HW235895   3.785   1.410   4.077 -2.3173  0.3385  0.0100
 8087SOL     OW35896   0.167   3.872  11.903  0.5072  0.4610 -0.1819
 8087SOL    HW135897   0.167   3.963  11.933  0.9756  0.3626  0.1139
 8087SOL    HW235898   0.073   3.862  11.893  0.8403  0.1286 -2.9665
 8088SOL     OW35899   4.306   2.435   6.856  0.5552  0.1640 -0.7849
 8088SOL    HW135900   4.307   2.395   6.943 -1.2394  0.3394 -0.6789
 8088SOL    HW235901   4.379   2.496   6.861 -2.2196  3.6220 -2.4310
 8089SOL     OW35902   2.817   3.744   8.229 -0.3686 -0.8269 -0.4626
 8089SOL    HW135903   2.769   3.779   8.154 -2.3293 -0.4617  0.9546
 8089SOL    HW235904   2.749   3.684   8.260  1.0576 -0.6225  3.0717
 8090SOL     OW35905   1.051   4.104   2.547  0.0629 -0.5412  0.3584
 8090SOL    HW135906   1.110   4.175   2.569 -0.5340 -0.0624  0.3997
 8090SOL    HW235907   1.067   4.044   2.620 -0.9593 -1.0369  0.1828
 8091SOL     OW35908   0.395   0.707   1.129  0.2003 -0.0804  0.4585
 8091SOL    HW135909   0.490   0.716   1.135  0.2808 -0.4800 -0.1687
 8091SOL    HW235910   0.373   0.775   1.065  0.9408 -0.0132  0.2705
 8092SOL     OW35911   3.538   2.064   2.594 -0.9409 -0.0055  0.3286
 8092SOL    HW135912   3.476   2.136   2.597  1.2263  2.0046 -3.5899
 8092SOL    HW235913   3.519   2.016   2.675  2.4634  0.0662  1.1916
 8093SOL     OW35914   3.908   1.636  13.070 -0.1202  0.3202 -0.3061
 8093SOL    HW135915   3.978   1.696  13.095  1.6043 -1.4403 -0.8741
 8093SOL    HW235916   3.867   1.677  12.994 -1.8565  0.1480  0.5165
 8094SOL     OW35917   2.612   4.295  17.748 -0.1992 -0.6704 -0.0709
 8094SOL    HW135918   2.646   4.376   0.032 -0.6667  0.5297 -2.1199
 8094SOL    HW235919   2.542   4.271   0.053 -0.2990 -0.6143 -0.1651
 8095SOL     OW35920   3.980   0.559   3.899  0.1449 -0.5177 -0.2203
 8095SOL    HW135921   3.897   0.595   3.929  0.2691  0.5478 -1.1534
 8095SOL    HW235922   4.004   0.611   3.822  1.4881 -2.1909 -0.9370
 8096SOL     OW35923   2.397   2.738  16.355  0.1513  0.7224 -0.2561
 8096SOL    HW135924   2.320   2.775  16.398 -0.7996 -0.8667 -0.6065
 8096SOL    HW235925   2.383   2.759  16.263  0.4702  1.7122 -0.0849
 8097SOL     OW35926   1.485   1.622   6.892 -0.4672  0.0391  0.2163
 8097SOL    HW135927   1.395   1.591   6.880 -1.4492  1.9928  2.3257
 8097SOL    HW235928   1.515   1.589   6.808  1.5834 -0.6662  1.2125
 8098SOL     OW35929   0.940   0.513  11.411  0.0440 -0.1791 -0.3062
 8098SOL    HW135930   0.865   0.493  11.355 -1.4778  1.6308  1.0716
 8098SOL    HW235931   0.978   0.586  11.362 -2.2067  0.6005 -0.8765
 8099SOL     OW35932   3.003   0.401   8.837 -0.1229 -0.0561 -0.5141
 8099SOL    HW135933   2.970   0.319   8.800 -1.8460 -0.3830  1.7684
 8099SOL    HW235934   3.020   0.452   8.757 -1.2270  0.0194 -0.7003
 8100SOL     OW35935   4.356   0.198  17.436  0.2349 -0.0441  0.2331
 8100SOL    HW135936   4.280   0.231  17.387  0.6524 -0.1902 -0.5228
 8100SOL    HW235937   4.322   0.112  17.461  0.2524 -0.1612 -0.1472
 8101SOL     OW35938   1.044   4.705   0.823  0.0810  0.2093  0.4557
 8101SOL    HW135939   1.062   4.713   0.729 -4.0321 -0.3946 -0.3861
 8101SOL    HW235940   1.065   4.614   0.844 -1.2224  0.0805  1.2106
 8102SOL     OW35941   3.921   3.395   0.782 -0.4076 -0.3136  0.1127
 8102SOL    HW135942   3.830   3.385   0.809 -0.8740  1.6178 -0.7028
 8102SOL    HW235943   3.979   3.406   0.857 -0.1071  1.1104 -0.3126
 8103SOL     OW35944   4.454   2.904  14.486  0.0990 -0.1133 -0.4702
 8103SOL    HW135945   4.501   2.987  14.494 -1.6050  0.6480  1.7059
 8103SOL    HW235946   4.455   2.887  14.392 -1.5922 -0.3251 -0.4560
 8104SOL     OW35947   1.014   4.064   9.351 -0.1563  0.2632 -0.4965
 8104SOL    HW135948   0.998   4.028   9.263 -0.2913 -1.7451  0.3410
 8104SOL    HW235949   0.927   4.079   9.389  0.4738  2.8433 -0.1347
 8105SOL     OW35950   4.592   1.592   6.506 -0.1767 -0.0553  0.2577
 8105SOL    HW135951   4.654   1.575   6.434 -1.1304 -0.1096 -0.5581
 8105SOL    HW235952   4.619   1.676   6.542 -0.1328 -0.6555  1.6260
 8106SOL     OW35953   3.511   3.758   0.307  0.1627 -0.5853 -0.5147
 8106SOL    HW135954   3.560   3.750   0.224  0.2497  1.8629 -0.6880
 8106SOL    HW235955   3.447   3.687   0.305  0.3996 -0.8501  2.3165
 8107SOL     OW35956   4.165   0.690   2.431  0.3458 -0.0546 -0.0380
 8107SOL    HW135957   4.111   0.626   2.386 -0.9599  1.0816 -0.0964
 8107SOL    HW235958   4.122   0.776   2.435  0.0672 -0.1778 -0.3536
 8108SOL     OW35959   1.793   1.941   0.752 -0.1964  0.4668 -0.3067
 8108SOL    HW135960   1.722   1.963   0.813  1.2018  2.3309  0.6569
 8108SOL    HW235961   1.762   1.856   0.719 -0.1478 -0.2004  1.3278
 8109SOL     OW35962   2.032   0.432   6.968 -0.2656 -0.0965  0.7107
 8109SOL    HW135963   2.011   0.522   6.992 -1.3234  0.2812 -1.6126
 8109SOL    HW235964   2.016   0.392   7.053 -0.2241 -0.1412  0.6976
 8110SOL     OW35965   1.601   4.194  11.606 -0.2294  0.1624 -0.1726
 8110SOL    HW135966   1.669   4.139  11.645  0.2278  1.1588  0.4446
 8110SOL    HW235967   1.598   4.269  11.666  0.6994 -1.7799  2.3268
 8111SOL     OW35968   0.188   2.527   7.364  0.0524 -0.0537  0.2910
 8111SOL    HW135969   0.172   2.511   7.271 -2.5465 -0.8461  0.8768
 8111SOL    HW235970   0.151   2.447   7.401  0.8417 -0.7082 -0.3506
 8112SOL     OW35971   2.487   2.105   0.574  0.0742  0.2530  0.2627
 8112SOL    HW135972   2.511   2.153   0.494 -0.6627  1.3491  0.7093
 8112SOL    HW235973   2.402   2.137   0.605 -0.7242 -3.1798  1.5647
 8113SOL     OW35974   1.000   1.799  12.410  0.3783 -0.1208 -0.1867
 8113SOL    HW135975   0.996   1.708  12.379  0.0414  0.3243 -1.4482
 8113SOL    HW235976   0.987   1.849  12.330  0.7527 -0.6308 -0.5640
 8114SOL     OW35977   4.064   0.043   2.623  0.1286  0.5393 -0.3414
 8114SOL    HW135978   4.055   0.135   2.648  1.6163  0.8844 -1.0777
 8114SOL    HW235979   4.018   0.038   2.539 -0.4605  2.4454 -0.1308
 8115SOL     OW35980   1.891   3.358   5.856  0.3500 -0.2336  0.3696
 8115SOL    HW135981   1.929   3.437   5.819 -0.4201 -0.0356 -0.0030
 8115SOL    HW235982   1.799   3.361   5.828 -0.6672 -1.2896  3.6108
 8116SOL     OW35983   1.099   0.288   4.359 -0.8918 -0.0193 -0.3454
 8116SOL    HW135984   1.122   0.264   4.269  0.4179  1.7845 -0.4947
 8116SOL    HW235985   1.130   0.379   4.365 -1.2487  0.0352  0.6255
 8117SOL     OW35986   1.052   2.585   7.095  0.0378  0.9559 -0.2181
 8117SOL    HW135987   1.052   2.630   7.180 -1.0696 -0.6052  0.5987
 8117SOL    HW235988   1.093   2.503   7.123 -1.1427  0.1327 -0.8842
 8118SOL     OW35989   0.629   3.277  15.986 -0.1982 -0.0843  0.2674
 8118SOL    HW135990   0.544   3.320  15.991  0.6401  1.5548  0.6417
 8118SOL    HW235991   0.661   3.284  16.076  0.0170 -0.3286  0.2110
 8119SOL     OW35992   3.243   3.702   1.371 -0.6063 -0.1147 -0.1835
 8119SOL    HW135993   3.193   3.782   1.356  0.9043  0.5149 -1.8468
 8119SOL    HW235994   3.302   3.734   1.439 -2.6549  0.8536  1.1306
 8120SOL     OW35995   2.924   4.662   2.268  0.4923  0.2077  0.0800
 8120SOL    HW135996   2.921   4.670   2.364  2.2176  0.4744  0.1026
 8120SOL    HW235997   3.015   4.635   2.261  0.1274 -0.3293 -2.4025
 8121SOL     OW35998   3.937   2.044   6.176 -0.2587  0.5718  0.5784
 8121SOL    HW135999   4.005   2.020   6.239  0.3482 -1.0413 -0.7048
 8121SOL    HW236000   3.857   1.996   6.200  1.0200 -1.1405  1.3918
 8122SOL     OW36001   1.143   1.946   8.973 -0.6922 -0.8391  0.1097
 8122SOL    HW136002   1.209   1.985   8.915 -2.7169  2.5900  0.1347
 8122SOL    HW236003   1.121   2.016   9.034 -1.2251 -2.4823  1.7938
 8123SOL     OW36004   0.021   4.246   6.173  0.0001 -0.1388 -0.1671
 8123SOL    HW136005   4.726   4.276   6.257  1.4985  0.8821  0.0852
 8123SOL    HW236006   4.719   4.310   6.114  1.0494  0.4120 -0.3034
 8124SOL     OW36007   4.141   3.719  14.367 -0.1092 -0.0269 -0.1720
 8124SOL    HW136008   4.236   3.710  14.370 -0.3602 -2.0947  1.1546
 8124SOL    HW236009   4.122   3.795  14.423  1.6463  1.4718 -1.6168
 8125SOL     OW36010   0.854   1.531   9.764 -0.6012  0.3406 -0.3511
 8125SOL    HW136011   0.847   1.459   9.828  0.3888  0.7501  0.2144
 8125SOL    HW236012   0.941   1.510   9.731 -0.8185  0.1062 -0.7796
 8126SOL     OW36013   2.658   1.713  13.307 -0.5183  0.5332 -0.6556
 8126SOL    HW136014   2.568   1.699  13.278 -1.1929  2.0684  0.7214
 8126SOL    HW236015   2.703   1.636  13.273 -0.8398 -0.3833  0.9697
 8127SOL     OW36016   3.677   1.179   9.409 -0.5942  0.3303 -0.6792
 8127SOL    HW136017   3.667   1.238   9.484 -2.5234 -1.2873  0.3552
 8127SOL    HW236018   3.587   1.165   9.379 -0.1127 -0.5690 -1.7111
 8128SOL     OW36019   3.837   2.186   8.543 -0.8467 -0.4274 -0.6874
 8128SOL    HW136020   3.930   2.211   8.547 -1.0545  0.7826 -3.2230
 8128SOL    HW236021   3.805   2.250   8.607  0.0101  1.5133 -2.1723
 8129SOL     OW36022   2.182   1.124   6.602  0.3028 -0.0544 -0.5128
 8129SOL    HW136023   2.153   1.100   6.514  0.0792  0.6713 -0.6356
 8129SOL    HW236024   2.275   1.099   6.607  0.2723 -0.1878 -0.6141
 8130SOL     OW36025   2.924   2.002   9.192  0.0283  0.3454 -0.6201
 8130SOL    HW136026   2.961   1.968   9.273  0.8937  0.0526 -1.1391
 8130SOL    HW236027   2.869   1.927   9.169  0.3385 -0.9274  2.6992
 8131SOL     OW36028   0.059   1.079   5.303  0.5143 -0.0275 -0.1598
 8131SOL    HW136029   0.119   1.070   5.377 -1.0137  0.3198  1.1049
 8131SOL    HW236030   0.026   0.989   5.302  3.2741 -1.0582  2.2933
 8132SOL     OW36031   0.982   2.943   3.780  0.3525 -0.1430  0.3530
 8132SOL    HW136032   0.969   3.033   3.749  1.3839  0.9483  3.0358
 8132SOL    HW236033   0.912   2.905   3.727 -1.4245  1.9203  1.1618
 8133SOL     OW36034   0.256   4.258   9.804  0.2283  0.6035 -0.5397
 8133SOL    HW136035   0.225   4.167   9.807  2.0402  0.0413  0.9506
 8133SOL    HW236036   0.292   4.254   9.715 -0.6645 -2.3313 -0.7834
 8134SOL     OW36037   4.266   2.331   7.123 -0.6367 -0.3950 -0.2198
 8134SOL    HW136038   4.359   2.320   7.140 -0.2588 -0.7897 -2.6296
 8134SOL    HW236039   4.230   2.248   7.156 -1.6088  0.0208 -0.2294
 8135SOL     OW36040   2.256   1.858   8.725 -0.0590  0.3357  0.1807
 8135SOL    HW136041   2.249   1.833   8.817  1.1047 -0.4438  0.0650
 8135SOL    HW236042   2.323   1.922   8.750 -0.6527  1.4768 -1.1220
 8136SOL     OW36043   4.229   0.432  15.726 -0.0958  0.2890 -0.4845
 8136SOL    HW136044   4.171   0.359  15.747  1.8035 -0.4030  2.3623
 8136SOL    HW236045   4.187   0.469  15.649 -1.9945  1.5658  1.1778
 8137SOL     OW36046   4.182   3.675  11.346  0.3939 -0.0132  0.3736
 8137SOL    HW136047   4.228   3.607  11.396 -1.8525 -1.9308 -0.1310
 8137SOL    HW236048   4.138   3.621  11.280  1.0522  0.7564 -0.6798
 8138SOL     OW36049   4.517   0.183   9.700  0.1302 -0.0963 -0.1330
 8138SOL    HW136050   4.578   0.202   9.629 -1.6903  0.0880 -1.6459
 8138SOL    HW236051   4.461   0.260   9.697  0.6900  0.4414  2.7305
 8139SOL     OW36052   4.265   2.144   2.762  0.4571 -0.4574 -0.2198
 8139SOL    HW136053   4.335   2.080   2.770  0.4393 -0.5657 -0.9333
 8139SOL    HW236054   4.234   2.149   2.852 -1.0591 -0.4703 -0.7347
 8140SOL     OW36055   3.769   4.365   1.938  0.4184  0.1914 -1.0283
 8140SOL    HW136056   3.766   4.287   1.882 -0.1813  0.9384 -2.0214
 8140SOL    HW236057   3.732   4.430   1.879  0.0572  0.1610 -0.8340
 8141SOL     OW36058   0.371   3.793  11.722  0.0770  0.3565  0.1798
 8141SOL    HW136059   0.310   3.828  11.788  1.7156  1.0376  1.3292
 8141SOL    HW236060   0.429   3.750  11.785  1.1950 -0.6731 -1.5789
 8142SOL     OW36061   0.499   1.428  10.120  0.3296  1.1153 -0.1621
 8142SOL    HW136062   0.498   1.379  10.202  0.8531  4.2289  1.7166
 8142SOL    HW236063   0.592   1.410  10.112 -0.1952  0.0718 -3.8185
 8143SOL     OW36064   1.218   4.285   5.628  0.1067  0.4098 -0.5868
 8143SOL    HW136065   1.224   4.201   5.675 -0.3025 -0.0535 -1.3640
 8143SOL    HW236066   1.291   4.343   5.649 -0.3838  0.1180  1.8602
 8144SOL     OW36067   1.194   0.897  14.281 -0.4185 -0.1105 -0.5390
 8144SOL    HW136068   1.104   0.894  14.314 -0.3463  2.6186 -0.0633
 8144SOL    HW236069   1.196   0.988  14.249  2.2830  0.7041  1.9653
 8145SOL     OW36070   3.897   3.573   2.207  0.0779 -0.4658  0.1673
 8145SOL    HW136071   3.992   3.570   2.194 -0.1105 -0.8732 -1.1223
 8145SOL    HW236072   3.890   3.551   2.300 -0.0268  1.7329  0.6712
 8146SOL     OW36073   4.430   4.388   6.336  0.2304  0.8176  0.4695
 8146SOL    HW136074   4.420   4.299   6.302 -3.9487  1.0616  1.0836
 8146SOL    HW236075   4.514   4.386   6.381  0.5202 -0.7373 -0.1378
 8147SOL     OW36076   4.628   3.250   9.450  0.1024 -0.2012 -0.5001
 8147SOL    HW136077   4.560   3.185   9.468  0.7775 -1.4728 -2.6386
 8147SOL    HW236078   4.623   3.264   9.356 -0.6138 -2.8286 -0.8436
 8148SOL     OW36079   1.837   2.820   4.077  0.4686 -0.0023  0.6169
 8148SOL    HW136080   1.838   2.901   4.027  0.1177 -0.9147 -0.8638
 8148SOL    HW236081   1.743   2.809   4.093  0.2310  2.1065  0.5996
 8149SOL     OW36082   1.994   1.576   4.450  0.1357 -0.0288  0.1463
 8149SOL    HW136083   2.003   1.671   4.462 -0.2663 -0.3224  2.7742
 8149SOL    HW236084   1.968   1.541   4.535 -0.3969  1.3942  0.5783
 8150SOL     OW36085   1.973   1.154   0.700  0.1168  0.1885 -0.1464
 8150SOL    HW136086   2.067   1.134   0.709 -0.0237 -0.6521 -0.4853
 8150SOL    HW236087   1.967   1.203   0.782 -0.0417 -0.1854  0.0654
 8151SOL     OW36088   3.229   2.476   3.975 -0.5997  0.2944 -0.4498
 8151SOL    HW136089   3.246   2.509   3.887 -0.0092 -2.2150 -1.2758
 8151SOL    HW236090   3.150   2.516   4.012 -0.5952 -0.0678 -0.0505
 8152SOL     OW36091   1.238   3.443   2.648 -0.1959 -0.7114 -0.4668
 8152SOL    HW136092   1.258   3.367   2.703 -0.3381 -0.3913  0.0277
 8152SOL    HW236093   1.142   3.433   2.645 -0.1767 -1.4091  1.0078
 8153SOL     OW36094   0.179   3.183  15.288  0.3620 -0.1018  0.5256
 8153SOL    HW136095   0.212   3.168  15.377 -0.7416  0.9567  1.1072
 8153SOL    HW236096   0.092   3.218  15.303  0.8123 -0.1647  3.4289
 8154SOL     OW36097   2.872   0.755   8.659 -0.0926 -0.1498  0.2070
 8154SOL    HW136098   2.813   0.804   8.601 -2.0780 -0.7401  1.7347
 8154SOL    HW236099   2.814   0.680   8.672  0.5653 -0.5887  0.6252
 8155SOL     OW36100   0.738   4.291   3.034 -0.7369  0.2324  0.3648
 8155SOL    HW136101   0.825   4.257   3.053 -1.6057 -2.1990 -0.0443
 8155SOL    HW236102   0.750   4.300   2.939  2.0599 -0.1172  0.7042
 8156SOL     OW36103   3.889   2.597   9.170 -0.3193  0.3824 -0.0809
 8156SOL    HW136104   3.879   2.519   9.223  1.5972 -0.1607 -0.5078
 8156SOL    HW236105   3.804   2.593   9.125 -0.0544  1.3738 -0.6737
 8157SOL     OW36106   0.983   2.747   4.477  0.1689 -0.3529  0.1093
 8157SOL    HW136107   1.047   2.744   4.405 -0.7072 -1.5077 -0.6241
 8157SOL    HW236108   0.917   2.686   4.443  1.0538 -1.6148  0.6631
 8158SOL     OW36109   2.600   2.064   4.434  0.4039  0.3108 -0.1046
 8158SOL    HW136110   2.657   2.013   4.376 -0.5725 -1.7076  0.7042
 8158SOL    HW236111   2.613   2.141   4.379 -1.5808  0.2235 -0.7060
 8159SOL     OW36112   0.270   3.474   8.797 -0.0797  1.4718 -0.2900
 8159SOL    HW136113   0.196   3.461   8.738 -1.5626  0.0381  1.8670
 8159SOL    HW236114   0.226   3.521   8.869 -0.0852 -1.2372  1.4857
 8160SOL     OW36115   4.431   0.417   6.066 -0.0309 -0.7382  0.1941
 8160SOL    HW136116   4.435   0.325   6.039 -1.0433 -1.1244  1.3922
 8160SOL    HW236117   4.360   0.419   6.130 -1.5595 -3.1064 -1.3935
 8161SOL     OW36118   1.372   3.660   0.377  0.1140  0.2735  0.3429
 8161SOL    HW136119   1.447   3.673   0.435  0.3641  2.2410 -0.4051
 8161SOL    HW236120   1.412   3.701   0.301  0.6169  2.6244  1.8676
 8162SOL     OW36121   1.646   1.899  11.384  0.0738  0.0155 -0.1405
 8162SOL    HW136122   1.675   1.975  11.433 -1.2475 -0.6149  1.5911
 8162SOL    HW236123   1.729   1.851  11.373  0.8124  1.1241  0.5354
 8163SOL     OW36124   4.497   0.621   9.341 -0.2082 -0.8036 -0.2526
 8163SOL    HW136125   4.502   0.561   9.267 -1.0833 -0.0290 -0.9326
 8163SOL    HW236126   4.448   0.690   9.295  0.7166 -1.7234 -2.6056
 8164SOL     OW36127   4.091   1.868   5.711 -0.2052 -0.0816  0.4441
 8164SOL    HW136128   4.031   1.898   5.780 -1.4436  0.3555 -0.8277
 8164SOL    HW236129   4.082   1.937   5.646  0.1649  0.0220  0.5046
 8165SOL     OW36130   4.521   0.576   8.532 -0.4809  0.8211 -0.4165
 8165SOL    HW136131   4.491   0.535   8.451  0.2499 -2.6443  1.0435
 8165SOL    HW236132   4.519   0.663   8.493 -0.3530 -0.1923 -2.6725
 8166SOL     OW36133   0.649   3.880   4.871  0.0688 -0.0899 -0.2784
 8166SOL    HW136134   0.744   3.867   4.878 -0.1558 -0.5177  1.7667
 8166SOL    HW236135   0.630   3.833   4.790  0.7590 -0.8094 -0.0151
 8167SOL     OW36136   4.618   3.859   9.308 -0.5237 -0.4593  0.8748
 8167SOL    HW136137   4.626   3.800   9.234 -1.0453  0.8368 -0.2032
 8167SOL    HW236138   4.666   3.937   9.279 -1.8702  0.1055  0.1918
 8168SOL     OW36139   2.692   1.758   2.339  0.4503  0.2786 -0.0052
 8168SOL    HW136140   2.695   1.755   2.435 -2.5815  0.7690  0.1029
 8168SOL    HW236141   2.783   1.779   2.318  1.2022  0.8349  3.8806
 8169SOL     OW36142   1.662   4.175  12.034 -0.3089  0.1577 -0.6238
 8169SOL    HW136143   1.734   4.225  11.995 -0.2479 -0.6554 -1.5392
 8169SOL    HW236144   1.685   4.084  12.015 -0.6451  0.2147 -1.3214
 8170SOL     OW36145   1.142   2.588  15.154  0.5443  0.1556  0.1128
 8170SOL    HW136146   1.139   2.499  15.120  2.3363  0.3395 -0.5631
 8170SOL    HW236147   1.050   2.609  15.168  0.1862 -0.7406 -0.8782
 8171SOL     OW36148   2.333   4.692   5.813  0.0416 -0.1102 -0.0632
 8171SOL    HW136149   2.286   4.622   5.767  1.1416 -0.0882 -1.2161
 8171SOL    HW236150   2.266   0.014   5.845  1.1877  1.0070  0.1714
 8172SOL     OW36151   2.842   3.211   4.683  0.0576 -0.4646 -0.7858
 8172SOL    HW136152   2.910   3.244   4.742 -0.2537  1.9249 -1.7734
 8172SOL    HW236153   2.760   3.223   4.731  0.5597  0.8001 -0.2137
 8173SOL     OW36154   2.672   3.625   5.790  0.4141 -0.2213 -0.2547
 8173SOL    HW136155   2.709   3.537   5.781 -2.0128 -1.1843 -0.6772
 8173SOL    HW236156   2.595   3.605   5.843  1.3827  1.0057  1.6089
 8174SOL     OW36157   4.450   4.314   6.930 -0.3717  1.2096  0.1275
 8174SOL    HW136158   4.417   4.293   6.843  2.1584 -0.5660 -0.4166
 8174SOL    HW236159   4.424   4.406   6.933  0.3862  1.4614 -0.8305
 8175SOL     OW36160   2.923   2.779   3.731 -0.3172 -0.2639  0.2662
 8175SOL    HW136161   2.910   2.742   3.644 -0.9158  1.5950 -0.4375
 8175SOL    HW236162   2.845   2.833   3.749  1.1716  1.1388  2.5360
 8176SOL     OW36163   2.432   3.527  13.829  0.1089 -0.3794 -0.6529
 8176SOL    HW136164   2.415   3.439  13.863  1.9712 -0.4349  0.1244
 8176SOL    HW236165   2.399   3.508  13.741 -0.7535  0.4167 -0.5030
 8177SOL     OW36166   2.275   1.102   7.162 -0.6439 -0.6674  0.1772
 8177SOL    HW136167   2.285   1.031   7.098 -0.4968 -0.0806 -0.4533
 8177SOL    HW236168   2.261   1.168   7.094 -1.0966 -1.0968 -0.1437
 8178SOL     OW36169   0.304   3.087   9.479 -0.1471  0.1684 -0.2966
 8178SOL    HW136170   0.359   3.110   9.404  0.8414 -1.0000  0.0566
 8178SOL    HW236171   0.229   3.054   9.430  0.5800 -3.1431  0.8143
 8179SOL     OW36172   3.744   0.125   5.211 -0.1678  0.0504  0.7583
 8179SOL    HW136173   3.749   0.029   5.206  2.6322  0.2533 -0.2600
 8179SOL    HW236174   3.735   0.141   5.305 -1.6104  0.5470  0.5363
 8180SOL     OW36175   1.922   1.746   7.886  0.2519 -0.5323  0.7438
 8180SOL    HW136176   1.939   1.658   7.922  1.6001  0.3758  2.3292
 8180SOL    HW236177   2.004   1.794   7.892 -0.3367  0.3763  1.4309
 8181SOL     OW36178   0.686   2.203   3.523 -0.5583 -0.6199 -0.3794
 8181SOL    HW136179   0.763   2.174   3.475 -1.1708 -0.9819 -1.1576
 8181SOL    HW236180   0.709   2.177   3.612  1.0376 -0.1875 -0.6717
 8182SOL     OW36181   4.305   2.629   9.020 -0.1404  0.3560 -0.0920
 8182SOL    HW136182   4.283   2.635   9.113  3.2702 -0.9337  0.8114
 8182SOL    HW236183   4.400   2.636   9.021 -0.2086  1.2463 -0.0188
 8183SOL     OW36184   0.614   1.944   7.166 -0.4642 -0.2881 -0.4449
 8183SOL    HW136185   0.674   1.894   7.222  0.1619  1.9725  0.9094
 8183SOL    HW236186   0.628   1.915   7.076  0.4403  0.0607 -0.4192
 8184SOL     OW36187   2.155   2.154   7.306 -0.0900 -0.3430 -0.5451
 8184SOL    HW136188   2.242   2.145   7.266  0.8862 -0.7550  1.6901
 8184SOL    HW236189   2.169   2.219   7.375 -0.1436 -1.8279  0.8631
 8185SOL     OW36190   3.907   3.044   4.792 -0.2185 -0.2903  0.4131
 8185SOL    HW136191   3.896   3.137   4.773  0.9824 -0.3900 -0.7432
 8185SOL    HW236192   3.962   3.036   4.870  1.0111 -0.9402 -0.5211
 8186SOL     OW36193   2.611   1.030   0.350  0.1666 -0.2217 -0.0564
 8186SOL    HW136194   2.580   1.009   0.438 -1.9974  0.0273 -0.7582
 8186SOL    HW236195   2.613   1.125   0.358 -1.4173 -0.2038  0.2676
 8187SOL     OW36196   1.437   1.630  14.061 -0.2842 -0.2928 -0.1056
 8187SOL    HW136197   1.406   1.551  14.106 -0.0529 -1.2316 -1.6120
 8187SOL    HW236198   1.509   1.608  14.002  1.6969  0.4174  2.0427
 8188SOL     OW36199   0.574   4.005   8.698  0.1794 -0.6394 -0.6455
 8188SOL    HW136200   0.482   4.030   8.686  0.1126  0.3678  2.0566
 8188SOL    HW236201   0.560   3.953   8.777 -1.9623  1.3124  0.2575
 8189SOL     OW36202   1.667   0.437   5.360 -0.3981  0.0940  0.0432
 8189SOL    HW136203   1.713   0.372   5.414 -2.4974 -1.1512  0.3410
 8189SOL    HW236204   1.713   0.418   5.279 -0.4865  2.4863 -0.5635
 8190SOL     OW36205   2.423   2.792  10.072 -0.0667  0.0047  0.0793
 8190SOL    HW136206   2.421   2.874  10.122 -0.6109 -0.8770  1.4783
 8190SOL    HW236207   2.423   2.810   9.978  0.9407 -0.4018  0.0051
 8191SOL     OW36208   3.229   0.845   3.442  0.0835 -0.0477  0.1484
 8191SOL    HW136209   3.261   0.915   3.499 -0.6606  0.6258 -0.2555
 8191SOL    HW236210   3.151   0.890   3.408  0.4721 -0.1362 -0.8725
 8192SOL     OW36211   1.692   4.570   5.110 -0.8152  0.4048 -0.2020
 8192SOL    HW136212   1.646   4.585   5.028  1.0224 -2.4372 -1.7531
 8192SOL    HW236213   1.672   4.645   5.166 -0.0772  0.4320  0.0301
 8193SOL     OW36214   4.280   1.142   2.447  0.7576  0.2265  0.4301
 8193SOL    HW136215   4.214   1.078   2.421 -0.1349  0.6629  1.6762
 8193SOL    HW236216   4.232   1.189   2.515 -0.1063 -1.0377  0.7022
 8194SOL     OW36217   3.491   1.225   6.558  0.2970 -0.0768 -0.1834
 8194SOL    HW136218   3.459   1.302   6.513 -2.5026 -1.7771 -1.0692
 8194SOL    HW236219   3.550   1.274   6.615 -0.5608 -1.5277  1.9883
 8195SOL     OW36220   1.853   3.855   1.655  0.4555 -0.1790  0.2389
 8195SOL    HW136221   1.879   3.764   1.673  0.4237  0.0230  1.3008
 8195SOL    HW236222   1.781   3.863   1.717  2.0009  0.2856  1.9982
 8196SOL     OW36223   0.323   2.869   5.464  0.1346  0.1732  0.2113
 8196SOL    HW136224   0.387   2.905   5.402  0.6983 -0.4802  0.4180
 8196SOL    HW236225   0.375   2.829   5.533  1.4684 -0.3691 -1.1251
 8197SOL     OW36226   1.695   1.592   0.206 -0.1160  0.6358  0.2714
 8197SOL    HW136227   1.655   1.517   0.249  0.7754 -0.1930 -0.3378
 8197SOL    HW236228   1.691   1.650   0.282 -1.1805 -0.1461  0.7932
 8198SOL     OW36229   3.539   1.790   1.318 -0.5461 -0.2321 -0.5284
 8198SOL    HW136230   3.587   1.721   1.271 -0.0941  1.1679 -2.1250
 8198SOL    HW236231   3.560   1.777   1.410  0.7917 -1.0469 -0.9443
 8199SOL     OW36232   0.698   3.495   1.543  0.2354  0.5892 -0.0628
 8199SOL    HW136233   0.703   3.563   1.475  0.6837  2.2083  1.5900
 8199SOL    HW236234   0.771   3.440   1.515  1.6673  1.3218  2.2554
 8200SOL     OW36235   4.450   0.118  15.373  0.1451 -1.5956  0.0399
 8200SOL    HW136236   4.413   0.199  15.336  0.8220 -0.1447  2.4887
 8200SOL    HW236237   4.536   0.111  15.331  0.0335  2.7921 -1.0068
 8201SOL     OW36238   4.237   2.409   8.849  0.8120  0.4129  0.4135
 8201SOL    HW136239   4.302   2.376   8.787  1.9560  0.6568  1.4827
 8201SOL    HW236240   4.279   2.482   8.894  0.8573  1.1211 -0.7734
 8202SOL     OW36241   1.177   4.109   3.245 -0.1175  0.0094 -0.6353
 8202SOL    HW136242   1.255   4.080   3.293 -0.9667 -2.3929 -0.7096
 8202SOL    HW236243   1.116   4.128   3.317  1.5041 -1.8266  1.2537
 8203SOL     OW36244   3.256   2.067   4.946 -0.2877 -0.4262  0.5066
 8203SOL    HW136245   3.216   2.071   4.860 -1.5761 -2.8214  0.9955
 8203SOL    HW236246   3.265   2.162   4.955  3.7347 -0.6380 -1.3049
 8204SOL     OW36247   1.537   0.488   8.946 -0.3677 -0.0898 -0.0995
 8204SOL    HW136248   1.473   0.542   8.993 -1.5958  0.6153 -2.5767
 8204SOL    HW236249   1.538   0.423   9.016 -2.6561 -0.3462 -0.3063
 8205SOL     OW36250   1.205   0.308   3.711  0.0100  0.3798  0.0164
 8205SOL    HW136251   1.145   0.288   3.640  0.8649 -0.3273 -0.5020
 8205SOL    HW236252   1.196   0.403   3.712 -0.2656  0.3838 -3.1152
 8206SOL     OW36253   4.179   0.210   3.828  0.3876  0.8870 -0.0115
 8206SOL    HW136254   4.252   0.273   3.830  0.5546  0.7195 -0.9162
 8206SOL    HW236255   4.117   0.231   3.898  1.2604  2.3558  0.3227
 8207SOL     OW36256   3.431   2.084   3.217  0.2170 -0.8695  0.2067
 8207SOL    HW136257   3.367   2.136   3.264 -0.2662 -0.4335 -0.9303
 8207SOL    HW236258   3.383   2.001   3.228 -0.0580 -0.8780 -1.0275
 8208SOL     OW36259   1.168   0.694  17.478 -0.5117  0.0505  0.1609
 8208SOL    HW136260   1.127   0.751  17.543  0.8156  0.9725  0.2030
 8208SOL    HW236261   1.111   0.618  17.490 -0.4151  0.3058  2.2258
 8209SOL     OW36262   1.635   3.605   8.239  0.6095  0.1350  0.4802
 8209SOL    HW136263   1.575   3.532   8.226 -0.2458  1.0537 -0.7315
 8209SOL    HW236264   1.640   3.652   8.155 -0.6987  0.0347  0.3587
 8210SOL     OW36265   0.986   1.008   8.973  0.1845 -0.2491 -0.0665
 8210SOL    HW136266   0.909   1.026   8.919  1.1286  1.0381 -0.9867
 8210SOL    HW236267   0.966   1.066   9.047  1.1312 -1.1757  0.9214
 8211SOL     OW36268   1.370   3.461  11.779 -0.0926  0.4894 -0.7649
 8211SOL    HW136269   1.453   3.509  11.777  1.5045 -2.1098  2.2016
 8211SOL    HW236270   1.354   3.450  11.685 -0.4563 -0.9690 -0.5352
 8212SOL     OW36271   0.513   0.176   3.600 -0.1601 -0.0592  0.0138
 8212SOL    HW136272   0.504   0.177   3.695  0.3173  0.9190  0.0445
 8212SOL    HW236273   0.470   0.259   3.579 -1.4059 -1.2491 -2.1672
 8213SOL     OW36274   3.654   3.166  17.450 -0.2372 -0.0662 -0.2119
 8213SOL    HW136275   3.559   3.162  17.439 -0.1939  0.5685 -0.8025
 8213SOL    HW236276   3.664   3.170  17.545 -1.8034 -2.0201  0.0302
 8214SOL     OW36277   2.337   2.946   4.501 -0.5859  0.0142 -0.3207
 8214SOL    HW136278   2.272   3.010   4.529 -0.8751 -0.4566  0.0903
 8214SOL    HW236279   2.317   2.872   4.558  0.7177 -1.3287 -1.6036
 8215SOL     OW36280   4.203   2.542   8.120  0.5304  0.1851  0.7538
 8215SOL    HW136281   4.178   2.465   8.171 -0.9369  1.5826  2.1482
 8215SOL    HW236282   4.288   2.515   8.085 -1.1084 -0.2017 -2.8627
 8216SOL     OW36283   2.973   1.521   6.968  0.0941  0.3631  0.0181
 8216SOL    HW136284   3.047   1.477   7.009  0.6755 -0.0573 -1.4921
 8216SOL    HW236285   2.902   1.491   7.025 -1.0708  3.0815  0.0155
 8217SOL     OW36286   2.033   4.074  16.369  0.4475 -0.2233  0.2206
 8217SOL    HW136287   1.996   4.096  16.455  0.4335 -0.8205  0.3676
 8217SOL    HW236288   2.093   4.005  16.397  0.0788 -1.4471 -2.0253
 8218SOL     OW36289   2.363   1.718   4.538 -0.0444  0.6951  0.5091
 8218SOL    HW136290   2.351   1.647   4.601  1.2521  0.7688  0.8425
 8218SOL    HW236291   2.403   1.785   4.593  1.2797 -0.8273  1.3940
 8219SOL     OW36292   0.996   3.436  15.056 -0.0948 -0.4186  0.5441
 8219SOL    HW136293   1.048   3.385  14.993  0.8351  0.7357  0.3817
 8219SOL    HW236294   0.922   3.460  15.001  0.3680  0.2156  0.2047
 8220SOL     OW36295   1.895   0.883   5.140 -0.4541 -0.0112  0.4417
 8220SOL    HW136296   1.858   0.808   5.186 -0.0679 -0.4841 -0.0349
 8220SOL    HW236297   1.925   0.943   5.209  1.8525 -0.6614 -0.0077
 8221SOL     OW36298   0.788   1.578  10.116 -1.1094 -0.3193 -0.3809
 8221SOL    HW136299   0.792   1.627  10.199 -0.4722 -1.9127  0.5337
 8221SOL    HW236300   0.871   1.603  10.075 -1.5974  0.0863 -1.1168
 8222SOL     OW36301   2.221   3.880  16.442  0.1706  0.2020 -0.4386
 8222SOL    HW136302   2.221   3.784  16.442 -1.2235  0.2049  0.7579
 8222SOL    HW236303   2.309   3.913  16.424  0.8552 -1.3008  0.1301
 8223SOL     OW36304   4.189   2.012   1.720  0.0866 -0.2529  0.5285
 8223SOL    HW136305   4.256   2.080   1.709  1.9006 -2.0139  0.7311
 8223SOL    HW236306   4.187   2.004   1.816  0.4370 -2.2299  0.3810
 8224SOL     OW36307   3.478   3.938   4.103  0.2351 -0.3309 -0.4148
 8224SOL    HW136308   3.538   3.991   4.050  2.6009 -1.0356  1.5998
 8224SOL    HW236309   3.463   3.869   4.039  1.4128 -0.8385 -0.1441
 8225SOL     OW36310   4.710   2.954  14.133 -0.7331 -0.3525  0.6376
 8225SOL    HW136311   0.034   2.924  14.198  1.2050 -0.8093 -1.4848
 8225SOL    HW236312   0.000   3.043  14.115 -1.5337 -0.0368  0.8669
 8226SOL     OW36313   2.820   2.311   1.380  0.0647 -0.2114  0.4287
 8226SOL    HW136314   2.758   2.384   1.387 -0.5127 -0.9293  2.6607
 8226SOL    HW236315   2.790   2.254   1.450 -1.2597 -0.2300 -0.1537
 8227SOL     OW36316   0.359   4.704   5.501 -0.2267 -0.0376  0.0336
 8227SOL    HW136317   0.275   4.659   5.508  0.3275 -0.7537  2.1626
 8227SOL    HW236318   0.380   4.709   5.408  0.1566 -0.1960  0.1098
 8228SOL     OW36319   3.627   3.241   3.018 -0.1879 -0.6471 -0.5299
 8228SOL    HW136320   3.537   3.215   3.038 -0.7101  1.9800  0.5511
 8228SOL    HW236321   3.632   3.296   3.096 -3.7839 -2.3953  0.9151
 8229SOL     OW36322   0.575   4.259   5.996  0.2161 -0.3600  0.4146
 8229SOL    HW136323   0.581   4.354   5.994  0.0268 -0.3680 -0.5295
 8229SOL    HW236324   0.663   4.237   5.963 -0.0861  0.9417 -1.2303
 8230SOL     OW36325   0.120   1.262   8.804  0.3791 -0.1016 -0.1070
 8230SOL    HW136326   0.098   1.331   8.866 -0.9766 -1.1366  0.5746
 8230SOL    HW236327   0.045   1.203   8.799 -0.5099  1.0223 -0.0262
 8231SOL     OW36328   0.549   0.329   2.568 -0.3029 -0.6151 -0.0718
 8231SOL    HW136329   0.636   0.356   2.599 -1.2645  0.6134  1.5763
 8231SOL    HW236330   0.516   0.419   2.561  2.8345  0.4550 -1.2786
 8232SOL     OW36331   2.739   2.173   1.595 -0.5061  0.0072  0.3483
 8232SOL    HW136332   2.771   2.094   1.639  0.6680  0.5605  0.5106
 8232SOL    HW236333   2.666   2.194   1.653 -0.9999  1.0154 -0.6368
 8233SOL     OW36334   4.294   2.838   1.504 -1.2374  0.0795  0.0198
 8233SOL    HW136335   4.312   2.932   1.511  1.2298 -0.4814  1.4856
 8233SOL    HW236336   4.310   2.816   1.413 -0.9275  0.2268  0.0355
 8234SOL     OW36337   1.953   2.895  10.196  0.1953  0.3174  1.1566
 8234SOL    HW136338   2.032   2.943  10.169 -0.0243 -0.5399 -0.9974
 8234SOL    HW236339   1.994   2.820  10.239  0.7233  1.0318  1.9076
 8235SOL     OW36340   2.756   4.037   6.282  0.5916 -0.1279  0.0140
 8235SOL    HW136341   2.773   4.023   6.189  0.2090 -1.8471  0.2145
 8235SOL    HW236342   2.751   4.132   6.297  1.6922 -0.4053  2.2137
 8236SOL     OW36343   4.442   1.374   2.800  0.3096  0.1706  0.1340
 8236SOL    HW136344   4.443   1.453   2.745  1.0756 -0.7635 -1.2050
 8236SOL    HW236345   4.361   1.386   2.850  0.0722 -0.0813 -0.1825
 8237SOL     OW36346   1.754   0.728   6.885  0.5394  0.7835 -0.6401
 8237SOL    HW136347   1.659   0.729   6.877  0.6565 -0.8804 -2.3889
 8237SOL    HW236348   1.750   0.642   6.927 -2.2105  0.7435 -1.0090
 8238SOL     OW36349   3.293   4.723   2.928 -0.1396  0.3424  0.5901
 8238SOL    HW136350   3.358   4.672   2.977  1.2464  0.7155 -0.8746
 8238SOL    HW236351   3.216   4.673   2.956  0.5994 -1.7151 -1.0490
 8239SOL     OW36352   3.695   4.139   5.929 -0.1460  0.0083 -0.1732
 8239SOL    HW136353   3.766   4.165   5.987 -0.2827 -1.7495  0.7745
 8239SOL    HW236354   3.706   4.207   5.863 -0.9134 -1.6023 -1.9360
 8240SOL     OW36355   3.521   0.565   4.770  0.0518  0.3691 -0.5026
 8240SOL    HW136356   3.427   0.550   4.767  0.2303 -0.9040  0.1748
 8240SOL    HW236357   3.524   0.656   4.739  2.6278  0.4378 -0.0402
 8241SOL     OW36358   3.472   2.622   2.686 -0.1990 -0.1591  0.6619
 8241SOL    HW136359   3.521   2.549   2.725 -0.1801 -0.6089 -0.1958
 8241SOL    HW236360   3.540   2.653   2.625  2.4189 -1.1194  3.0888
 8242SOL     OW36361   2.716   2.568   2.676 -0.0774 -0.1570  0.2649
 8242SOL    HW136362   2.645   2.613   2.722 -0.9458 -0.6404 -0.5898
 8242SOL    HW236363   2.771   2.643   2.653 -0.1323 -0.2134 -0.0569
 8243SOL     OW36364   3.940   0.631  14.377  0.2372 -0.3121 -0.2477
 8243SOL    HW136365   4.013   0.692  14.379  0.5849 -0.6686 -2.4921
 8243SOL    HW236366   3.957   0.579  14.299  0.0237  2.5526 -2.1780
 8244SOL     OW36367   3.024   3.010   9.588 -0.1197 -0.4056 -0.0931
 8244SOL    HW136368   3.073   3.079   9.633 -0.1222  0.7531 -1.8762
 8244SOL    HW236369   2.984   2.971   9.666  0.4611  1.1572  0.9985
 8245SOL     OW36370   1.950   1.849   1.235  0.0364 -0.1924  0.4935
 8245SOL    HW136371   1.978   1.765   1.271  1.0711 -0.2158 -0.3826
 8245SOL    HW236372   1.941   1.824   1.143  0.1885  0.1568  0.3839
 8246SOL     OW36373   0.927   2.930   5.064  0.2731  0.0413 -0.2458
 8246SOL    HW136374   0.887   2.914   4.979  0.7594 -0.4276 -0.3879
 8246SOL    HW236375   0.954   3.021   5.051  0.8595 -0.2624 -1.1337
 8247SOL     OW36376   4.364   2.510   2.537 -0.5020 -0.1049  0.3501
 8247SOL    HW136377   4.270   2.517   2.550 -0.6036  2.1509 -1.4523
 8247SOL    HW236378   4.387   2.603   2.542  0.5421 -0.3038 -0.6601
 8248SOL     OW36379   0.008   1.630   2.316 -0.5771 -0.6304 -0.2668
 8248SOL    HW136380   4.653   1.645   2.304 -0.0601  3.1805  0.5751
 8248SOL    HW236381   0.052   1.707   2.281 -0.0725 -1.2708 -1.0333
 8249SOL     OW36382   2.144   4.212   4.815  0.3619 -0.3164 -0.1749
 8249SOL    HW136383   2.181   4.296   4.842 -1.3493  0.3873 -0.0206
 8249SOL    HW236384   2.086   4.197   4.889  0.4118 -2.1824 -0.5004
 8250SOL     OW36385   0.273   3.552   3.902  0.6591 -0.4956  0.5386
 8250SOL    HW136386   0.236   3.506   3.977  3.2054  0.4045  2.3511
 8250SOL    HW236387   0.349   3.597   3.940  1.4030 -0.1206 -1.3671
 8251SOL     OW36388   0.410   4.521  17.676  0.1488  0.1044 -0.1525
 8251SOL    HW136389   0.504   4.529  17.662  0.4344 -1.9829  0.6962
 8251SOL    HW236390   0.380   4.600  17.631 -0.0366  0.5702  0.7902
 8252SOL     OW36391   1.420   0.126   5.937  0.4089 -0.4414 -0.1554
 8252SOL    HW136392   1.331   0.147   5.909  0.6333  0.9201  0.1514
 8252SOL    HW236393   1.400   0.096   6.026  1.0127 -1.4689 -0.3572
 8253SOL     OW36394   2.700   0.444  16.036 -0.0458  0.0922 -0.6664
 8253SOL    HW136395   2.741   0.501  15.970 -2.4639 -0.9218 -3.0007
 8253SOL    HW236396   2.714   0.503  16.110 -2.7431 -0.2978  0.1520
 8254SOL     OW36397   4.528   1.778   2.005  0.4570  0.1419 -0.1419
 8254SOL    HW136398   4.572   1.761   1.922  0.9081 -1.1981  0.3786
 8254SOL    HW236399   4.585   1.848   2.037  0.2254  0.4380 -0.3734
 8255SOL     OW36400   1.468   0.908   9.568  0.8253 -0.5453 -0.3491
 8255SOL    HW136401   1.494   0.996   9.597  2.4100 -1.7325  1.7514
 8255SOL    HW236402   1.427   0.871   9.645  1.5590  1.3957  0.9741
 8256SOL     OW36403   4.049   4.337   3.150  0.1581  0.2893  0.2570
 8256SOL    HW136404   4.059   4.274   3.221  1.9061  0.0041 -0.2256
 8256SOL    HW236405   4.037   4.275   3.077 -1.3222 -0.6010  1.2691
 8257SOL     OW36406   0.764   1.946  12.539 -0.3017 -0.0947 -0.0854
 8257SOL    HW136407   0.816   1.973  12.463  0.6807  1.3995  1.1234
 8257SOL    HW236408   0.772   1.851  12.525  2.3942  0.3907 -1.8268
 8258SOL     OW36409   2.098   2.825   8.970 -0.1909 -0.3652 -0.1581
 8258SOL    HW136410   2.132   2.779   9.047 -1.7244  1.3148  1.5284
 8258SOL    HW236411   2.169   2.884   8.946  0.0939  0.3976  2.5187
 8259SOL     OW36412   3.961   3.085   2.895 -0.5193 -0.1367 -0.1433
 8259SOL    HW136413   3.949   3.143   2.970  2.0742  0.5562 -0.2393
 8259SOL    HW236414   4.050   3.109   2.868  0.0134 -0.2513  1.4856
 8260SOL     OW36415   2.345   0.896  11.669 -0.3795  0.1084 -0.3758
 8260SOL    HW136416   2.389   0.845  11.601 -1.5800 -0.5504 -0.6520
 8260SOL    HW236417   2.394   0.979  11.671 -0.7100  0.2451  2.1093
 8261SOL     OW36418   2.980   2.590   1.151 -0.0622  0.1156  0.4371
 8261SOL    HW136419   2.993   2.632   1.066 -1.1386 -0.9958 -0.2620
 8261SOL    HW236420   2.937   2.660   1.200  0.8238  1.2090 -0.3374
 8262SOL     OW36421   0.126   3.639   2.919  0.0137  0.3273 -0.0513
 8262SOL    HW136422   0.048   3.669   2.872  0.1626 -0.4982 -0.8356
 8262SOL    HW236423   0.086   3.645   3.005 -0.6736  0.8459 -0.4011
 8263SOL     OW36424   3.922   4.308  14.155  0.0245  0.4572  0.0833
 8263SOL    HW136425   3.838   4.263  14.162 -1.3331  2.5980 -2.1213
 8263SOL    HW236426   3.911   4.366  14.079 -0.1857  0.1122 -0.1457
 8264SOL     OW36427   1.676   2.494   5.679 -0.6598 -0.1764 -0.0422
 8264SOL    HW136428   1.660   2.416   5.732 -0.3751  0.0416  0.3564
 8264SOL    HW236429   1.764   2.519   5.706 -0.4689  1.1290 -1.8377
 8265SOL     OW36430   1.992   0.359   4.865 -0.0111  0.3400 -0.5382
 8265SOL    HW136431   2.068   0.416   4.852  0.9246 -0.6429  0.5380
 8265SOL    HW236432   2.023   0.273   4.834 -3.5869 -0.0254 -3.0456
 8266SOL     OW36433   4.355   1.146   8.588  0.2401 -0.6023 -0.4565
 8266SOL    HW136434   4.417   1.216   8.609  1.5859 -1.7845 -0.5073
 8266SOL    HW236435   4.283   1.155   8.651  2.2393  0.8396  1.6310
 8267SOL     OW36436   1.233   1.557   6.831 -0.8605  0.7353 -0.5461
 8267SOL    HW136437   1.177   1.632   6.854  0.2216  1.0631  1.0643
 8267SOL    HW236438   1.214   1.555   6.737 -0.2441  0.4250 -0.6604
 8268SOL     OW36439   4.161   3.292   2.075 -0.7815 -0.3958 -0.6059
 8268SOL    HW136440   4.237   3.251   2.115  0.7448  1.3138 -1.7914
 8268SOL    HW236441   4.172   3.272   1.983 -1.7969 -1.1069 -0.5775
 8269SOL     OW36442   2.435   3.468  14.523  0.6119  0.2330  0.3134
 8269SOL    HW136443   2.491   3.546  14.528 -0.4505  1.1221 -1.4498
 8269SOL    HW236444   2.411   3.461  14.615 -1.1501 -2.3042 -0.3529
 8270SOL     OW36445   2.549   3.731   6.365 -0.1127 -0.1804  0.1992
 8270SOL    HW136446   2.486   3.774   6.307  0.3817  0.6893  0.3146
 8270SOL    HW236447   2.545   3.793   6.438 -2.9862  1.9194 -1.7356
 8271SOL     OW36448   0.722   4.651   6.423 -0.1732  0.4590  0.1709
 8271SOL    HW136449   0.669   4.603   6.360  1.4321  1.9416 -2.3131
 8271SOL    HW236450   0.683   4.739   6.414  0.1604  0.6710  0.7952
 8272SOL     OW36451   0.063   2.426   3.974 -0.5130 -0.0027  0.5273
 8272SOL    HW136452   0.067   2.482   3.897 -0.8272  0.4388  0.8251
 8272SOL    HW236453   0.089   2.337   3.951 -0.8904 -0.9249  3.5842
 8273SOL     OW36454   1.384   1.921   5.776  0.1942 -0.7544  0.3890
 8273SOL    HW136455   1.402   1.899   5.685 -2.1284  1.8125 -0.6684
 8273SOL    HW236456   1.304   1.873   5.799  0.3788 -0.5228  1.5322
 8274SOL     OW36457   1.301   0.339   2.002 -0.0574 -0.2259 -0.1076
 8274SOL    HW136458   1.207   0.357   1.992 -0.1923  0.1953  1.8850
 8274SOL    HW236459   1.299   0.252   2.041 -0.0929 -0.3625 -0.4185
 8275SOL     OW36460   2.317   3.107   1.122  0.2158 -0.0838 -0.0205
 8275SOL    HW136461   2.251   3.075   1.184 -1.9836  3.5259 -0.4688
 8275SOL    HW236462   2.261   3.133   1.048  1.1069  2.0082  0.0508
 8276SOL     OW36463   4.533   2.470   6.513 -0.6103  0.3427  0.5326
 8276SOL    HW136464   4.472   2.401   6.540  0.5447 -0.0515  2.1598
 8276SOL    HW236465   4.475   2.547   6.510 -0.9578  0.1471  2.2344
 8277SOL     OW36466   4.045   0.887   5.470  0.0141  0.7910  0.0364
 8277SOL    HW136467   4.097   0.808   5.462  0.9909  1.4556 -0.2518
 8277SOL    HW236468   4.007   0.874   5.557  0.2464  0.8705  0.1505
 8278SOL     OW36469   2.238   3.356   2.019 -0.4909 -0.2524  0.1688
 8278SOL    HW136470   2.231   3.262   2.003 -1.6520  0.2216 -2.0550
 8278SOL    HW236471   2.149   3.385   1.997 -0.0377  1.7987  0.9646
 8279SOL     OW36472   0.671   2.913   5.735 -0.1766  0.5039  0.0196
 8279SOL    HW136473   0.712   2.832   5.704 -1.6659  0.2332 -1.2157
 8279SOL    HW236474   0.602   2.874   5.789  0.4575  0.0237  0.4768
 8280SOL     OW36475   0.908   4.035   1.771 -0.3716 -0.7640  0.3411
 8280SOL    HW136476   0.890   4.013   1.680 -1.7986  0.6532  0.2829
 8280SOL    HW236477   0.837   4.098   1.783  1.3130  1.3223 -0.6143
 8281SOL     OW36478   0.809   0.727   9.342 -0.2865  0.7155 -0.2157
 8281SOL    HW136479   0.714   0.721   9.347 -0.3070  1.0431 -0.2109
 8281SOL    HW236480   0.820   0.814   9.380  0.9383  0.8208 -0.7854
 8282SOL     OW36481   4.301   4.525  13.480 -0.5404  0.0239 -0.0356
 8282SOL    HW136482   4.309   4.431  13.492 -0.3645  0.0370 -0.0522
 8282SOL    HW236483   4.309   4.554  13.571 -1.0575  1.3839 -0.4210
 8283SOL     OW36484   2.074   1.424   8.110  0.1228 -0.5571 -0.2924
 8283SOL    HW136485   1.995   1.377   8.085 -0.8928 -0.4413  2.7314
 8283SOL    HW236486   2.056   1.472   8.191 -0.1185 -0.8238 -0.1882
 8284SOL     OW36487   1.105   2.255   8.385 -0.0943  0.6187  0.6311
 8284SOL    HW136488   1.053   2.212   8.317 -1.3387 -0.5347  2.3260
 8284SOL    HW236489   1.167   2.302   8.329 -1.2270 -0.7002 -1.7190
 8285SOL     OW36490   4.101   1.770  13.325 -0.0277  0.1571  0.3622
 8285SOL    HW136491   4.068   1.695  13.374  0.3030 -1.2098 -1.4849
 8285SOL    HW236492   4.193   1.752  13.308 -0.4978 -1.1575 -0.7782
 8286SOL     OW36493   1.216   1.801  14.060  0.2596  0.5265  0.0122
 8286SOL    HW136494   1.193   1.781  13.969 -1.6278 -1.9879  1.0670
 8286SOL    HW236495   1.293   1.745  14.068 -0.2566 -0.0136  1.0782
 8287SOL     OW36496   4.507   1.969   7.942 -0.1838  0.1031  0.0928
 8287SOL    HW136497   4.454   1.964   8.021 -1.0941  0.0953 -0.5149
 8287SOL    HW236498   4.587   2.013   7.971  0.5915 -0.0989 -1.7277
 8288SOL     OW36499   2.219   0.947  10.884 -0.2239 -0.1316  0.3630
 8288SOL    HW136500   2.289   1.011  10.870  0.3330 -1.2014 -1.8725
 8288SOL    HW236501   2.178   0.976  10.965  1.1001 -0.3455  1.1125
 8289SOL     OW36502   4.254   1.547  11.865 -0.7651 -0.0163  0.4166
 8289SOL    HW136503   4.302   1.629  11.873  0.5885 -0.7254 -0.4096
 8289SOL    HW236504   4.289   1.515  11.782 -0.1892  2.9974 -0.5009
 8290SOL     OW36505   0.040   2.428  16.792 -0.5383  0.0179  0.7949
 8290SOL    HW136506   0.135   2.435  16.785 -0.6057 -0.1099 -0.2954
 8290SOL    HW236507   0.015   2.482  16.717 -0.3487 -1.1448 -0.1116
 8291SOL     OW36508   0.924   0.064   2.860  0.2620  0.3120  0.6833
 8291SOL    HW136509   0.975   0.106   2.929  1.1621 -1.4045  1.0632
 8291SOL    HW236510   0.864   0.136   2.839  0.3828  0.1184 -0.3150
 8292SOL     OW36511   3.965   1.501  11.401 -0.2921 -0.4096 -0.5331
 8292SOL    HW136512   3.898   1.499  11.470 -0.7335  0.7502 -0.9223
 8292SOL    HW236513   4.041   1.538  11.446 -2.5507  0.0845  2.8636
 8293SOL     OW36514   0.610   1.361   3.294 -0.0217 -0.2503 -0.2644
 8293SOL    HW136515   0.668   1.426   3.256  3.2125 -2.4496  0.8903
 8293SOL    HW236516   0.538   1.409   3.334  0.6826  1.5279 -1.1747
 8294SOL     OW36517   4.216   3.540   4.143 -0.6378  0.0299 -0.2456
 8294SOL    HW136518   4.140   3.595   4.126 -1.6243 -0.8285  1.3146
 8294SOL    HW236519   4.249   3.515   4.057  2.1404 -4.6740  2.1411
 8295SOL     OW36520   4.475   1.150   2.992  0.1175  0.2720 -0.3168
 8295SOL    HW136521   4.410   1.220   2.982 -0.5610 -0.2269  0.5603
 8295SOL    HW236522   4.440   1.078   2.940 -0.1257  0.8054 -0.9064
 8296SOL     OW36523   0.994   0.344  13.607  0.5670 -0.3558  0.3340
 8296SOL    HW136524   0.927   0.413  13.608  0.5466 -0.3432 -0.9010
 8296SOL    HW236525   0.978   0.310  13.695 -0.7038 -1.1836 -0.2120
 8297SOL     OW36526   0.690   4.048   8.407 -0.0881  0.6988  0.1291
 8297SOL    HW136527   0.676   4.023   8.498  2.9759 -1.4461  0.0133
 8297SOL    HW236528   0.754   4.120   8.409  2.2551 -1.3836  0.6793
 8298SOL     OW36529   3.122   2.308   4.202  0.3800  0.3781 -0.0857
 8298SOL    HW136530   3.104   2.313   4.108 -0.2304  2.6654  0.1573
 8298SOL    HW236531   3.202   2.256   4.202 -0.0296 -0.2699  1.4204
 8299SOL     OW36532   1.868   3.526   3.411  0.0570 -0.4463 -0.3541
 8299SOL    HW136533   1.805   3.532   3.483  2.0129  0.2694  1.2887
 8299SOL    HW236534   1.930   3.577   3.463 -0.9036  0.5648 -0.2128
 8300SOL     OW36535   4.708   0.894   3.990 -0.5702 -0.2312 -0.3675
 8300SOL    HW136536   0.026   0.970   3.982  0.7106 -1.1090  0.4303
 8300SOL    HW236537   0.016   0.832   3.934 -0.7053 -0.5178 -0.1658
 8301SOL     OW36538   2.709   4.487  11.495 -0.4310 -0.0653  0.2527
 8301SOL    HW136539   2.627   4.537  11.487 -1.0997 -1.3457 -1.0172
 8301SOL    HW236540   2.759   4.539  11.432 -0.0923  2.8083  2.9394
 8302SOL     OW36541   1.557   1.782   7.105  0.2201 -0.0608  0.2934
 8302SOL    HW136542   1.647   1.789   7.073  0.2879  0.8588  0.7003
 8302SOL    HW236543   1.520   1.729   7.033  2.0591 -1.2070  0.2035
 8303SOL     OW36544   4.179   0.176   4.168  0.3846  0.2903  0.1092
 8303SOL    HW136545   4.109   0.229   4.130  1.2793  0.6477 -1.0381
 8303SOL    HW236546   4.122   0.107   4.203  1.7845 -1.2157 -0.5434
 8304SOL     OW36547   0.652   4.394  12.740  0.0205  0.1632  0.0708
 8304SOL    HW136548   0.603   4.316  12.712 -1.1052  0.6813  0.6068
 8304SOL    HW236549   0.724   4.389  12.676  0.0690 -0.4626  0.1694
 8305SOL     OW36550   4.193   0.275   2.940 -0.3755 -0.3038 -0.0391
 8305SOL    HW136551   4.274   0.314   2.975  1.2798 -3.4305 -0.4145
 8305SOL    HW236552   4.223   0.185   2.930  0.2329 -0.2264  1.0424
 8306SOL     OW36553   0.248   2.024   5.546  0.0563 -0.4456  0.1962
 8306SOL    HW136554   0.162   2.066   5.547  0.9872  1.5120 -1.8863
 8306SOL    HW236555   0.256   1.997   5.454 -0.4241 -1.1217  0.3531
 8307SOL     OW36556   0.887   2.058  12.298 -0.0907  0.4617 -0.0408
 8307SOL    HW136557   0.935   2.009  12.232  2.6044  0.8391  1.6749
 8307SOL    HW236558   0.878   2.144  12.256 -1.6579  0.5515  0.4427
 8308SOL     OW36559   0.708   2.695   0.513 -0.2351 -0.3683 -0.2043
 8308SOL    HW136560   0.697   2.643   0.434  0.1363 -0.6365 -0.0799
 8308SOL    HW236561   0.621   2.718   0.545  0.2825  0.3172  0.6957
 8309SOL     OW36562   3.738   0.582  16.168  0.5579  1.0279  0.7924
 8309SOL    HW136563   3.785   0.665  16.181 -0.5743  1.7404  0.3857
 8309SOL    HW236564   3.800   0.537  16.225  0.1258 -0.0567  0.3941
 8310SOL     OW36565   0.877   2.070   5.298 -0.2696 -0.3603  0.4051
 8310SOL    HW136566   0.942   2.107   5.239 -1.2824 -0.3187 -0.6810
 8310SOL    HW236567   0.880   2.143   5.360  0.3311 -0.9588  1.0903
 8311SOL     OW36568   4.554   2.646  10.135 -0.0169 -0.8189  0.1167
 8311SOL    HW136569   4.550   2.552  10.115  2.7336 -0.4413 -2.2122
 8311SOL    HW236570   4.642   2.669  10.103  0.3131 -1.4399  0.5718
 8312SOL     OW36571   0.404   3.422  17.466  0.2566 -0.3253  0.6298
 8312SOL    HW136572   0.467   3.489  17.490 -1.2812  1.8236 -1.3390
 8312SOL    HW236573   0.473   3.356  17.453 -0.1223 -0.8913  1.5052
 8313SOL     OW36574   1.268   4.039   5.735 -0.3415 -0.0927  0.2025
 8313SOL    HW136575   1.328   4.074   5.800 -0.1602  3.5082 -1.8576
 8313SOL    HW236576   1.327   3.986   5.683 -0.2533  0.9759 -0.7904
 8314SOL     OW36577   3.913   4.160  16.828  0.0856 -0.0156 -0.3463
 8314SOL    HW136578   3.927   4.087  16.768 -3.0198  0.5284 -1.7696
 8314SOL    HW236579   3.828   4.197  16.803 -0.1422  0.1692  0.7101
 8315SOL     OW36580   2.096   1.535   5.483 -0.0456 -0.1407 -0.6300
 8315SOL    HW136581   2.087   1.440   5.474 -0.1754 -0.0191 -1.7924
 8315SOL    HW236582   2.148   1.548   5.404  0.4107  1.0502 -0.1235
 8316SOL     OW36583   3.970   4.530   3.840 -0.4992 -0.4036 -0.1859
 8316SOL    HW136584   3.913   4.524   3.916  0.8268 -1.9748  0.6666
 8316SOL    HW236585   4.024   4.607   3.859 -0.1591 -1.1639  1.8635
 8317SOL     OW36586   1.810   0.257   5.509 -0.3597  0.4577  0.1098
 8317SOL    HW136587   1.849   0.294   5.588  1.1892 -2.8751  0.9447
 8317SOL    HW236588   1.894   0.246   5.464 -1.3126  1.3579 -1.8954
 8318SOL     OW36589   2.961   3.081   6.156  0.0617  0.0865  0.6658
 8318SOL    HW136590   3.029   3.099   6.221  1.0242  2.5456 -1.0285
 8318SOL    HW236591   2.907   3.024   6.211  0.5878 -1.7041 -0.6405
 8319SOL     OW36592   2.815   3.997   6.034  0.6362  0.0313  0.0789
 8319SOL    HW136593   2.814   4.052   5.956  0.5151  0.6522  0.5188
 8319SOL    HW236594   2.816   3.908   5.999 -0.1301 -0.4586  1.3000
 8320SOL     OW36595   0.192   4.464   7.691 -0.1701  0.7151  0.0459
 8320SOL    HW136596   0.215   4.439   7.780 -1.5404 -0.7400 -0.0107
 8320SOL    HW236597   0.231   4.551   7.689  0.1898  0.5965  1.9698
 8321SOL     OW36598   0.975   2.256  11.351 -0.2475  0.3978 -0.5598
 8321SOL    HW136599   1.011   2.291  11.432 -2.0976 -0.7533  0.7701
 8321SOL    HW236600   0.898   2.312  11.338 -1.6964 -1.4818 -0.1612
 8322SOL     OW36601   1.999   1.105   4.565 -0.1692 -0.1435  0.1581
 8322SOL    HW136602   1.932   1.038   4.554  0.6869 -1.0463  0.3756
 8322SOL    HW236603   1.987   1.116   4.660 -1.6757 -2.6651  0.2572
 8323SOL     OW36604   0.186   4.669  16.656  0.2025  0.5378 -0.1365
 8323SOL    HW136605   0.098   4.631  16.665  0.6387 -0.3142  0.5417
 8323SOL    HW236606   0.225   4.612  16.590 -1.6206 -0.9600  0.0616
 8324SOL     OW36607   4.299   0.712   6.088  0.3147  0.4220  0.1342
 8324SOL    HW136608   4.379   0.745   6.128  0.3277 -0.4964  0.8446
 8324SOL    HW236609   4.346   0.662   6.021  0.7141  0.7038  0.2061
 8325SOL     OW36610   4.151   1.183   1.306  0.2541  0.0291 -0.2292
 8325SOL    HW136611   4.217   1.197   1.374  0.7720  0.3860 -0.7995
 8325SOL    HW236612   4.125   1.093   1.325  1.0733 -0.2943 -0.5987
 8326SOL     OW36613   1.895   1.541   3.793  0.2579 -0.2952 -0.5821
 8326SOL    HW136614   1.976   1.530   3.844 -0.2294  1.7594  0.6088
 8326SOL    HW236615   1.913   1.630   3.764 -0.6364  0.1533  0.2767
 8327SOL     OW36616   1.837   2.237  12.340  0.3794  0.4108 -0.1703
 8327SOL    HW136617   1.930   2.252  12.326  0.3560 -0.7107 -1.4185
 8327SOL    HW236618   1.837   2.264  12.432 -1.5462  1.7046 -0.5558
 8328SOL     OW36619   0.436   2.726   5.681  0.2723  0.4572 -0.9044
 8328SOL    HW136620   0.433   2.767   5.768 -1.8539  0.0580 -0.7871
 8328SOL    HW236621   0.353   2.678   5.682  0.7319 -0.3078  1.6538
 8329SOL     OW36622   4.247   3.716   0.329 -0.1826 -0.4398 -0.3018
 8329SOL    HW136623   4.250   3.735   0.235  0.1968 -0.2946 -0.2599
 8329SOL    HW236624   4.290   3.632   0.346 -1.3322 -0.8607  0.5249
 8330SOL     OW36625   1.541   3.018  11.784  0.0117 -0.4173  0.1345
 8330SOL    HW136626   1.507   3.092  11.835 -1.7134 -1.3245  0.2780
 8330SOL    HW236627   1.589   3.052  11.709  1.1924 -2.0586  0.1537
 8331SOL     OW36628   1.247   1.831   6.692 -0.0802 -0.2651  0.2363
 8331SOL    HW136629   1.320   1.890   6.711  0.5589 -0.4574 -1.6302
 8331SOL    HW236630   1.196   1.882   6.629 -1.0534 -2.7485 -0.9853
 8332SOL     OW36631   2.047   0.689  17.360 -0.4613  0.5971  0.0762
 8332SOL    HW136632   2.079   0.645  17.282 -2.0727  1.2572 -0.9461
 8332SOL    HW236633   2.058   0.782  17.341  0.1072  0.6828  0.8013
 8333SOL     OW36634   4.364   3.168   2.225  0.1983 -0.1459 -0.0438
 8333SOL    HW136635   4.456   3.193   2.231  0.4550 -0.7505 -1.4726
 8333SOL    HW236636   4.338   3.217   2.303  1.1734  0.2128  0.0471
 8334SOL     OW36637   2.335   1.215   4.657  0.2877 -0.3451 -0.1694
 8334SOL    HW136638   2.268   1.258   4.711 -0.4109 -2.4899  0.6623
 8334SOL    HW236639   2.317   1.241   4.566  0.8226  0.1206 -0.1391
 8335SOL     OW36640   1.857   3.599   5.402 -0.4917 -0.2657 -0.1897
 8335SOL    HW136641   1.805   3.603   5.482  0.6368 -2.1772  0.6425
 8335SOL    HW236642   1.835   3.682   5.360 -0.9585  0.7680  2.1222
 8336SOL     OW36643   3.572   0.707  17.044  0.0375  0.1255 -0.5612
 8336SOL    HW136644   3.567   0.623  17.089 -0.1949 -0.0548 -0.9245
 8336SOL    HW236645   3.480   0.728  17.061  0.4659  1.1289  0.5954
 8337SOL     OW36646   3.735   0.763   7.811 -0.9378 -0.7882 -0.4652
 8337SOL    HW136647   3.818   0.723   7.836 -1.0146 -0.1855  0.7832
 8337SOL    HW236648   3.745   0.777   7.717  1.3046 -1.0113 -0.2656
 8338SOL     OW36649   2.554   3.246  15.933  0.2260  0.5819  0.1929
 8338SOL    HW136650   2.532   3.192  15.857  2.2090  1.2123 -0.8227
 8338SOL    HW236651   2.636   3.285  15.904  1.9379 -1.3696  2.4257
 8339SOL     OW36652   2.134   4.087   2.573  0.7290 -0.1837 -0.1396
 8339SOL    HW136653   2.111   4.085   2.481  0.1470 -0.2041  0.0093
 8339SOL    HW236654   2.159   4.179   2.572  2.0619 -0.5205  1.1849
 8340SOL     OW36655   4.613   4.517   4.378 -0.6516  0.0510 -0.3007
 8340SOL    HW136656   4.670   4.577   4.426  0.4819  0.8189 -2.5569
 8340SOL    HW236657   4.630   4.527   4.284  0.6205 -0.3589 -0.1220
 8341SOL     OW36658   2.840   3.878   8.532 -0.5004 -0.2759 -0.8519
 8341SOL    HW136659   2.902   3.910   8.467 -0.0710  0.1582 -0.2311
 8341SOL    HW236660   2.853   3.784   8.526  1.2324 -0.3491  4.0542
 8342SOL     OW36661   1.666   3.849  12.407  0.1943 -0.0811  0.2428
 8342SOL    HW136662   1.578   3.832  12.374  0.1562 -1.4206  1.0217
 8342SOL    HW236663   1.699   3.759  12.405 -0.0080 -0.1040 -1.5231
 8343SOL     OW36664   1.858   1.561  11.562 -0.4971 -0.0217 -0.5180
 8343SOL    HW136665   1.802   1.517  11.626  2.1324  0.1360  1.9210
 8343SOL    HW236666   1.885   1.626  11.627  3.7182 -3.8553  1.5587
 8344SOL     OW36667   1.264   2.120   1.800 -0.6645 -0.2204  0.0327
 8344SOL    HW136668   1.356   2.102   1.780 -0.9045 -0.5862 -0.7248
 8344SOL    HW236669   1.272   2.152   1.890 -0.1031 -1.6531  0.4827
 8345SOL     OW36670   2.897   4.482   3.536  0.2094  0.5548 -0.3336
 8345SOL    HW136671   2.925   4.413   3.476  0.2745  0.6257 -0.3845
 8345SOL    HW236672   2.968   4.545   3.525 -0.2004  1.0353 -0.2433
 8346SOL     OW36673   0.547   0.013  14.884  0.1275  0.5779  0.5292
 8346SOL    HW136674   0.551   0.105  14.858 -1.7968  1.0593  1.9467
 8346SOL    HW236675   0.636   4.724  14.864 -0.5920 -1.9492  0.9221
 8347SOL     OW36676   4.230   3.675   8.478  0.1310  0.2613 -0.0471
 8347SOL    HW136677   4.277   3.711   8.553  1.1519  2.2262 -1.6280
 8347SOL    HW236678   4.165   3.741   8.457  2.1994  2.7674  1.4044
 8348SOL     OW36679   4.679   0.652   1.700 -0.1606 -0.1338 -0.4722
 8348SOL    HW136680   4.653   0.740   1.672  0.1850  0.0211 -0.3079
 8348SOL    HW236681   4.596   0.629   1.741  0.0654 -1.5655 -0.8040
 8349SOL     OW36682   0.187   1.486   6.583 -0.1841  0.5221 -0.1809
 8349SOL    HW136683   0.123   1.475   6.513 -0.5019  1.1202  0.0137
 8349SOL    HW236684   0.245   1.549   6.539  0.3156  1.4754  1.8603
 8350SOL     OW36685   1.922   2.633  17.237 -0.4151 -0.2804  0.9567
 8350SOL    HW136686   1.827   2.641  17.225 -0.2072  2.0449  0.8983
 8350SOL    HW236687   1.930   2.641  17.332 -0.4502  0.7379  0.8763
 8351SOL     OW36688   2.584   1.738  14.431 -0.3626 -0.2751 -0.6276
 8351SOL    HW136689   2.507   1.705  14.478 -0.6336  1.9074  0.4339
 8351SOL    HW236690   2.661   1.688  14.460  0.5874  0.7830 -1.2941
 8352SOL     OW36691   0.111   3.661   9.416  0.2061  0.1345  0.2351
 8352SOL    HW136692   0.118   3.566   9.401 -0.7488  0.2081 -0.6759
 8352SOL    HW236693   0.017   3.677   9.409  0.0993 -0.3950  0.4387
 8353SOL     OW36694   0.643   0.402  13.880  0.9595  0.0676 -0.3814
 8353SOL    HW136695   0.595   0.340  13.937  0.2204  0.8513 -0.1485
 8353SOL    HW236696   0.731   0.366  13.891  0.5049 -1.2239 -0.9189
 8354SOL     OW36697   2.891   3.374  16.867  0.4354  0.1885  0.0918
 8354SOL    HW136698   2.837   3.385  16.945  0.8293  1.9246  0.1316
 8354SOL    HW236699   2.951   3.304  16.891 -0.0016 -0.2824 -0.1881
 8355SOL     OW36700   0.955   3.403   1.938 -0.6853  0.1141 -1.0369
 8355SOL    HW136701   0.917   3.458   2.007  1.4585 -1.1952  1.2081
 8355SOL    HW236702   1.005   3.461   1.881  1.1470  1.2747  1.7727
 8356SOL     OW36703   3.058   0.124   7.606 -0.6369  0.1784 -0.5174
 8356SOL    HW136704   3.131   0.070   7.635 -0.1507 -0.4295 -2.8459
 8356SOL    HW236705   3.005   0.048   7.580 -0.5390 -0.2483  0.5336
 8357SOL     OW36706   0.980   4.529   2.257  0.1037 -0.2032  0.2358
 8357SOL    HW136707   1.034   4.478   2.196  0.5399 -1.3659  1.5761
 8357SOL    HW236708   0.921   4.460   2.289 -2.1735  1.8354  0.3878
 8358SOL     OW36709   4.230   1.983   2.498 -0.5729 -0.3017 -0.0144
 8358SOL    HW136710   4.193   2.048   2.558  3.0000  1.1398  0.5815
 8358SOL    HW236711   4.251   2.033   2.419  1.9931 -3.0950 -1.0669
 8359SOL     OW36712   0.949   1.815   5.292  0.6128 -0.0425 -0.0721
 8359SOL    HW136713   0.978   1.777   5.376  0.9842  0.9723  0.2500
 8359SOL    HW236714   0.957   1.909   5.306 -1.8873  0.0806  0.5479
 8360SOL     OW36715   0.272   2.686   2.912 -0.0876  0.2350  0.8740
 8360SOL    HW136716   0.282   2.749   2.983  0.8922 -0.0825  1.0133
 8360SOL    HW236717   0.347   2.628   2.926 -0.2273  0.3891  2.2712
 8361SOL     OW36718   4.114   0.128   8.328  0.2979 -0.6837  0.9093
 8361SOL    HW136719   4.132   0.218   8.298 -3.3674  0.1233  1.2202
 8361SOL    HW236720   4.204   0.093   8.326  0.6577  0.3577 -1.4780
 8362SOL     OW36721   0.480   1.011  13.708  0.0529 -0.3845 -0.4621
 8362SOL    HW136722   0.516   1.099  13.718 -0.7112 -0.0260 -0.8111
 8362SOL    HW236723   0.409   1.005  13.773  1.9490  0.0259  1.6460
 8363SOL     OW36724   1.432   0.155  13.223 -0.4067 -0.0471  0.2630
 8363SOL    HW136725   1.353   0.110  13.192  1.6015 -2.6808 -1.0690
 8363SOL    HW236726   1.466   0.100  13.294  1.3402 -0.0892 -0.6003
 8364SOL     OW36727   2.873   3.111   3.972  1.0562  0.0833  0.5914
 8364SOL    HW136728   2.864   3.055   4.049  1.1666  1.7901  1.8386
 8364SOL    HW236729   2.882   3.197   4.012  2.2472  0.1670  0.1547
 8365SOL     OW36730   4.411   1.635   5.100  0.1218 -0.2366 -0.1637
 8365SOL    HW136731   4.389   1.551   5.059 -2.5926 -0.5614  1.9550
 8365SOL    HW236732   4.481   1.597   5.152 -0.7444  0.4054  1.4910
 8366SOL     OW36733   3.148   0.282   2.819 -0.0959  0.0628  0.3885
 8366SOL    HW136734   3.082   0.245   2.760  0.2745  0.9095 -0.5726
 8366SOL    HW236735   3.125   0.236   2.900 -0.7058  1.1885  0.8442
 8367SOL     OW36736   1.365   4.695   7.004  0.3014 -0.0740 -0.5667
 8367SOL    HW136737   1.423   4.629   7.041  0.2546 -0.3274 -0.9447
 8367SOL    HW236738   1.350   0.016   7.076 -1.2362  2.1639 -2.7427
 8368SOL     OW36739   1.142   3.114   7.137 -0.0776  0.2818 -0.4358
 8368SOL    HW136740   1.222   3.068   7.162 -0.6184  0.2032  1.1811
 8368SOL    HW236741   1.089   3.048   7.182 -0.2657  1.6439  1.3463
 8369SOL     OW36742   4.622   4.302   3.026  0.3481  0.6234 -0.0905
 8369SOL    HW136743   4.537   4.280   3.064  0.1422  2.0804  0.2862
 8369SOL    HW236744   4.620   4.395   3.047 -0.5000  0.7654 -0.8157
 8370SOL     OW36745   4.302   0.767   2.658  0.0453 -0.9699 -0.0337
 8370SOL    HW136746   4.303   0.676   2.688 -1.2129 -1.1566 -0.5192
 8370SOL    HW236747   4.285   0.740   2.567  1.6914  3.2604 -1.5990
 8371SOL     OW36748   3.753   4.202   4.912 -0.6803 -0.0185  0.0486
 8371SOL    HW136749   3.791   4.203   5.000  0.5555  3.1129 -0.5066
 8371SOL    HW236750   3.759   4.111   4.884 -0.1684 -0.1545  0.6062
 8372SOL     OW36751   0.842   4.279   0.618 -0.0678 -0.4651 -0.1456
 8372SOL    HW136752   0.753   4.296   0.586  0.0857  0.2298 -0.2173
 8372SOL    HW236753   0.838   4.281   0.713 -0.3170  0.3866 -0.1723
 8373SOL     OW36754   1.529   0.540   6.303  0.3204  0.6022 -0.0788
 8373SOL    HW136755   1.579   0.459   6.297 -0.0530  0.4197 -0.6247
 8373SOL    HW236756   1.481   0.544   6.221  1.9661  1.1886 -1.0219
 8374SOL     OW36757   3.923   2.555   2.179  0.0219 -0.5766  0.0276
 8374SOL    HW136758   3.831   2.560   2.153 -0.6108 -0.2853  2.3559
 8374SOL    HW236759   3.956   2.580   2.093  1.6003 -1.2477  0.4346
 8375SOL     OW36760   1.369   3.771   6.161  0.5997 -0.2554  0.0507
 8375SOL    HW136761   1.410   3.712   6.224 -1.0397 -1.9535 -0.4776
 8375SOL    HW236762   1.353   3.719   6.083  0.4162  0.4493 -0.3869
 8376SOL     OW36763   2.499   2.954  15.167  0.4568 -0.0725  0.3668
 8376SOL    HW136764   2.513   2.904  15.247 -0.5121 -1.5418 -0.3879
 8376SOL    HW236765   2.475   3.041  15.198 -2.4076 -0.0516 -1.9484
 8377SOL     OW36766   2.862   0.259   7.440 -0.5081  0.1000 -0.5591
 8377SOL    HW136767   2.919   0.214   7.503  1.1462 -0.8738 -2.7389
 8377SOL    HW236768   2.910   0.342   7.448 -1.6939  0.8859 -1.6638
 8378SOL     OW36769   1.235   2.112   7.102 -0.5101 -0.1609 -0.5612
 8378SOL    HW136770   1.208   2.040   7.159 -1.0104 -0.3593 -1.0414
 8378SOL    HW236771   1.329   2.096   7.095 -0.0961  1.6463  0.9328
 8379SOL     OW36772   2.529   2.641  12.011 -0.3647 -0.2092  0.2589
 8379SOL    HW136773   2.606   2.607  11.966 -0.3776 -0.1020  0.1559
 8379SOL    HW236774   2.511   2.574  12.077 -0.0254  0.4726  1.0441
 8380SOL     OW36775   4.025   0.318   3.531  0.2181  0.2405  0.4669
 8380SOL    HW136776   4.117   0.297   3.546  0.3069  0.1386 -0.2085
 8380SOL    HW236777   4.030   0.407   3.496  2.0960 -0.3693 -0.8113
 8381SOL     OW36778   3.334   4.324   5.941 -0.1913 -0.0836 -0.0872
 8381SOL    HW136779   3.279   4.391   5.983  0.2464  0.9677 -1.2072
 8381SOL    HW236780   3.266   4.279   5.892  0.4034  0.8880 -1.8035
 8382SOL     OW36781   1.109   2.127   7.502 -0.1839 -0.2875  0.4309
 8382SOL    HW136782   1.068   2.090   7.424 -0.0927  0.6322 -0.0428
 8382SOL    HW236783   1.203   2.143   7.490 -0.3158 -1.0623 -1.5426
 8383SOL     OW36784   2.158   0.458  14.607  0.0892  0.0352 -0.2219
 8383SOL    HW136785   2.205   0.407  14.542 -1.5050 -0.5329 -0.9133
 8383SOL    HW236786   2.066   0.444  14.587  0.1410  1.0128 -1.1431
 8384SOL     OW36787   0.760   0.090   7.722 -0.3926  0.9278  0.3346
 8384SOL    HW136788   0.722   0.074   7.635  0.2895  0.9399  0.0318
 8384SOL    HW236789   0.851   0.071   7.700 -0.8949  0.6604 -1.5621
 8385SOL     OW36790   1.424   3.903  12.930  0.3498  0.2418 -0.4220
 8385SOL    HW136791   1.366   3.967  12.889 -1.9726 -2.3271 -1.1339
 8385SOL    HW236792   1.485   3.960  12.976 -0.9430  0.8747  0.5009
 8386SOL     OW36793   3.343   1.689   4.117  0.6495  0.0521  0.2483
 8386SOL    HW136794   3.360   1.770   4.069  0.6541  0.3350  0.7311
 8386SOL    HW236795   3.254   1.665   4.090  0.7889 -0.9761  0.6735
 8387SOL     OW36796   2.610   1.247   1.622  0.3244 -0.1565  0.4053
 8387SOL    HW136797   2.518   1.273   1.628  0.0375 -1.2802  0.8562
 8387SOL    HW236798   2.641   1.312   1.558  1.0781  2.0862  3.0460
 8388SOL     OW36799   2.183   1.819   3.639 -0.4421  0.7469  0.1153
 8388SOL    HW136800   2.216   1.800   3.727  2.2507 -0.0292 -1.0524
 8388SOL    HW236801   2.201   1.913   3.643  0.7813  0.5250 -0.1958
 8389SOL     OW36802   3.173   1.603   9.043 -0.1511  0.2620  0.2823
 8389SOL    HW136803   3.079   1.605   9.062 -0.2803 -2.3965 -0.0159
 8389SOL    HW236804   3.189   1.697   9.045  0.2548  0.1797  1.2947
 8390SOL     OW36805   3.672   3.017   5.998  0.5127  0.6603 -0.0184
 8390SOL    HW136806   3.768   3.021   6.000  0.4850  1.4955 -0.7556
 8390SOL    HW236807   3.662   3.007   6.093 -2.5900  2.2339 -0.1918
 8391SOL     OW36808   0.238   1.691   9.080 -0.2436 -0.8395 -0.2110
 8391SOL    HW136809   0.180   1.750   9.128  0.6679  0.1375 -0.3282
 8391SOL    HW236810   0.246   1.615   9.139  0.9815 -0.2297  0.4074
 8392SOL     OW36811   3.725   1.704   9.466  0.1177 -0.0553  0.0847
 8392SOL    HW136812   3.821   1.710   9.471 -0.0510  1.6154  1.6391
 8392SOL    HW236813   3.708   1.711   9.560 -1.7095  0.3768 -0.2831
 8393SOL     OW36814   1.792   0.249   6.570 -0.0709  0.0611 -0.6032
 8393SOL    HW136815   1.861   0.253   6.636 -1.7142 -2.3890  1.2927
 8393SOL    HW236816   1.733   0.320   6.595  0.1576 -0.4109  1.3308
 8394SOL     OW36817   1.339   3.478   4.190 -0.0109  0.3281  0.1010
 8394SOL    HW136818   1.402   3.406   4.205  0.0234  0.2880 -0.2256
 8394SOL    HW236819   1.281   3.447   4.121  0.6948 -1.1209  0.1456
 8395SOL     OW36820   0.732   1.624   7.826  0.3346 -0.1912 -0.1479
 8395SOL    HW136821   0.672   1.601   7.897  0.6060  0.0671  0.1673
 8395SOL    HW236822   0.807   1.582   7.869 -1.0897 -2.5863  0.0295
 8396SOL     OW36823   4.599   2.786   0.094 -0.5662 -0.4683  0.8199
 8396SOL    HW136824   4.687   2.796   0.056 -0.5203 -0.6599  0.8782
 8396SOL    HW236825   4.610   2.758   0.185 -1.2762  3.5642  2.1525
 8397SOL     OW36826   2.876   1.535   4.752  0.7323  0.4257  0.0597
 8397SOL    HW136827   2.863   1.504   4.663  3.2045  1.6530 -0.7438
 8397SOL    HW236828   2.950   1.477   4.770 -1.3127 -1.6047  1.9110
 8398SOL     OW36829   2.678   4.591   4.471 -0.1449  0.0861  0.7229
 8398SOL    HW136830   2.751   4.601   4.410 -0.3465 -2.2981  0.0768
 8398SOL    HW236831   2.639   4.513   4.430  0.4268  0.3919 -0.3988
 8399SOL     OW36832   3.162   4.279   7.812  0.5698 -0.4164 -0.4079
 8399SOL    HW136833   3.075   4.316   7.795 -0.9242 -2.9241  1.7867
 8399SOL    HW236834   3.173   4.213   7.743 -1.0543 -1.5685  0.4365
 8400SOL     OW36835   1.029   1.320   2.481  0.2132  0.2872  0.3122
 8400SOL    HW136836   1.028   1.374   2.561 -0.2189  0.9457 -0.1423
 8400SOL    HW236837   0.942   1.327   2.444 -0.0685  1.2119  1.1425
 8401SOL     OW36838   2.113   2.365  14.204  0.3134  0.1161  0.4623
 8401SOL    HW136839   2.209   2.373  14.202 -0.1226  4.9092  0.6675
 8401SOL    HW236840   2.083   2.455  14.209  0.9748  0.2999  1.0953
 8402SOL     OW36841   1.530   3.294   6.280  0.4789 -0.0384 -0.5069
 8402SOL    HW136842   1.469   3.232   6.239  2.4841 -0.5404 -2.7563
 8402SOL    HW236843   1.542   3.246   6.362 -1.5499  2.5393  1.3072
 8403SOL     OW36844   2.405   0.536  12.801 -0.2021 -0.1296 -0.1297
 8403SOL    HW136845   2.362   0.457  12.834  0.0044  0.0667  0.5929
 8403SOL    HW236846   2.334   0.566  12.743 -2.2740 -1.9090  1.5047
 8404SOL     OW36847   0.789   2.812   6.348  0.1743 -0.2117 -0.6051
 8404SOL    HW136848   0.864   2.871   6.339  1.5716 -1.6550  1.4357
 8404SOL    HW236849   0.719   2.870   6.379  0.8373 -0.4287  1.2996
 8405SOL     OW36850   3.206   0.220  10.530  0.1067  0.3684 -0.0397
 8405SOL    HW136851   3.163   0.137  10.550 -0.5323  0.3756 -1.3703
 8405SOL    HW236852   3.286   0.198  10.482  1.0748 -0.2733  1.8734
 8406SOL     OW36853   0.423   4.264   6.679  0.3317 -0.1921  0.2755
 8406SOL    HW136854   0.495   4.215   6.640  0.3993 -0.2275  0.4474
 8406SOL    HW236855   0.446   4.259   6.772 -0.6482 -2.2086  0.4136
 8407SOL     OW36856   0.742   2.267  16.691 -0.5452  0.4476 -0.2653
 8407SOL    HW136857   0.684   2.213  16.744 -0.5041 -0.7295 -1.4271
 8407SOL    HW236858   0.746   2.341  16.751  0.9427 -0.2443  0.4868
 8408SOL     OW36859   0.543   0.509   8.988  0.0057  0.1175 -0.6830
 8408SOL    HW136860   0.531   0.574   8.918 -1.7469  0.3604 -0.1524
 8408SOL    HW236861   0.559   0.421   8.954  1.1574  0.0523  0.0310
 8409SOL     OW36862   2.336   0.789   6.070  0.1110  0.2292  0.3037
 8409SOL    HW136863   2.337   0.705   6.023 -0.4485  0.9185 -0.9481
 8409SOL    HW236864   2.423   0.792   6.109 -0.2677 -1.3819  1.2761
 8410SOL     OW36865   0.116   0.544   9.660  0.7119 -0.6164  0.1891
 8410SOL    HW136866   0.126   0.451   9.681 -0.2611 -0.8479 -0.3565
 8410SOL    HW236867   0.032   0.550   9.614  1.4478  1.3519 -0.8818
 8411SOL     OW36868   1.999   1.577   6.292 -0.4804 -0.8707  0.4371
 8411SOL    HW136869   1.957   1.491   6.291  2.4509 -2.3226  0.1344
 8411SOL    HW236870   1.975   1.612   6.377  2.3542  1.0331  0.4713
 8412SOL     OW36871   2.926   2.187   7.262  0.1382 -0.1116  0.3112
 8412SOL    HW136872   2.964   2.160   7.345 -1.1588  0.6870  1.1694
 8412SOL    HW236873   3.000   2.202   7.203 -0.4752 -1.6477 -0.8456
 8413SOL     OW36874   0.645   1.659   9.905  0.6858  0.0335  0.2701
 8413SOL    HW136875   0.728   1.645   9.859  0.0852 -1.3621 -0.4172
 8413SOL    HW236876   0.672   1.642   9.995  1.5213 -2.6527 -0.4701
 8414SOL     OW36877   4.335   0.174   7.847 -0.8442  0.9101 -0.4944
 8414SOL    HW136878   4.284   0.241   7.893  0.1557  0.2957  1.5211
 8414SOL    HW236879   4.310   0.195   7.757 -0.6080 -1.6287 -1.1529
 8415SOL     OW36880   0.373   2.968  17.250 -0.0097  0.0775 -0.0487
 8415SOL    HW136881   0.296   2.928  17.291  0.1220  1.1833  1.2968
 8415SOL    HW236882   0.380   2.914  17.172  0.9935 -0.3278  0.3251
 8416SOL     OW36883   2.183   2.566  17.190  0.4819  0.5280 -0.6230
 8416SOL    HW136884   2.221   2.498  17.245  0.2721  0.6143 -0.3739
 8416SOL    HW236885   2.096   2.569  17.229  0.2723 -0.6593 -1.0000
 8417SOL     OW36886   0.427   2.564   5.318  0.1538  0.5136  0.3735
 8417SOL    HW136887   0.479   2.544   5.241 -0.1215  0.4158  0.2137
 8417SOL    HW236888   0.491   2.570   5.389 -1.8383 -1.3781  2.2930
 8418SOL     OW36889   3.772   0.903   7.575 -0.1405 -0.3471 -0.1850
 8418SOL    HW136890   3.733   0.985   7.603  2.7560  1.0445 -0.3205
 8418SOL    HW236891   3.733   0.878   7.491  0.1552  2.5885 -1.1941
 8419SOL     OW36892   0.997   3.857   8.300  0.4331  0.1218 -0.0662
 8419SOL    HW136893   0.946   3.906   8.235  0.3120 -0.0981 -0.1356
 8419SOL    HW236894   1.016   3.927   8.363 -0.7170 -0.3075  0.7564
 8420SOL     OW36895   2.187   3.309  11.806  0.3303  0.8409  0.1911
 8420SOL    HW136896   2.251   3.294  11.736  1.2654  1.1074  0.9972
 8420SOL    HW236897   2.220   3.391  11.842 -0.2880  1.1849 -0.0218
 8421SOL     OW36898   1.983   1.671   9.021  0.5808  0.7805 -0.1067
 8421SOL    HW136899   1.992   1.607   9.092  3.1500  1.5276  0.2324
 8421SOL    HW236900   1.896   1.708   9.039 -0.9454 -3.3810  1.0653
 8422SOL     OW36901   2.722   3.443   3.395 -0.8783  0.4816  0.1412
 8422SOL    HW136902   2.731   3.382   3.469  1.2771  0.6503 -0.0066
 8422SOL    HW236903   2.760   3.521   3.435 -0.5013  0.1313  0.4697
 8423SOL     OW36904   0.604   2.296   8.212 -0.2946  0.2009 -0.1363
 8423SOL    HW136905   0.545   2.350   8.160  0.1651  0.4073 -0.4427
 8423SOL    HW236906   0.664   2.272   8.142 -0.3826  3.1214 -1.2432
 8424SOL     OW36907   3.208   2.133  10.295  0.6015  0.0739  0.1140
 8424SOL    HW136908   3.180   2.219  10.326  2.2648  0.1888  1.3259
 8424SOL    HW236909   3.134   2.110  10.239 -1.9237  1.0149  3.0803
 8425SOL     OW36910   1.454   2.712   6.843  0.2330  0.1340  0.0706
 8425SOL    HW136911   1.453   2.769   6.766  1.4909 -0.2800 -0.2528
 8425SOL    HW236912   1.400   2.639   6.815  1.8451 -0.9360 -0.2541
 8426SOL     OW36913   3.640   0.945   2.497  0.5693  0.1063  0.0099
 8426SOL    HW136914   3.599   1.031   2.484  0.1278 -0.2200 -0.8219
 8426SOL    HW236915   3.592   0.916   2.575  3.4358 -1.9082  1.0230
 8427SOL     OW36916   3.547   2.455   7.718 -0.3321  0.8954 -0.7225
 8427SOL    HW136917   3.594   2.393   7.662 -0.8341  0.6208 -0.8379
 8427SOL    HW236918   3.464   2.453   7.672 -1.4230 -0.4620  1.3278
 8428SOL     OW36919   3.118   4.310   3.621 -0.3259 -0.3059 -0.2414
 8428SOL    HW136920   3.101   4.393   3.576  1.9137 -0.6887 -1.7849
 8428SOL    HW236921   3.169   4.256   3.561  1.5662 -1.2381  2.2199
 8429SOL     OW36922   4.621   0.165   2.390 -0.3823 -0.4346 -0.1888
 8429SOL    HW136923   4.691   0.230   2.392 -0.5652 -0.2578  0.5233
 8429SOL    HW236924   4.668   0.083   2.406  0.8513  0.2302 -0.4352
 8430SOL     OW36925   0.680   3.585   3.812  0.1345 -0.2385  0.3052
 8430SOL    HW136926   0.636   3.517   3.864 -0.6341  1.2819  1.6415
 8430SOL    HW236927   0.652   3.661   3.863 -2.0062  0.0667 -1.3716
 8431SOL     OW36928   4.468   2.951   7.120 -0.2065  0.4435  0.5047
 8431SOL    HW136929   4.556   2.985   7.138  0.6504 -2.3536  1.6472
 8431SOL    HW236930   4.497   2.863   7.097  1.1872  0.3124  2.7033
 8432SOL     OW36931   2.406   3.185   5.164  0.1024  0.1957  0.0704
 8432SOL    HW136932   2.322   3.216   5.196 -0.3587 -1.0508  0.0822
 8432SOL    HW236933   2.387   3.156   5.075 -0.3784 -1.1176  0.6096
 8433SOL     OW36934   2.153   3.328   4.950  0.3049  0.0816 -0.0878
 8433SOL    HW136935   2.150   3.362   5.040 -0.4483  0.8671 -0.4218
 8433SOL    HW236936   2.242   3.294   4.943  0.2312  0.3324 -2.2125
 8434SOL     OW36937   0.490   3.871   2.492  0.1901 -0.0037  0.0483
 8434SOL    HW136938   0.469   3.814   2.418 -1.6982  0.6558  0.0864
 8434SOL    HW236939   0.478   3.808   2.563 -0.3500  1.5626  1.3414
 8435SOL     OW36940   2.798   4.636   2.019 -0.5673 -0.2512 -0.2951
 8435SOL    HW136941   2.838   4.662   2.101 -0.2258 -2.4706  0.2301
 8435SOL    HW236942   2.787   4.544   2.043 -2.1342 -0.3793 -1.4932
 8436SOL     OW36943   3.496   1.612   6.926  0.1924 -0.2204 -0.1135
 8436SOL    HW136944   3.529   1.649   6.844  3.2311  0.5924  1.4565
 8436SOL    HW236945   3.411   1.654   6.923 -0.4402 -1.5722 -0.9914
 8437SOL     OW36946   2.720   1.810   2.061 -0.1380 -0.1876 -0.2601
 8437SOL    HW136947   2.716   1.895   2.105 -0.9249 -0.7627  0.7861
 8437SOL    HW236948   2.727   1.744   2.130  1.1847  0.0115 -0.2053
 8438SOL     OW36949   1.910   3.318   6.918  0.1711 -0.0840  0.0246
 8438SOL    HW136950   1.836   3.309   6.858  0.5517  0.3610 -0.5147
 8438SOL    HW236951   1.932   3.411   6.914 -0.0460 -0.1239 -2.0447
 8439SOL     OW36952   0.406   0.740   7.969  0.3400  0.3213  0.3453
 8439SOL    HW136953   0.437   0.744   7.879  1.6434 -0.8811  0.7515
 8439SOL    HW236954   0.482   0.782   8.009  0.5976  0.4892 -0.3241
 8440SOL     OW36955   0.464   4.239  17.612 -0.1020 -0.2030  0.8266
 8440SOL    HW136956   0.467   4.163  17.669 -2.4188 -0.4184  0.6594
 8440SOL    HW236957   0.496   4.312  17.665 -1.8853  1.0377  0.2052
 8441SOL     OW36958   2.995   1.324  12.211 -0.5894  0.3707 -0.3515
 8441SOL    HW136959   2.925   1.362  12.158 -1.2855 -0.7019 -0.2095
 8441SOL    HW236960   3.005   1.234  12.179 -0.7323  0.3232 -0.2642
 8442SOL     OW36961   0.377   1.854   8.583  0.7857 -0.0064 -0.4509
 8442SOL    HW136962   0.452   1.882   8.636  1.2979 -2.6222  0.2565
 8442SOL    HW236963   0.320   1.834   8.657  0.8149 -1.6136 -0.8498
 8443SOL     OW36964   0.638   1.888   9.390 -0.0865 -0.4463 -0.2581
 8443SOL    HW136965   0.688   1.807   9.406 -2.1985 -1.7284 -0.0863
 8443SOL    HW236966   0.618   1.904   9.482 -0.3294  1.1304 -0.5901
 8444SOL     OW36967   1.175   0.761   6.133 -0.3583 -0.0758  0.4581
 8444SOL    HW136968   1.236   0.801   6.071 -1.5398  0.0427 -0.6244
 8444SOL    HW236969   1.160   0.673   6.100 -0.4723  1.5805 -3.8892
 8445SOL     OW36970   3.028   2.903   3.016 -0.2592 -0.0432 -0.0539
 8445SOL    HW136971   3.101   2.913   2.955 -0.6157 -0.7721 -0.6157
 8445SOL    HW236972   3.071   2.919   3.100  0.2925  3.0203 -0.9523
 8446SOL     OW36973   1.813   1.224   1.460 -0.0145  0.2596  0.2949
 8446SOL    HW136974   1.747   1.154   1.457  0.9550 -0.6571  0.0770
 8446SOL    HW236975   1.772   1.291   1.407 -0.9072  0.2679  0.9914
 8447SOL     OW36976   0.472   0.707   2.260 -0.5020  0.0289  0.2050
 8447SOL    HW136977   0.468   0.649   2.337  1.9177  0.0349  0.3359
 8447SOL    HW236978   0.490   0.644   2.190  0.5312 -0.7143  1.1262
 8448SOL     OW36979   1.047   3.307   8.711 -0.3573  0.0819  0.1860
 8448SOL    HW136980   1.067   3.308   8.805 -0.9015  2.2897  0.2658
 8448SOL    HW236981   1.033   3.401   8.707  0.9896  0.3047  0.5942
 8449SOL     OW36982   1.789   2.712  12.814 -0.7119  0.4039 -0.4335
 8449SOL    HW136983   1.746   2.690  12.896 -1.2289  1.7950 -0.3298
 8449SOL    HW236984   1.736   2.653  12.760 -1.0571 -0.3777  0.7603
 8450SOL     OW36985   2.966   3.618   8.737 -0.2403 -0.1030 -0.1778
 8450SOL    HW136986   3.040   3.561   8.755  0.1703  1.0408  1.7462
 8450SOL    HW236987   2.989   3.643   8.648  3.0408 -1.2881  0.3432
 8451SOL     OW36988   0.770   1.252  10.115  0.8604 -0.1625  0.0101
 8451SOL    HW136989   0.834   1.301  10.168 -0.6674 -0.1427  1.8368
 8451SOL    HW236990   0.707   1.214  10.176  1.4614 -0.1101  0.6790
 8452SOL     OW36991   3.355   3.560   3.717  0.2591 -0.3423 -0.6741
 8452SOL    HW136992   3.386   3.544   3.806 -0.5384  1.0473 -0.1366
 8452SOL    HW236993   3.268   3.519   3.710 -0.0749  0.2782 -0.2124
 8453SOL     OW36994   1.546   1.533   3.465 -0.1417 -0.6451  0.7426
 8453SOL    HW136995   1.597   1.456   3.440 -0.7570 -0.3954 -1.2811
 8453SOL    HW236996   1.597   1.599   3.417 -0.3149 -0.1290  1.2658
 8454SOL     OW36997   4.399   0.829   6.425  0.1884  0.6853 -0.8748
 8454SOL    HW136998   4.442   0.852   6.343 -0.7149  0.3200 -1.4549
 8454SOL    HW236999   4.445   0.890   6.483  0.6227 -0.1211 -0.3767
 8455SOL     OW37000   1.665   4.326   1.735 -0.1922  1.0016  0.2551
 8455SOL    HW137001   1.688   4.235   1.718 -0.3327  0.7938  1.1912
 8455SOL    HW237002   1.741   4.358   1.783 -0.3658  1.1039  0.4607
 8456SOL     OW37003   3.952   2.602   1.898  0.3721 -0.2340  0.4526
 8456SOL    HW137004   3.971   2.659   1.824 -0.9226  1.9178  1.7841
 8456SOL    HW237005   3.864   2.633   1.917  0.7942  1.1516  0.1573
 8457SOL     OW37006   1.351   2.873   5.811 -0.1117  0.0334  0.3208
 8457SOL    HW137007   1.308   2.809   5.867 -1.1708 -0.0184 -0.5448
 8457SOL    HW237008   1.441   2.842   5.811  0.7611  2.5787  1.3465
 8458SOL     OW37009   0.405   2.403  15.071 -0.0028 -0.2092  0.3017
 8458SOL    HW137010   0.381   2.314  15.098  0.5743 -0.8092 -1.1465
 8458SOL    HW237011   0.479   2.392  15.011 -0.8225 -2.4100 -0.3332
 8459SOL     OW37012   2.091   0.866  12.089  0.1076 -0.0585 -0.2124
 8459SOL    HW137013   2.153   0.876  12.017 -0.7923  2.6714 -0.6156
 8459SOL    HW237014   2.015   0.858  12.031  0.4027  0.9493 -0.7377
 8460SOL     OW37015   0.894   3.956   1.522  0.0078 -0.3087 -0.8466
 8460SOL    HW137016   0.822   3.980   1.464  0.2889  0.7371 -0.7531
 8460SOL    HW237017   0.950   3.912   1.457  0.1974 -0.3083 -0.6845
 8461SOL     OW37018   2.532   1.250   7.733 -0.2399 -0.0271 -0.0094
 8461SOL    HW137019   2.501   1.301   7.808  0.7250  0.3819  0.1070
 8461SOL    HW237020   2.487   1.168   7.751  3.0946 -1.9528 -0.4674
 8462SOL     OW37021   2.400   3.897   4.327 -0.4668 -0.4504 -0.8117
 8462SOL    HW137022   2.398   3.906   4.232 -1.0451 -1.1484 -0.8681
 8462SOL    HW237023   2.312   3.925   4.351 -0.6224 -1.0258 -0.7074
 8463SOL     OW37024   0.007   2.260   2.307 -0.1322 -0.3867 -0.5286
 8463SOL    HW137025   4.666   2.209   2.300  0.3117 -1.1650  0.0382
 8463SOL    HW237026   4.721   2.333   2.364  0.2780  0.3300 -1.2551
 8464SOL     OW37027   2.260   3.742   2.734 -0.0637  0.0245  0.2239
 8464SOL    HW137028   2.286   3.832   2.749 -0.5036  0.1411  0.3041
 8464SOL    HW237029   2.185   3.757   2.677 -0.0809 -1.8825 -0.2726
 8465SOL     OW37030   2.734   2.767   8.180  0.0812  0.4329 -0.0815
 8465SOL    HW137031   2.773   2.725   8.257  1.2495  1.7274  0.0245
 8465SOL    HW237032   2.762   2.693   8.126 -1.5060 -0.6090  0.5098
 8466SOL     OW37033   0.678   0.801   7.427 -0.4864 -0.3015 -0.3838
 8466SOL    HW137034   0.675   0.782   7.333 -2.7684 -2.0646  0.0485
 8466SOL    HW237035   0.764   0.761   7.446 -0.7391 -0.4179  0.5095
 8467SOL     OW37036   2.541   1.156   6.140  0.4344 -0.2367  0.2232
 8467SOL    HW137037   2.601   1.229   6.127 -1.0305  0.7000 -1.2431
 8467SOL    HW237038   2.466   1.203   6.177  0.0208  0.4717 -1.5196
 8468SOL     OW37039   2.382   1.705  13.269  0.0353  0.3596 -0.4629
 8468SOL    HW137040   2.396   1.774  13.205 -0.0012 -0.1135 -0.9800
 8468SOL    HW237041   2.359   1.756  13.347  0.1703 -0.5864  0.2095
 8469SOL     OW37042   4.068   0.577   3.487 -0.2366  0.0947 -0.2766
 8469SOL    HW137043   4.034   0.629   3.560 -0.5552 -1.1054  0.4265
 8469SOL    HW237044   4.105   0.648   3.435  1.1981 -0.8499 -0.5577
 8470SOL     OW37045   4.689   0.549   4.245  0.2466  0.4800  0.1407
 8470SOL    HW137046   4.644   0.560   4.329 -0.5022  0.3153 -0.2456
 8470SOL    HW237047   4.618   0.570   4.184  1.0357  2.4804 -0.0924
 8471SOL     OW37048   1.117   2.900   4.189  0.1318  0.9552  0.7845
 8471SOL    HW137049   1.127   2.805   4.188 -0.9070  0.8591  0.0586
 8471SOL    HW237050   1.182   2.916   4.257  2.1703 -0.1216 -0.9201
 8472SOL     OW37051   3.804   3.442   6.257  0.2442  0.2919  0.0813
 8472SOL    HW137052   3.826   3.484   6.340 -0.8554  1.9753 -0.4803
 8472SOL    HW237053   3.855   3.493   6.195  0.0214  0.6267  0.1738
 8473SOL     OW37054   4.332   0.333   4.823  0.2283 -0.0151  0.0326
 8473SOL    HW137055   4.266   0.276   4.785 -0.8325  2.5480 -2.0126
 8473SOL    HW237056   4.410   0.283   4.848  1.5417  1.5340 -0.8715
 8474SOL     OW37057   0.264   0.374   7.687 -0.5069 -0.5684 -0.2789
 8474SOL    HW137058   0.317   0.355   7.764 -0.5618 -0.6242 -0.2543
 8474SOL    HW237059   0.192   0.312   7.698  0.0325 -1.5912 -2.5534
 8475SOL     OW37060   4.397   3.098   1.544 -0.3071  0.0453 -0.0160
 8475SOL    HW137061   4.473   3.064   1.591 -0.0937 -0.7573 -0.9613
 8475SOL    HW237062   4.439   3.154   1.479 -0.8071  0.6926  0.2158
 8476SOL     OW37063   3.653   2.448   3.293 -0.2812  0.1558  0.7535
 8476SOL    HW137064   3.658   2.516   3.361  0.0432  2.0189 -1.1120
 8476SOL    HW237065   3.565   2.414   3.303 -0.1572 -0.4357 -0.1618
 8477SOL     OW37066   2.451   1.788   3.258  0.6579  0.7702 -0.1804
 8477SOL    HW137067   2.378   1.832   3.300  0.9652 -1.0876  2.3072
 8477SOL    HW237068   2.402   1.737   3.193 -0.0501 -0.1302  1.0700
 8478SOL     OW37069   3.988   0.281   4.005 -0.0510 -0.2217 -0.6267
 8478SOL    HW137070   3.928   0.349   3.974 -2.2235  0.3564  4.7882
 8478SOL    HW237071   3.925   0.214   4.033  0.4104  0.3607  1.8010
 8479SOL     OW37072   2.172   3.126   2.976  0.3966 -0.3033  0.8479
 8479SOL    HW137073   2.168   3.085   3.063 -1.3394 -0.5245  0.6644
 8479SOL    HW237074   2.110   3.072   2.928  1.7076 -0.3911 -0.7437
 8480SOL     OW37075   2.340   0.435   5.150  0.1897  0.4302  0.5712
 8480SOL    HW137076   2.424   0.390   5.161 -0.8759 -0.6641  4.2240
 8480SOL    HW237077   2.379   0.495   5.086  1.4373 -1.8815 -0.8565
 8481SOL     OW37078   3.286   2.776   6.472  0.2750 -0.6780 -0.5263
 8481SOL    HW137079   3.281   2.823   6.555  3.4746  0.2827 -0.8583
 8481SOL    HW237080   3.203   2.734   6.449  0.1631 -0.4281 -0.5727
 8482SOL     OW37081   1.534   1.368   4.822 -0.3750  0.5230 -0.0012
 8482SOL    HW137082   1.560   1.402   4.736 -0.9808  0.2583 -0.2911
 8482SOL    HW237083   1.615   1.327   4.852  0.2386  0.4356 -1.7802
 8483SOL     OW37084   1.183   3.197   1.562 -0.2148 -0.2616 -0.0089
 8483SOL    HW137085   1.202   3.208   1.656 -0.8162  1.1706 -0.0563
 8483SOL    HW237086   1.108   3.137   1.563 -0.8106  0.4996  1.0259
 8484SOL     OW37087   3.105   2.954   4.485 -0.2597 -0.8029 -0.2036
 8484SOL    HW137088   3.176   2.983   4.541  0.0098 -1.5909 -0.1475
 8484SOL    HW237089   3.035   3.012   4.516  0.4276  0.1030 -0.3362
 8485SOL     OW37090   1.764   3.067   8.546  0.0437  0.2624 -0.0675
 8485SOL    HW137091   1.841   3.124   8.556  1.4129 -0.8547 -4.4615
 8485SOL    HW237092   1.786   3.036   8.458 -2.8072 -1.5571 -0.1314
 8486SOL     OW37093   4.505   0.491   5.471 -0.2489 -0.0223 -0.2002
 8486SOL    HW137094   4.543   0.419   5.421 -0.8601 -0.6338  0.2129
 8486SOL    HW237095   4.434   0.444   5.514 -0.9499  1.4993  0.3068
 8487SOL     OW37096   0.501   1.633   9.020  0.7084  0.7715  0.2234
 8487SOL    HW137097   0.411   1.605   9.038  0.7043  0.1753 -0.6830
 8487SOL    HW237098   0.540   1.628   9.107  0.9652  0.6017  0.0991
 8488SOL     OW37099   2.316   1.668   3.008  0.4343  0.3968  0.0234
 8488SOL    HW137100   2.322   1.576   2.981 -0.5767  1.2325 -3.0407
 8488SOL    HW237101   2.235   1.686   3.055  0.6457 -2.9426  1.7172
 8489SOL     OW37102   3.451   3.256   4.970  0.3383  0.3924 -0.4832
 8489SOL    HW137103   3.383   3.242   5.036  0.2773 -1.0196 -0.8556
 8489SOL    HW237104   3.433   3.342   4.931 -1.6486  0.8446  1.3988
 8490SOL     OW37105   0.570   0.006   6.076  0.3047  0.1744 -0.2244
 8490SOL    HW137106   0.627   0.036   6.146  0.3008 -0.7578  0.1759
 8490SOL    HW237107   0.517   0.082   6.052 -0.8580 -1.1998 -2.0624
 8491SOL     OW37108   2.200   0.096   4.157 -0.2047 -0.1455  0.1924
 8491SOL    HW137109   2.233   0.084   4.068  0.2474 -0.4419  0.3981
 8491SOL    HW237110   2.252   0.038   4.213  2.2148  0.2751 -1.6524
 8492SOL     OW37111   3.302   3.817   4.759  0.2114  0.1397 -0.0936
 8492SOL    HW137112   3.295   3.855   4.672 -1.1233  1.1243  0.4478
 8492SOL    HW237113   3.226   3.760   4.770  0.3609 -0.1039 -0.3272
 8493SOL     OW37114   2.118   4.160   7.293 -0.7335  0.1815  0.1883
 8493SOL    HW137115   2.108   4.106   7.214 -0.4205  1.8685 -0.9950
 8493SOL    HW237116   2.044   4.221   7.289  0.9907  2.1169 -2.5942
 8494SOL     OW37117   0.471   0.977  13.171 -0.0162  0.2202 -0.3373
 8494SOL    HW137118   0.480   1.072  13.176 -0.0917  0.2594 -1.0649
 8494SOL    HW237119   0.504   0.951  13.258 -0.2536  1.7010  0.1963
 8495SOL     OW37120   2.820   0.155   3.940 -0.0605 -0.1376 -0.3344
 8495SOL    HW137121   2.911   0.124   3.938  0.6793  1.8729  1.0744
 8495SOL    HW237122   2.789   0.124   3.855  0.2604  2.6813 -1.4700
 8496SOL     OW37123   1.485   2.235   3.838 -0.1179  0.2782 -0.0246
 8496SOL    HW137124   1.504   2.298   3.908 -0.0651  0.6023 -0.3324
 8496SOL    HW237125   1.441   2.164   3.884  1.9616 -1.1071 -0.2004
 8497SOL     OW37126   1.637   1.259  14.637 -0.1949 -0.2838  0.5796
 8497SOL    HW137127   1.663   1.193  14.573  1.7801  0.1102  0.9731
 8497SOL    HW237128   1.619   1.193  14.704 -0.3892  2.3158  3.0599
 8498SOL     OW37129   4.248   2.412   3.986  0.1479  0.1353  0.3272
 8498SOL    HW137130   4.327   2.445   3.942  1.4972 -1.3618  1.6400
 8498SOL    HW237131   4.196   2.375   3.914 -0.6671  1.3365  0.3039
 8499SOL     OW37132   0.619   1.540   3.980 -0.0228  0.7291 -0.3403
 8499SOL    HW137133   0.679   1.544   3.905  0.7078  0.2338  0.2176
 8499SOL    HW237134   0.545   1.579   3.932  0.2039 -0.6724 -1.8391
 8500SOL     OW37135   4.410   3.686  12.079  0.4461  0.0109 -0.0952
 8500SOL    HW137136   4.385   3.749  12.011 -0.7807  0.1916  0.5230
 8500SOL    HW237137   4.505   3.693  12.073  0.7125 -2.6557  1.3000
 8501SOL     OW37138   4.001   1.816   9.445  0.1967 -0.2086  0.0169
 8501SOL    HW137139   4.086   1.836   9.485  1.2628 -0.3258 -2.1891
 8501SOL    HW237140   4.006   1.721   9.452  1.8142 -0.4047 -3.9933
 8502SOL     OW37141   0.400   3.904   2.006 -0.2101 -0.6863  0.1219
 8502SOL    HW137142   0.470   3.848   1.972 -1.0017  0.5063 -3.4336
 8502SOL    HW237143   0.450   3.959   2.066  0.1298 -2.6322  1.6294
 8503SOL     OW37144   0.133   0.272   6.108  0.6394 -0.3374  0.8165
 8503SOL    HW137145   0.056   0.309   6.151 -0.6577 -0.2730 -1.5633
 8503SOL    HW237146   0.136   0.336   6.038  1.1760 -0.2051  0.9656
 8504SOL     OW37147   3.691   3.154   8.434 -0.0005  0.1130  0.5956
 8504SOL    HW137148   3.646   3.233   8.466  1.4060  0.9137  0.6019
 8504SOL    HW237149   3.629   3.083   8.453  0.5240 -0.7669 -1.0035
 8505SOL     OW37150   1.123   0.019   2.300 -0.3342 -0.6915  0.2804
 8505SOL    HW137151   1.057   4.690   2.289 -2.3033  1.7831 -3.4233
 8505SOL    HW237152   1.072   0.082   2.352 -1.6196 -0.2038 -1.5716
 8506SOL     OW37153   2.675   3.084  14.649 -0.0992 -0.7256  0.3097
 8506SOL    HW137154   2.586   3.065  14.681 -0.5333  1.5466  0.5084
 8506SOL    HW237155   2.726   3.056  14.725 -1.1389 -0.1180  1.2456
 8507SOL     OW37156   2.784   3.852   2.683 -0.3002 -0.3493  0.0306
 8507SOL    HW137157   2.819   3.941   2.688 -0.9945 -0.0588 -0.4094
 8507SOL    HW237158   2.694   3.868   2.712  0.1756  2.0312  0.2001
 8508SOL     OW37159   0.314   4.186   3.623 -0.0349  0.0462 -0.0490
 8508SOL    HW137160   0.409   4.175   3.616  0.1168  2.1637 -1.4138
 8508SOL    HW237161   0.287   4.105   3.666  0.2032  0.7892  1.5104
 8509SOL     OW37162   3.015   4.729   7.215  0.3668 -0.7356  0.3279
 8509SOL    HW137163   3.072   0.065   7.200  0.7643 -0.5906  2.5429
 8509SOL    HW237164   3.030   4.683   7.132  2.4778 -1.9410  1.4099
 8510SOL     OW37165   0.179   4.171   2.294  0.0021 -0.2774 -0.7494
 8510SOL    HW137166   0.124   4.203   2.222 -1.6815 -2.2492 -0.3399
 8510SOL    HW237167   0.118   4.146   2.363 -0.9586  1.1708 -1.0689
 8511SOL     OW37168   3.211   1.731  11.331 -0.6613 -0.1091  0.4698
 8511SOL    HW137169   3.131   1.691  11.364 -1.4038 -2.2297 -3.8516
 8511SOL    HW237170   3.251   1.668  11.270  0.9144  0.3361  1.0265
 8512SOL     OW37171   3.705   3.951   0.784 -0.2449  0.0694 -0.1532
 8512SOL    HW137172   3.792   3.935   0.820 -0.4377 -0.8626 -0.0887
 8512SOL    HW237173   3.702   3.906   0.699  0.5480  0.1325 -0.2076
 8513SOL     OW37174   0.157   0.481   2.129 -0.7454 -0.4098  0.0671
 8513SOL    HW137175   0.147   0.552   2.066 -0.5298  0.4754  1.0395
 8513SOL    HW237176   0.081   0.494   2.186 -0.6757 -0.1186  0.0890
 8514SOL     OW37177   3.486   2.200  10.111 -0.2233 -0.2176  0.2597
 8514SOL    HW137178   3.480   2.282  10.160 -0.7214  1.4452 -2.6035
 8514SOL    HW237179   3.550   2.152  10.164 -0.9200  0.1892  1.4730
 8515SOL     OW37180   2.657   1.034   1.039 -0.1160 -0.3807 -0.2770
 8515SOL    HW137181   2.733   1.039   0.981  0.7098  1.1197  0.9268
 8515SOL    HW237182   2.701   0.996   1.115  0.1695 -1.3152 -0.9035
 8516SOL     OW37183   3.691   4.379   8.552  0.0161 -0.0542 -0.2033
 8516SOL    HW137184   3.692   4.284   8.548 -1.1174  0.0191 -2.4929
 8516SOL    HW237185   3.608   4.388   8.599 -0.2007  1.7525 -0.9110
 8517SOL     OW37186   3.654   1.918  15.900  0.1878  0.6868  0.1862
 8517SOL    HW137187   3.641   1.839  15.847  1.1514  1.3704 -1.0570
 8517SOL    HW237188   3.723   1.962  15.851 -0.4112  2.1694  0.6941
 8518SOL     OW37189   0.266   0.059   9.214  0.0581  0.1417 -0.3019
 8518SOL    HW137190   0.272   0.141   9.263  0.8805  0.3346 -0.7131
 8518SOL    HW237191   0.239   4.733   9.278 -1.5083  1.3080  0.2364
 8519SOL     OW37192   0.922   1.514   2.659 -0.0238  0.1389 -0.3410
 8519SOL    HW137193   0.928   1.600   2.618 -1.4910 -0.1022 -1.0688
 8519SOL    HW237194   0.828   1.502   2.677 -0.4590  2.1965 -1.2264
 8520SOL     OW37195   3.248   0.167   7.176  0.1529  0.5617  0.0987
 8520SOL    HW137196   3.312   0.166   7.105 -0.6872  2.4105 -0.6813
 8520SOL    HW237197   3.290   0.127   7.252 -0.6085  0.9904  0.7432
 8521SOL     OW37198   3.027   2.448   8.262 -0.0057  0.4439 -0.1034
 8521SOL    HW137199   3.032   2.382   8.331 -1.1484  0.1637 -0.2847
 8521SOL    HW237200   2.963   2.504   8.305 -2.0058 -1.7845 -0.1776
 8522SOL     OW37201   3.548   0.512   2.385 -0.6779 -0.1814  0.1958
 8522SOL    HW137202   3.498   0.455   2.444  1.4328 -2.1897  0.0583
 8522SOL    HW237203   3.589   0.572   2.447  1.6246 -1.4156 -0.1109
 8523SOL     OW37204   4.555   3.955   9.964 -0.2880 -0.1076 -0.3958
 8523SOL    HW137205   4.627   4.013   9.988 -1.5461  1.6225 -0.7543
 8523SOL    HW237206   4.565   3.882  10.025 -0.2435  0.5800  0.4153
 8524SOL     OW37207   0.961   0.013   9.642 -0.0619 -0.4098  0.6449
 8524SOL    HW137208   0.904   0.042   9.713  0.4348  3.1943 -0.4075
 8524SOL    HW237209   0.894   4.717   9.584  0.6055 -1.2918  0.4166
 8525SOL     OW37210   2.155   1.702   3.408 -0.2344  0.3401  0.1937
 8525SOL    HW137211   2.086   1.762   3.382 -0.5010  0.6631  1.6480
 8525SOL    HW237212   2.183   1.739   3.492  0.5423 -1.2571  0.6406
 8526SOL     OW37213   1.419   4.233   7.477  0.5121 -0.3691  0.2368
 8526SOL    HW137214   1.335   4.276   7.494 -0.0177 -1.1118 -0.5137
 8526SOL    HW237215   1.409   4.142   7.506 -0.7445 -0.2446  0.1876
 8527SOL     OW37216   0.081   0.302   2.589  0.2728 -0.6261 -0.1525
 8527SOL    HW137217   0.160   0.249   2.579  0.0933 -0.5892 -1.7863
 8527SOL    HW237218   0.103   0.385   2.545 -2.1099 -0.5519 -1.2523
 8528SOL     OW37219   1.866   3.150   1.397 -0.3756 -0.3216 -0.3611
 8528SOL    HW137220   1.877   3.191   1.312 -1.3284  2.1441  0.6872
 8528SOL    HW237221   1.774   3.164   1.419  0.4326 -1.2880  3.7859
 8529SOL     OW37222   3.718   0.412   4.119  0.2869  0.6470 -0.1636
 8529SOL    HW137223   3.775   0.484   4.148  1.3933 -0.5107  0.5302
 8529SOL    HW237224   3.640   0.434   4.169  0.0291  0.5705 -0.5357
 8530SOL     OW37225   4.439   3.246  12.128 -0.2942  0.0759 -0.2871
 8530SOL    HW137226   4.422   3.212  12.215  3.1954 -3.1831 -0.8775
 8530SOL    HW237227   4.524   3.289  12.135 -1.2252  2.0281 -0.7624
 8531SOL     OW37228   4.633   3.661   5.937  0.0472 -0.3629  0.0628
 8531SOL    HW137229   4.691   3.674   6.012  1.6520 -0.8567 -1.0897
 8531SOL    HW237230   4.671   3.588   5.888 -3.9349 -1.9966 -0.5251
 8532SOL     OW37231   0.471   2.803   0.309  0.2481  0.5282 -0.3370
 8532SOL    HW137232   0.378   2.813   0.330 -0.6592  1.2219 -4.5445
 8532SOL    HW237233   0.473   2.776   0.217  1.2860 -1.5320  0.3002
 8533SOL     OW37234   1.066   1.677   3.465  0.8210  0.5506  0.1785
 8533SOL    HW137235   1.081   1.674   3.371 -2.9022 -0.9986 -0.3441
 8533SOL    HW237236   1.153   1.706   3.494  0.1074  0.0273  2.8941
 8534SOL     OW37237   2.230   3.600   5.776 -0.7375 -0.0594 -0.1218
 8534SOL    HW137238   2.253   3.687   5.745 -0.1430 -0.8205 -1.8379
 8534SOL    HW237239   2.135   3.601   5.760 -0.8814  0.0516  0.7561
 8535SOL     OW37240   3.575   0.631   2.799 -0.7352 -0.0887 -0.5991
 8535SOL    HW137241   3.498   0.577   2.815 -0.6390  0.6844  2.5998
 8535SOL    HW237242   3.642   0.565   2.781  2.0793  2.3358  1.0747
 8536SOL     OW37243   2.741   3.287   3.613 -0.0964 -0.3006 -0.8402
 8536SOL    HW137244   2.646   3.275   3.617  0.0424 -1.3780 -0.8603
 8536SOL    HW237245   2.747   3.358   3.677 -1.9969  1.9828 -3.1646
 8537SOL     OW37246   1.567   2.372  13.451  0.6162 -0.4278  0.1821
 8537SOL    HW137247   1.583   2.427  13.527  1.5274  0.3161 -0.5474
 8537SOL    HW237248   1.655   2.334  13.445  1.3432  1.2312  0.4738
 8538SOL     OW37249   0.540   3.554   8.989 -0.0588 -0.1698 -0.7263
 8538SOL    HW137250   0.472   3.497   9.023  0.1969  0.0776  0.2101
 8538SOL    HW237251   0.555   3.517   8.902 -1.3346  3.2225 -2.3623
 8539SOL     OW37252   4.217   1.576  10.029 -0.0806  0.5350 -0.0707
 8539SOL    HW137253   4.145   1.614   9.979  1.6408  1.7532 -1.6003
 8539SOL    HW237254   4.288   1.573   9.966 -0.3686 -0.4699 -0.3437
 8540SOL     OW37255   2.374   3.725  14.831 -0.4496  0.2178 -0.0352
 8540SOL    HW137256   2.387   3.640  14.789  2.4797  0.0487  1.2097
 8540SOL    HW237257   2.446   3.777  14.795 -1.4052  1.6213  0.0511
 8541SOL     OW37258   4.375   1.426   4.897 -0.5376  0.6051 -0.5081
 8541SOL    HW137259   4.460   1.458   4.926  0.6337 -1.4575 -1.6246
 8541SOL    HW237260   4.362   1.461   4.809  2.6697 -0.3780 -1.3771
 8542SOL     OW37261   0.070   2.749  13.967  0.2316 -0.1424  0.5349
 8542SOL    HW137262   4.738   2.740  13.905 -0.4229  3.0071  0.8354
 8542SOL    HW237263   0.030   2.804  14.035 -0.1285 -0.1301  0.3083
 8543SOL     OW37264   4.274   1.925   5.450  0.0420  0.3503 -0.1835
 8543SOL    HW137265   4.258   1.908   5.357 -2.4320 -0.5136  0.4204
 8543SOL    HW237266   4.199   1.980   5.470  0.2640  0.1706  1.1774
 8544SOL     OW37267   0.837   2.619   5.290  0.4694 -0.1837  0.5723
 8544SOL    HW137268   0.920   2.576   5.310  0.9288  0.6925  0.5768
 8544SOL    HW237269   0.784   2.548   5.254  0.2413  0.7857 -1.0195
 8545SOL     OW37270   4.534   2.001   8.987  0.9454  0.4963 -0.2696
 8545SOL    HW137271   4.545   1.947   9.065  0.1458 -1.7265 -1.7040
 8545SOL    HW237272   4.542   1.941   8.913  0.3372 -0.3343  0.3499
 8546SOL     OW37273   3.529   2.588   3.886  0.0443 -0.2037 -0.6670
 8546SOL    HW137274   3.490   2.597   3.973  0.9613 -0.1775 -0.2511
 8546SOL    HW237275   3.512   2.676   3.853 -2.6583 -0.0092  1.2830
 8547SOL     OW37276   4.464   3.787  15.842  0.2648 -0.2979  0.0357
 8547SOL    HW137277   4.461   3.748  15.755  1.3885  1.4327 -0.7744
 8547SOL    HW237278   4.459   3.878  15.812  0.3230 -0.9925 -2.0685
 8548SOL     OW37279   2.047   3.308   3.318  0.1241  0.0908  0.4814
 8548SOL    HW137280   2.024   3.249   3.390 -0.5424 -1.0976 -0.6981
 8548SOL    HW237281   1.972   3.367   3.326  0.2069  0.2439  0.1264
 8549SOL     OW37282   3.752   0.463   0.831 -0.3192 -0.8173  0.0455
 8549SOL    HW137283   3.657   0.461   0.817 -0.3924 -0.4635  0.4801
 8549SOL    HW237284   3.782   0.447   0.741 -0.1468  2.3722 -0.4840
 8550SOL     OW37285   1.136   3.860   7.000  0.5842 -0.6394  0.8051
 8550SOL    HW137286   1.076   3.787   7.018 -3.1175  1.5742 -2.6842
 8550SOL    HW237287   1.101   3.886   6.915  0.0486 -2.0851  0.5712
 8551SOL     OW37288   2.329   3.268   4.632 -0.4018 -0.1604  0.1127
 8551SOL    HW137289   2.251   3.213   4.639 -0.1871 -0.0667  3.2761
 8551SOL    HW237290   2.303   3.355   4.662 -1.3726 -0.4416  0.1023
 8552SOL     OW37291   2.991   2.321  16.683 -0.1917 -0.1787 -0.2112
 8552SOL    HW137292   3.018   2.403  16.724 -1.9181  1.4810 -2.3814
 8552SOL    HW237293   2.901   2.309  16.715 -0.8978  0.9116 -1.8088
 8553SOL     OW37294   0.391   0.086   0.900  0.4744  0.6917  0.1099
 8553SOL    HW137295   0.332   0.091   0.976  0.3601 -1.1414  0.1381
 8553SOL    HW237296   0.434   0.002   0.915 -3.2752 -1.5234 -1.5367
 8554SOL     OW37297   2.232   2.039   1.432  0.3826  1.3661 -0.1746
 8554SOL    HW137298   2.243   2.089   1.351 -0.3330 -1.0728 -1.8021
 8554SOL    HW237299   2.212   2.102   1.501 -1.5462  1.0137 -0.4148
 8555SOL     OW37300   1.177   0.547   4.021 -0.3717 -0.1348 -0.1268
 8555SOL    HW137301   1.229   0.573   3.944  0.0755 -2.8242 -0.7503
 8555SOL    HW237302   1.092   0.553   3.979 -1.0128  3.6602  1.7331
 8556SOL     OW37303   0.957   0.513   8.332  0.1398 -0.0517  0.5051
 8556SOL    HW137304   1.049   0.534   8.350  0.2455 -0.4374  0.4190
 8556SOL    HW237305   0.955   0.553   8.245 -1.8771  0.5585  0.8507
 8557SOL     OW37306   2.481   1.038  14.865  0.3812  0.2027  0.0460
 8557SOL    HW137307   2.422   1.087  14.922 -0.9542 -0.8679 -0.4057
 8557SOL    HW237308   2.532   1.104  14.818  1.8513 -1.2631 -0.4403
 8558SOL     OW37309   2.075   2.129   8.771 -0.4539  0.0558  0.5359
 8558SOL    HW137310   2.161   2.103   8.805 -0.7773  0.8844  2.0213
 8558SOL    HW237311   2.038   2.187   8.838 -2.2420  0.2469 -0.6171
 8559SOL     OW37312   3.363   3.899  10.345 -0.6173  0.5887 -0.7058
 8559SOL    HW137313   3.303   3.827  10.324 -0.6852 -0.0253  1.5009
 8559SOL    HW237314   3.333   3.938  10.427  1.7453  0.6209  0.1556
 8560SOL     OW37315   0.502   2.810  12.603 -0.2926 -0.4109 -0.3035
 8560SOL    HW137316   0.528   2.745  12.537 -0.4328  0.1618 -0.9185
 8560SOL    HW237317   0.553   2.881  12.565 -0.5453  1.2885  2.5507
 8561SOL     OW37318   2.329   3.627   4.190 -0.1670  0.2668  0.5016
 8561SOL    HW137319   2.393   3.557   4.203 -0.4539 -0.2705 -1.0573
 8561SOL    HW237320   2.257   3.597   4.246 -0.8205 -2.0598 -1.6364
 8562SOL     OW37321   0.627   3.448   5.786  0.0177 -0.3054 -0.2249
 8562SOL    HW137322   0.713   3.414   5.760 -0.9606 -3.5314  0.8200
 8562SOL    HW237323   0.648   3.513   5.853 -0.7314  0.3878 -0.6560
 8563SOL     OW37324   3.828   1.536  15.963 -0.0571  0.4322 -0.5141
 8563SOL    HW137325   3.872   1.614  15.996 -0.2048  0.4604 -0.3856
 8563SOL    HW237326   3.882   1.516  15.887 -0.7938  1.0234 -1.1989
 8564SOL     OW37327   1.513   3.582   6.370 -0.1891 -0.5650 -0.4143
 8564SOL    HW137328   1.562   3.645   6.423  0.6928 -1.8275  0.2629
 8564SOL    HW237329   1.566   3.503   6.383 -2.4993 -1.7198  2.0401
 8565SOL     OW37330   3.813   3.138   8.696 -0.3598 -0.0143  0.1483
 8565SOL    HW137331   3.841   3.053   8.731 -1.6835 -0.2885  0.5517
 8565SOL    HW237332   3.816   3.137   8.600 -0.4149  2.3393  0.1278
 8566SOL     OW37333   0.366   0.510   5.092  0.3269 -0.0261 -0.8512
 8566SOL    HW137334   0.382   0.589   5.144  2.8701 -2.2895  1.7764
 8566SOL    HW237335   0.280   0.536   5.058 -0.7297 -0.1014  1.7787
 8567SOL     OW37336   3.341   1.752   2.410  0.1242  0.4091 -0.1142
 8567SOL    HW137337   3.390   1.809   2.470 -1.1828  0.8257  0.5604
 8567SOL    HW237338   3.253   1.789   2.418 -0.1769 -0.0059 -1.4805
 8568SOL     OW37339   4.280   3.634   3.868  0.1324  0.6016  0.1865
 8568SOL    HW137340   4.375   3.645   3.864  0.1217  0.9638  0.9083
 8568SOL    HW237341   4.250   3.724   3.852 -2.9209 -0.4040  0.3551
 8569SOL     OW37342   1.174   0.063  13.163  0.2537 -0.2582  0.2410
 8569SOL    HW137343   1.122   0.136  13.197  0.5085  1.5825 -3.2977
 8569SOL    HW237344   1.135   0.056  13.076  1.6429  0.0866 -0.4069
 8570SOL     OW37345   2.302   0.381   6.900 -0.1304 -0.1972  0.5780
 8570SOL    HW137346   2.212   0.391   6.929 -0.6069 -3.2954  0.2435
 8570SOL    HW237347   2.335   0.439   6.968  2.1384 -0.1690 -0.5503
 8571SOL     OW37348   4.652   2.013  10.449  0.0189 -0.1767  0.1485
 8571SOL    HW137349   4.627   2.000  10.541 -0.5165 -0.7003 -0.0742
 8571SOL    HW237350   4.736   2.058  10.459 -0.3359  0.5405 -0.0849
 8572SOL     OW37351   3.280   0.626   9.209  0.1886  0.0469 -0.3909
 8572SOL    HW137352   3.300   0.534   9.228  0.7585  0.1385 -0.5661
 8572SOL    HW237353   3.187   0.614   9.190 -0.1160  0.1988  1.0157
 8573SOL     OW37354   3.928   3.582  17.668 -0.3793 -0.0731 -0.3879
 8573SOL    HW137355   3.944   3.646  17.737  5.0728 -1.6089 -0.2801
 8573SOL    HW237356   3.915   3.507  17.726 -2.3706 -1.0038 -1.9998
 8574SOL     OW37357   3.244   3.196   2.898 -0.2087  0.2684  0.5953
 8574SOL    HW137358   3.218   3.115   2.855 -2.0379  2.2518 -2.0520
 8574SOL    HW237359   3.168   3.251   2.878  1.2172  2.3032  0.8209
 8575SOL     OW37360   4.320   3.485   6.445  0.2419 -0.4138  0.1440
 8575SOL    HW137361   4.267   3.521   6.516  2.4981  0.2417  1.4799
 8575SOL    HW237362   4.270   3.405   6.430  0.9445 -1.3294  2.6747
 8576SOL     OW37363   2.314   2.796   1.615  0.1138  0.1628  0.3467
 8576SOL    HW137364   2.320   2.799   1.519 -1.5704  1.9166  0.2964
 8576SOL    HW237365   2.229   2.755   1.628 -0.1023  0.0411 -1.4363
 8577SOL     OW37366   4.615   3.376   3.155 -0.4721  0.2489  0.5156
 8577SOL    HW137367   4.664   3.437   3.211 -0.8157 -2.1505  3.4493
 8577SOL    HW237368   4.546   3.440   3.141 -0.6377  0.1013  0.6524
 8578SOL     OW37369   2.967   4.343   1.004 -0.0503 -0.4910 -1.0052
 8578SOL    HW137370   2.879   4.376   1.021  0.7883  1.1096  0.1608
 8578SOL    HW237371   3.001   4.412   0.947  0.0434 -0.1797 -0.5671
 8579SOL     OW37372   0.026   1.342   7.063  0.0999 -0.5198 -0.2163
 8579SOL    HW137373   0.056   1.388   6.985  1.4436  0.7877  1.0748
 8579SOL    HW237374   4.719   1.266   7.026 -0.8104  0.1949 -0.5690
 8580SOL     OW37375   0.686   4.337  13.036  0.8589  0.4179 -0.3166
 8580SOL    HW137376   0.661   4.364  12.948  0.5012 -1.9528 -0.9379
 8580SOL    HW237377   0.724   4.251  13.020  2.5196  1.0550  0.1295
 8581SOL     OW37378   4.316   1.531  14.392  0.0233  1.0567 -0.4933
 8581SOL    HW137379   4.279   1.606  14.346  0.1467 -0.3973 -2.9327
 8581SOL    HW237380   4.269   1.458  14.351  2.5349 -0.4916 -0.6817
 8582SOL     OW37381   4.192   0.656  10.947 -0.0237  0.2166  0.1757
 8582SOL    HW137382   4.167   0.641  10.856  0.6131 -0.9018  0.1781
 8582SOL    HW237383   4.117   0.615  10.991 -0.9217  1.4520 -0.2197
 8583SOL     OW37384   1.220   4.333  14.303  0.7098 -0.3364 -1.1104
 8583SOL    HW137385   1.174   4.362  14.382  2.3185  0.2484 -0.3904
 8583SOL    HW237386   1.240   4.241  14.317  0.2526 -0.5375 -1.7798
 8584SOL     OW37387   1.090   2.670   6.472 -0.1163  0.1046 -0.0719
 8584SOL    HW137388   1.159   2.730   6.444 -0.7700  0.2185 -1.4196
 8584SOL    HW237389   1.005   2.710   6.455  0.5002  0.6007 -1.9395
 8585SOL     OW37390   3.900   1.965   5.127 -0.8914 -0.0067 -0.1916
 8585SOL    HW137391   3.806   1.966   5.145 -0.6421 -0.2517  1.1168
 8585SOL    HW237392   3.917   2.049   5.170  0.9520  0.5072 -1.9348
 8586SOL     OW37393   1.691   3.946   5.892 -0.0902 -0.9007  0.8189
 8586SOL    HW137394   1.608   3.994   5.888  0.5334  0.0185 -0.9424
 8586SOL    HW237395   1.658   3.859   5.874  0.6589 -1.2009  0.8901
 8587SOL     OW37396   0.075   3.216   8.491 -0.0666  0.2139  0.0164
 8587SOL    HW137397   0.077   3.122   8.474 -1.5592  0.3092 -0.7577
 8587SOL    HW237398   0.170   3.228   8.487  0.0061 -0.3157  0.1310
 8588SOL     OW37399   1.364   1.339  14.874 -0.1517 -0.0065  0.2712
 8588SOL    HW137400   1.319   1.388  14.805 -0.1598  0.2977  0.4893
 8588SOL    HW237401   1.369   1.412  14.935  1.1779 -0.1079  0.2693
 8589SOL     OW37402   4.375   0.034   4.302  0.2859 -0.4573 -0.1752
 8589SOL    HW137403   4.327   4.691   4.298  3.5397 -2.4333  0.8563
 8589SOL    HW237404   4.328   0.094   4.244  0.2601  2.5468  2.9348
 8590SOL     OW37405   2.598   4.366   4.290 -0.5639 -0.0272  0.4038
 8590SOL    HW137406   2.519   4.379   4.237  0.6976  1.6913 -1.0675
 8590SOL    HW237407   2.618   4.276   4.265 -0.8044  0.2005 -0.6347
 8591SOL     OW37408   0.824   1.021   7.267  0.1433  0.4635  0.0986
 8591SOL    HW137409   0.731   1.015   7.246  0.6028  1.2589 -2.1121
 8591SOL    HW237410   0.835   0.931   7.299  1.0229  0.3653 -0.4783
 8592SOL     OW37411   4.066   0.734   3.713 -0.2366  0.2930 -0.1507
 8592SOL    HW137412   4.142   0.789   3.735  1.7429 -1.4527 -2.5346
 8592SOL    HW237413   3.992   0.793   3.708  0.5234  1.1536 -1.2041
 8593SOL     OW37414   3.010   3.227  13.455 -0.0149 -0.0466  0.5634
 8593SOL    HW137415   2.977   3.149  13.500 -0.9478 -0.4595 -0.8506
 8593SOL    HW237416   2.945   3.251  13.390  0.6409 -2.0780 -0.8491
 8594SOL     OW37417   4.621   3.076  17.338 -0.3549  0.2693 -0.3453
 8594SOL    HW137418   4.634   3.169  17.319  0.5237  0.3506  0.6532
 8594SOL    HW237419   4.531   3.082  17.370 -0.2260  1.5280 -0.2154
 8595SOL     OW37420   2.380   0.151  11.025 -0.2534  0.1587  0.2560
 8595SOL    HW137421   2.376   0.233  10.976  0.7594  0.3911  0.5685
 8595SOL    HW237422   2.467   0.115  11.007  0.6976  1.5626  2.0601
 8596SOL     OW37423   4.322   2.587   5.743  0.1062  0.2383 -0.6359
 8596SOL    HW137424   4.321   2.536   5.824  1.6573  1.7283  0.3130
 8596SOL    HW237425   4.411   2.569   5.711  1.2801  2.0410  1.6488
 8597SOL     OW37426   3.280   1.113   0.992  0.0533 -0.0954  0.0373
 8597SOL    HW137427   3.190   1.142   1.010  0.5667  0.8783  1.0313
 8597SOL    HW237428   3.304   1.181   0.929  0.3648  0.1333  0.4043
 8598SOL     OW37429   1.014   0.277   2.584 -0.1453 -0.3960  0.2537
 8598SOL    HW137430   1.065   0.197   2.598  1.5187  0.9385  1.7915
 8598SOL    HW237431   1.026   0.319   2.669 -0.2426  1.5808 -0.7054
 8599SOL     OW37432   3.396   4.366  13.588 -0.0289  0.0369  0.0700
 8599SOL    HW137433   3.417   4.393  13.499  0.6719  0.5195  0.3890
 8599SOL    HW237434   3.301   4.375  13.578  0.1933  2.2985 -0.0236
 8600SOL     OW37435   3.485   0.437   0.417 -0.2046  0.1641  0.2881
 8600SOL    HW137436   3.466   0.448   0.324 -0.0543 -1.0547  0.1168
 8600SOL    HW237437   3.444   0.517   0.451 -0.2576  0.7417 -1.1214
 8601SOL     OW37438   3.939   1.631   2.834  0.6002 -0.4635 -0.4623
 8601SOL    HW137439   3.892   1.587   2.904  0.0084  0.2681 -0.3990
 8601SOL    HW237440   3.997   1.690   2.882 -1.1954  1.4208 -0.5962
 8602SOL     OW37441   0.158   2.634   4.376 -0.3415 -0.8688 -0.4140
 8602SOL    HW137442   0.185   2.548   4.344  2.5475  0.2911 -1.0630
 8602SOL    HW237443   0.063   2.624   4.374 -0.3142 -1.0427 -0.9442
 8603SOL     OW37444   4.173   4.532   4.674  0.0979  0.0539  0.1592
 8603SOL    HW137445   4.226   4.477   4.731  0.3422 -0.0926 -0.2132
 8603SOL    HW237446   4.237   4.547   4.604  1.1583 -1.9895  0.7206
 8604SOL     OW37447   4.610   2.422   6.021 -0.0840 -0.8731  0.3321
 8604SOL    HW137448   4.517   2.432   6.043 -0.2171 -2.1130  0.3470
 8604SOL    HW237449   4.605   2.468   5.937  0.1510  0.3929  1.0032
 8605SOL     OW37450   0.494   2.044  12.506 -0.2675  0.4541  0.0208
 8605SOL    HW137451   0.455   2.006  12.584 -1.4120 -2.7690 -2.1087
 8605SOL    HW237452   0.583   2.012  12.522 -0.5868 -2.0021 -3.0454
 8606SOL     OW37453   3.155   0.639   0.870  0.3646 -0.1469 -0.0651
 8606SOL    HW137454   3.183   0.668   0.957 -0.7934  0.3658  0.1488
 8606SOL    HW237455   3.211   0.563   0.859 -3.0933 -2.6954  0.0622
 8607SOL     OW37456   3.611   3.226   3.834 -0.2884  0.2042  0.2877
 8607SOL    HW137457   3.653   3.265   3.758 -2.2310  2.9842  0.6138
 8607SOL    HW237458   3.683   3.187   3.883  0.0268 -0.6199 -0.8501
 8608SOL     OW37459   1.237   3.672   7.473 -0.0313 -0.0260  0.2224
 8608SOL    HW137460   1.265   3.759   7.502 -0.1890  0.1875 -0.2617
 8608SOL    HW237461   1.153   3.666   7.519  0.7938 -1.0787  1.5947
 8609SOL     OW37462   3.878   0.509   8.394  0.0375 -0.2885  0.2860
 8609SOL    HW137463   3.824   0.530   8.470 -0.0306  0.1036  0.1294
 8609SOL    HW237464   3.870   0.593   8.348 -1.2384 -0.3166  0.4520
 8610SOL     OW37465   3.944   4.619   9.256  0.7857  0.6107  0.2880
 8610SOL    HW137466   3.991   4.536   9.263 -0.5405 -0.2194 -0.5981
 8610SOL    HW237467   3.976   4.658   9.174  1.0207 -1.1433 -0.4464
 8611SOL     OW37468   2.865   3.999   2.323 -0.0254  0.4763  0.3567
 8611SOL    HW137469   2.869   3.907   2.350 -1.2295  0.0652 -0.8693
 8611SOL    HW237470   2.842   3.988   2.231 -1.4022  3.4076  0.3694
 8612SOL     OW37471   0.463   1.505   4.413 -0.2467 -1.1313 -0.2738
 8612SOL    HW137472   0.456   1.587   4.462 -0.3659  0.2680 -2.6359
 8612SOL    HW237473   0.472   1.449   4.490  1.9123  1.9543  1.7280
 8613SOL     OW37474   0.075   4.240   7.135  0.1587 -0.4269  0.0543
 8613SOL    HW137475   0.138   4.169   7.122  0.5601 -0.3286  1.5379
 8613SOL    HW237476   0.050   4.219   7.225 -1.8796 -0.0546 -0.4143
 8614SOL     OW37477   0.464   2.867   6.196  0.2405  0.4730  0.0241
 8614SOL    HW137478   0.456   2.772   6.203 -0.5045  0.5724  0.5900
 8614SOL    HW237479   0.525   2.891   6.266 -0.9853  2.8918  0.2793
 8615SOL     OW37480   1.164   0.033   9.311 -0.4689 -0.0613 -0.0909
 8615SOL    HW137481   1.238   4.713   9.297  0.4328  1.3374 -1.1902
 8615SOL    HW237482   1.197   0.097   9.373 -2.5650 -0.7432  1.7388
 8616SOL     OW37483   3.722   1.719   6.135  0.1499 -0.2486 -0.3214
 8616SOL    HW137484   3.768   1.681   6.060  1.4193  1.8207 -0.5673
 8616SOL    HW237485   3.762   1.677   6.211  0.7932  1.7366  0.4130
 8617SOL     OW37486   3.349   4.248   1.614  0.0418 -0.4048  0.6476
 8617SOL    HW137487   3.401   4.170   1.595  2.5207  1.2881  0.3834
 8617SOL    HW237488   3.264   4.208   1.597  0.4858 -1.2031  0.2917
 8618SOL     OW37489   3.745   2.820   4.839  0.4833  0.6725  0.9155
 8618SOL    HW137490   3.816   2.763   4.868  0.7305  0.8401  0.6375
 8618SOL    HW237491   3.786   2.904   4.818 -1.2142  1.6309  1.4759
 8619SOL     OW37492   2.973   1.860   1.294 -0.1498 -0.3744 -0.3950
 8619SOL    HW137493   2.990   1.927   1.360  0.2704 -0.0345 -0.8519
 8619SOL    HW237494   2.935   1.788   1.345 -2.8427  0.0614 -1.8013
 8620SOL     OW37495   3.794   2.399   5.713 -0.3839 -0.9740  0.1913
 8620SOL    HW137496   3.809   2.486   5.752  0.5878 -0.5697 -1.0944
 8620SOL    HW237497   3.756   2.422   5.628  1.7709 -2.5321 -1.1602
 8621SOL     OW37498   0.145   2.597  10.861 -0.3042  0.3825 -0.0135
 8621SOL    HW137499   0.083   2.528  10.884  0.1952 -0.2137 -0.4522
 8621SOL    HW237500   0.106   2.610  10.774  0.7469 -0.4875 -0.6116
 8622SOL     OW37501   0.214   2.095  10.116 -0.1042  0.0897 -0.0027
 8622SOL    HW137502   0.306   2.083  10.139 -0.1985  0.0184  0.3258
 8622SOL    HW237503   0.182   2.008  10.140  0.4163 -0.2084 -0.3675
 8623SOL     OW37504   3.371   1.830   3.697 -0.2999  0.0091  0.0457
 8623SOL    HW137505   3.316   1.786   3.762  4.3087  0.1099  4.0032
 8623SOL    HW237506   3.339   1.795   3.614  2.2676 -3.0572  0.3585
 8624SOL     OW37507   0.455   3.077   4.767  0.1504 -0.3768 -0.2842
 8624SOL    HW137508   0.384   3.124   4.809  0.8945  1.7517 -1.4323
 8624SOL    HW237509   0.508   3.033   4.833  0.7441 -1.9673 -1.8177
 8625SOL     OW37510   1.439   1.987   3.937 -0.8107 -0.1591  0.3017
 8625SOL    HW137511   1.372   1.976   4.005 -0.6315 -1.7611  0.2286
 8625SOL    HW237512   1.449   1.894   3.916  0.2427  0.7465 -3.1914
 8626SOL     OW37513   1.153   3.334   8.966  0.0646  0.0710 -0.1046
 8626SOL    HW137514   1.103   3.395   9.021 -0.4758  0.6762 -1.2525
 8626SOL    HW237515   1.219   3.294   9.022  0.4365  0.6799 -0.1055
 8627SOL     OW37516   3.337   3.534  14.380 -0.3254 -0.0534 -0.4555
 8627SOL    HW137517   3.404   3.600  14.391 -0.9616  0.2394  1.7081
 8627SOL    HW237518   3.260   3.580  14.413  0.8689  0.5274  1.4708
 8628SOL     OW37519   2.315   4.034  11.461 -0.2337 -0.0395  0.1336
 8628SOL    HW137520   2.262   4.080  11.526 -0.4134 -1.7332  1.1937
 8628SOL    HW237521   2.309   4.096  11.388 -0.2710  0.6433  0.7142
 8629SOL     OW37522   2.298   0.253   1.368 -0.2347 -0.1366  0.5130
 8629SOL    HW137523   2.207   0.240   1.393 -0.2882 -2.1637 -0.6778
 8629SOL    HW237524   2.292   0.347   1.385 -0.9188 -0.2089  0.6483
 8630SOL     OW37525   1.716   1.311   3.337 -0.1825  0.0730 -0.0264
 8630SOL    HW137526   1.776   1.299   3.410 -0.7165 -1.3208  0.1782
 8630SOL    HW237527   1.663   1.231   3.344 -1.0702  0.7081  0.4985
 8631SOL     OW37528   4.151   3.550   6.647  0.6341  0.1414  0.5572
 8631SOL    HW137529   4.143   3.473   6.702  0.5478 -0.0138  0.3297
 8631SOL    HW237530   4.150   3.617   6.715  1.9624  0.9409 -0.2225
 8632SOL     OW37531   1.079   1.430   8.823  0.1406  0.5002 -0.3703
 8632SOL    HW137532   1.149   1.385   8.871 -1.3394  0.7549  2.0520
 8632SOL    HW237533   1.084   1.523   8.842 -0.1784  0.4593 -0.0782
 8633SOL     OW37534   2.226   0.490   4.798  0.0716 -0.2037 -0.4829
 8633SOL    HW137535   2.271   0.563   4.841  0.5525 -0.2538 -0.9041
 8633SOL    HW237536   2.304   0.437   4.785 -0.0443 -0.7070  0.8636
 8634SOL     OW37537   1.737   0.421   4.692 -0.2097  0.1077 -0.7251
 8634SOL    HW137538   1.748   0.505   4.736  0.1080 -0.2799 -0.0563
 8634SOL    HW237539   1.814   0.378   4.731  0.1397 -1.3452 -2.9808
 8635SOL     OW37540   2.783   0.826   9.367  0.2210 -0.4732  0.1575
 8635SOL    HW137541   2.832   0.773   9.305  1.5524  1.8576 -0.8090
 8635SOL    HW237542   2.695   0.816   9.330 -1.0802  1.5082  2.7110
 8636SOL     OW37543   1.266   1.463   2.686  0.4473  0.0988  0.7377
 8636SOL    HW137544   1.299   1.541   2.642 -0.9794  0.1955 -0.1662
 8636SOL    HW237545   1.189   1.500   2.729 -0.9546 -0.9582 -0.8729
 8637SOL     OW37546   2.613   1.761   1.345 -0.2585 -0.0458 -0.8993
 8637SOL    HW137547   2.689   1.814   1.322 -0.0463 -0.7694 -1.8797
 8637SOL    HW237548   2.542   1.799   1.293  1.1124  0.4235 -2.4279
 8638SOL     OW37549   4.685   2.462   7.216 -0.4468  0.2603  0.0342
 8638SOL    HW137550   4.681   2.557   7.223  1.6432  0.2668  0.9776
 8638SOL    HW237551   4.662   2.425   7.301  2.0832 -1.0334  0.1708
 8639SOL     OW37552   2.474   3.586  10.191  0.2478 -0.6196 -0.1106
 8639SOL    HW137553   2.396   3.638  10.175 -0.3619 -0.8362  2.1251
 8639SOL    HW237554   2.468   3.572  10.285  2.5269  0.9757  0.2612
 8640SOL     OW37555   2.481   2.314   2.540 -0.4647 -0.3177  0.1896
 8640SOL    HW137556   2.397   2.325   2.586 -0.4875 -2.4020  0.6429
 8640SOL    HW237557   2.484   2.222   2.517 -3.3585 -0.1247 -0.9806
 8641SOL     OW37558   2.497   3.991  11.724 -0.3478 -0.1508  0.0699
 8641SOL    HW137559   2.528   4.074  11.690 -2.3433  0.1039 -1.1394
 8641SOL    HW237560   2.491   3.933  11.648 -0.0139 -1.5043  1.0628
 8642SOL     OW37561   0.584   1.267   8.808  0.0043  0.2238  0.1444
 8642SOL    HW137562   0.613   1.340   8.754  0.3273 -0.5789 -0.7550
 8642SOL    HW237563   0.526   1.212   8.755 -0.8442  1.2866 -0.0358
 8643SOL     OW37564   0.049   0.259  11.336 -0.4664  0.3951  0.0672
 8643SOL    HW137565   0.068   0.257  11.242 -0.4023  0.5389  0.0767
 8643SOL    HW237566   4.701   0.221  11.337 -0.2392 -0.1624 -1.0753
 8644SOL     OW37567   0.076   2.949  12.581 -0.0824  0.2688 -0.0698
 8644SOL    HW137568   0.169   2.961  12.562 -0.8668  2.0203 -2.8043
 8644SOL    HW237569   0.078   2.854  12.593 -1.5463  0.2184 -0.2472
 8645SOL     OW37570   4.116   0.906  17.651 -0.1360 -0.5198 -0.2745
 8645SOL    HW137571   4.094   0.972  17.717 -1.0522  0.0851 -1.1756
 8645SOL    HW237572   4.209   0.922  17.640 -0.3753  0.0257 -1.5834
 8646SOL     OW37573   2.601   2.347   0.754 -0.1036 -0.0467  0.1222
 8646SOL    HW137574   2.628   2.260   0.784  1.4028  0.7873  1.1587
 8646SOL    HW237575   2.514   2.326   0.718 -0.5216  4.1954 -1.3478
 8647SOL     OW37576   0.706   2.153   6.025 -0.1931  0.0099 -0.0548
 8647SOL    HW137577   0.614   2.137   6.004 -0.3835 -0.0520  0.8219
 8647SOL    HW237578   0.731   2.071   6.067  1.8362  0.6840  0.0487
 8648SOL     OW37579   0.032   0.297  14.724  0.4542 -0.0623 -0.1525
 8648SOL    HW137580   4.733   0.237  14.788  0.3309 -0.5515 -0.6802
 8648SOL    HW237581   4.695   0.318  14.671 -0.7140  0.5258  1.7548
 8649SOL     OW37582   3.282   0.670  16.009  0.3752 -0.1628 -0.1845
 8649SOL    HW137583   3.377   0.666  16.007  0.4782  1.5730  0.6899
 8649SOL    HW237584   3.257   0.611  15.939  0.0019  0.5785 -0.6769
 8650SOL     OW37585   2.811   1.041  13.588  0.2698 -0.4853  0.0502
 8650SOL    HW137586   2.864   1.108  13.545 -0.4281  1.8992  2.9486
 8650SOL    HW237587   2.732   1.093  13.600 -0.5502 -1.8723  0.6971
 8651SOL     OW37588   3.612   3.992  11.874 -0.0008  0.5419 -0.2126
 8651SOL    HW137589   3.569   3.915  11.911  0.2076 -0.3363 -1.8229
 8651SOL    HW237590   3.559   4.009  11.797 -0.4522 -0.3446 -0.0864
 8652SOL     OW37591   2.161   2.057  15.411 -0.4637  0.0760 -0.1093
 8652SOL    HW137592   2.110   2.007  15.475 -1.7450 -1.5308 -2.3724
 8652SOL    HW237593   2.119   2.143  15.412 -0.2825  0.1475  1.7806
 8653SOL     OW37594   1.946   2.501  12.425 -0.0282  0.4145 -0.0199
 8653SOL    HW137595   2.038   2.516  12.400  0.7440  0.5058  2.8715
 8653SOL    HW237596   1.907   2.519  12.340  0.2356  1.5247  0.0899
 8654SOL     OW37597   2.378   2.269   4.138  0.0908 -0.2787  0.2578
 8654SOL    HW137598   2.426   2.352   4.134  0.5017 -0.5579 -0.5884
 8654SOL    HW237599   2.398   2.240   4.227  0.2365  0.5077  0.4737
 8655SOL     OW37600   4.476   2.168   7.506 -0.3206  0.5404 -0.4000
 8655SOL    HW137601   4.428   2.112   7.444  0.2403 -2.3354  1.7693
 8655SOL    HW237602   4.495   2.110   7.580  0.1539 -1.3483 -1.9935
 8656SOL     OW37603   1.657   0.987  16.994 -0.2369  0.4698 -0.0995
 8656SOL    HW137604   1.633   0.935  16.918  0.8807 -0.9851  0.5532
 8656SOL    HW237605   1.599   1.061  16.976 -0.5030  0.7688  1.9661
 8657SOL     OW37606   1.855   2.896   1.583  0.5668  0.4093 -0.0928
 8657SOL    HW137607   1.882   2.919   1.494  0.9911 -0.7274 -0.2482
 8657SOL    HW237608   1.760   2.891   1.576  0.6567  0.7517 -1.6613
 8658SOL     OW37609   0.780   3.861   7.563  0.1425  0.0911  0.2806
 8658SOL    HW137610   0.710   3.803   7.596 -2.5491  2.5860 -1.0662
 8658SOL    HW237611   0.733   3.910   7.496 -2.5432 -0.9910  1.3561
 8659SOL     OW37612   1.380   1.557  13.457 -0.0436  0.4193  0.0834
 8659SOL    HW137613   1.309   1.500  13.427  1.4538 -0.9178 -0.9525
 8659SOL    HW237614   1.442   1.490  13.485 -0.5587 -0.1645 -0.1473
 8660SOL     OW37615   1.907   4.314   1.458  0.0171  0.5414  0.5112
 8660SOL    HW137616   1.885   4.290   1.548  1.9901 -2.0979  0.2653
 8660SOL    HW237617   1.821   4.333   1.422  0.1335 -1.7868 -0.9143
 8661SOL     OW37618   1.498   0.271  14.319  0.6341  0.7954 -0.0034
 8661SOL    HW137619   1.588   0.242  14.305  0.5421  1.1139 -1.2234
 8661SOL    HW237620   1.454   0.226  14.248  0.1478 -1.5731  1.8079
 8662SOL     OW37621   2.580   2.521   7.510 -0.7129  0.1032 -0.4146
 8662SOL    HW137622   2.590   2.605   7.465 -0.0228 -0.2540 -0.9367
 8662SOL    HW237623   2.637   2.535   7.586  1.9592 -1.5144 -2.1203
 8663SOL     OW37624   4.230   3.381   8.424  0.4061  0.1273 -0.0034
 8663SOL    HW137625   4.220   3.471   8.453 -2.8081 -1.0820  2.6593
 8663SOL    HW237626   4.173   3.330   8.481  0.6102 -1.6691 -1.4001
 8664SOL     OW37627   2.162   2.419   1.357 -0.0597 -0.1365 -0.2902
 8664SOL    HW137628   2.157   2.357   1.284  1.4156  0.5395 -0.9569
 8664SOL    HW237629   2.250   2.454   1.345 -0.5787  1.2074 -0.1838
 8665SOL     OW37630   3.833   3.425  16.101  0.4106  0.3521  0.1016
 8665SOL    HW137631   3.918   3.428  16.057 -0.0671 -0.7616 -0.8936
 8665SOL    HW237632   3.778   3.370  16.045 -1.8707  2.5701  0.1635
 8666SOL     OW37633   2.021   1.325  17.681  0.3083  0.4361 -0.2749
 8666SOL    HW137634   2.037   1.411  17.719 -1.2740  1.3224 -1.6622
 8666SOL    HW237635   2.017   1.360  17.592 -0.3196 -0.6215 -0.6662
 8667SOL     OW37636   2.908   2.456  14.421 -0.2038  0.2095 -0.0768
 8667SOL    HW137637   2.816   2.433  14.421 -0.0942 -0.2036 -1.4517
 8667SOL    HW237638   2.913   2.484  14.513  2.8219 -0.6557  0.0321
 8668SOL     OW37639   2.893   4.264   2.272 -0.0558  0.3510 -0.0702
 8668SOL    HW137640   2.882   4.172   2.297 -0.5588  0.5183  0.3298
 8668SOL    HW237641   2.988   4.271   2.262  0.1771  1.2479  2.8147
 8669SOL     OW37642   1.490   2.310   4.870  0.5955 -0.1396  0.1173
 8669SOL    HW137643   1.574   2.300   4.827 -0.6774 -0.9679 -2.1428
 8669SOL    HW237644   1.515   2.333   4.960  1.1598 -1.6316  0.3320
 8670SOL     OW37645   0.211   3.488   9.774  0.3377  0.5077 -0.7236
 8670SOL    HW137646   0.139   3.449   9.725  1.0227  1.1797 -2.2486
 8670SOL    HW237647   0.281   3.428   9.751 -0.6786 -1.0325  0.1397
 8671SOL     OW37648   1.677   2.956   6.051  0.4590  1.1063  0.3588
 8671SOL    HW137649   1.683   2.929   5.959 -1.0908  2.2906 -0.0929
 8671SOL    HW237650   1.763   2.994   6.065  0.5284  1.1874 -0.3032
 8672SOL     OW37651   2.511   0.474  15.671  0.7840  0.3634 -0.3816
 8672SOL    HW137652   2.434   0.442  15.624 -0.2093  2.9787 -0.5881
 8672SOL    HW237653   2.508   0.429  15.756 -0.9120 -0.2711 -0.7797
 8673SOL     OW37654   2.597   3.534   1.964 -0.1939  0.0233  0.7375
 8673SOL    HW137655   2.574   3.570   2.050  0.8181 -1.5048  1.6394
 8673SOL    HW237656   2.585   3.439   1.972  3.1620 -0.7697 -3.8621
 8674SOL     OW37657   2.296   0.482   4.418  0.0496  0.1484  0.7903
 8674SOL    HW137658   2.216   0.495   4.468 -1.5726 -2.7143 -1.0535
 8674SOL    HW237659   2.256   0.435   4.345  1.2263 -0.4645  0.5223
 8675SOL     OW37660   3.007   2.296   6.421  0.2125  0.2881  0.2754
 8675SOL    HW137661   3.067   2.367   6.401  0.8965 -1.0286 -2.3361
 8675SOL    HW237662   2.952   2.331   6.491 -1.6733  3.5091 -2.8159
 8676SOL     OW37663   4.207   4.678   3.424  0.0131 -0.3731 -0.3042
 8676SOL    HW137664   4.145   4.607   3.409  0.1438 -0.9188  1.7102
 8676SOL    HW237665   4.158   0.008   3.468 -0.5001  0.3466 -2.0027
 8677SOL     OW37666   3.946   3.571   7.703  0.7629 -0.0787  0.3945
 8677SOL    HW137667   3.934   3.635   7.773 -1.9695 -1.1481  0.8936
 8677SOL    HW237668   3.856   3.540   7.711  1.1963 -1.7029 -0.8801
 8678SOL     OW37669   4.712   3.634   0.394  0.4357  0.2845 -0.3940
 8678SOL    HW137670   4.718   3.592   0.308 -0.2451 -0.6710  0.0346
 8678SOL    HW237671   4.679   3.559   0.442 -2.2577  2.2888  0.9089
 8679SOL     OW37672   1.604   3.401  13.963  0.2903  0.2202 -0.6237
 8679SOL    HW137673   1.535   3.459  13.930  0.6325  1.6081  1.0902
 8679SOL    HW237674   1.685   3.431  13.921  1.1697 -1.2419  0.0098
 8680SOL     OW37675   2.703   4.297   6.340  0.3342  0.0511  0.2054
 8680SOL    HW137676   2.615   4.319   6.371  0.3167  0.8976 -0.4444
 8680SOL    HW237677   2.738   4.385   6.328 -0.2497  0.3656  0.8320
 8681SOL     OW37678   4.289   2.617   3.717  0.3639 -0.5323  0.1775
 8681SOL    HW137679   4.243   2.651   3.640 -0.3379  1.4516  1.4600
 8681SOL    HW237680   4.271   2.681   3.787  0.7120  0.6252 -0.7929
 8682SOL     OW37681   2.891   0.071   1.606 -0.6720  0.9213  0.1178
 8682SOL    HW137682   2.970   0.123   1.593 -0.1601  0.2856  0.6491
 8682SOL    HW237683   2.851   0.071   1.520 -0.3695 -1.5086 -0.0241
 8683SOL     OW37684   2.564   1.446   4.066  0.3152 -0.1767 -0.5457
 8683SOL    HW137685   2.489   1.414   4.116  0.5877 -1.2819 -0.8276
 8683SOL    HW237686   2.591   1.362   4.028  2.0415  0.0598  0.1753
 8684SOL     OW37687   4.494   3.889   2.705 -0.2999 -0.2079  0.4751
 8684SOL    HW137688   4.517   3.944   2.630  0.3898  0.2863  1.0514
 8684SOL    HW237689   4.509   3.949   2.777  2.1563 -0.6051  0.2957
 8685SOL     OW37690   1.317   1.304   8.938 -0.5871 -0.3869  0.1523
 8685SOL    HW137691   1.348   1.320   8.849  0.4097 -0.4659  0.4852
 8685SOL    HW237692   1.325   1.209   8.944 -0.5083 -0.3126  1.2615
 8686SOL     OW37693   4.617   3.494  15.304  0.5747 -0.8667  0.1586
 8686SOL    HW137694   4.678   3.567  15.290  0.8384 -0.9772  0.7453
 8686SOL    HW237695   4.546   3.516  15.244  2.2698  1.8917 -0.8687
 8687SOL     OW37696   0.537   1.032   3.723  0.1417 -0.6480  0.1352
 8687SOL    HW137697   0.602   1.077   3.669 -1.9281  1.5390 -0.5090
 8687SOL    HW237698   0.563   0.942   3.702 -3.7525 -1.4692 -1.0703
 8688SOL     OW37699   2.687   4.106   3.072  0.1752 -0.5262 -0.5687
 8688SOL    HW137700   2.726   4.106   3.159  0.4447  0.4166 -0.6832
 8688SOL    HW237701   2.609   4.158   3.093  0.2767 -0.7775  0.3920
 8689SOL     OW37702   3.573   2.679  13.325 -0.1017 -0.2311 -0.4445
 8689SOL    HW137703   3.631   2.613  13.363  0.1800  0.8372  0.9993
 8689SOL    HW237704   3.529   2.715  13.402 -0.0765 -0.6760 -0.2211
 8690SOL     OW37705   0.426   0.794   3.355 -0.1529  0.3978 -0.4481
 8690SOL    HW137706   0.330   0.790   3.358 -0.2035  0.6533 -1.9662
 8690SOL    HW237707   0.456   0.708   3.326 -1.3028 -0.9239  2.2575
 8691SOL     OW37708   1.065   3.244   5.424 -0.0088 -0.4022 -0.6725
 8691SOL    HW137709   1.104   3.295   5.494  0.1126  1.1114 -1.8342
 8691SOL    HW237710   1.101   3.281   5.343 -1.4540  2.8543  0.2036
 8692SOL     OW37711   2.153   2.466   8.154  0.2363 -0.1158  0.1427
 8692SOL    HW137712   2.078   2.409   8.172 -0.4585  0.6740 -0.2467
 8692SOL    HW237713   2.191   2.458   8.242 -1.8333  0.2832  1.0726
 8693SOL     OW37714   4.458   0.733  10.642 -0.5241  0.0902 -0.6919
 8693SOL    HW137715   4.450   0.667  10.573 -2.0434 -0.7850  0.3031
 8693SOL    HW237716   4.415   0.682  10.711  0.4050  1.8080  1.1523
 8694SOL     OW37717   1.842   2.108   2.255  0.8200  0.6717  0.2936
 8694SOL    HW137718   1.918   2.053   2.274  2.1213  2.6217  0.6705
 8694SOL    HW237719   1.819   2.077   2.167 -1.3330  0.9519  0.7495
 8695SOL     OW37720   4.598   3.944   5.904  0.0946  0.1717 -0.7476
 8695SOL    HW137721   4.620   3.978   5.991 -0.1402  1.3860 -1.1586
 8695SOL    HW237722   4.637   3.858   5.917 -1.5039 -0.4050  0.2536
 8696SOL     OW37723   2.663   0.321  12.378 -0.1620 -0.7663  0.5924
 8696SOL    HW137724   2.576   0.302  12.343 -1.1642  2.4559  1.2818
 8696SOL    HW237725   2.644   0.329  12.472  1.6873  2.9024  0.6490
 8697SOL     OW37726   1.956   3.028   4.369  0.3516 -0.0661  0.1754
 8697SOL    HW137727   2.014   2.979   4.311  2.0477  0.1741  1.6674
 8697SOL    HW237728   1.933   2.957   4.429 -1.6280 -0.1687 -0.7307
 8698SOL     OW37729   2.279   1.101   9.954  0.6565 -0.4256  0.5156
 8698SOL    HW137730   2.272   1.120  10.047  0.4459 -2.8166  0.9795
 8698SOL    HW237731   2.373   1.114   9.942  0.4559 -0.0278 -0.6024
 8699SOL     OW37732   3.053   2.444  12.835  0.0090  0.1381 -0.1600
 8699SOL    HW137733   3.037   2.516  12.775  1.1721 -1.3620 -2.2790
 8699SOL    HW237734   3.105   2.488  12.902  2.5460 -1.1823 -1.2682
 8700SOL     OW37735   4.358   0.005   2.605  0.3146 -0.0419  0.3621
 8700SOL    HW137736   4.265   0.023   2.613 -0.1473 -0.8114 -3.0853
 8700SOL    HW237737   4.392   0.095   2.603 -0.4486  0.2143 -1.2591
 8701SOL     OW37738   0.477   1.068   8.221  0.7994  0.1552  0.3300
 8701SOL    HW137739   0.524   1.037   8.298 -1.4232 -0.4656  1.4212
 8701SOL    HW237740   0.521   1.024   8.148  1.2527 -1.0797  1.3540
 8702SOL     OW37741   1.764   1.646   4.846 -0.0442  0.3667  0.3786
 8702SOL    HW137742   1.719   1.649   4.761  1.0718  0.0185 -0.2184
 8702SOL    HW237743   1.701   1.692   4.901  0.3873 -1.1432  2.1222
 8703SOL     OW37744   1.353   2.218   1.108  0.3758  0.8878  0.4991
 8703SOL    HW137745   1.290   2.193   1.040 -0.3306  0.7744  1.1957
 8703SOL    HW237746   1.409   2.141   1.115 -0.5624  0.2474  0.9346
 8704SOL     OW37747   2.876   2.704   3.480  0.3340  0.8792 -0.3841
 8704SOL    HW137748   2.812   2.720   3.410 -2.2564 -0.5528  1.6438
 8704SOL    HW237749   2.943   2.655   3.434 -1.0357 -2.3522  1.0894
 8705SOL     OW37750   0.043   3.182  12.468  0.0211  0.0819  0.1404
 8705SOL    HW137751   0.036   3.108  12.528 -0.5627 -1.0274 -1.2990
 8705SOL    HW237752   0.124   3.222  12.498 -0.0749 -0.5483  1.2124
 8706SOL     OW37753   3.075   0.625   3.865  0.3635 -0.3293  0.6827
 8706SOL    HW137754   3.170   0.616   3.859  0.3237  0.8632 -1.4502
 8706SOL    HW237755   3.050   0.621   3.773  1.0665 -3.2886  0.6066
 8707SOL     OW37756   0.140   4.459   3.210 -0.3474 -0.3263  0.4957
 8707SOL    HW137757   0.135   4.423   3.299 -0.4498  0.6622  0.8964
 8707SOL    HW237758   0.061   4.513   3.203 -1.1646 -1.5167  0.5291
 8708SOL     OW37759   0.582   4.021   9.836  0.3342  0.0983  0.3293
 8708SOL    HW137760   0.668   4.031   9.877 -0.9104  1.4037  2.5741
 8708SOL    HW237761   0.535   4.087   9.886 -1.4558 -0.5409 -0.5105
 8709SOL     OW37762   3.769   3.699   3.748 -0.7526  0.7611 -0.0329
 8709SOL    HW137763   3.814   3.645   3.814 -0.8517  1.4106  0.5721
 8709SOL    HW237764   3.810   3.676   3.665 -1.8573  0.9598 -0.6322
 8710SOL     OW37765   4.381   2.791   7.676 -0.2176  0.1494  0.6540
 8710SOL    HW137766   4.416   2.800   7.587 -0.2031 -1.0816  0.5322
 8710SOL    HW237767   4.432   2.715   7.705 -1.2956 -1.2766 -1.1478
 8711SOL     OW37768   3.135   2.227   7.052 -0.3015 -0.0767  0.2907
 8711SOL    HW137769   3.091   2.277   6.984  0.7154 -0.3838 -0.5971
 8711SOL    HW237770   3.209   2.285   7.070  0.0565 -0.1467 -0.9814
 8712SOL     OW37771   4.659   3.339  12.266  0.2622 -0.0516 -0.1300
 8712SOL    HW137772   4.702   3.424  12.272 -1.3563  0.7209  0.6978
 8712SOL    HW237773   4.706   3.284  12.328 -1.4046 -0.8216  0.4560
 8713SOL     OW37774   2.139   2.047   6.050  0.3194  0.4721  0.6190
 8713SOL    HW137775   2.091   1.964   6.051  0.5718  0.3185 -0.2377
 8713SOL    HW237776   2.203   2.031   5.981 -0.7253  0.1864 -0.2899
 8714SOL     OW37777   0.003   0.913   3.002  0.3614 -0.1604 -0.4425
 8714SOL    HW137778   0.023   0.967   2.926  1.8777 -1.8034 -1.2080
 8714SOL    HW237779   4.737   0.988   3.062 -1.3019 -1.6782  1.3062
 8715SOL     OW37780   2.256   3.108  12.288 -0.8123 -0.1224 -0.2928
 8715SOL    HW137781   2.215   3.192  12.268 -1.3172 -0.2898  0.0406
 8715SOL    HW237782   2.289   3.079  12.203  1.3097 -2.9317  1.5000
 8716SOL     OW37783   4.267   3.593  12.299 -0.0534  0.6342 -0.3691
 8716SOL    HW137784   4.310   3.620  12.218 -2.0899  1.1603 -1.2750
 8716SOL    HW237785   4.331   3.621  12.365  0.1029 -1.3459  0.3293
 8717SOL     OW37786   3.834   1.074  16.051 -0.0413  0.4468  0.6799
 8717SOL    HW137787   3.748   1.098  16.084 -0.8725 -0.9516 -0.4461
 8717SOL    HW237788   3.862   1.165  16.044  0.0074  0.5386  2.2350
 8718SOL     OW37789   2.598   4.289   0.930  0.4295 -0.3897 -0.2190
 8718SOL    HW137790   2.533   4.353   0.901 -0.3865 -1.1329 -0.0267
 8718SOL    HW237791   2.670   4.341   0.965 -1.2979  2.6547 -1.2011
 8719SOL     OW37792   0.183   0.071   2.032  0.5615 -0.2891  0.2889
 8719SOL    HW137793   0.095   0.101   2.055  1.3132  2.2091 -0.0645
 8719SOL    HW237794   0.225   0.126   2.098  2.4534  1.5101 -2.3830
 8720SOL     OW37795   4.040   3.780   2.043 -0.0621  0.6906 -0.3413
 8720SOL    HW137796   4.114   3.781   1.982  0.9209 -0.6674  0.8467
 8720SOL    HW237797   4.083   3.724   2.106  0.7710  0.9566 -0.6734
 8721SOL     OW37798   1.563   0.871  16.773  0.2208  0.5824  0.3165
 8721SOL    HW137799   1.631   0.836  16.715  1.1386  0.6143  1.3775
 8721SOL    HW237800   1.499   0.902  16.709  0.3922  1.0746  0.3818
 8722SOL     OW37801   2.221   1.444   3.328  0.6543 -0.5937  0.2666
 8722SOL    HW137802   2.236   1.379   3.395  1.8386 -1.1653 -0.5512
 8722SOL    HW237803   2.202   1.526   3.374  0.8936 -0.9585  0.9994
 8723SOL     OW37804   1.048   2.586   6.729 -0.7637  1.0967 -0.1192
 8723SOL    HW137805   1.057   2.605   6.636  2.8330 -0.3613 -0.0866
 8723SOL    HW237806   1.130   2.538   6.737 -0.4985  1.2946 -1.6657
 8724SOL     OW37807   3.138   3.497   1.136  0.1567 -0.0347  0.0001
 8724SOL    HW137808   3.182   3.576   1.168  2.4926 -0.2789 -2.6992
 8724SOL    HW237809   3.202   3.430   1.161  1.4378  0.2358 -2.5427
 8725SOL     OW37810   0.518   3.181   5.931 -0.0813 -0.6696 -0.2252
 8725SOL    HW137811   0.496   3.228   5.851  1.6748 -0.4473 -0.5766
 8725SOL    HW237812   0.525   3.095   5.889  3.7583 -0.5686  0.2005
 8726SOL     OW37813   0.015   3.030   2.951 -0.5473 -0.3406 -0.0610
 8726SOL    HW137814   4.722   3.055   3.038 -1.2949  0.3857 -0.5377
 8726SOL    HW237815   0.042   3.106   2.899  1.6356  0.5599  2.4195
 8727SOL     OW37816   1.532   0.140   6.849 -0.3089  0.0925  0.0970
 8727SOL    HW137817   1.552   0.102   6.764 -1.4704  0.7097 -0.4432
 8727SOL    HW237818   1.467   0.077   6.881 -0.4575 -0.6995 -1.8011
 8728SOL     OW37819   0.467   3.983  11.994  0.6769 -0.1173 -0.2592
 8728SOL    HW137820   0.372   3.973  11.985  0.6165 -0.3374  0.6749
 8728SOL    HW237821   0.489   3.890  11.994 -0.0131 -0.2751  2.0166
 8729SOL     OW37822   2.170   0.845   9.889 -0.7875  0.0106 -0.3054
 8729SOL    HW137823   2.175   0.940   9.891 -0.2480  0.0045 -1.3865
 8729SOL    HW237824   2.219   0.827   9.809 -3.1710 -1.1503 -1.5356
 8730SOL     OW37825   4.672   2.406   4.366  0.1316 -0.0668  0.0806
 8730SOL    HW137826   0.022   2.396   4.333  0.2545  2.4507 -0.3774
 8730SOL    HW237827   4.685   2.346   4.440  3.0785  0.9196  0.3694
 8731SOL     OW37828   3.716   2.719   1.927  0.0449  0.2956  0.2539
 8731SOL    HW137829   3.656   2.677   1.989  0.4233  1.5805  1.5047
 8731SOL    HW237830   3.661   2.780   1.877 -1.5170 -1.5098 -0.2552
 8732SOL     OW37831   2.199   4.186   1.797  0.0651 -1.0802 -0.5155
 8732SOL    HW137832   2.152   4.106   1.822  0.0162 -1.4291 -1.7698
 8732SOL    HW237833   2.253   4.149   1.728  1.3344  0.5452 -0.3890
 8733SOL     OW37834   2.008   0.079   9.076 -0.9565  0.0794  0.0829
 8733SOL    HW137835   2.007   0.030   8.993  1.2718 -1.4507  0.9568
 8733SOL    HW237836   2.016   0.002   9.132 -1.3520  0.0247  0.0596
 8734SOL     OW37837   2.728   2.443   4.567 -0.1983  0.0182 -0.2564
 8734SOL    HW137838   2.808   2.396   4.542 -0.8187 -1.4033  0.5006
 8734SOL    HW237839   2.700   2.404   4.649  2.9555 -0.5842  0.5440
 8735SOL     OW37840   4.033   1.469   2.632  0.2418  0.3186 -0.0888
 8735SOL    HW137841   4.007   1.538   2.692  0.8103  0.3650  0.0959
 8735SOL    HW237842   4.007   1.498   2.544  0.4728  0.4866 -0.1006
 8736SOL     OW37843   2.573   0.291   5.157  0.2637 -0.6135  0.2841
 8736SOL    HW137844   2.646   0.259   5.209  2.1136  0.1885 -1.8122
 8736SOL    HW237845   2.551   0.208   5.115 -1.1108 -1.1661  2.1186
 8737SOL     OW37846   3.045   2.057   7.511 -0.3231 -0.3197 -0.7985
 8737SOL    HW137847   2.964   2.010   7.493  0.0748 -1.0237 -0.7556
 8737SOL    HW237848   3.053   2.073   7.605 -1.4116  0.0306 -0.7702
 8738SOL     OW37849   2.197   2.194   4.978  0.1585 -0.1299 -0.2788
 8738SOL    HW137850   2.253   2.117   4.971 -0.1754 -0.5324  1.4881
 8738SOL    HW237851   2.177   2.190   5.071 -0.3102  0.6897 -0.3430
 8739SOL     OW37852   3.109   2.561   2.229  0.2559 -0.9015 -0.0504
 8739SOL    HW137853   3.033   2.566   2.286  0.0544 -1.3529 -0.2841
 8739SOL    HW237854   3.068   2.556   2.143  0.2696  1.0922 -0.1808
 8740SOL     OW37855   3.399   1.588   7.790 -0.1488  0.0794  0.2028
 8740SOL    HW137856   3.309   1.600   7.759 -0.5787 -0.8133  1.1153
 8740SOL    HW237857   3.388   1.576   7.885 -0.4608 -0.7326  0.0643
 8741SOL     OW37858   2.208   0.225   2.492  0.4579  0.4915 -0.0547
 8741SOL    HW137859   2.239   0.199   2.405  1.2798 -0.1708  0.4355
 8741SOL    HW237860   2.250   0.310   2.490 -1.3121  1.4020  1.6881
 8742SOL     OW37861   0.730   0.743   3.522 -0.1304 -0.4845 -0.1512
 8742SOL    HW137862   0.649   0.758   3.570  1.5987  0.4469  2.4762
 8742SOL    HW237863   0.768   0.831   3.522 -2.6378  0.5846  0.7978
 8743SOL     OW37864   0.389   1.414   2.307  0.1819 -0.6005  0.0521
 8743SOL    HW137865   0.359   1.427   2.397 -2.0296  0.2629 -0.7962
 8743SOL    HW237866   0.401   1.320   2.306  0.8432 -0.5070 -0.7027
 8744SOL     OW37867   0.133   2.965   1.942  0.3935 -0.2519  0.5603
 8744SOL    HW137868   0.133   2.871   1.925  0.3281 -0.4820  1.8149
 8744SOL    HW237869   0.158   2.968   2.035  0.4665  1.8241  0.4721
 8745SOL     OW37870   4.182   3.720   5.248 -0.6291 -0.3815 -0.3398
 8745SOL    HW137871   4.274   3.737   5.264 -1.0500 -0.1485  1.8260
 8745SOL    HW237872   4.183   3.735   5.153 -1.5132 -3.9359 -0.9268
 8746SOL     OW37873   3.070   3.398   4.621  0.1696 -0.4988 -0.0372
 8746SOL    HW137874   3.117   3.439   4.694  2.2412  0.7731 -2.0934
 8746SOL    HW237875   2.996   3.457   4.605  2.5730  2.0712 -1.5934
 8747SOL     OW37876   1.469   0.285   3.320 -0.0756  0.7224  0.1787
 8747SOL    HW137877   1.451   0.328   3.237 -0.9184 -1.6771 -0.8688
 8747SOL    HW237878   1.543   0.228   3.300 -1.6107 -1.4310  0.7412
 8748SOL     OW37879   0.572   0.368   2.296 -0.5618  0.4642 -0.1565
 8748SOL    HW137880   0.663   0.391   2.276  0.3766 -1.6726  1.6204
 8748SOL    HW237881   0.565   0.351   2.390 -2.7373 -0.4312 -0.4708
 8749SOL     OW37882   3.426   3.990   4.948 -0.3144 -0.4318  0.4141
 8749SOL    HW137883   3.404   3.928   4.879 -0.9356 -0.4512  0.6269
 8749SOL    HW237884   3.472   3.938   5.014 -1.5502  0.6951  2.1882
 8750SOL     OW37885   1.256   3.441   8.056 -0.2797  0.4084  0.3573
 8750SOL    HW137886   1.283   3.533   8.054  1.1669 -0.0203  0.6741
 8750SOL    HW237887   1.182   3.441   7.994 -1.3781 -3.8174  1.6853
 8751SOL     OW37888   2.342   3.114   4.905  0.2792 -0.3039  0.3827
 8751SOL    HW137889   2.318   3.023   4.920 -2.0989  0.2071 -0.3177
 8751SOL    HW237890   2.410   3.111   4.838 -0.8412  0.2971 -0.7838
 8752SOL     OW37891   3.449   1.960   2.178  0.0913  0.2540 -0.3949
 8752SOL    HW137892   3.363   1.953   2.136  0.4008  0.4453 -1.0613
 8752SOL    HW237893   3.493   2.032   2.132  1.1989 -0.2258 -0.0790
 8753SOL     OW37894   1.713   0.563   1.958  0.3698  0.2332 -0.1978
 8753SOL    HW137895   1.637   0.516   1.925 -1.1080  1.1524  1.8771
 8753SOL    HW237896   1.674   0.650   1.952  0.3215  0.3070  1.0670
 8754SOL     OW37897   3.310   2.240   2.633 -0.1326  0.1917 -0.6334
 8754SOL    HW137898   3.274   2.167   2.685 -0.8969 -0.5026 -2.1548
 8754SOL    HW237899   3.274   2.315   2.681  0.1436  0.9080 -1.5523
 8755SOL     OW37900   2.061   4.362   2.506 -0.2282 -0.4187  0.1763
 8755SOL    HW137901   2.043   4.398   2.419 -1.0314  0.0957  0.5578
 8755SOL    HW237902   2.157   4.368   2.508 -0.2071 -0.1930 -1.7101
 8756SOL     OW37903   3.465   2.160   4.514  0.8339 -0.6130 -0.0309
 8756SOL    HW137904   3.559   2.145   4.508  0.7766 -2.4777  3.8165
 8756SOL    HW237905   3.446   2.115   4.597  0.0674 -0.5420 -0.1670
 8757SOL     OW37906   1.078   3.958  16.251 -0.0164 -0.4519 -0.8069
 8757SOL    HW137907   1.032   4.042  16.261 -0.5651 -0.8428 -0.0538
 8757SOL    HW237908   1.011   3.899  16.286 -1.0304  0.9865 -0.3007
 8758SOL     OW37909   2.322   4.008   2.757 -0.1050  0.2542 -0.0245
 8758SOL    HW137910   2.243   4.029   2.707 -0.3927 -0.2975  0.1995
 8758SOL    HW237911   2.391   4.063   2.719  0.2140  0.2191  0.5027
 8759SOL     OW37912   1.400   0.299   8.574  0.2887 -0.2655  0.8946
 8759SOL    HW137913   1.474   0.353   8.601  0.0712  0.5226 -0.0711
 8759SOL    HW237914   1.429   0.246   8.500  1.9527  0.6602  0.8709
 8760SOL     OW37915   2.735   2.908   6.572  0.4256 -0.1263 -0.6388
 8760SOL    HW137916   2.777   2.943   6.651 -2.1117  0.4248  0.4742
 8760SOL    HW237917   2.655   2.865   6.603  1.5104 -0.2553  1.9763
 8761SOL     OW37918   0.742   1.237   2.100  0.2882  0.2146  0.3184
 8761SOL    HW137919   0.762   1.245   2.007  1.9533  1.6388  0.7967
 8761SOL    HW237920   0.814   1.184   2.134  1.1041  1.2994  0.2893
 8762SOL     OW37921   3.839   2.441  10.883  0.5418 -0.0282 -0.0971
 8762SOL    HW137922   3.931   2.463  10.870  0.3464 -0.1486 -1.7155
 8762SOL    HW237923   3.801   2.528  10.871  0.1895 -0.1767 -0.0741
 8763SOL     OW37924   1.120   1.719   8.056 -0.4234  0.1088 -0.0389
 8763SOL    HW137925   1.149   1.808   8.034  0.1911  0.3784  1.8250
 8763SOL    HW237926   1.179   1.668   8.001 -0.0433 -1.0891  1.4679
 8764SOL     OW37927   0.447   0.547   2.031  0.7134  0.1626  0.0414
 8764SOL    HW137928   0.412   0.479   1.974  0.7953  0.1599 -0.0062
 8764SOL    HW237929   0.386   0.619   2.013 -0.0466 -1.3173 -3.3323
 8765SOL     OW37930   0.132   0.997   9.416  0.2599 -0.1181  0.0047
 8765SOL    HW137931   0.151   0.966   9.505  1.3702 -0.7889 -0.4742
 8765SOL    HW237932   0.064   0.935   9.388 -2.4650  2.8888 -0.0525
 8766SOL     OW37933   4.147   0.594   9.287 -0.2578 -0.3039  0.0504
 8766SOL    HW137934   4.161   0.499   9.289  0.7768 -0.1876 -1.7186
 8766SOL    HW237935   4.178   0.608   9.376  0.4036  1.1538 -0.4164
 8767SOL     OW37936   2.745   2.396  15.697 -0.1357  0.4898 -0.2825
 8767SOL    HW137937   2.752   2.312  15.651 -1.4989 -0.0401  0.4960
 8767SOL    HW237938   2.836   2.424  15.686  1.3745 -4.2327  0.1448
 8768SOL     OW37939   1.343   0.577   9.581 -0.5556  0.5240  0.1417
 8768SOL    HW137940   1.428   0.565   9.538 -0.6228  1.0089 -0.1262
 8768SOL    HW237941   1.292   0.509   9.537  0.2711  0.2533 -0.3958
 8769SOL     OW37942   0.893   2.299   6.181  0.2573  0.4021  0.4153
 8769SOL    HW137943   0.826   2.253   6.131  0.8642 -0.9684  0.8593
 8769SOL    HW237944   0.859   2.275   6.268 -1.0543  3.3101  0.6940
 8770SOL     OW37945   1.934   0.314   6.191  0.5050  0.1432 -0.0160
 8770SOL    HW137946   1.995   0.241   6.201 -0.9580 -0.8122  2.0420
 8770SOL    HW237947   1.992   0.390   6.193  0.2280  0.3699 -0.7652
 8771SOL     OW37948   4.632   3.875   7.517  0.5188  0.0914 -0.3558
 8771SOL    HW137949   4.542   3.841   7.526  0.8562 -0.5538  0.6382
 8771SOL    HW237950   4.653   3.838   7.431 -2.9584 -0.9748 -0.7895
 8772SOL     OW37951   0.331   4.612   6.084  0.5797 -0.1363 -0.1044
 8772SOL    HW137952   0.312   4.626   6.177 -2.5149  1.2332 -0.9523
 8772SOL    HW237953   0.413   4.661   6.077  1.6325 -1.6926  1.1402
 8773SOL     OW37954   2.104   2.106   5.607 -0.2645 -0.1273  0.0216
 8773SOL    HW137955   2.065   2.144   5.686 -3.7287  0.2460 -1.8547
 8773SOL    HW237956   2.035   2.137   5.548  1.4732 -1.6459 -2.7931
 8774SOL     OW37957   4.215   0.345  13.605  0.0206  0.0234  0.0439
 8774SOL    HW137958   4.131   0.387  13.588  1.5589  2.6595 -0.9620
 8774SOL    HW237959   4.241   0.388  13.687  1.4660  0.0172 -0.4163
 8775SOL     OW37960   3.043   1.320   7.621 -0.0156  0.0085  0.6743
 8775SOL    HW137961   3.098   1.270   7.561  0.7318  1.6458 -0.0188
 8775SOL    HW237962   2.964   1.266   7.613 -0.9338  1.0808  2.5818
 8776SOL     OW37963   0.963   0.637  13.305 -0.5449  0.4793 -0.0607
 8776SOL    HW137964   0.896   0.585  13.348  0.6411  0.0817  1.3270
 8776SOL    HW237965   0.920   0.711  13.261  2.4077  1.4179 -1.3993
 8777SOL     OW37966   4.384   4.612   2.300 -0.3890 -0.0012 -0.8759
 8777SOL    HW137967   4.464   4.572   2.333 -1.0985  0.4962  1.4187
 8777SOL    HW237968   4.364   4.679   2.365  1.4778  1.2629 -1.5945
 8778SOL     OW37969   1.159   3.440   1.387  0.6915 -0.2753  0.0048
 8778SOL    HW137970   1.204   3.376   1.442  1.1179  0.8181  0.9371
 8778SOL    HW237971   1.227   3.494   1.346  0.9209  0.6251  1.5492
 8779SOL     OW37972   3.802   1.281   5.809 -0.3911  0.2590 -0.8322
 8779SOL    HW137973   3.742   1.353   5.788 -1.4956 -0.2543  0.6340
 8779SOL    HW237974   3.875   1.333   5.844 -1.2797  1.1001 -0.2048
 8780SOL     OW37975   0.973   0.684   4.445 -0.4604  0.3406 -0.0883
 8780SOL    HW137976   1.043   0.638   4.491 -1.0320 -0.3086  0.1274
 8780SOL    HW237977   1.027   0.706   4.369  0.4354 -2.2172 -0.1960
 8781SOL     OW37978   1.025   4.670  16.080  0.5814  0.0505  0.7442
 8781SOL    HW137979   0.951   4.613  16.060 -1.0208  2.4832 -0.2700
 8781SOL    HW237980   1.009   0.005  16.021  1.4729 -0.1625  0.2436
 8782SOL     OW37981   1.393   1.385   7.152 -0.6782  0.1352  0.0250
 8782SOL    HW137982   1.472   1.414   7.197 -0.5644 -0.7934  0.4135
 8782SOL    HW237983   1.425   1.307   7.107 -0.1883 -0.6032  1.6460
 8783SOL     OW37984   4.215   1.372   2.971  0.0758 -0.1411 -0.0837
 8783SOL    HW137985   4.169   1.381   3.055 -0.0579  2.9251 -0.4765
 8783SOL    HW237986   4.153   1.320   2.919 -0.3559  1.9035 -1.6025
 8784SOL     OW37987   4.140   3.650   1.670 -0.1351 -0.3686  0.3156
 8784SOL    HW137988   4.099   3.571   1.705  0.4239 -0.6447  0.3464
 8784SOL    HW237989   4.151   3.637   1.576  1.2495  1.3847  0.2543
 8785SOL     OW37990   0.696   1.421  13.549 -0.0639  0.0317  0.0782
 8785SOL    HW137991   0.787   1.420  13.580  0.9406  2.3256 -2.7432
 8785SOL    HW237992   0.646   1.448  13.625 -0.4859  0.2861 -0.2908
 8786SOL     OW37993   3.275   3.370   0.111 -0.2768  0.2742 -0.1149
 8786SOL    HW137994   3.240   3.281   0.109  0.0478  0.1199  1.2788
 8786SOL    HW237995   3.317   3.365   0.025 -0.0201 -0.7744  0.0694
 8787SOL     OW37996   2.668   0.554   2.134  0.1268  0.4485  0.2523
 8787SOL    HW137997   2.610   0.489   2.092 -0.1424  1.1924 -0.5222
 8787SOL    HW237998   2.740   0.497   2.161 -1.5567 -1.3001  1.1380
 8788SOL     OW37999   1.144   4.030   4.563 -0.2845  0.3118 -1.0094
 8788SOL    HW138000   1.089   4.106   4.544 -0.7023  0.2509 -0.0485
 8788SOL    HW238001   1.115   3.961   4.503 -1.7254  0.1163 -0.0935
 8789SOL     OW38002   3.894   1.527   8.901  0.1292 -0.4703  0.1722
 8789SOL    HW138003   3.929   1.538   8.813  0.3011 -0.3886  0.2505
 8789SOL    HW238004   3.848   1.444   8.887 -1.0795  0.1632  0.4138
 8790SOL     OW38005   3.430   3.431   3.213  0.6965  0.1526  0.2374
 8790SOL    HW138006   3.524   3.448   3.216  0.8793 -0.9609  0.8099
 8790SOL    HW238007   3.403   3.492   3.282 -0.5493  0.5754 -0.6345
 8791SOL     OW38008   2.976   3.444   6.248 -0.0397 -0.0274  0.6025
 8791SOL    HW138009   3.022   3.412   6.170 -1.2983  0.2409 -0.2416
 8791SOL    HW238010   3.011   3.390   6.319  0.9072  0.1497  0.2766
 8792SOL     OW38011   2.788   3.262  15.715 -0.0559 -0.1814  0.6715
 8792SOL    HW138012   2.715   3.201  15.701  1.7142 -1.7382 -1.6197
 8792SOL    HW238013   2.805   3.298  15.628  2.8496 -1.6954  0.6294
 8793SOL     OW38014   0.327   0.473   5.491  0.3073 -0.8926  0.1755
 8793SOL    HW138015   0.365   0.531   5.557 -1.2994 -0.4519  0.7086
 8793SOL    HW238016   0.391   0.491   5.422  1.7534 -3.3521  0.8783
 8794SOL     OW38017   1.972   0.879   2.425  0.3882  0.1740  0.2168
 8794SOL    HW138018   1.905   0.934   2.464 -0.1374  1.0131 -1.8759
 8794SOL    HW238019   2.011   0.840   2.504  1.1385  1.8818  0.6844
 8795SOL     OW38020   4.294   1.817   1.465 -0.2269 -0.4808 -0.4484
 8795SOL    HW138021   4.246   1.873   1.526 -0.0053 -1.2127  0.3956
 8795SOL    HW238022   4.355   1.879   1.424 -1.0548  0.5138 -0.1640
 8796SOL     OW38023   2.617   2.773   4.323 -0.6749 -0.0156  0.1662
 8796SOL    HW138024   2.667   2.852   4.346  0.8537 -0.5514 -1.3645
 8796SOL    HW238025   2.594   2.735   4.408  0.9568 -1.4294 -0.0429
 8797SOL     OW38026   0.174   3.066   9.172  0.3694 -0.1540 -0.2810
 8797SOL    HW138027   0.249   3.007   9.167  1.5762  1.4989 -1.8366
 8797SOL    HW238028   0.198   3.117   9.094 -1.8612  2.3555  0.6913
 8798SOL     OW38029   0.631   0.258   8.955  0.0743 -0.6842 -0.0323
 8798SOL    HW138030   0.679   0.282   9.034 -3.2092 -0.7112  1.9950
 8798SOL    HW238031   0.574   0.184   8.978 -1.4817  0.7479  0.7454
 8799SOL     OW38032   0.649   3.314  16.910  0.9243 -0.1261 -0.0161
 8799SOL    HW138033   0.582   3.382  16.901  2.1473  1.1461  0.4865
 8799SOL    HW238034   0.727   3.368  16.899  0.3398  0.3954 -1.7064
 8800SOL     OW38035   0.440   3.842   3.380  0.3471  0.6699  0.5774
 8800SOL    HW138036   0.395   3.897   3.315 -0.8674  3.3492  3.6598
 8800SOL    HW238037   0.523   3.817   3.340 -0.0289  0.7704 -0.2726
 8801SOL     OW38038   1.989   1.453   7.318  0.4719 -0.4927  0.2567
 8801SOL    HW138039   1.924   1.485   7.254  2.1565 -0.8357 -1.6302
 8801SOL    HW238040   1.991   1.531   7.373 -3.4718  0.5219 -1.0227
 8802SOL     OW38041   4.288   2.493  17.062 -0.0700 -0.0167  0.4348
 8802SOL    HW138042   4.368   2.514  17.015 -0.1856 -0.8038 -0.1121
 8802SOL    HW238043   4.277   2.399  17.047  1.7939  0.0815 -1.4477
 8803SOL     OW38044   1.366   0.086  12.702 -0.2024  0.1782 -0.1446
 8803SOL    HW138045   1.358   0.113  12.611 -2.9684  1.7901  0.5532
 8803SOL    HW238046   1.454   0.048  12.693 -0.1429 -0.4910  3.2089
 8804SOL     OW38047   4.709   0.581   8.284 -0.0164 -0.4138  0.0899
 8804SOL    HW138048   4.700   0.650   8.349  1.8689  0.5526 -0.7019
 8804SOL    HW238049   0.042   0.602   8.226 -1.3915 -1.3533 -2.0024
 8805SOL     OW38050   3.954   3.457   7.112  0.4807  0.1043 -0.2883
 8805SOL    HW138051   3.902   3.457   7.192  2.4954 -1.3472  1.0038
 8805SOL    HW238052   3.908   3.508   7.045  1.2347 -3.0715 -3.2181
 8806SOL     OW38053   4.090   0.999   4.124 -0.4643  0.2858  0.1143
 8806SOL    HW138054   4.174   1.002   4.077 -0.4828 -1.5787 -0.0583
 8806SOL    HW238055   4.099   0.920   4.178 -0.0687  0.8232  0.8361
 8807SOL     OW38056   3.713   0.461   3.762  1.0473 -0.1235 -0.3155
 8807SOL    HW138057   3.748   0.542   3.797  1.6180 -1.3905  2.0327
 8807SOL    HW238058   3.699   0.479   3.669  1.0595 -1.6870 -0.6288
 8808SOL     OW38059   0.501   3.244   9.318 -0.2457 -0.3841 -0.4422
 8808SOL    HW138060   0.571   3.218   9.259 -1.5471 -1.9960 -1.2765
 8808SOL    HW238061   0.552   3.288   9.386 -0.1428 -1.6283  0.2791
 8809SOL     OW38062   2.928   1.034   2.693  0.5388 -0.2506 -0.3528
 8809SOL    HW138063   2.904   1.051   2.784 -2.0528 -1.0712 -0.8853
 8809SOL    HW238064   2.854   0.978   2.669 -0.4820  1.2133 -0.5776
 8810SOL     OW38065   3.071   3.784   7.726  0.6086 -0.3312  0.4402
 8810SOL    HW138066   3.139   3.716   7.732  0.1852 -0.4757  3.5311
 8810SOL    HW238067   3.015   3.738   7.790  0.8138  1.8290  2.1722
 8811SOL     OW38068   0.931   0.786   8.463 -0.1383 -0.3259 -0.0530
 8811SOL    HW138069   0.980   0.726   8.519  0.5018 -0.7652 -1.0889
 8811SOL    HW238070   0.861   0.725   8.441 -0.2910 -0.7869  1.6516
 8812SOL     OW38071   0.969   1.960  11.375 -0.4957 -0.3806  0.0169
 8812SOL    HW138072   0.962   1.888  11.311 -2.5863 -0.0506 -0.1286
 8812SOL    HW238073   0.961   2.046  11.334  1.3980  0.4101  1.2993
 8813SOL     OW38074   0.237   3.368   5.458  0.4276  0.3218 -0.2493
 8813SOL    HW138075   0.249   3.284   5.503 -1.3228  1.2441  1.9306
 8813SOL    HW238076   0.305   3.411   5.510 -1.7304  0.8368  2.1323
 8814SOL     OW38077   1.931   0.615   3.966  0.1466  0.3348 -0.3849
 8814SOL    HW138078   1.869   0.543   3.979  0.0914  0.3791 -0.4034
 8814SOL    HW238079   1.990   0.607   4.041  1.4736  0.6299 -1.4047
 8815SOL     OW38080   1.759   4.135  12.367  0.1703 -0.2654 -0.4783
 8815SOL    HW138081   1.808   4.064  12.326  0.5566  0.0736 -0.6040
 8815SOL    HW238082   1.669   4.103  12.364  0.1902 -0.1426 -2.2780
 8816SOL     OW38083   3.443   1.949  11.248  0.4725  0.0763 -0.5822
 8816SOL    HW138084   3.488   1.916  11.325 -0.8128  1.0172  0.5672
 8816SOL    HW238085   3.476   2.038  11.231 -0.7062  0.7399  0.5465
 8817SOL     OW38086   2.546   3.412   6.136 -0.1187 -0.1334  0.2014
 8817SOL    HW138087   2.504   3.475   6.077  0.0492 -0.1088  0.1087
 8817SOL    HW238088   2.587   3.352   6.074  1.4883 -1.9082  3.0347
 8818SOL     OW38089   3.249   0.157  14.956 -0.0078  0.1215  0.2567
 8818SOL    HW138090   3.270   0.209  15.034  0.7877  1.0899 -0.6022
 8818SOL    HW238091   3.290   0.198  14.880 -1.6548  0.3002 -0.5334
 8819SOL     OW38092   4.150   4.452   5.535  0.7340 -0.3829  0.2289
 8819SOL    HW138093   4.168   4.527   5.479  1.8462 -0.8903 -0.0958
 8819SOL    HW238094   4.200   4.479   5.612  0.8556  0.7405 -0.2398
 8820SOL     OW38095   2.676   0.447   2.515 -0.2352  0.2133 -0.0795
 8820SOL    HW138096   2.645   0.471   2.428 -1.7930  0.9591  0.6833
 8820SOL    HW238097   2.667   0.352   2.505  0.2926  0.2149 -0.6101
 8821SOL     OW38098   3.572   4.350   1.216 -0.3961  0.2647  0.3992
 8821SOL    HW138099   3.528   4.369   1.133 -1.3546  1.8415  1.2592
 8821SOL    HW238100   3.667   4.349   1.208 -0.2621 -3.8210  2.1375
 8822SOL     OW38101   2.550   1.736   3.548  0.1259 -0.0311  0.3541
 8822SOL    HW138102   2.547   1.779   3.462 -2.1304  1.2614  1.0819
 8822SOL    HW238103   2.558   1.803   3.615  0.1351 -0.6618  0.9792
 8823SOL     OW38104   4.078   0.941   6.896  0.3750  0.0083 -0.4077
 8823SOL    HW138105   4.082   0.874   6.828  0.2742  0.0253 -0.4294
 8823SOL    HW238106   4.156   0.917   6.946 -0.6477 -1.4370  0.4787
 8824SOL     OW38107   1.146   3.198  13.906 -0.0294 -0.4142 -0.0130
 8824SOL    HW138108   1.208   3.219  13.975 -0.0787  0.0025 -0.0979
 8824SOL    HW238109   1.169   3.267  13.844 -0.3408 -0.9368 -0.7087
 8825SOL     OW38110   3.884   0.496  12.628 -0.6619 -0.0737  0.2212
 8825SOL    HW138111   3.908   0.406  12.651 -0.2155 -0.2339 -0.8891
 8825SOL    HW238112   3.938   0.518  12.553 -0.6406 -1.1557 -0.0859
 8826SOL     OW38113   3.515   1.536  11.718 -0.3321 -0.1606  0.1059
 8826SOL    HW138114   3.471   1.488  11.648  1.5986 -1.2598 -0.3745
 8826SOL    HW238115   3.444   1.581  11.763  0.1859 -0.1777  0.9371
 8827SOL     OW38116   3.818   1.554  11.882  0.5793  0.2928  0.3522
 8827SOL    HW138117   3.889   1.495  11.905  0.2820  0.7598  2.5409
 8827SOL    HW238118   3.871   1.622  11.841 -1.1951  2.2386  1.2632
 8828SOL     OW38119   4.663   1.757  15.367  0.6399  0.0071 -0.0884
 8828SOL    HW138120   4.630   1.836  15.409  0.2780  0.5658 -1.4207
 8828SOL    HW238121   4.633   1.773  15.278  0.3552 -1.5130 -0.2633
 8829SOL     OW38122   4.037   3.177   7.195  0.1974 -0.0606  0.2567
 8829SOL    HW138123   4.030   3.260   7.149  2.2180  0.7395  1.4011
 8829SOL    HW238124   4.000   3.203   7.280 -0.5916 -3.1153  0.8479
 8830SOL     OW38125   0.880   2.567  11.978  0.4289 -0.1849  0.8468
 8830SOL    HW138126   0.823   2.556  11.901  2.0324 -0.8719 -0.2291
 8830SOL    HW238127   0.832   2.521  12.048  1.2990 -0.5160  1.2209
 8831SOL     OW38128   0.497   2.038  13.373  0.2550 -0.4591 -0.0658
 8831SOL    HW138129   0.421   2.011  13.423 -1.3954 -0.2008 -2.4537
 8831SOL    HW238130   0.529   1.949  13.357  0.5540 -0.3196 -0.2527
 8832SOL     OW38131   1.292   1.112   8.541 -0.0796  0.0979 -0.4202
 8832SOL    HW138132   1.302   1.095   8.447 -0.2382  1.3976 -0.6752
 8832SOL    HW238133   1.279   1.019   8.560  0.4895 -0.4962 -2.9154
 8833SOL     OW38134   1.074   1.783   0.062  0.3163 -0.1746 -0.4977
 8833SOL    HW138135   1.017   1.844   0.108 -0.8150 -1.1827 -0.5584
 8833SOL    HW238136   1.105   1.735   0.139 -0.6350  1.0429  0.6453
 8834SOL     OW38137   1.330   4.250   1.479 -0.7421 -0.1057 -0.0253
 8834SOL    HW138138   1.291   4.303   1.409  0.9337  1.2990  0.0894
 8834SOL    HW238139   1.401   4.308   1.505 -0.8940  0.5682 -1.1179
 8835SOL     OW38140   4.565   2.692   5.217 -0.1915  0.2485 -0.0459
 8835SOL    HW138141   4.602   2.653   5.296 -0.6901 -1.5841 -0.7172
 8835SOL    HW238142   4.481   2.648   5.215 -1.3585  2.4958 -0.3526
 8836SOL     OW38143   1.327   4.644   4.461 -0.2704  0.6133 -0.4641
 8836SOL    HW138144   1.360   4.677   4.545  1.1408  0.8507 -1.1130
 8836SOL    HW238145   1.284   4.567   4.497  0.4586  0.4298  0.0175
 8837SOL     OW38146   3.917   1.423  11.047 -0.1010  0.3169  0.5945
 8837SOL    HW138147   3.891   1.503  11.001 -1.1154  0.1111  0.8290
 8837SOL    HW238148   3.880   1.352  10.996 -1.2027  2.5862 -1.7649
 8838SOL     OW38149   2.863   4.579  11.286 -1.0461  0.0416 -0.3860
 8838SOL    HW138150   2.846   4.637  11.212 -1.8917 -0.4461 -0.5664
 8838SOL    HW238151   2.911   4.645  11.337  0.7201 -1.4350 -0.1253
 8839SOL     OW38152   4.673   2.631   2.423 -0.3402  0.8972 -0.1851
 8839SOL    HW138153   4.735   2.673   2.363 -0.2197  1.5672  0.4014
 8839SOL    HW238154   4.591   2.640   2.373  0.8945  1.8689 -2.0379
 8840SOL     OW38155   0.682   2.012   8.297  0.1144 -0.1095 -0.1600
 8840SOL    HW138156   0.737   1.935   8.310  0.6147  0.0204 -1.5425
 8840SOL    HW238157   0.735   2.051   8.228 -1.6168 -1.0075 -2.0378
 8841SOL     OW38158   0.692   3.352   9.842  0.3305  0.2437  0.2158
 8841SOL    HW138159   0.647   3.434   9.864 -2.2897 -1.5780  1.6442
 8841SOL    HW238160   0.652   3.329   9.758 -3.8028 -0.2397  2.3069
 8842SOL     OW38161   1.879   3.971   2.647 -0.3922 -0.1494 -0.6684
 8842SOL    HW138162   1.969   4.001   2.637  0.6168 -1.9999  2.6856
 8842SOL    HW238163   1.842   3.999   2.563  0.6758  0.0050 -1.0903
 8843SOL     OW38164   2.125   4.306   5.360 -0.0411 -0.2733  0.4125
 8843SOL    HW138165   2.153   4.268   5.443 -1.1358 -0.3799  0.7400
 8843SOL    HW238166   2.071   4.235   5.325  4.5301 -3.8970  0.6676
 8844SOL     OW38167   2.150   2.378  11.727 -0.2278 -0.0251  0.3126
 8844SOL    HW138168   2.218   2.431  11.685  0.0918 -1.4970 -1.0362
 8844SOL    HW238169   2.099   2.448  11.768 -1.2160 -1.5139  1.5928
 8845SOL     OW38170   3.269   3.813   6.590  0.0469 -0.1605  0.0629
 8845SOL    HW138171   3.317   3.738   6.556 -0.1316 -0.2413 -0.0081
 8845SOL    HW238172   3.310   3.818   6.677  1.6497 -1.6455 -0.6029
 8846SOL     OW38173   1.806   3.772   4.246  0.1061 -0.2564  0.8996
 8846SOL    HW138174   1.754   3.802   4.320 -1.1888  0.5561 -0.3651
 8846SOL    HW238175   1.766   3.686   4.234 -2.4501  1.3260 -1.8821
 8847SOL     OW38176   3.643   2.084   0.203 -0.0821  0.0449  0.5739
 8847SOL    HW138177   3.724   2.035   0.214  0.7336  0.7750 -2.0695
 8847SOL    HW238178   3.698   2.160   0.185 -2.7491  2.3089  1.8917
 8848SOL     OW38179   0.741   1.944  15.733 -0.3265 -0.6690 -0.5015
 8848SOL    HW138180   0.667   1.890  15.762 -0.2675 -0.9628 -0.8956
 8848SOL    HW238181   0.807   1.882  15.703  3.1260  1.5620  2.5491
 8849SOL     OW38182   0.165   0.002   1.502 -0.2334 -0.6146 -0.3034
 8849SOL    HW138183   0.215   0.073   1.542  0.2918 -1.3805  0.4189
 8849SOL    HW238184   0.153   4.684   1.578 -2.4348 -2.3572 -1.9566
 8850SOL     OW38185   2.123   0.509   6.093  0.5946  0.4735 -0.0544
 8850SOL    HW138186   2.200   0.452   6.096 -1.5583 -2.1732  4.7951
 8850SOL    HW238187   2.159   0.584   6.045 -1.7066  1.9666  0.5735
 8851SOL     OW38188   4.290   3.189   5.150  0.2984  0.3154 -0.1371
 8851SOL    HW138189   4.311   3.277   5.120 -0.7845  0.3864 -0.7028
 8851SOL    HW238190   4.195   3.181   5.148  0.2039  1.4308 -0.2678
 8852SOL     OW38191   2.740   2.045   3.310 -0.3552 -0.7264 -0.3665
 8852SOL    HW138192   2.697   2.001   3.236 -0.9595  1.9079 -1.5958
 8852SOL    HW238193   2.680   2.033   3.384  0.1303 -2.1150 -0.2010
 8853SOL     OW38194   4.167   2.675   1.275  0.2497  0.4555 -0.4628
 8853SOL    HW138195   4.144   2.647   1.186  1.2064 -0.3407 -0.4677
 8853SOL    HW238196   4.080   2.680   1.313  0.6112  1.0541  0.2840
 8854SOL     OW38197   0.042   0.452   7.943  0.3573 -0.3085 -0.1758
 8854SOL    HW138198   4.732   0.379   7.979 -1.4202  1.4176  0.9391
 8854SOL    HW238199   0.115   0.405   7.905  0.1338  0.0974 -1.1078
 8855SOL     OW38200   2.561   0.291  16.956 -0.0940  0.1531  0.0163
 8855SOL    HW138201   2.516   0.364  16.999 -0.0737  0.3283 -0.2598
 8855SOL    HW238202   2.485   0.233  16.947  0.2003 -0.4865  1.7148
 8856SOL     OW38203   3.836   3.814  17.095  0.0168  0.0129  0.2411
 8856SOL    HW138204   3.849   3.720  17.080 -2.2772 -0.2058 -0.3978
 8856SOL    HW238205   3.788   3.818  17.177  0.5608  0.1905  0.5509
 8857SOL     OW38206   2.787   0.108   7.226 -0.6024 -0.2327  0.0778
 8857SOL    HW138207   2.863   0.051   7.225 -0.6968 -0.3720  1.4353
 8857SOL    HW238208   2.806   0.154   7.307  2.3811 -1.2571 -0.0327
 8858SOL     OW38209   4.597   3.326  16.832  0.3399  0.0695  0.0105
 8858SOL    HW138210   4.674   3.384  16.834 -0.1959  0.7583  0.8097
 8858SOL    HW238211   4.541   3.394  16.869 -1.8163 -1.7648  0.0718
 8859SOL     OW38212   3.942   2.499   7.526  0.0013 -0.0439  0.2531
 8859SOL    HW138213   3.976   2.563   7.588  0.5147 -1.2205  1.1995
 8859SOL    HW238214   4.016   2.439   7.522 -0.6276 -0.6695 -1.7056
 8860SOL     OW38215   3.520   3.179  11.639  0.1273 -0.7529  0.1900
 8860SOL    HW138216   3.514   3.211  11.549  0.6726  0.6481  0.6530
 8860SOL    HW238217   3.537   3.087  11.617 -2.8437 -0.7623 -2.2214
 8861SOL     OW38218   2.362   2.814   1.327  0.3367  0.1964  0.3704
 8861SOL    HW138219   2.348   2.772   1.242  2.1006  1.0835 -0.3458
 8861SOL    HW238220   2.424   2.884   1.305 -0.2458  0.7278  0.4231
 8862SOL     OW38221   4.467   4.364   5.914 -0.5712  0.0760 -0.4870
 8862SOL    HW138222   4.504   4.382   5.828 -1.0174 -0.5041 -0.7980
 8862SOL    HW238223   4.540   4.374   5.976 -0.6385 -0.6554 -0.2845
 8863SOL     OW38224   2.913   3.687   4.318 -0.0966  0.2146 -0.0417
 8863SOL    HW138225   3.002   3.682   4.352 -0.7547 -0.8152  1.5244
 8863SOL    HW238226   2.873   3.609   4.355  0.6334 -0.0435  0.2017
 8864SOL     OW38227   4.246   2.074   2.248 -0.5593  0.0414 -0.6738
 8864SOL    HW138228   4.175   2.128   2.282  0.0575  1.0054 -0.9206
 8864SOL    HW238229   4.264   2.115   2.164  3.3801  1.3102  0.8054
 8865SOL     OW38230   0.055   3.518   3.314 -0.4855 -0.0194 -0.3222
 8865SOL    HW138231   0.075   3.607   3.346 -1.0583 -0.2015  0.5247
 8865SOL    HW238232   0.029   3.490   3.401  1.4516  0.2864  0.3648
 8866SOL     OW38233   0.022   1.345   8.378  0.5614 -0.5284 -0.2929
 8866SOL    HW138234   0.101   1.310   8.417  0.4172 -0.9858 -0.4109
 8866SOL    HW238235   0.001   1.273   8.318  0.9708 -1.9812  1.3174
 8867SOL     OW38236   3.960   0.743  13.611  0.0918 -0.3894 -0.1570
 8867SOL    HW138237   3.869   0.769  13.626  0.0255  1.4840 -3.7206
 8867SOL    HW238238   3.958   0.655  13.647 -0.3215 -0.7564 -1.0769
 8868SOL     OW38239   4.200   3.872   6.552  0.6685 -0.0074 -0.2669
 8868SOL    HW138240   4.134   3.807   6.578 -0.0092  1.4410  1.5766
 8868SOL    HW238241   4.204   3.859   6.457 -0.9491 -2.4504 -0.0332
 8869SOL     OW38242   1.110   3.043   8.932  0.1358 -0.1647  0.0854
 8869SOL    HW138243   1.106   3.127   8.977 -0.4162 -0.7179  1.0727
 8869SOL    HW238244   1.087   2.993   9.010 -0.5483  0.1320  0.0703
 8870SOL     OW38245   1.914   0.064   5.221  0.3808 -0.5197  0.0453
 8870SOL    HW138246   1.956   4.727   5.259  2.6078  0.1382 -1.1406
 8870SOL    HW238247   1.974   0.138   5.232  0.8740 -0.6390 -1.8339
 8871SOL     OW38248   1.211   1.338   0.197  0.5719 -0.6380 -0.2444
 8871SOL    HW138249   1.247   1.270   0.140  3.6334 -0.4655  1.5080
 8871SOL    HW238250   1.263   1.337   0.277  1.6811 -1.5799 -0.9777
 8872SOL     OW38251   3.977   3.624   8.118  0.8762  0.1491  0.0214
 8872SOL    HW138252   3.962   3.677   8.040 -0.2073 -1.0154 -0.5374
 8872SOL    HW238253   4.012   3.543   8.082  1.8398  0.3066  0.5967
 8873SOL     OW38254   1.581   4.000   5.050  0.0426 -0.3289  0.2265
 8873SOL    HW138255   1.629   4.057   4.990  1.6551  0.8538  2.6342
 8873SOL    HW238256   1.610   3.916   5.016  1.5231  0.6120 -0.8301
 8874SOL     OW38257   3.909   2.531  15.966 -0.4099  0.1635  0.0511
 8874SOL    HW138258   3.998   2.536  15.931 -0.2441 -1.3521  0.2663
 8874SOL    HW238259   3.885   2.623  15.980  1.8532  0.8221 -0.3966
 8875SOL     OW38260   4.667   4.585  16.647  0.1084 -0.3559 -0.2539
 8875SOL    HW138261   4.631   4.552  16.565 -1.2788  0.4838  0.0258
 8875SOL    HW238262   4.590   4.634  16.677  1.1550  1.3857 -0.3853
 8876SOL     OW38263   4.083   0.745  16.793  0.2787  0.2832 -0.4365
 8876SOL    HW138264   4.035   0.775  16.715 -0.4229  3.2043  1.1216
 8876SOL    HW238265   4.099   0.832  16.829  2.2376 -0.9765  1.7296
 8877SOL     OW38266   1.524   2.445   3.178 -0.0367 -0.1535  0.3290
 8877SOL    HW138267   1.458   2.417   3.114 -0.1139  0.4191  0.1577
 8877SOL    HW238268   1.465   2.490   3.238 -3.2815 -0.6977 -2.4224
 8878SOL     OW38269   0.464   4.110   4.856 -0.1278  0.0006  0.2587
 8878SOL    HW138270   0.525   4.037   4.860 -1.0292 -0.7199  0.8165
 8878SOL    HW238271   0.501   4.177   4.913 -0.9299  0.0208  0.7572
 8879SOL     OW38272   0.046   2.840   5.430 -0.3505 -0.6476  1.0995
 8879SOL    HW138273   0.140   2.844   5.416 -0.9547  0.7828 -2.5525
 8879SOL    HW238274   0.015   2.897   5.359  0.3045 -0.9125  0.5995
 8880SOL     OW38275   4.512   2.372   3.456 -0.2705 -0.4874  0.2323
 8880SOL    HW138276   4.567   2.352   3.531  2.2275  0.4362 -1.3575
 8880SOL    HW238277   4.569   2.359   3.381 -0.6929 -0.1675 -0.1497
 8881SOL     OW38278   2.043   0.621   8.239 -0.1363 -0.5322 -0.0058
 8881SOL    HW138279   1.984   0.584   8.305  1.1274 -0.8871  0.9263
 8881SOL    HW238280   2.072   0.537   8.204  1.1421 -0.3963  0.7252
 8882SOL     OW38281   4.436   2.056  12.602 -0.2792 -0.0452  0.0608
 8882SOL    HW138282   4.415   2.069  12.510 -0.5769  0.0888  0.1495
 8882SOL    HW238283   4.529   2.031  12.596 -0.6004 -0.9034 -1.2046
 8883SOL     OW38284   1.333   3.622   1.302  0.0550 -0.2658 -0.1511
 8883SOL    HW138285   1.429   3.632   1.305  0.1656 -1.5647  0.4392
 8883SOL    HW238286   1.324   3.672   1.221  0.0354 -1.2015 -0.7256
 8884SOL     OW38287   0.405   0.312   4.145  0.2348  0.3782  0.1110
 8884SOL    HW138288   0.472   0.342   4.084 -0.8596  0.6858 -0.9401
 8884SOL    HW238289   0.433   0.222   4.159 -0.2662  0.4992  1.9104
 8885SOL     OW38290   1.024   1.034  10.037 -0.6440 -0.1041  0.0578
 8885SOL    HW138291   1.115   1.019  10.014  0.0079  0.1983  2.4059
 8885SOL    HW238292   1.012   1.129  10.030 -2.6146 -0.2954  0.7502
 8886SOL     OW38293   1.044   3.425   7.791 -0.0535 -0.4144 -0.2940
 8886SOL    HW138294   1.035   3.441   7.698  0.8338  1.4067 -0.0668
 8886SOL    HW238295   1.031   3.330   7.794  1.1829 -0.6578 -2.9025
 8887SOL     OW38296   0.329   4.407  10.178  0.1571 -0.2196 -0.3658
 8887SOL    HW138297   0.406   4.414  10.121 -0.4249 -0.5580 -1.1818
 8887SOL    HW238298   0.332   4.319  10.215  1.2487 -0.5131 -1.1314
 8888SOL     OW38299   0.510   0.942   8.840  0.2757  0.8218 -0.1022
 8888SOL    HW138300   0.486   0.892   8.761  0.3125  1.9614 -0.8430
 8888SOL    HW238301   0.434   1.001   8.847 -0.0032  0.7611 -2.5058
 8889SOL     OW38302   4.208   1.352   0.331 -0.5130  0.1126  0.0509
 8889SOL    HW138303   4.201   1.392   0.418  2.2003  0.1339  0.2665
 8889SOL    HW238304   4.233   1.423   0.272 -0.3029 -0.5706 -0.6831
 8890SOL     OW38305   3.560   3.552  12.118 -0.1973  0.0935 -0.3508
 8890SOL    HW138306   3.478   3.512  12.146  0.6625  0.3085  2.4955
 8890SOL    HW238307   3.586   3.599  12.197  2.2082 -0.3480 -0.8907
 8891SOL     OW38308   2.728   4.133   7.546  0.2278 -0.0949 -0.2190
 8891SOL    HW138309   2.806   4.110   7.596  0.4544 -0.1191 -0.5814
 8891SOL    HW238310   2.763   4.119   7.458  3.2562  0.3241  0.9158
 8892SOL     OW38311   1.546   3.304   8.896  0.3272  0.0071 -0.1944
 8892SOL    HW138312   1.501   3.223   8.920 -2.1150  1.1503 -0.9972
 8892SOL    HW238313   1.572   3.285   8.806  1.6219 -0.7023  0.3303
 8893SOL     OW38314   0.667   0.399   0.134 -0.4442  1.1269  0.2719
 8893SOL    HW138315   0.580   0.392   0.173  0.3690 -0.2085  1.8178
 8893SOL    HW238316   0.699   0.309   0.125 -0.5059  0.8215  3.2883
 8894SOL     OW38317   2.464   4.696   6.469 -0.1501  0.3166 -0.2550
 8894SOL    HW138318   2.488   0.029   6.528 -2.4625  1.0420 -0.2157
 8894SOL    HW238319   2.551   4.671   6.436 -0.2004  0.6257 -0.6209
 8895SOL     OW38320   0.872   3.936   9.668  0.1902  0.3120 -0.3385
 8895SOL    HW138321   0.876   3.998   9.741  0.9548  0.0133 -0.1306
 8895SOL    HW238322   0.786   3.961   9.633 -0.9172  1.1458  3.0125
 8896SOL     OW38323   2.834   1.314   0.165 -0.4652 -0.6992 -0.3667
 8896SOL    HW138324   2.766   1.302   0.232  1.4653 -0.8130  1.5784
 8896SOL    HW238325   2.838   1.227   0.127 -1.5155 -0.8237 -0.2055
 8897SOL     OW38326   3.206   0.886   0.674 -0.1899  0.3579 -0.0846
 8897SOL    HW138327   3.206   0.794   0.700  0.2416  0.8794  1.7501
 8897SOL    HW238328   3.289   0.915   0.713  0.8396 -0.3084 -1.8141
 8898SOL     OW38329   2.061   4.549   3.447 -0.5903  0.4650 -0.5274
 8898SOL    HW138330   2.119   4.614   3.406 -0.0714 -0.2677 -0.9547
 8898SOL    HW238331   2.095   4.471   3.402  1.0710  1.5638 -1.1622
 8899SOL     OW38332   4.533   3.205  10.801  0.3546  0.4296  0.4683
 8899SOL    HW138333   4.530   3.282  10.744  2.1311  0.1811  0.0327
 8899SOL    HW238334   4.598   3.151  10.755  1.2192  0.8154  1.2510
 8900SOL     OW38335   0.751   1.048   8.831  0.0055 -0.5318 -0.1693
 8900SOL    HW138336   0.669   1.008   8.859 -0.6279 -0.7304 -2.2776
 8900SOL    HW238337   0.717   1.137   8.828  1.1261 -0.0709  0.7183
 8901SOL     OW38338   3.467   0.044   5.130  0.0678 -0.6169  0.7639
 8901SOL    HW138339   3.544   4.729   5.116 -1.3217 -2.6248  0.9337
 8901SOL    HW238340   3.402   4.716   5.148 -1.4681  0.0996 -1.9528
 8902SOL     OW38341   2.035   3.091   3.524 -0.5432 -0.1061 -0.0232
 8902SOL    HW138342   2.110   3.032   3.513 -1.1105 -1.3146  2.6252
 8902SOL    HW238343   2.007   3.053   3.607  0.8888  2.2825  1.5657
 8903SOL     OW38344   3.774   2.084   5.398 -0.1177 -0.1218 -0.1926
 8903SOL    HW138345   3.755   2.174   5.425  0.7750 -0.1181  0.4393
 8903SOL    HW238346   3.700   2.056   5.345 -1.1734  1.6904  0.3082
 8904SOL     OW38347   4.491   2.567  14.632  0.2653 -0.0425  0.3986
 8904SOL    HW138348   4.551   2.562  14.558  2.0655  0.2707  1.8213
 8904SOL    HW238349   4.444   2.485  14.617  0.7449 -0.0840 -0.8808
 8905SOL     OW38350   4.050   4.565   2.359 -0.1912  0.4064 -0.7358
 8905SOL    HW138351   4.085   4.541   2.274 -0.4810 -1.7395 -0.2397
 8905SOL    HW238352   4.038   4.654   2.325  0.6755  0.6775 -0.3352
 8906SOL     OW38353   1.246   2.316   6.489 -0.1750 -0.1980  1.0694
 8906SOL    HW138354   1.217   2.391   6.436  1.8888  0.0156  0.2705
 8906SOL    HW238355   1.263   2.261   6.413  0.8565  0.3255  0.9220
 8907SOL     OW38356   3.099   2.032   6.709 -0.0192 -0.0134 -0.4025
 8907SOL    HW138357   3.096   1.975   6.785  1.4667 -1.0379 -1.1084
 8907SOL    HW238358   3.156   2.103   6.739  0.8240 -0.0040 -2.0228
 8908SOL     OW38359   0.793   4.112  13.016 -1.1681  0.2082 -0.0263
 8908SOL    HW138360   0.873   4.107  13.069 -1.9304  3.3020  1.4194
 8908SOL    HW238361   0.771   4.019  13.012  0.0469 -0.1725  1.9798
 8909SOL     OW38362   1.333   2.028   6.321  0.0105 -0.3364  0.1804
 8909SOL    HW138363   1.284   1.952   6.352  0.8851 -1.2068 -0.5904
 8909SOL    HW238364   1.261   2.084   6.291 -1.9387 -2.9284  0.0612
 8910SOL     OW38365   0.720   4.583   1.370  0.2225  0.0370 -0.3877
 8910SOL    HW138366   0.649   4.578   1.434 -1.9531 -1.4935 -2.9064
 8910SOL    HW238367   0.773   4.518   1.416  0.5957 -0.3028 -1.2959
 8911SOL     OW38368   0.585   2.539   5.545 -0.1990  0.2841  0.2053
 8911SOL    HW138369   0.571   2.628   5.577 -1.1987  0.6896 -1.4103
 8911SOL    HW238370   0.547   2.499   5.623 -0.3924  0.9539  0.4496
 8912SOL     OW38371   2.859   3.570   4.618  0.3615 -0.0914 -0.1298
 8912SOL    HW138372   2.787   3.548   4.559  1.9170 -3.4384 -0.7642
 8912SOL    HW238373   2.853   3.665   4.627 -3.6202 -0.5743  2.5008
 8913SOL     OW38374   3.968   1.224   3.744 -0.3414  0.2673 -0.2762
 8913SOL    HW138375   4.062   1.242   3.750 -0.1102 -0.8514 -0.5603
 8913SOL    HW238376   3.951   1.209   3.837 -2.5364  1.0383 -0.5485
 8914SOL     OW38377   3.860   3.429  12.140  0.1076  0.0109 -0.4431
 8914SOL    HW138378   3.948   3.428  12.177 -0.6204  0.2112  1.2978
 8914SOL    HW238379   3.835   3.348  12.183 -0.2817 -0.0547 -0.7951
 8915SOL     OW38380   2.258   2.006   3.293 -0.1386  0.1929  0.2334
 8915SOL    HW138381   2.163   1.995   3.288 -0.0477  0.0373 -1.0877
 8915SOL    HW238382   2.256   2.101   3.308 -0.4563  0.0925  0.8437
 8916SOL     OW38383   2.720   0.408   6.029  0.6419  0.2252  0.5302
 8916SOL    HW138384   2.741   0.482   6.086  0.9387  0.5291  0.0254
 8916SOL    HW238385   2.779   0.432   5.959 -3.0774 -0.0145 -2.6971
 8917SOL     OW38386   1.564   1.961   8.679 -0.3271  1.0657  0.6467
 8917SOL    HW138387   1.542   1.952   8.586 -0.8259  5.3921  0.3250
 8917SOL    HW238388   1.658   1.978   8.681 -0.0447 -0.5825  1.3874
 8918SOL     OW38389   4.662   2.416   8.039 -0.5019  0.2575  0.1488
 8918SOL    HW138390   4.625   2.403   8.127  3.2506  0.5592  1.7543
 8918SOL    HW238391   4.724   2.488   8.047  1.2604 -1.4390  1.5562
 8919SOL     OW38392   3.231   0.507  12.972 -0.2541 -0.2756 -0.1434
 8919SOL    HW138393   3.157   0.568  12.977  0.6811  1.0643 -3.1779
 8919SOL    HW238394   3.308   0.560  12.957 -0.9690  0.6575 -0.5294
 8920SOL     OW38395   0.936   2.385   8.566  0.2151  0.0931  0.2689
 8920SOL    HW138396   0.974   2.472   8.579  0.7001 -0.5084  2.8947
 8920SOL    HW238397   0.980   2.355   8.486  1.5422  1.3824  0.5097
 8921SOL     OW38398   0.037   4.046   2.537 -0.2618 -0.4608  0.0553
 8921SOL    HW138399   4.691   4.034   2.495 -0.5989 -1.6841  1.1053
 8921SOL    HW238400   0.011   4.094   2.616 -0.7205  0.6730 -0.7845
 8922SOL     OW38401   2.127   1.165   3.210 -0.1980 -0.2834  0.1007
 8922SOL    HW138402   2.216   1.143   3.184  0.0131  2.3438 -1.3507
 8922SOL    HW238403   2.084   1.194   3.129  1.4596  0.5641 -0.4769
 8923SOL     OW38404   0.100   2.102   2.610 -0.3956  0.4393  0.3990
 8923SOL    HW138405   0.050   2.180   2.584  0.3606  0.2892 -1.5370
 8923SOL    HW238406   0.047   2.030   2.574  1.1137  0.4984 -1.9627
 8924SOL     OW38407   1.858   1.787  16.898  0.1219 -0.4164 -0.5007
 8924SOL    HW138408   1.815   1.784  16.813 -0.4826  1.0842 -0.2545
 8924SOL    HW238409   1.952   1.786  16.881  0.2719  2.9793  0.0510
 8925SOL     OW38410   2.373   2.284  12.223  0.3152  0.1777 -0.0869
 8925SOL    HW138411   2.410   2.208  12.177  2.0353  0.2154  1.2209
 8925SOL    HW238412   2.448   2.344  12.220 -0.5141  1.1700 -0.7053
 8926SOL     OW38413   3.175   2.728   8.787 -0.1258  0.3464  0.0144
 8926SOL    HW138414   3.184   2.651   8.843 -2.4901 -1.2216 -1.6985
 8926SOL    HW238415   3.216   2.695   8.707 -1.0937 -0.8832  0.0069
 8927SOL     OW38416   3.912   0.810   9.901  0.2074 -0.0048  0.2485
 8927SOL    HW138417   3.853   0.739   9.925  0.2310 -0.8721 -2.2368
 8927SOL    HW238418   3.933   0.817   9.994  1.5729  0.6444 -0.1069
 8928SOL     OW38419   0.503   2.514  11.460  0.5484 -0.2102 -0.4157
 8928SOL    HW138420   0.455   2.584  11.504  0.4486 -1.2328  1.1134
 8928SOL    HW238421   0.433   2.450  11.445  0.2067 -0.7856  3.4620
 8929SOL     OW38422   1.566   2.192   5.211 -0.3697 -0.0274  0.0225
 8929SOL    HW138423   1.518   2.116   5.179 -0.5093  0.0029  0.1619
 8929SOL    HW238424   1.652   2.153   5.196  0.8376  2.3590  0.6224
 8930SOL     OW38425   0.456   2.935   8.437  0.5991 -0.1983 -0.2934
 8930SOL    HW138426   0.379   2.992   8.440 -0.5182 -1.8461  2.1130
 8930SOL    HW238427   0.516   2.966   8.369 -1.7544  2.2589 -1.2586
 8931SOL     OW38428   3.411   1.604   5.168 -0.4179  0.4285 -0.0295
 8931SOL    HW138429   3.493   1.650   5.149  0.4817 -0.9098  0.5430
 8931SOL    HW238430   3.431   1.511   5.157  0.0643  0.5579 -0.3027
 8932SOL     OW38431   1.334   0.813   4.912  0.7108  0.1848  0.0931
 8932SOL    HW138432   1.340   0.837   5.005  3.6910 -1.3579  0.2939
 8932SOL    HW238433   1.241   0.828   4.897  0.5028 -4.3947 -3.1356
 8933SOL     OW38434   3.469   0.732   6.537 -0.1715  0.1066  0.3163
 8933SOL    HW138435   3.481   0.645   6.576  0.9415  0.5708  1.0429
 8933SOL    HW238436   3.502   0.787   6.608  1.0116  1.9293 -1.6371
 8934SOL     OW38437   2.419   4.306   4.488  0.6255  0.0079  0.4029
 8934SOL    HW138438   2.350   4.268   4.433 -0.7586  0.6565  1.6864
 8934SOL    HW238439   2.491   4.323   4.427  0.9617 -5.3868 -0.6819
 8935SOL     OW38440   2.321   4.416   5.132  0.3587 -0.2054 -0.6059
 8935SOL    HW138441   2.283   4.374   5.209 -0.7529 -1.2004 -1.6991
 8935SOL    HW238442   2.373   4.343   5.097  0.4199 -0.6140  0.3464
 8936SOL     OW38443   2.268   3.071  11.168 -0.4818 -0.0840  0.1874
 8936SOL    HW138444   2.226   3.092  11.084  1.3299 -0.1382 -0.7465
 8936SOL    HW238445   2.204   3.094  11.235 -1.1180 -0.7272 -0.2095
 8937SOL     OW38446   4.048   4.539   6.054  0.1365 -0.7102 -0.1865
 8937SOL    HW138447   4.057   4.619   6.106  0.7047 -1.4029  0.7882
 8937SOL    HW238448   4.066   4.461   6.107 -1.4719 -1.1928 -0.3439
 8938SOL     OW38449   2.893   2.354   2.007  0.2413  0.0959  0.5203
 8938SOL    HW138450   2.863   2.430   1.958 -1.8774 -0.3658  1.0917
 8938SOL    HW238451   2.956   2.317   1.945  1.8407  2.0146  1.0278
 8939SOL     OW38452   3.358   4.738   6.507 -0.5957 -0.1270  0.1020
 8939SOL    HW138453   3.379   4.727   6.599 -0.7133 -0.1723  0.1237
 8939SOL    HW238454   3.338   0.092   6.502 -0.7460 -0.2214 -1.0777
 8940SOL     OW38455   0.491   1.114   7.722  0.0641 -0.3884  0.0868
 8940SOL    HW138456   0.480   1.107   7.627  3.7702 -1.7383 -0.2463
 8940SOL    HW238457   0.516   1.022   7.724 -1.9330 -0.9240  0.3286
 8941SOL     OW38458   1.094   0.880   4.022 -0.2369 -0.0399  0.2317
 8941SOL    HW138459   1.011   0.906   3.983 -0.2410  1.3679  1.1469
 8941SOL    HW238460   1.157   0.911   3.957 -1.5188  1.6983 -0.1953
 8942SOL     OW38461   4.022   3.057   3.560  0.5294  0.3023  0.1674
 8942SOL    HW138462   4.105   3.081   3.602  0.9645 -3.1897  1.2459
 8942SOL    HW238463   3.997   2.992   3.625 -0.2646 -0.6386 -1.0895
 8943SOL     OW38464   2.908   0.494   4.304  0.8163  0.2558 -0.0971
 8943SOL    HW138465   2.819   0.460   4.311  0.3182  1.2455 -1.7562
 8943SOL    HW238466   2.932   0.457   4.219 -0.8974  1.6687 -1.1876
 8944SOL     OW38467   3.111   2.162   0.955  0.3862 -0.3408  0.0540
 8944SOL    HW138468   3.033   2.119   0.920  1.4765 -0.6348 -2.0188
 8944SOL    HW238469   3.074   2.239   0.998 -0.6115 -0.0229 -1.3770
 8945SOL     OW38470   0.506   2.062  17.448  0.1865 -0.0393 -0.0423
 8945SOL    HW138471   0.452   1.999  17.401  0.6469 -0.6683  0.2749
 8945SOL    HW238472   0.479   2.028  17.534  0.0343 -0.0423 -0.0912
 8946SOL     OW38473   4.377   2.118   4.475  0.0568  0.2915  0.1572
 8946SOL    HW138474   4.403   2.182   4.541  0.4796  1.0807 -0.7804
 8946SOL    HW238475   4.316   2.173   4.426 -0.6428 -0.6732 -0.0638
 8947SOL     OW38476   3.722   3.462   3.208 -0.2627 -0.5736 -0.1814
 8947SOL    HW138477   3.724   3.518   3.130  0.1866 -0.5116 -0.1252
 8947SOL    HW238478   3.804   3.488   3.250 -0.8356  0.8934  0.0241
 8948SOL     OW38479   1.878   0.042   3.303  0.2332  0.3638  0.1863
 8948SOL    HW138480   1.921   0.082   3.380 -0.9899  1.1933  0.4392
 8948SOL    HW238481   1.952   0.034   3.243  2.8825 -0.7576  3.5616
 8949SOL     OW38482   2.494   0.017   7.692 -0.3649  0.1158  0.4416
 8949SOL    HW138483   2.556   4.724   7.626 -0.7499 -0.7654  0.5159
 8949SOL    HW238484   2.508   0.112   7.689 -1.7680  0.2476 -2.0291
 8950SOL     OW38485   3.950   4.685  10.475  0.0498 -0.3234  0.2037
 8950SOL    HW138486   3.994   4.722  10.399  1.6023 -0.8227  0.8477
 8950SOL    HW238487   3.907   4.612  10.431  0.4555  0.7128 -1.9072
 8951SOL     OW38488   2.419   0.404   8.906 -0.0329 -1.1854 -0.6026
 8951SOL    HW138489   2.485   0.343   8.940  2.8000  3.2075  1.7326
 8951SOL    HW238490   2.338   0.353   8.910 -0.3414 -0.4362  2.3018
 8952SOL     OW38491   1.325   3.102   6.252 -0.0084 -0.4198 -0.0602
 8952SOL    HW138492   1.291   3.062   6.172 -0.2632  2.3224 -1.3251
 8952SOL    HW238493   1.313   3.031   6.316  1.4918 -0.6618 -0.0576
 8953SOL     OW38494   2.595   0.838   8.257  0.0076  0.0088  0.6884
 8953SOL    HW138495   2.555   0.753   8.278  0.5347 -0.1006  1.2237
 8953SOL    HW238496   2.525   0.892   8.220 -1.0589 -0.3594  2.1616
 8954SOL     OW38497   3.843   1.977  11.399 -0.5391 -0.1772  0.4009
 8954SOL    HW138498   3.787   1.900  11.414  0.7478 -0.7526  2.2409
 8954SOL    HW238499   3.789   2.019  11.332  0.8082 -0.8915 -1.1282
 8955SOL     OW38500   2.437   3.514  16.209 -0.0724  0.3722  0.3408
 8955SOL    HW138501   2.374   3.577  16.176 -2.3221 -1.2916  1.4129
 8955SOL    HW238502   2.400   3.427  16.195 -1.3544  0.4896  2.9331
 8956SOL     OW38503   0.642   0.619   4.400 -0.3414 -0.5594  0.6586
 8956SOL    HW138504   0.557   0.629   4.357  1.2543 -0.2959 -2.4901
 8956SOL    HW238505   0.652   0.524   4.404  0.6402 -0.4336  1.2171
 8957SOL     OW38506   2.874   1.160   1.259 -0.0991 -0.4221 -0.1830
 8957SOL    HW138507   2.841   1.071   1.273  0.0613 -1.0337 -3.6327
 8957SOL    HW238508   2.793   1.210   1.272  0.5706  1.2341 -2.2371
 8958SOL     OW38509   2.197   3.389  12.219 -0.1737 -0.3876  0.2240
 8958SOL    HW138510   2.125   3.438  12.179 -2.4289 -2.8900  1.1501
 8958SOL    HW238511   2.273   3.438  12.191  0.1718 -0.3247  1.2567
 8959SOL     OW38512   2.386   3.558  10.799 -0.4281 -0.1300 -0.3165
 8959SOL    HW138513   2.361   3.497  10.729  1.0077  2.2662 -2.9000
 8959SOL    HW238514   2.452   3.622  10.771 -0.4525 -0.8633 -2.0438
 8960SOL     OW38515   3.937   4.698   5.390 -0.0643  0.3791 -0.2194
 8960SOL    HW138516   3.920   4.607   5.368 -0.7126  0.4498 -0.0185
 8960SOL    HW238517   4.005   4.710   5.324  0.1011  0.3114 -0.0633
 8961SOL     OW38518   1.352   4.381   4.288  0.2637 -1.0152 -0.3810
 8961SOL    HW138519   1.422   4.390   4.353 -0.3410  0.1359  0.1041
 8961SOL    HW238520   1.393   4.427   4.214  0.4515  1.5696  1.3440
 8962SOL     OW38521   0.030   2.747   4.785 -0.7506 -0.5364 -0.1184
 8962SOL    HW138522   4.690   2.697   4.801 -1.9368  0.7370 -2.1301
 8962SOL    HW238523   0.019   2.798   4.865 -0.7192  0.6489 -0.8560
 8963SOL     OW38524   0.924   3.284   6.177 -0.4005 -0.1515  0.0424
 8963SOL    HW138525   0.931   3.294   6.272  2.1866  0.0589 -0.1648
 8963SOL    HW238526   0.894   3.370   6.148 -1.3541 -0.8700 -1.0954
 8964SOL     OW38527   2.653   0.242   7.945  0.3718  0.2751 -0.3390
 8964SOL    HW138528   2.711   0.224   8.018 -1.2153  0.7515  1.0478
 8964SOL    HW238529   2.658   0.337   7.940  0.5302  0.1820 -2.1943
 8965SOL     OW38530   2.890   1.342   3.044 -0.3456 -0.6644  0.0891
 8965SOL    HW138531   2.975   1.377   3.017  0.3588 -1.6180  1.0493
 8965SOL    HW238532   2.836   1.346   2.965 -1.2715 -0.1440  0.7405
 8966SOL     OW38533   1.313   1.734   3.572 -0.7228 -0.3039 -0.3221
 8966SOL    HW138534   1.304   1.675   3.647 -1.1469 -0.0012 -0.1388
 8966SOL    HW238535   1.370   1.684   3.513  1.3698 -1.1700  2.4285
 8967SOL     OW38536   1.838   4.330   4.321  0.3428  0.1189  0.5868
 8967SOL    HW138537   1.805   4.402   4.267  1.6356 -1.1513 -1.9140
 8967SOL    HW238538   1.922   4.364   4.352  1.4542 -0.2897 -1.9772
 8968SOL     OW38539   1.620   0.131   3.141 -0.3581  0.2398 -0.4287
 8968SOL    HW138540   1.598   0.106   3.052  1.5705  0.2631 -0.9090
 8968SOL    HW238541   1.683   0.065   3.169  1.2751  4.0111  4.8102
 8969SOL     OW38542   1.258   0.843   8.599  0.4468  0.1749 -0.3912
 8969SOL    HW138543   1.307   0.820   8.678  1.3216 -1.4450 -1.4281
 8969SOL    HW238544   1.202   0.766   8.590  2.2179 -1.3827  1.9237
 8970SOL     OW38545   4.244   2.504  14.811  0.0933 -0.1823  0.1156
 8970SOL    HW138546   4.280   2.566  14.748 -1.3183  0.2191 -0.2825
 8970SOL    HW238547   4.178   2.562  14.849  1.8368  2.6438 -1.0998
 8971SOL     OW38548   0.966   1.195   3.126  0.2710  0.3135 -0.0269
 8971SOL    HW138549   1.040   1.182   3.185 -0.2110  1.6249  0.8765
 8971SOL    HW238550   0.891   1.156   3.171  0.5102 -0.4766 -0.3300
 8972SOL     OW38551   0.884   2.734   8.706  0.6796  0.0734 -0.1646
 8972SOL    HW138552   0.899   2.729   8.801  0.4486  0.1906 -0.1221
 8972SOL    HW238553   0.879   2.829   8.703  1.1578  0.1120  0.2010
 8973SOL     OW38554   2.595   1.364  15.042 -0.2006  0.6514 -0.2595
 8973SOL    HW138555   2.530   1.416  14.996 -1.1630  0.3839  0.7967
 8973SOL    HW238556   2.560   1.389  15.128 -0.0965 -0.5102  0.1301
 8974SOL     OW38557   0.237   1.092   2.552  0.3970  0.0370 -0.0157
 8974SOL    HW138558   0.299   1.114   2.482 -0.2285  0.3428 -0.4733
 8974SOL    HW238559   0.162   1.119   2.500  1.6231 -0.5925 -2.0940
 8975SOL     OW38560   2.210   1.458   1.702 -0.2813 -0.3297  0.5420
 8975SOL    HW138561   2.145   1.483   1.767 -0.3475  1.1114 -0.0684
 8975SOL    HW238562   2.150   1.422   1.637  0.2175 -1.1843  0.5562
 8976SOL     OW38563   1.817   1.288   6.786 -0.1988 -0.1043 -0.2969
 8976SOL    HW138564   1.757   1.214   6.777 -1.5784  0.8640  0.8160
 8976SOL    HW238565   1.898   1.251   6.821 -0.7683 -0.8599  0.2179
 8977SOL     OW38566   0.455   3.460   0.639 -0.3327  0.2095 -0.1764
 8977SOL    HW138567   0.486   3.535   0.589  0.1179 -0.1478 -0.4322
 8977SOL    HW238568   0.521   3.398   0.607 -0.4381  0.3211 -0.5993
 8978SOL     OW38569   2.889   3.619   0.414 -0.2726  0.2312  0.0752
 8978SOL    HW138570   2.914   3.711   0.407 -1.7324  0.6998  1.0395
 8978SOL    HW238571   2.930   3.575   0.340 -0.4047  1.9485 -1.0130
 8979SOL     OW38572   2.351   0.963   4.338  0.3148  0.2832 -0.8087
 8979SOL    HW138573   2.304   1.046   4.347  0.9706  0.6344 -0.6056
 8979SOL    HW238574   2.395   0.967   4.253 -0.2660  0.9518 -1.0751
 8980SOL     OW38575   4.524   0.975  10.349  0.1807  0.2880  0.0637
 8980SOL    HW138576   4.487   0.911  10.410 -0.7492  0.5195 -0.2467
 8980SOL    HW238577   4.534   0.923  10.269  0.9793 -0.1231  0.4332
 8981SOL     OW38578   2.012   4.538   2.012 -0.2474  0.4489  0.2746
 8981SOL    HW138579   2.076   4.581   1.955 -1.7595  0.4137 -1.4485
 8981SOL    HW238580   1.978   4.467   1.958 -3.2637  0.6078  1.9776
 8982SOL     OW38581   1.383   2.111   7.779 -0.5972 -0.0318  0.3745
 8982SOL    HW138582   1.331   2.048   7.730 -0.1521 -0.9994  1.1480
 8982SOL    HW238583   1.470   2.071   7.779  0.5911  2.5670  0.9045
 8983SOL     OW38584   1.069   3.783   4.006 -0.0288 -0.4747  0.1678
 8983SOL    HW138585   1.048   3.864   3.960 -2.0253  0.1100  2.0723
 8983SOL    HW238586   1.075   3.727   3.929 -1.6655 -2.5738  1.5566
 8984SOL     OW38587   0.514   1.958   4.968 -0.2485  0.5853  0.1943
 8984SOL    HW138588   0.538   1.884   5.025  0.6660  2.1212  1.7924
 8984SOL    HW238589   0.549   2.034   5.014 -0.6371 -0.3808  2.1311
 8985SOL     OW38590   3.352   2.623   7.936  0.0023  0.5107 -0.2238
 8985SOL    HW138591   3.329   2.531   7.952  1.6283  0.1335 -0.0984
 8985SOL    HW238592   3.443   2.623   7.908 -0.5800 -0.0786 -2.1325
 8986SOL     OW38593   2.641   1.525   1.187  0.2190  0.2110 -0.1746
 8986SOL    HW138594   2.717   1.547   1.135 -0.1080 -0.7101 -1.0485
 8986SOL    HW238595   2.621   1.601   1.242  1.3115 -0.3854  1.0322
 8987SOL     OW38596   4.203   0.938   4.820 -0.0175  0.4113  0.1468
 8987SOL    HW138597   4.195   0.854   4.865  2.7407 -0.0363 -0.2367
 8987SOL    HW238598   4.212   0.992   4.899  0.6184 -0.0383  0.3754
 8988SOL     OW38599   1.557   2.941  12.948 -0.2424 -0.1257 -0.4323
 8988SOL    HW138600   1.491   2.889  12.902 -1.1381  0.3353  0.3438
 8988SOL    HW238601   1.635   2.949  12.893  0.3325  0.0896  0.4054
 8989SOL     OW38602   3.320   3.570   0.284 -0.8087 -0.0186  0.0302
 8989SOL    HW138603   3.244   3.587   0.341 -1.1120 -0.4232 -0.2542
 8989SOL    HW238604   3.292   3.493   0.235  0.7422  1.3875 -3.0379
 8990SOL     OW38605   4.166   3.636  15.765 -0.1135 -0.5245  0.0488
 8990SOL    HW138606   4.115   3.563  15.801  0.8325 -1.0677  0.2876
 8990SOL    HW238607   4.229   3.586  15.713 -0.0510 -0.8830  0.4651
 8991SOL     OW38608   0.426   3.755  12.228  0.7482  0.8148  0.0966
 8991SOL    HW138609   0.456   3.783  12.314  0.0562  1.6685  0.0594
 8991SOL    HW238610   0.332   3.768  12.238  0.7716  0.9242  0.1810
 8992SOL     OW38611   3.807   4.525  10.288 -0.3322 -0.3483  0.3483
 8992SOL    HW138612   3.795   4.577  10.209 -1.8086 -0.4359  0.5173
 8992SOL    HW238613   3.781   4.437  10.261 -1.4467  0.1731 -0.2941
 8993SOL     OW38614   0.376   3.664   2.968  0.3368 -0.1002 -0.1128
 8993SOL    HW138615   0.284   3.663   2.941  1.0514 -0.9181 -2.5544
 8993SOL    HW238616   0.357   3.626   3.054 -0.7670 -1.8482 -1.1133
 8994SOL     OW38617   0.322   0.597   8.438 -0.2136  0.6557 -0.3446
 8994SOL    HW138618   0.356   0.562   8.355 -0.5586 -0.0359 -0.1867
 8994SOL    HW238619   0.256   0.663   8.417 -0.3601  1.0003  1.2395
 8995SOL     OW38620   4.296   3.203   8.197 -0.2753 -0.2836 -0.3859
 8995SOL    HW138621   4.207   3.182   8.167 -0.6219  0.9024 -0.2075
 8995SOL    HW238622   4.277   3.259   8.272 -0.1614  1.3059 -1.5555
 8996SOL     OW38623   0.342   3.076   4.216 -0.8302  0.2681  0.2300
 8996SOL    HW138624   0.417   3.085   4.275 -0.7819 -0.4442  0.2807
 8996SOL    HW238625   0.339   2.980   4.223  3.9346  0.1599  0.9742
 8997SOL     OW38626   3.248   1.092  14.056 -0.0987  0.2342  0.6447
 8997SOL    HW138627   3.267   1.010  14.010 -1.9076  0.5259 -0.6146
 8997SOL    HW238628   3.220   1.060  14.142 -4.0621 -0.7314 -0.9815
 8998SOL     OW38629   0.755   0.612  11.180 -1.0828 -0.0556  0.2127
 8998SOL    HW138630   0.736   0.673  11.251 -1.6182 -2.4325  2.0874
 8998SOL    HW238631   0.679   0.555  11.194  0.3695 -1.7229  1.1899
 8999SOL     OW38632   4.295   1.219   1.544 -0.2799 -0.1873  0.0004
 8999SOL    HW138633   4.261   1.280   1.609 -1.0682  0.7094 -1.2548
 8999SOL    HW238634   4.369   1.176   1.588 -0.2616 -1.3508 -1.1905
 9000SOL     OW38635   1.676   2.960  13.194 -0.4702 -0.3761  0.5655
 9000SOL    HW138636   1.628   2.955  13.111 -0.0174 -0.9841  0.3459
 9000SOL    HW238637   1.725   3.042  13.189  1.1346 -1.4275 -0.5762
 9001SOL     OW38638   2.075   3.029  11.745 -0.5837 -0.5169 -0.0493
 9001SOL    HW138639   2.120   3.065  11.822 -1.0019  0.2485 -0.1647
 9001SOL    HW238640   2.050   3.104  11.692  0.9473 -0.1690 -0.2884
 9002SOL     OW38641   3.953   3.798   5.396  0.1794 -0.0128 -0.4086
 9002SOL    HW138642   3.989   3.813   5.483 -1.7446 -0.5913  0.4885
 9002SOL    HW238643   4.038   3.781   5.357  0.9044  0.0584  1.1404
 9003SOL     OW38644   3.351   3.175   1.896  0.8878  0.3221  0.1656
 9003SOL    HW138645   3.372   3.268   1.901  1.2805  0.2585 -0.3145
 9003SOL    HW238646   3.414   3.141   1.960  0.1938  0.6470  1.0150
 9004SOL     OW38647   1.970   4.336   8.021  0.2525  0.2089  0.2325
 9004SOL    HW138648   1.969   4.373   7.933 -0.1928 -0.7396 -0.1610
 9004SOL    HW238649   1.897   4.383   8.061 -0.4485  0.0231 -0.8263
 9005SOL     OW38650   1.973   2.668   8.087  0.7181 -0.2083  0.1050
 9005SOL    HW138651   2.021   2.682   8.005 -2.0142  1.1455 -1.2722
 9005SOL    HW238652   2.027   2.594   8.116 -0.5564  0.0248  3.0246
 9006SOL     OW38653   3.010   0.174   3.397 -0.5231 -0.0202 -0.9260
 9006SOL    HW138654   3.025   0.101   3.337 -1.2529 -0.8213 -0.1247
 9006SOL    HW238655   3.010   0.251   3.339 -0.0552  1.4527  1.0207
 9007SOL     OW38656   0.681   3.390  17.718 -0.3857 -0.2739  0.3621
 9007SOL    HW138657   0.768   3.430  17.707 -0.2064 -1.3659 -2.2729
 9007SOL    HW238658   0.659   3.368  17.628  4.1958 -0.4440 -0.7338
 9008SOL     OW38659   3.505   3.018   2.100 -0.1650 -0.2254 -0.6941
 9008SOL    HW138660   3.498   2.963   2.177 -0.1981 -0.2910 -0.7443
 9008SOL    HW238661   3.520   3.106   2.135 -0.0093 -0.7973  0.6931
 9009SOL     OW38662   4.658   2.245   9.462 -0.0081  0.4426  0.1966
 9009SOL    HW138663   4.608   2.327   9.461 -0.0092  0.4416  0.1446
 9009SOL    HW238664   4.687   2.251   9.371  1.9456  0.3498  0.8195
 9010SOL     OW38665   1.784   3.454  11.739  0.2908  0.3179  0.0694
 9010SOL    HW138666   1.791   3.385  11.806 -3.8978  0.5198  0.6829
 9010SOL    HW238667   1.763   3.409  11.657 -2.5345  0.7895  0.5439
 9011SOL     OW38668   2.992   1.613   6.696 -0.3830  0.1091 -0.5448
 9011SOL    HW138669   3.015   1.603   6.789 -0.5587  2.9369 -0.1879
 9011SOL    HW238670   3.051   1.552   6.651 -0.9116 -1.3872  0.7970
 9012SOL     OW38671   1.386   3.806  15.345 -0.0535  0.7390  0.3432
 9012SOL    HW138672   1.425   3.893  15.339  0.6392  0.6643  3.5450
 9012SOL    HW238673   1.301   3.823  15.386 -0.7337  0.0996 -0.8005
 9013SOL     OW38674   1.050   3.214  14.197 -0.4141  0.3996 -0.3037
 9013SOL    HW138675   1.002   3.295  14.181  2.1962  2.1144  0.7484
 9013SOL    HW238676   1.093   3.201  14.113 -0.5935  1.5822 -0.5791
 9014SOL     OW38677   1.015   0.067   6.217 -0.2932  0.0594  0.4820
 9014SOL    HW138678   1.057   4.727   6.184  0.9720  0.0249  2.1812
 9014SOL    HW238679   0.948   0.082   6.150  1.4140 -1.6808 -1.6570
 9015SOL     OW38680   2.864   4.517   8.328 -0.1352  0.4039 -0.1378
 9015SOL    HW138681   2.855   4.589   8.265 -1.5147 -1.1719 -1.7332
 9015SOL    HW238682   2.898   4.447   8.272 -0.7421 -0.3133  0.3916
 9016SOL     OW38683   1.346   0.818  16.301  0.6797 -0.2846  0.0363
 9016SOL    HW138684   1.280   0.811  16.232 -0.3495  1.2700  0.8734
 9016SOL    HW238685   1.417   0.800  16.240  1.4375 -0.7996  1.0579
 9017SOL     OW38686   1.114   3.521  10.883  0.1637 -0.1158  0.2909
 9017SOL    HW138687   1.105   3.518  10.978  1.4086 -0.4658  0.3935
 9017SOL    HW238688   1.179   3.591  10.879 -1.6848  1.6189  0.5135
 9018SOL     OW38689   4.357   2.429   7.940 -0.0612 -0.8029 -0.2286
 9018SOL    HW138690   4.449   2.408   7.953  0.0894  0.7007  1.0568
 9018SOL    HW238691   4.358   2.450   7.846  1.4883  0.1729  0.0124
 9019SOL     OW38692   1.534   0.812   7.774 -0.0528 -1.1553 -0.2286
 9019SOL    HW138693   1.460   0.871   7.789  0.5361 -0.3833 -0.3558
 9019SOL    HW238694   1.523   0.759   7.852 -0.6112  1.6673  1.6342
 9020SOL     OW38695   2.180   1.917   9.174 -0.2047 -0.6405  0.2880
 9020SOL    HW138696   2.105   1.957   9.131  1.0417  0.0099 -1.2592
 9020SOL    HW238697   2.212   1.996   9.220 -2.1796  0.8047 -0.8157
 9021SOL     OW38698   3.119   2.472   5.561  0.3820 -0.2671 -0.9434
 9021SOL    HW138699   3.062   2.548   5.548  0.2359 -0.3096 -0.5717
 9021SOL    HW238700   3.113   2.478   5.657 -0.9159  1.7398 -1.1393
 9022SOL     OW38701   4.168   1.215   9.405  0.2010  0.4475  0.2155
 9022SOL    HW138702   4.220   1.142   9.371 -1.2018 -1.1528  1.5334
 9022SOL    HW238703   4.078   1.196   9.381  0.4330  1.8974 -1.8380
 9023SOL     OW38704   3.237   2.831   5.542 -0.7474 -0.2422 -0.5698
 9023SOL    HW138705   3.209   2.807   5.453 -0.6165  0.0032 -0.6742
 9023SOL    HW238706   3.310   2.771   5.559 -1.0700 -0.8132 -1.1728
 9024SOL     OW38707   0.867   0.182   4.395  0.1042 -0.0386 -0.1485
 9024SOL    HW138708   0.909   0.110   4.443  0.9079 -0.4769 -1.5025
 9024SOL    HW238709   0.945   0.230   4.365  0.7978 -0.9780  0.1336
 9025SOL     OW38710   0.859   0.573  13.687  0.2952 -0.9522  0.0348
 9025SOL    HW138711   0.780   0.542  13.644 -0.1764  0.9408 -0.4626
 9025SOL    HW238712   0.835   0.568  13.779  0.3770 -0.0725  0.1077
 9026SOL     OW38713   4.386   4.674  14.597  0.3390 -0.0073  0.0989
 9026SOL    HW138714   4.299   4.712  14.587  0.8176  0.5942 -1.8141
 9026SOL    HW238715   4.390   4.610  14.525  2.8456 -3.0141  2.8923
 9027SOL     OW38716   3.959   3.590   5.821  0.2975 -0.2343 -0.2461
 9027SOL    HW138717   3.958   3.498   5.794 -0.7453 -0.1692 -0.4163
 9027SOL    HW238718   4.052   3.613   5.817  0.2896 -0.2682 -0.6735
 9028SOL     OW38719   4.538   3.009   4.097 -0.2569 -0.0325 -0.3249
 9028SOL    HW138720   4.588   2.993   4.017  0.0167 -1.7274  0.1849
 9028SOL    HW238721   4.574   2.944   4.156 -2.7823 -1.8694 -0.7922
 9029SOL     OW38722   3.603   2.515   3.037  0.5264 -0.1708 -0.1686
 9029SOL    HW138723   3.515   2.476   3.030 -0.3166  2.4847 -3.9639
 9029SOL    HW238724   3.628   2.508   3.129  1.3871  1.6301 -0.2823
 9030SOL     OW38725   2.010   3.380  11.549 -0.2376  0.4212 -0.0196
 9030SOL    HW138726   1.957   3.448  11.508 -1.9055 -1.7873 -1.5461
 9030SOL    HW238727   2.000   3.402  11.642  0.3074 -0.1222  0.1693
 9031SOL     OW38728   0.943   1.891   8.225 -0.1254  0.7207  0.1826
 9031SOL    HW138729   0.912   1.810   8.267 -0.7522  2.7206  3.5357
 9031SOL    HW238730   1.015   1.848   8.179  0.5251 -0.0240  1.8913
 9032SOL     OW38731   1.082   4.114   7.890  0.0299  0.2958  0.4195
 9032SOL    HW138732   1.159   4.170   7.902  0.4723 -0.0687 -0.7262
 9032SOL    HW238733   1.045   4.144   7.806  0.5503 -0.0616  0.0623
 9033SOL     OW38734   4.422   1.290   4.051  1.4155  0.1129  0.6627
 9033SOL    HW138735   4.484   1.361   4.033 -0.6466  1.7061 -0.1910
 9033SOL    HW238736   4.389   1.307   4.139 -0.1158 -0.3983  0.2018
 9034SOL     OW38737   2.718   4.392   2.763  0.3622  0.2569 -0.0586
 9034SOL    HW138738   2.694   4.350   2.681  0.4776 -0.5352  0.3135
 9034SOL    HW238739   2.645   4.453   2.771 -0.4266 -0.5862 -0.9518
 9035SOL     OW38740   0.077   0.392   2.988  0.1513 -0.0117 -0.1447
 9035SOL    HW138741   0.029   0.441   2.922 -0.0238  0.5960  0.4356
 9035SOL    HW238742   0.150   0.453   3.004  0.2134  0.5294 -2.4841
 9036SOL     OW38743   0.621   4.354   8.462 -0.3166 -0.5043  0.4615
 9036SOL    HW138744   0.597   4.425   8.402 -2.1116 -0.2030  1.5239
 9036SOL    HW238745   0.550   4.372   8.524  0.5345 -1.1937  1.6248
 9037SOL     OW38746   0.995   0.264   3.517  0.3744 -0.1706 -0.1146
 9037SOL    HW138747   1.037   0.254   3.432 -1.3626  2.1492 -1.2695
 9037SOL    HW238748   0.923   0.202   3.506  1.3454 -1.0580 -1.3360
 9038SOL     OW38749   0.528   2.597  15.885  0.3282  0.0445 -0.5603
 9038SOL    HW138750   0.532   2.522  15.826  0.9254  0.7034 -1.3634
 9038SOL    HW238751   0.466   2.644  15.830 -1.0146  0.8690  1.7004
 9039SOL     OW38752   3.642   1.423  13.422 -0.0764 -0.2074  0.0902
 9039SOL    HW138753   3.720   1.439  13.369  0.1148 -1.8253 -0.1217
 9039SOL    HW238754   3.649   1.509  13.464 -1.0344  0.0199 -0.2104
 9040SOL     OW38755   4.347   0.554  16.642 -0.2395 -0.1834 -0.5145
 9040SOL    HW138756   4.306   0.611  16.577 -0.3938  1.1205  0.7103
 9040SOL    HW238757   4.398   0.619  16.690 -0.2822  0.8852 -1.9131
 9041SOL     OW38758   3.907   3.772   1.259 -0.5727  0.2780 -0.1040
 9041SOL    HW138759   3.820   3.810   1.269 -0.6527 -0.1610  0.9043
 9041SOL    HW238760   3.964   3.845   1.236  0.0723  0.4862  2.1100
 9042SOL     OW38761   4.003   0.014   3.209  0.3328 -0.0382  0.7961
 9042SOL    HW138762   4.019   4.669   3.251 -0.1474 -0.8669 -0.6726
 9042SOL    HW238763   4.089   0.054   3.216  0.1226  0.7472 -1.1331
 9043SOL     OW38764   3.969   2.065   4.680  0.0934  0.1464  0.2558
 9043SOL    HW138765   3.998   2.001   4.614  1.2688  1.3642 -0.4210
 9043SOL    HW238766   4.053   2.093   4.716  0.7852 -2.0678  0.3771
 9044SOL     OW38767   3.455   0.125   6.941  0.0036 -0.2655  0.0930
 9044SOL    HW138768   3.384   0.122   6.877  1.2557 -1.9791 -1.2051
 9044SOL    HW238769   3.500   0.208   6.928 -1.4124  0.6259  0.8752
 9045SOL     OW38770   1.938   1.053   8.169  0.3788  0.1935  0.3556
 9045SOL    HW138771   1.911   0.979   8.114  1.1549  0.9003 -0.9949
 9045SOL    HW238772   2.009   1.017   8.222  0.2497 -0.5754  0.0065
 9046SOL     OW38773   2.378   4.591   3.733  0.3673 -0.2810  0.7891
 9046SOL    HW138774   2.451   4.564   3.678  0.1516  0.0115  0.3613
 9046SOL    HW238775   2.350   4.664   3.678  1.1210  0.9698  2.0723
 9047SOL     OW38776   0.673   2.895  12.164 -0.2347 -0.7354 -0.6516
 9047SOL    HW138777   0.666   2.828  12.232 -0.6320  0.7465  0.7556
 9047SOL    HW238778   0.621   2.853  12.095 -2.5198 -0.2733  0.8304
 9048SOL     OW38779   0.917   3.992   5.576  0.7699  0.3405 -0.0247
 9048SOL    HW138780   0.866   3.921   5.537 -0.5807  0.1255  2.1034
 9048SOL    HW238781   0.879   4.065   5.528  1.1332  0.6881  0.2183
 9049SOL     OW38782   0.510   0.052   4.152  0.0479 -0.0894 -0.6822
 9049SOL    HW138783   0.489   4.698   4.160  0.6950 -0.4522 -3.2395
 9049SOL    HW238784   0.602   0.041   4.174  0.0245  3.4968  1.1504
 9050SOL     OW38785   1.511   0.619   2.902  0.1840 -0.4478 -0.2686
 9050SOL    HW138786   1.486   0.685   2.838  0.0740 -1.8889 -1.7187
 9050SOL    HW238787   1.511   0.544   2.842  0.2587 -2.0060  1.6581
 9051SOL     OW38788   2.155   2.995   6.242 -0.0371 -0.7965 -0.0927
 9051SOL    HW138789   2.166   2.901   6.225  0.4216 -0.5749 -1.0320
 9051SOL    HW238790   2.246   3.025   6.247 -0.4342  0.1182  1.6625
 9052SOL     OW38791   3.064   3.574  10.011 -0.0505 -0.0103  0.5696
 9052SOL    HW138792   3.083   3.641   9.945 -0.2067 -0.5566 -0.0282
 9052SOL    HW238793   3.016   3.633  10.069  1.2473 -0.3117  1.9607
 9053SOL     OW38794   4.357   0.525   2.729 -0.2093 -0.1159  0.1975
 9053SOL    HW138795   4.413   0.487   2.798 -0.2133  1.7299  1.2043
 9053SOL    HW238796   4.321   0.450   2.682 -0.3616 -0.5194  0.9513
 9054SOL     OW38797   3.566   0.086   0.370  0.0177  0.4796 -0.2134
 9054SOL    HW138798   3.615   0.014   0.330 -0.6295  0.6891 -1.3860
 9054SOL    HW238799   3.607   0.163   0.330  2.7962 -0.8387  0.1101
 9055SOL     OW38800   3.463   4.491   4.811  0.3235  0.7031 -0.3104
 9055SOL    HW138801   3.424   4.561   4.864  3.0582  1.1889  1.0788
 9055SOL    HW238802   3.468   4.425   4.880  1.3954  2.3114  1.1500
 9056SOL     OW38803   3.812   3.503   2.465  0.0964  0.2497 -0.2020
 9056SOL    HW138804   3.835   3.485   2.556 -2.6087  3.6636  1.1832
 9056SOL    HW238805   3.743   3.440   2.448  1.3019 -0.6285 -1.7464
 9057SOL     OW38806   4.131   0.885   9.582  0.4091  0.2606 -0.4983
 9057SOL    HW138807   4.170   0.848   9.503  2.3237  0.5273  0.3329
 9057SOL    HW238808   4.207   0.924   9.625 -1.3791  1.5842  1.4907
 9058SOL     OW38809   0.298   3.236  12.858  0.3486  0.0269  0.0090
 9058SOL    HW138810   0.223   3.272  12.906  0.5854 -0.8593  1.0394
 9058SOL    HW238811   0.285   3.142  12.870  0.3740  0.2854  1.9877
 9059SOL     OW38812   3.776   0.142  15.864  0.1018 -0.1826 -0.0268
 9059SOL    HW138813   3.789   0.058  15.821 -0.9220  0.4478 -1.5876
 9059SOL    HW238814   3.727   0.124  15.945 -1.9542 -1.0610 -1.4618
 9060SOL     OW38815   0.617   4.182   6.854  0.1161 -0.6059 -0.2240
 9060SOL    HW138816   0.690   4.226   6.898 -0.9110 -0.2351  1.1123
 9060SOL    HW238817   0.630   4.098   6.898  0.3414 -0.1594  0.5659
 9061SOL     OW38818   1.237   3.243   4.883  0.4192  0.3009  0.1900
 9061SOL    HW138819   1.170   3.210   4.943 -0.6438  1.0627 -0.5568
 9061SOL    HW238820   1.301   3.175   4.866  0.8300  0.9222 -0.7693
 9062SOL     OW38821   0.535   2.485  14.296 -0.2738 -0.2585 -0.0726
 9062SOL    HW138822   0.565   2.402  14.259  1.7580 -0.2828  1.6420
 9062SOL    HW238823   0.524   2.467  14.390 -1.8553 -0.8184 -0.3678
 9063SOL     OW38824   1.175   0.890   7.643  0.0872  0.0780 -0.1337
 9063SOL    HW138825   1.178   0.892   7.547 -1.0939  0.7934 -0.1550
 9063SOL    HW238826   1.154   0.979   7.670  3.3824  0.5985  0.7458
 9064SOL     OW38827   0.030   3.231   3.851  0.5007  0.3018  0.0074
 9064SOL    HW138828   0.103   3.205   3.906  0.2707 -1.2050 -0.4093
 9064SOL    HW238829   4.715   3.153   3.858  0.3479  0.4293  0.2559
 9065SOL     OW38830   1.729   4.376   2.380 -0.3589 -0.5955  0.0762
 9065SOL    HW138831   1.818   4.412   2.375 -0.2096 -0.5207  3.1932
 9065SOL    HW238832   1.678   4.449   2.344  1.5138  1.6280  1.9477
 9066SOL     OW38833   1.720   4.172  16.832  0.0170 -0.4544  0.2353
 9066SOL    HW138834   1.695   4.262  16.812 -0.0167 -0.7742 -1.1380
 9066SOL    HW238835   1.801   4.189  16.881  2.0888  0.7886 -3.6302
 9067SOL     OW38836   1.753   3.039   4.781 -0.6350  0.7565  0.0550
 9067SOL    HW138837   1.771   2.948   4.757  0.6442  0.5563  1.8181
 9067SOL    HW238838   1.835   3.066   4.822 -0.1798 -3.3147  1.7350
 9068SOL     OW38839   2.987   2.243  10.964  0.3911 -0.1117  0.3484
 9068SOL    HW138840   2.911   2.187  10.950  0.6870 -0.4336  0.0050
 9068SOL    HW238841   3.028   2.190  11.033 -1.0304  1.8447  2.6889
 9069SOL     OW38842   2.526   0.463   0.335  0.2946  0.1896  0.5793
 9069SOL    HW138843   2.525   0.537   0.396  0.6379  0.3191  0.4280
 9069SOL    HW238844   2.572   0.493   0.257 -1.7973  1.3147 -0.2452
 9070SOL     OW38845   3.537   2.220   5.727  0.3809  0.3414 -0.0945
 9070SOL    HW138846   3.620   2.255   5.695 -1.0627  3.5887 -0.2679
 9070SOL    HW238847   3.468   2.281   5.701  1.7395  2.5042  1.3857
 9071SOL     OW38848   1.038   2.326  11.611  0.1936  0.0086  0.3393
 9071SOL    HW138849   1.051   2.314  11.705  1.2059  0.9212  0.3155
 9071SOL    HW238850   1.108   2.385  11.582  2.7749 -2.7018  1.1519
 9072SOL     OW38851   3.821   0.895  16.703 -0.0102  0.1178 -0.0431
 9072SOL    HW138852   3.739   0.855  16.676 -0.0029 -0.6461  1.0767
 9072SOL    HW238853   3.883   0.873  16.633  0.6814 -0.2988  0.6963
 9073SOL     OW38854   4.672   1.195  10.845 -0.2417  0.1394  0.4432
 9073SOL    HW138855   4.614   1.122  10.823 -0.3303  0.2037  0.4652
 9073SOL    HW238856   4.616   1.264  10.879 -1.2827 -0.6639  0.3629
 9074SOL     OW38857   4.598   2.019   5.188 -0.6388  0.6905 -0.1770
 9074SOL    HW138858   4.693   2.028   5.179 -0.5381  0.3713  0.5327
 9074SOL    HW238859   4.559   2.103   5.216  1.4583  1.2598  1.0088
 9075SOL     OW38860   4.690   3.100   3.213 -0.0916  0.2975 -0.4358
 9075SOL    HW138861   4.730   3.125   3.296 -0.3256  2.7623 -1.0808
 9075SOL    HW238862   4.670   3.186   3.177  2.5282  1.0440 -0.1300
 9076SOL     OW38863   1.921   1.383  14.252 -0.3984 -0.6379  0.2742
 9076SOL    HW138864   1.849   1.360  14.194  0.5770 -0.7904 -0.8892
 9076SOL    HW238865   1.923   1.478  14.251  0.9124 -0.6594  0.3907
 9077SOL     OW38866   3.680   4.328   6.380  0.1342 -0.7240  0.5711
 9077SOL    HW138867   3.672   4.417   6.346 -3.2296 -0.7383  1.3399
 9077SOL    HW238868   3.667   4.341   6.474  4.3460 -2.2126  1.3749
 9078SOL     OW38869   0.368   2.883   3.499 -0.6106  0.0092  0.6980
 9078SOL    HW138870   0.357   2.977   3.512 -0.1758  0.0426  0.8088
 9078SOL    HW238871   0.463   2.870   3.503 -0.5768 -0.8637 -3.0841
 9079SOL     OW38872   2.286   3.603  16.442 -0.0825 -0.2304 -0.6789
 9079SOL    HW138873   2.246   3.521  16.471  0.2765 -0.8140 -1.8579
 9079SOL    HW238874   2.351   3.565  16.384 -1.7410 -1.0145 -2.0015
 9080SOL     OW38875   1.594   1.060  16.335  0.0505  0.3932  0.3836
 9080SOL    HW138876   1.652   1.130  16.365  0.8712  0.1665 -0.6677
 9080SOL    HW238877   1.610   1.049  16.241 -0.5073 -1.4992  0.4940
 9081SOL     OW38878   4.286   0.421   6.369  0.4068  0.1922  0.0317
 9081SOL    HW138879   4.220   0.408   6.437 -0.7622  2.4263 -0.6777
 9081SOL    HW238880   4.250   0.377   6.291 -1.4183  0.6196  0.6380
 9082SOL     OW38881   2.818   2.676   4.721  0.6350  0.1955 -0.2495
 9082SOL    HW138882   2.756   2.729   4.670 -1.4176 -0.6298  1.4174
 9082SOL    HW238883   2.824   2.604   4.659  0.8684 -0.6509  0.7671
 9083SOL     OW38884   3.294   1.890   7.933  0.5183 -0.2176  0.7927
 9083SOL    HW138885   3.265   1.847   7.853 -0.0079 -3.0263  2.5025
 9083SOL    HW238886   3.326   1.975   7.902 -3.9082  0.8945 -0.7524
 9084SOL     OW38887   2.926   2.617   1.821 -0.0397 -0.4931  0.2071
 9084SOL    HW138888   2.967   2.530   1.825  0.9198 -0.1427 -1.9471
 9084SOL    HW238889   2.990   2.686   1.804 -0.2364  0.4902  3.5961
 9085SOL     OW38890   0.057   3.366  10.704  0.7223 -0.9871 -0.4016
 9085SOL    HW138891   0.093   3.429  10.641 -0.6429  0.3152  0.1373
 9085SOL    HW238892   0.022   3.428  10.768 -0.8015 -3.1129  0.8032
 9086SOL     OW38893   3.111   3.825   7.253 -0.1279 -0.2667 -0.6740
 9086SOL    HW138894   3.027   3.848   7.294  1.4375  1.5652  1.4833
 9086SOL    HW238895   3.174   3.892   7.279 -0.5669 -0.2566  0.3862
 9087SOL     OW38896   2.301   4.536   8.262 -0.9048 -0.4270  0.3270
 9087SOL    HW138897   2.369   4.488   8.307  0.8049  1.2938 -0.4296
 9087SOL    HW238898   2.286   4.499   8.175  0.7149  1.7002 -0.8424
 9088SOL     OW38899   3.979   3.547   3.873 -0.3685 -0.3170  0.2958
 9088SOL    HW138900   3.958   3.559   3.781  2.7073 -1.0874 -0.5031
 9088SOL    HW238901   3.982   3.453   3.888 -2.5349 -0.4596 -0.2171
 9089SOL     OW38902   0.272   4.408   4.921  0.3396  0.3108  0.5127
 9089SOL    HW138903   0.282   4.490   4.970  0.8600  0.8003 -0.4283
 9089SOL    HW238904   0.178   4.409   4.905  0.5583  2.1792 -0.5655
 9090SOL     OW38905   0.025   4.203  12.622 -0.6937 -0.3461  0.3427
 9090SOL    HW138906   4.722   4.284  12.650 -0.1102  0.3795 -0.8535
 9090SOL    HW238907   4.693   4.138  12.621 -0.9598 -0.0521  0.1677
 9091SOL     OW38908   4.693   4.322   7.552  0.3468 -0.2420  0.3501
 9091SOL    HW138909   4.622   4.344   7.492 -0.8658 -0.7004  1.6325
 9091SOL    HW238910   0.009   4.269   7.494  0.5296  2.3086 -1.8430
 9092SOL     OW38911   1.603   0.837   6.028 -0.1455 -0.1566  0.1726
 9092SOL    HW138912   1.650   0.920   6.017 -1.6919  0.7760  0.4760
 9092SOL    HW238913   1.671   0.779   5.995  0.5006  0.3186  0.6489
 9093SOL     OW38914   4.106   2.475  10.792  0.1316  0.0199  0.3709
 9093SOL    HW138915   4.111   2.530  10.714 -1.0905 -1.2308 -0.5856
 9093SOL    HW238916   4.198   2.479  10.821  0.1764  1.0519  0.0708
 9094SOL     OW38917   4.069   4.119  13.769 -0.3527  0.1364  0.5053
 9094SOL    HW138918   4.156   4.127  13.809 -0.2659 -1.2053  0.5690
 9094SOL    HW238919   4.018   4.179  13.824 -0.6648  0.8313 -0.5472
 9095SOL     OW38920   2.051   0.566   2.759  0.3509  0.2692 -0.6801
 9095SOL    HW138921   2.044   0.478   2.796 -0.5286 -0.1748 -1.9021
 9095SOL    HW238922   1.959   0.565   2.731  0.0926 -1.4197  0.2365
 9096SOL     OW38923   2.689   1.131  11.218 -0.1374 -0.5017  0.1033
 9096SOL    HW138924   2.643   1.050  11.240  0.9653 -0.9315  0.8662
 9096SOL    HW238925   2.780   1.101  11.224  0.1986  0.2256 -1.4441
 9097SOL     OW38926   1.712   2.793   8.458 -0.3938  0.1279  0.0423
 9097SOL    HW138927   1.802   2.762   8.466 -0.0890  0.6614 -1.3157
 9097SOL    HW238928   1.712   2.868   8.518 -0.5126  0.5571 -0.4868
 9098SOL     OW38929   3.961   3.511   3.321  0.7383  0.2461  0.5274
 9098SOL    HW138930   4.025   3.539   3.256 -1.8139  0.3105 -1.9399
 9098SOL    HW238931   3.965   3.416   3.334 -1.8443  0.5827  3.6619
 9099SOL     OW38932   3.488   1.743   0.404 -0.7414  0.1712  0.2623
 9099SOL    HW138933   3.429   1.694   0.347  1.1344 -0.9099 -0.7594
 9099SOL    HW238934   3.449   1.829   0.389 -1.3170 -0.3891 -1.4467
 9100SOL     OW38935   1.886   2.426   7.269  0.4846  0.2047  0.2553
 9100SOL    HW138936   1.937   2.446   7.348 -2.3970 -3.6963  3.1427
 9100SOL    HW238937   1.937   2.475   7.205 -0.1699  0.5134 -0.0316
 9101SOL     OW38938   2.039   0.931   2.929 -1.1035  0.4925 -0.0294
 9101SOL    HW138939   2.054   0.899   3.018  0.3632 -2.1448 -1.2042
 9101SOL    HW238940   2.023   1.025   2.934  0.3955  0.9056 -2.8262
 9102SOL     OW38941   2.154   1.379  14.101 -0.4878 -0.2716  0.3446
 9102SOL    HW138942   2.118   1.461  14.067 -2.5072 -0.8844  0.9817
 9102SOL    HW238943   2.079   1.359  14.158 -0.3704  0.0348  0.6086
 9103SOL     OW38944   1.631   1.117   9.210  0.0780 -0.0741 -0.3970
 9103SOL    HW138945   1.536   1.107   9.222  0.2803 -0.3135  0.9996
 9103SOL    HW238946   1.661   1.150   9.294 -0.6841  0.4606 -0.3345
 9104SOL     OW38947   3.332   0.986  16.974  0.0055 -0.2127  0.5513
 9104SOL    HW138948   3.422   1.007  16.948 -0.0152  1.1826  1.6255
 9104SOL    HW238949   3.284   1.018  16.897  1.0631  1.0592  0.4227
 9105SOL     OW38950   2.665   4.513   5.070 -0.0788 -0.1668 -0.0556
 9105SOL    HW138951   2.728   4.445   5.050 -0.2497 -0.1862 -0.5305
 9105SOL    HW238952   2.597   4.489   5.007  0.5542 -0.5718 -0.5848
 9106SOL     OW38953   2.727   1.488   8.917  0.4371 -0.1033  0.0474
 9106SOL    HW138954   2.641   1.506   8.954  0.4469 -0.1723  0.1032
 9106SOL    HW238955   2.689   1.482   8.829 -0.0315  2.1799  0.0948
 9107SOL     OW38956   1.614   0.655   8.023 -0.2841  0.4659  0.3207
 9107SOL    HW138957   1.704   0.636   8.051  1.0332  0.6708 -3.8025
 9107SOL    HW238958   1.563   0.645   8.103  0.9377  0.0118  1.0381
 9108SOL     OW38959   1.861   3.442   7.212  0.3864  0.0817 -0.5592
 9108SOL    HW138960   1.924   3.424   7.141  1.8936  0.2343  0.7388
 9108SOL    HW238961   1.770   3.431   7.183 -0.3084  1.2385  1.2418
 9109SOL     OW38962   4.583   3.808   0.160 -0.2811  0.2844  0.4520
 9109SOL    HW138963   4.584   3.774   0.249 -1.2678  2.9203  1.4718
 9109SOL    HW238964   4.570   3.901   0.178  1.1294  0.1584  2.0950
 9110SOL     OW38965   1.915   1.829   9.845 -0.0775  0.4461 -0.2808
 9110SOL    HW138966   1.882   1.899   9.901 -1.2269  1.1949 -1.8977
 9110SOL    HW238967   2.010   1.837   9.847  0.2341 -2.6954 -2.1441
 9111SOL     OW38968   0.626   2.991   4.079 -0.0670  0.0566 -0.4108
 9111SOL    HW138969   0.702   2.951   4.037 -0.1617 -1.9309  1.2615
 9111SOL    HW238970   0.569   2.914   4.083 -0.9364  0.6381 -1.9018
 9112SOL     OW38971   4.571   1.466   8.053 -0.1331 -0.4095 -0.2706
 9112SOL    HW138972   4.627   1.431   7.983 -0.1124  1.6228 -1.2633
 9112SOL    HW238973   4.529   1.540   8.008  0.1634  0.2156  0.4817
 9113SOL     OW38974   1.833   3.150   1.801 -0.1748 -0.1235  0.3982
 9113SOL    HW138975   1.911   3.206   1.793  1.4960 -2.4672  0.3533
 9113SOL    HW238976   1.872   3.067   1.775  0.7318  0.4558 -0.1222
 9114SOL     OW38977   3.616   0.488  14.301 -0.2206 -0.2966  0.2939
 9114SOL    HW138978   3.544   0.448  14.349  0.6336 -0.6680  1.2874
 9114SOL    HW238979   3.641   0.555  14.364 -2.6007 -0.8909  1.8594
 9115SOL     OW38980   0.725   0.551  12.722 -0.2735 -0.0849 -0.1179
 9115SOL    HW138981   0.646   0.553  12.669  0.7652 -1.8810 -1.7181
 9115SOL    HW238982   0.759   0.464  12.701 -0.1446  0.0323 -0.3868
 9116SOL     OW38983   0.119   1.932   8.467 -0.5489  0.0746  0.0943
 9116SOL    HW138984   0.092   1.868   8.534 -2.1056  0.0800 -0.5145
 9116SOL    HW238985   0.211   1.947   8.487 -0.1690  1.5415 -2.7783
 9117SOL     OW38986   3.817   3.924   2.003  0.6830 -0.0281  0.4146
 9117SOL    HW138987   3.767   3.868   1.943 -0.7319 -0.5742  2.1257
 9117SOL    HW238988   3.894   3.870   2.018 -0.2753 -0.7517  2.6363
 9118SOL     OW38989   3.616   1.133  16.197  0.1788 -0.3062 -0.1839
 9118SOL    HW138990   3.608   1.128  16.292 -1.2818 -1.9523 -0.3791
 9118SOL    HW238991   3.524   1.126  16.171 -0.2747 -0.3809  1.4710
 9119SOL     OW38992   1.352   3.208  11.876 -0.1543 -0.1028  0.0816
 9119SOL    HW138993   1.264   3.241  11.894 -0.6504 -1.1374 -0.4271
 9119SOL    HW238994   1.398   3.288  11.854  1.5615 -1.2411 -0.4753
 9120SOL     OW38995   4.195   0.309   7.093 -0.5186  0.0863  0.1951
 9120SOL    HW138996   4.183   0.250   7.167  0.8609  1.1179  1.2519
 9120SOL    HW238997   4.285   0.296   7.063 -0.7743  0.2668 -0.6640
 9121SOL     OW38998   2.831   4.712   5.149  0.2945  0.1045  1.0520
 9121SOL    HW138999   2.756   4.656   5.129 -0.3220  0.9717  0.8950
 9121SOL    HW239000   2.791   0.047   5.195 -1.7126 -1.2647  1.5233
 9122SOL     OW39001   4.550   3.527   7.808 -0.2380  0.2826 -0.5936
 9122SOL    HW139002   4.488   3.528   7.881 -1.1007 -1.4970 -1.2954
 9122SOL    HW239003   4.492   3.548   7.735 -0.6598 -1.1748 -0.6912
 9123SOL     OW39004   0.460   1.227  12.613 -0.2785  0.5817 -0.4445
 9123SOL    HW139005   0.440   1.320  12.622  0.3895  0.5175  1.8210
 9123SOL    HW239006   0.384   1.181  12.578 -2.1321  2.9872  0.4136
 9124SOL     OW39007   0.688   2.819   3.141 -0.2067  0.6905 -0.3968
 9124SOL    HW139008   0.652   2.748   3.196  0.9863  0.4093  0.0139
 9124SOL    HW239009   0.770   2.838   3.186 -1.2142  0.3112  1.5962
 9125SOL     OW39010   2.275   2.407   8.411  0.2931 -0.1800  0.1623
 9125SOL    HW139011   2.205   2.451   8.457 -2.6961 -1.1538 -3.4127
 9125SOL    HW239012   2.313   2.345   8.473  1.2278  2.7265  2.4666
 9126SOL     OW39013   0.205   2.617   2.659 -0.0920 -0.4121 -0.0294
 9126SOL    HW139014   0.289   2.572   2.644  0.7516  1.3864 -0.7457
 9126SOL    HW239015   0.221   2.639   2.750  1.1235 -0.9357 -0.1095
 9127SOL     OW39016   3.936   2.191   1.446 -0.2652 -0.6388 -0.1142
 9127SOL    HW139017   3.877   2.190   1.522 -0.3587 -2.0898 -0.1885
 9127SOL    HW239018   3.894   2.128   1.387 -1.4348 -2.2502  2.4066
 9128SOL     OW39019   0.095   3.362  16.414 -0.2591  0.0078  0.2063
 9128SOL    HW139020   0.098   3.298  16.343 -1.0544 -0.6619  0.7785
 9128SOL    HW239021   0.002   3.366  16.435 -0.3117 -2.3549  0.4103
 9129SOL     OW39022   4.004   4.108   2.099  0.4102  0.8127  0.3687
 9129SOL    HW139023   3.921   4.076   2.066 -0.5927  1.2552  2.4431
 9129SOL    HW239024   4.024   4.048   2.171 -0.7303 -0.5206 -0.4517
 9130SOL     OW39025   4.731   3.690  14.203  0.2197 -0.7065  0.0943
 9130SOL    HW139026   0.052   3.646  14.262 -0.7812  2.9913  3.9434
 9130SOL    HW239027   4.649   3.642  14.217 -1.2208  1.9563  0.8241
 9131SOL     OW39028   4.613   0.812   5.949  0.0020 -0.0860 -0.5486
 9131SOL    HW139029   4.589   0.741   5.890  0.0896 -1.1798  0.7149
 9131SOL    HW239030   4.709   0.805   5.949 -0.1339 -2.1874 -0.3026
 9132SOL     OW39031   2.483   1.000   0.594  0.3399 -0.1479 -0.3636
 9132SOL    HW139032   2.482   0.917   0.640 -1.0607 -0.5926 -1.1890
 9132SOL    HW239033   2.391   1.021   0.610  0.5831  0.0462  0.7705
 9133SOL     OW39034   0.555   2.738   9.185 -0.4735  0.2855 -0.7571
 9133SOL    HW139035   0.480   2.787   9.152 -0.2349  0.0283 -1.6975
 9133SOL    HW239036   0.554   2.653   9.141 -1.3240 -0.1170  0.0505
 9134SOL     OW39037   3.969   0.743   9.045  0.5969 -0.5501 -0.1669
 9134SOL    HW139038   3.949   0.829   9.008 -2.8415 -0.5354  1.7602
 9134SOL    HW239039   3.904   0.686   9.005  1.2908 -0.6831 -1.1098
 9135SOL     OW39040   3.917   2.024   4.338  0.4109  0.1220 -0.4003
 9135SOL    HW139041   3.915   1.941   4.290  1.2643 -0.1854  0.0802
 9135SOL    HW239042   3.982   2.063   4.280 -1.7198  0.4680 -2.5397
 9136SOL     OW39043   1.205   1.554   5.272  0.0005  0.1331 -0.3793
 9136SOL    HW139044   1.231   1.501   5.197  0.2888  1.9184 -1.5238
 9136SOL    HW239045   1.123   1.509   5.295  0.1693 -0.3355 -0.6853
 9137SOL     OW39046   4.108   0.042   5.170  0.0258 -0.4306 -0.1452
 9137SOL    HW139047   4.138   4.727   5.097  0.9210  0.7262 -0.6419
 9137SOL    HW239048   4.056   0.114   5.134 -0.6003 -0.0238  1.5608
 9138SOL     OW39049   1.575   2.349   6.924 -0.1091 -0.4869 -0.1205
 9138SOL    HW139050   1.629   2.274   6.950 -1.9840 -2.1179 -0.8954
 9138SOL    HW239051   1.501   2.304   6.882  0.2672 -0.6659 -0.6017
 9139SOL     OW39052   3.322   3.559   6.437 -0.0237 -0.0653 -0.3587
 9139SOL    HW139053   3.339   3.479   6.387  0.3959 -0.3908  0.2936
 9139SOL    HW239054   3.297   3.625   6.373 -0.8030 -1.9827 -2.0534
 9140SOL     OW39055   2.980   3.845   1.387  0.0352  0.6385  0.2180
 9140SOL    HW139056   2.894   3.843   1.430  0.6261  2.2323  1.4578
 9140SOL    HW239057   2.974   3.912   1.319  0.5070  0.2181 -0.2404
 9141SOL     OW39058   2.109   2.233   1.960 -0.0250  0.3948 -0.1784
 9141SOL    HW139059   2.159   2.230   2.042  0.2352 -0.2699 -0.3613
 9141SOL    HW239060   2.021   2.212   1.990  0.4472  1.7022  2.0769
 9142SOL     OW39061   4.377   0.243   8.756  0.1604  0.6299 -0.2834
 9142SOL    HW139062   4.376   0.249   8.852  1.6533  0.0652 -0.2450
 9142SOL    HW239063   4.287   0.266   8.733  0.9308  0.7982 -3.1198
 9143SOL     OW39064   1.665   2.221   9.054  0.2720  0.3219 -0.2811
 9143SOL    HW139065   1.656   2.284   8.983 -0.0389  2.0670  1.2964
 9143SOL    HW239066   1.684   2.137   9.011  2.2241  0.2004  0.8123
 9144SOL     OW39067   1.821   0.040   3.736 -0.0189  0.7046 -0.0711
 9144SOL    HW139068   1.804   0.133   3.722 -0.3070  0.5279 -0.8843
 9144SOL    HW239069   1.753   0.003   3.680 -0.6529  0.4607  0.8467
 9145SOL     OW39070   1.017   2.214   2.698  0.7557  0.3234 -0.0124
 9145SOL    HW139071   1.063   2.208   2.614  0.4634 -0.3055 -0.1284
 9145SOL    HW239072   0.926   2.235   2.674  0.3925 -1.0459  0.1389
 9146SOL     OW39073   2.893   4.175   7.331 -0.3081 -0.2624 -0.1196
 9146SOL    HW139074   2.885   4.253   7.275 -0.3653  1.1823  1.9185
 9146SOL    HW239075   2.967   4.127   7.294 -0.5792 -0.1960 -0.7623
 9147SOL     OW39076   3.167   1.254   3.290 -0.2422  0.3784  0.5859
 9147SOL    HW139077   3.123   1.325   3.336 -0.9588 -0.6436  1.4945
 9147SOL    HW239078   3.106   1.182   3.309 -0.1003 -0.0958 -0.7453
 9148SOL     OW39079   0.815   2.558   4.299 -0.3839  0.0770  0.4053
 9148SOL    HW139080   0.819   2.463   4.310  0.6219  0.2332  1.3314
 9148SOL    HW239081   0.868   2.574   4.221  0.1926 -0.5055  0.6822
 9149SOL     OW39082   2.253   1.922   7.781  0.8830  0.3541  0.3657
 9149SOL    HW139083   2.288   1.924   7.870  1.6370  2.0877  0.0367
 9149SOL    HW239084   2.304   1.850   7.745 -0.2720 -0.6397  0.6985
 9150SOL     OW39085   3.947   2.029  16.031 -0.3023  0.5752 -0.1654
 9150SOL    HW139086   4.009   2.099  16.008  0.8268 -0.1400  0.7577
 9150SOL    HW239087   3.872   2.085  16.053 -1.2805 -0.4441 -0.8944
 9151SOL     OW39088   4.451   1.694  12.488  0.2427  0.0016  0.4625
 9151SOL    HW139089   4.455   1.679  12.583 -0.3275  1.9175  0.7950
 9151SOL    HW239090   4.378   1.755  12.483 -0.5301 -0.8593  1.3003
 9152SOL     OW39091   4.063   2.691   3.526  0.6623  0.2439 -0.3226
 9152SOL    HW139092   3.998   2.728   3.467  0.7223 -0.2439 -0.6861
 9152SOL    HW239093   4.140   2.723   3.479  1.2998  0.4611  0.8547
 9153SOL     OW39094   2.906   3.659   5.042  0.1969  0.0696  0.3992
 9153SOL    HW139095   2.967   3.732   5.041  1.1870 -0.7613  3.2487
 9153SOL    HW239096   2.933   3.628   5.128  0.8789  1.9608  0.8749
 9154SOL     OW39097   3.137   1.507   8.781 -0.1684  0.5247  0.3988
 9154SOL    HW139098   3.175   1.528   8.867  0.5310  0.3086  0.1408
 9154SOL    HW239099   3.049   1.479   8.808 -0.2755  0.5750  0.1053
 9155SOL     OW39100   0.823   0.658   6.426 -0.3165 -0.1117  0.3019
 9155SOL    HW139101   0.790   0.746   6.441  0.6392  0.1141  1.0590
 9155SOL    HW239102   0.902   0.690   6.383 -0.1294 -2.4632 -1.1509
 9156SOL     OW39103   3.604   4.128   0.958 -0.3004  0.4465 -0.1215
 9156SOL    HW139104   3.511   4.112   0.947 -0.0882 -1.4893  0.9823
 9156SOL    HW239105   3.639   4.063   0.898  1.0271  0.4988  0.5928
 9157SOL     OW39106   0.829   3.516  13.267  0.2398 -0.3105  0.0511
 9157SOL    HW139107   0.916   3.538  13.235 -0.3184  1.0319 -0.5521
 9157SOL    HW239108   0.781   3.593  13.237  0.5527 -0.3534 -0.5624
 9158SOL     OW39109   3.531   3.513   6.893  0.1071 -0.2901  0.0386
 9158SOL    HW139110   3.495   3.577   6.955  0.3942 -1.0574  1.0026
 9158SOL    HW239111   3.568   3.450   6.955 -3.0821 -0.9809  1.2939
 9159SOL     OW39112   0.864   0.562   7.036 -0.2485  0.0556 -0.4108
 9159SOL    HW139113   0.955   0.558   7.065  0.1690  1.3809 -1.5388
 9159SOL    HW239114   0.868   0.555   6.940 -0.7449 -0.9875 -0.3612
 9160SOL     OW39115   2.923   0.434   5.862  0.0031  0.2866  0.2853
 9160SOL    HW139116   3.010   0.470   5.883  0.2177  0.2032 -0.4710
 9160SOL    HW239117   2.940   0.341   5.876  2.0811  0.2635 -2.3138
 9161SOL     OW39118   1.576   1.135   7.965 -0.2287  0.2238  0.0662
 9161SOL    HW139119   1.561   1.063   8.026  2.9399  0.0792  0.6464
 9161SOL    HW239120   1.489   1.141   7.926 -1.0508  0.0653  1.8808
 9162SOL     OW39121   4.081   1.358   5.554  0.1697  0.1854  0.1391
 9162SOL    HW139122   4.047   1.429   5.499  0.4800  0.0684 -0.2100
 9162SOL    HW239123   4.037   1.283   5.513  0.0564  0.0688  0.4821
 9163SOL     OW39124   4.618   3.205  15.331 -0.4868  0.1716 -0.2156
 9163SOL    HW139125   4.598   3.298  15.346 -0.8821  0.0137  0.2441
 9163SOL    HW239126   4.561   3.175  15.260 -1.3786 -2.4410  1.5908
 9164SOL     OW39127   0.271   3.390   2.336 -0.0464  0.0990  0.0350
 9164SOL    HW139128   0.182   3.355   2.347  0.7626 -1.4278  1.6969
 9164SOL    HW239129   0.262   3.442   2.257  0.7500 -1.1957 -0.9088
 9165SOL     OW39130   2.185   1.919   0.836  0.0675 -0.0224  0.1875
 9165SOL    HW139131   2.219   1.830   0.842 -1.3825 -0.7658 -2.6476
 9165SOL    HW239132   2.096   1.905   0.806 -0.6140 -0.1005  2.2082
 9166SOL     OW39133   4.566   1.449   3.766 -0.0437  0.0646 -0.0024
 9166SOL    HW139134   4.561   1.505   3.843  3.1274 -0.0617  0.2851
 9166SOL    HW239135   4.660   1.442   3.754  0.4878  1.2215  3.5458
 9167SOL     OW39136   4.477   0.649  16.308  0.2692 -0.5086  0.2308
 9167SOL    HW139137   4.520   0.571  16.340 -3.8398 -2.2483  1.5076
 9167SOL    HW239138   4.553   0.706  16.310  0.4565 -0.7002 -1.0758
 9168SOL     OW39139   1.823   4.055  11.685 -0.7435 -0.0020 -0.1268
 9168SOL    HW139140   1.870   4.011  11.614  0.1932 -0.5650  0.8398
 9168SOL    HW239141   1.891   4.091  11.742 -1.3954  0.7277  0.1848
 9169SOL     OW39142   1.297   3.708   1.724 -0.0967  0.2351  0.4873
 9169SOL    HW139143   1.367   3.695   1.660  1.5009 -1.7633  2.6197
 9169SOL    HW239144   1.222   3.709   1.665 -0.5962 -0.7314  1.1087
 9170SOL     OW39145   4.063   4.350   6.758  0.2074  0.0780  0.3198
 9170SOL    HW139146   4.058   4.321   6.849  0.3095  0.2477  0.3804
 9170SOL    HW239147   4.002   4.423   6.754  0.0611  0.0444  1.7755
 9171SOL     OW39148   0.218   0.802   7.169 -0.4475 -0.3104 -0.7322
 9171SOL    HW139149   0.300   0.842   7.138 -0.3017 -1.0903 -1.3666
 9171SOL    HW239150   0.193   0.736   7.103 -0.4744 -1.1962  0.1650
 9172SOL     OW39151   0.692   3.821   8.181 -0.6222 -0.4751  0.5107
 9172SOL    HW139152   0.701   3.867   8.265  0.5893  0.8613 -0.3511
 9172SOL    HW239153   0.730   3.894   8.132 -0.2499 -1.1350 -0.1682
 9173SOL     OW39154   1.788   3.827   6.139 -0.6069  0.4776  0.4073
 9173SOL    HW139155   1.863   3.799   6.086 -0.7437  0.1004  0.4148
 9173SOL    HW239156   1.743   3.895   6.089  0.3415 -0.4820 -1.7509
 9174SOL     OW39157   3.729   4.054  10.212 -0.5896 -0.5508 -0.2670
 9174SOL    HW139158   3.770   4.099  10.139 -0.2342  0.8878  0.8350
 9174SOL    HW239159   3.649   4.019  10.172 -0.3898 -0.9596 -0.3132
 9175SOL     OW39160   0.041   3.685  12.725  0.1790 -0.0128 -0.0940
 9175SOL    HW139161   0.076   3.620  12.663 -0.3760 -3.0018  2.7194
 9175SOL    HW239162   0.098   3.760  12.710  2.3282 -1.6446 -0.1641
 9176SOL     OW39163   3.593   1.881   6.825  0.8321  0.5286  0.2529
 9176SOL    HW139164   3.535   1.888   6.901 -1.7161  2.2618 -1.8380
 9176SOL    HW239165   3.676   1.871   6.872  1.0999 -2.0578 -0.7455
 9177SOL     OW39166   4.305   0.652   9.780 -0.2127 -0.5767  0.1269
 9177SOL    HW139167   4.265   0.646   9.867  1.7146  2.0118  1.1964
 9177SOL    HW239168   4.324   0.745   9.769  0.0872 -0.8319 -1.4695
 9178SOL     OW39169   2.630   0.279   6.796 -0.1553  0.0963  0.8127
 9178SOL    HW139170   2.633   0.360   6.847  0.3124  0.2560  0.5356
 9178SOL    HW239171   2.675   0.219   6.856 -0.3093 -0.8203  0.0029
 9179SOL     OW39172   1.743   0.239  17.126 -0.5203 -0.1240 -0.0867
 9179SOL    HW139173   1.700   0.271  17.046 -1.1672  0.5704  0.5459
 9179SOL    HW239174   1.671   0.196  17.173 -0.3112 -0.4095 -0.0260
 9180SOL     OW39175   0.090   2.856   6.361  0.1481 -0.2877 -0.2114
 9180SOL    HW139176   0.034   2.922   6.403  1.3011  1.1073 -0.8793
 9180SOL    HW239177   0.020   2.795   6.340 -0.6991  0.1697  1.2900
 9181SOL     OW39178   1.154   4.356   2.093 -0.5495 -0.3300 -0.4823
 9181SOL    HW139179   1.205   4.314   2.023  0.3947  1.4997 -0.8722
 9181SOL    HW239180   1.153   4.283   2.155  1.3321  0.7717  0.8511
 9182SOL     OW39181   4.054   1.574   4.836  0.1764  0.1631 -0.1292
 9182SOL    HW139182   4.143   1.610   4.829  0.6028 -0.3836  2.4699
 9182SOL    HW239183   4.011   1.619   4.764  0.1281  0.2538 -0.0430
 9183SOL     OW39184   4.728   2.583   6.768 -0.0685  0.5111 -0.6524
 9183SOL    HW139185   4.726   2.489   6.750  2.2406  0.2155  0.6775
 9183SOL    HW239186   0.056   2.613   6.708  0.8609  0.1780  0.2113
 9184SOL     OW39187   3.694   2.324   7.495 -0.0925  0.0151  0.0099
 9184SOL    HW139188   3.759   2.269   7.539 -1.0914 -1.4961 -0.3843
 9184SOL    HW239189   3.742   2.399   7.461  0.2856 -0.4261 -0.4308
 9185SOL     OW39190   2.634   0.087  10.981  0.4648 -0.3714 -0.2177
 9185SOL    HW139191   2.621   0.000  10.941  1.9269 -1.8830  2.6143
 9185SOL    HW239192   2.729   0.087  10.994  0.4833 -0.8967 -0.3250
 9186SOL     OW39193   4.310   0.865   6.996 -0.2290 -0.0115  0.1052
 9186SOL    HW139194   4.325   0.807   7.071  1.0215  0.1766  0.0034
 9186SOL    HW239195   4.392   0.851   6.948  1.0196  4.5676  0.9310
 9187SOL     OW39196   3.073   2.214  15.688 -0.1312 -0.2079  0.0250
 9187SOL    HW139197   3.048   2.145  15.627  3.2235 -0.7883 -0.7179
 9187SOL    HW239198   3.062   2.289  15.630  2.0429  1.4813  1.8236
 9188SOL     OW39199   1.559   3.995   7.995  0.6030 -0.2595  0.5637
 9188SOL    HW139200   1.491   3.965   8.056  1.1193 -0.6258  0.9634
 9188SOL    HW239201   1.640   3.964   8.036  0.5963  0.9199  1.4672
 9189SOL     OW39202   4.288   4.384  10.547 -0.0003 -0.4852  0.4009
 9189SOL    HW139203   4.266   4.349  10.634 -0.7969 -0.7537  0.0948
 9189SOL    HW239204   4.335   4.464  10.570 -2.7238  1.0880  0.4028
 9190SOL     OW39205   0.642   3.008  12.445  0.1688  0.1615  0.5456
 9190SOL    HW139206   0.696   2.998  12.366  0.2040  0.0754  0.5809
 9190SOL    HW239207   0.702   3.059  12.500 -1.6920  1.3208  1.4758
 9191SOL     OW39208   2.718   4.525   3.968  0.1318  0.0038  0.1127
 9191SOL    HW139209   2.676   4.460   3.911  1.8429 -1.7647  0.8587
 9191SOL    HW239210   2.726   4.590   3.898 -2.7546  0.2730  0.0571
 9192SOL     OW39211   3.987   1.959   6.713  0.4656 -0.2426 -0.0668
 9192SOL    HW139212   4.011   1.899   6.644 -0.6280  2.2121 -2.5854
 9192SOL    HW239213   3.969   2.036   6.659  0.2892  0.4355  0.9417
 9193SOL     OW39214   2.591   0.464   7.337 -0.3851 -0.6554 -0.2548
 9193SOL    HW139215   2.542   0.538   7.372 -0.9784 -2.0859  1.9401
 9193SOL    HW239216   2.657   0.504   7.280 -1.3963 -0.7044 -1.4499
 9194SOL     OW39217   4.558   0.331   4.513  0.0170 -0.2213  0.0691
 9194SOL    HW139218   4.583   0.263   4.451 -1.4586 -1.3268  0.6775
 9194SOL    HW239219   4.628   0.395   4.500 -0.3489  0.2241  0.2925
 9195SOL     OW39220   0.791   1.000   3.261  0.0510 -0.2742 -0.0391
 9195SOL    HW139221   0.708   1.032   3.297  0.7622  0.0348  1.3514
 9195SOL    HW239222   0.770   0.977   3.171 -0.7412 -0.9991  0.3305
 9196SOL     OW39223   3.611   3.816   5.106 -0.1794 -0.2315 -0.4953
 9196SOL    HW139224   3.704   3.797   5.116 -0.1708 -0.1617 -0.4507
 9196SOL    HW239225   3.578   3.740   5.056 -1.0039 -0.6990  0.7442
 9197SOL     OW39226   1.985   1.944   3.302 -0.3653  0.3971  0.2169
 9197SOL    HW139227   1.950   1.880   3.240  0.3207 -0.5959  0.8631
 9197SOL    HW239228   1.905   1.995   3.311 -0.4388  0.8257 -2.6068
 9198SOL     OW39229   2.987   0.650   3.619  0.2784 -0.1907 -0.2217
 9198SOL    HW139230   2.901   0.649   3.578  0.0792 -0.2735  0.2058
 9198SOL    HW239231   3.039   0.601   3.556  2.0823  0.5465  0.6948
 9199SOL     OW39232   4.073   1.890   4.920 -0.7025 -0.2677 -0.7057
 9199SOL    HW139233   4.015   1.848   4.857 -2.4952  1.3468 -0.1152
 9199SOL    HW239234   4.004   1.919   4.979  0.8254  0.8781  0.5338
 9200SOL     OW39235   1.256   3.888   8.409 -0.5377 -0.2205  0.1552
 9200SOL    HW139236   1.302   3.837   8.342  0.6348 -0.5195  1.1808
 9200SOL    HW239237   1.167   3.879   8.375 -1.0683 -1.1768  1.8249
 9201SOL     OW39238   3.866   0.567  12.890  0.3106  0.9552 -0.1479
 9201SOL    HW139239   3.958   0.593  12.887  0.6975 -0.3215  0.6794
 9201SOL    HW239240   3.846   0.546  12.799 -0.0332 -0.5676  0.2852
 9202SOL     OW39241   0.778   3.719  17.650  0.3300 -0.0447  0.1045
 9202SOL    HW139242   0.819   3.783  17.709 -2.5462  0.8869  1.0695
 9202SOL    HW239243   0.856   3.674  17.616  0.4069  1.2365 -1.3973
 9203SOL     OW39244   0.973   0.055   6.482  0.0741  0.0515  0.1190
 9203SOL    HW139245   0.905   4.728   6.475 -0.0965  0.2806 -0.3772
 9203SOL    HW239246   0.985   0.068   6.388 -0.8948  1.3702  0.1773
 9204SOL     OW39247   0.646   2.633   3.647  0.4351 -0.4559  0.0223
 9204SOL    HW139248   0.654   2.582   3.728 -0.2686 -1.1023 -0.3094
 9204SOL    HW239249   0.737   2.654   3.623 -0.3064  0.9822 -1.5213
 9205SOL     OW39250   0.118   3.848   8.189  0.1047  0.4375  0.2139
 9205SOL    HW139251   0.071   3.773   8.152  0.1893  0.0826  0.8203
 9205SOL    HW239252   0.207   3.815   8.196  0.0523  0.2090 -0.1737
 9206SOL     OW39253   2.516   3.857  11.465  0.8823 -0.1625 -0.2334
 9206SOL    HW139254   2.472   3.806  11.396 -1.2569 -0.2021  1.1719
 9206SOL    HW239255   2.458   3.932  11.471 -1.1696 -1.7193 -0.5066
 9207SOL     OW39256   4.281   2.171  11.456 -0.4638  0.1684  0.2218
 9207SOL    HW139257   4.198   2.219  11.460 -0.0228  1.1532 -2.2323
 9207SOL    HW239258   4.309   2.195  11.367 -1.7714 -0.5937 -0.3886
 9208SOL     OW39259   4.331   2.131  13.774  0.6278 -0.5074 -0.4531
 9208SOL    HW139260   4.255   2.183  13.800  0.5691 -0.4108 -0.8110
 9208SOL    HW239261   4.391   2.190  13.820 -0.5858  0.1016  0.3350
 9209SOL     OW39262   3.200   1.836   7.646 -0.1258 -0.5615  0.1939
 9209SOL    HW139263   3.187   1.742   7.650  2.2203 -0.9401 -1.4321
 9209SOL    HW239264   3.165   1.845   7.557 -2.0881 -2.4956  0.7714
 9210SOL     OW39265   2.315   1.921   5.890 -0.9033  0.1396 -0.2345
 9210SOL    HW139266   2.360   1.939   5.808  0.9244  0.5639  0.8728
 9210SOL    HW239267   2.276   1.835   5.873 -1.3919  0.2162  0.5096
 9211SOL     OW39268   0.877   2.445   2.890  0.5111  0.5231 -0.7936
 9211SOL    HW139269   0.843   2.410   2.808  0.6185 -0.1868 -0.5339
 9211SOL    HW239270   0.973   2.441   2.885  0.3472 -0.9237 -3.0965
 9212SOL     OW39271   0.405   4.124  10.709 -0.1484 -0.5023 -0.1034
 9212SOL    HW139272   0.360   4.119  10.793  1.8405 -1.3470  0.9056
 9212SOL    HW239273   0.495   4.153  10.724 -0.1156 -0.6082 -0.0935
 9213SOL     OW39274   3.344   3.382   2.614  0.3272  0.2640 -0.6754
 9213SOL    HW139275   3.302   3.342   2.691 -1.3258 -0.8354 -2.1374
 9213SOL    HW239276   3.393   3.304   2.587  0.0727  0.6245 -2.1574
 9214SOL     OW39277   0.669   1.687   2.871 -0.7863  0.5206  0.5701
 9214SOL    HW139278   0.730   1.684   2.945  1.1828  1.2604 -1.0250
 9214SOL    HW239279   0.705   1.762   2.823 -0.0552  0.1499  0.5309
 9215SOL     OW39280   2.629   0.540  15.253  0.2394  0.2374 -0.2543
 9215SOL    HW139281   2.559   0.475  15.262 -0.0854  0.9240  2.4869
 9215SOL    HW239282   2.568   0.613  15.267  1.0438  1.0831 -1.1887
 9216SOL     OW39283   2.554   3.613   1.526  0.0654  0.0435  0.7182
 9216SOL    HW139284   2.618   3.684   1.519 -0.0902  0.2548  1.4241
 9216SOL    HW239285   2.568   3.599   1.620  0.3193 -0.7444  0.5594
 9217SOL     OW39286   1.880   1.902   4.990  0.6551  0.1714  0.2865
 9217SOL    HW139287   1.880   1.990   5.027 -0.8277 -0.1990  1.1609
 9217SOL    HW239288   1.787   1.908   4.967  0.5241 -2.2538  0.1806
 9218SOL     OW39289   0.129   2.380   7.011  0.3056 -0.1589 -0.1717
 9218SOL    HW139290   0.080   2.453   7.048 -0.6142 -1.2801  0.8164
 9218SOL    HW239291   0.070   2.353   6.940 -0.7459  0.8974  0.3100
 9219SOL     OW39292   2.737   0.274   6.448  0.2987  0.1917 -0.3413
 9219SOL    HW139293   2.784   0.204   6.404 -1.1586  0.0416 -1.6882
 9219SOL    HW239294   2.789   0.283   6.527  1.5461  1.8838 -1.3770
 9220SOL     OW39295   0.558   1.518   8.004  0.6661  0.6716 -0.1048
 9220SOL    HW139296   0.619   1.457   8.045 -1.6369 -0.8950  1.0577
 9220SOL    HW239297   0.560   1.592   8.064  1.0518 -0.5900  1.4436
 9221SOL     OW39298   4.239   3.343   2.891 -0.3846  0.1929 -0.6577
 9221SOL    HW139299   4.232   3.253   2.924 -0.1748  0.7784  0.9893
 9221SOL    HW239300   4.305   3.385   2.945 -0.7183  0.6699 -0.6206
 9222SOL     OW39301   1.467   1.471   9.096  0.3401 -0.0810 -0.0530
 9222SOL    HW139302   1.400   1.410   9.067 -2.4919  2.4152  1.1763
 9222SOL    HW239303   1.543   1.443   9.045  0.6553  2.1652 -0.8196
 9223SOL     OW39304   4.518   4.287   8.353 -0.5466  0.1062  0.4768
 9223SOL    HW139305   4.497   4.288   8.260  0.8157  0.3172  0.1699
 9223SOL    HW239306   4.609   4.317   8.357 -0.4939 -0.3525  2.9137
 9224SOL     OW39307   0.816   0.190   8.736  0.0662  0.3676  0.1889
 9224SOL    HW139308   0.749   0.197   8.804  2.2352 -0.5650  2.4292
 9224SOL    HW239309   0.765   0.224   8.662  0.2471  0.3545  0.0599
 9225SOL     OW39310   2.590   4.512   3.229 -0.2444 -0.3226  0.0799
 9225SOL    HW139311   2.545   4.429   3.208  1.3847 -0.6003 -2.2922
 9225SOL    HW239312   2.584   4.515   3.325 -0.6200 -2.4361  0.1393
 9226SOL     OW39313   0.658   0.082   8.275  0.7184  0.1325  0.0274
 9226SOL    HW139314   0.740   0.046   8.241  1.9718  3.7704 -0.8298
 9226SOL    HW239315   0.654   0.164   8.227  0.5921 -0.0705 -0.3047
 9227SOL     OW39316   0.238   2.783   8.116 -0.0731 -0.1313  0.4632
 9227SOL    HW139317   0.239   2.832   8.034  2.0008  0.1240  0.6270
 9227SOL    HW239318   0.282   2.848   8.171 -2.6217  1.1288  1.0054
 9228SOL     OW39319   0.745   4.703   4.635  0.0082 -0.4413  0.0635
 9228SOL    HW139320   0.824   4.672   4.679 -1.4388  0.0343  3.0534
 9228SOL    HW239321   0.719   4.620   4.596 -0.1539 -0.3470 -0.0316
 9229SOL     OW39322   3.034   0.089   1.860  0.3713 -0.4860 -0.2141
 9229SOL    HW139323   3.046   4.736   1.879 -1.7117 -0.8211 -0.4536
 9229SOL    HW239324   2.989   0.071   1.777 -2.7408  1.2768  1.0732
 9230SOL     OW39325   3.277   0.807  11.388 -0.1970  0.5597 -0.4871
 9230SOL    HW139326   3.317   0.874  11.442 -0.7012  0.7149 -0.3069
 9230SOL    HW239327   3.297   0.732  11.444  2.0879  1.4031 -0.1785
 9231SOL     OW39328   4.465   1.040   5.367 -0.0298 -0.3290 -0.1500
 9231SOL    HW139329   4.412   1.111   5.331  0.8810 -0.2621 -1.3765
 9231SOL    HW239330   4.464   0.974   5.298 -1.1462 -0.9189  0.4318
 9232SOL     OW39331   4.462   3.363  11.181  0.5673 -0.5259 -0.1099
 9232SOL    HW139332   4.401   3.401  11.243 -0.6144 -0.5224 -1.2824
 9232SOL    HW239333   4.528   3.433  11.176  0.1830 -0.2404 -1.3374
 9233SOL     OW39334   0.875   4.393   1.466 -0.2211 -0.3912  0.4007
 9233SOL    HW139335   0.889   4.298   1.470  1.4749 -0.1617  0.2124
 9233SOL    HW239336   0.913   4.414   1.551  0.0425 -0.4273  0.2944
 9234SOL     OW39337   1.334   2.273   4.566 -0.1446 -0.3260  0.1609
 9234SOL    HW139338   1.274   2.199   4.577  1.3009 -1.5997 -0.7179
 9234SOL    HW239339   1.312   2.323   4.645 -1.6632  0.7088 -0.9239
 9235SOL     OW39340   2.108   1.140   6.350 -0.0593  0.4949 -0.0890
 9235SOL    HW139341   2.168   1.209   6.321  0.9763 -0.6271 -0.6113
 9235SOL    HW239342   2.123   1.075   6.281 -1.0711 -0.7338  0.8648
 9236SOL     OW39343   1.973   0.748  11.089  0.4337 -0.2771  0.9111
 9236SOL    HW139344   2.003   0.833  11.121  1.9680  0.3868 -2.2812
 9236SOL    HW239345   2.035   0.687  11.131  0.6239  0.6038  1.9176
 9237SOL     OW39346   1.992   0.622  17.071  0.3019 -0.0773  0.9534
 9237SOL    HW139347   1.955   0.553  17.127  0.6672 -0.9416  0.1433
 9237SOL    HW239348   2.083   0.595  17.059 -0.4235 -2.1394 -0.0487
 9238SOL     OW39349   4.443   1.655   7.884 -0.0795 -0.0464 -0.0920
 9238SOL    HW139350   4.356   1.661   7.845  0.5276  0.9813 -1.2730
 9238SOL    HW239351   4.464   1.747   7.904 -2.4068  0.2998  0.7552
 9239SOL     OW39352   2.625   1.794   4.752 -0.0388 -0.0448  0.5402
 9239SOL    HW139353   2.587   1.879   4.728 -2.2730 -0.8832  1.0315
 9239SOL    HW239354   2.671   1.769   4.672  1.9203 -0.9474  1.9584
 9240SOL     OW39355   2.544   0.559   4.448  0.1480 -0.0413  0.4182
 9240SOL    HW139356   2.560   0.491   4.514  1.9823  1.6055  1.6789
 9240SOL    HW239357   2.454   0.548   4.418  0.7292 -1.7391 -0.7247
 9241SOL     OW39358   2.938   4.152   8.943 -0.4070 -0.0499 -0.5954
 9241SOL    HW139359   2.967   4.121   8.858  0.0912 -3.3149  0.7506
 9241SOL    HW239360   2.850   4.118   8.930 -0.8559 -0.0129  2.2947
 9242SOL     OW39361   2.366   2.484  16.435  0.3796 -0.2444  0.1193
 9242SOL    HW139362   2.389   2.577  16.439  1.8849 -0.5730 -0.7878
 9242SOL    HW239363   2.445   2.453  16.479  1.8392  1.2275 -1.4611
 9243SOL     OW39364   1.279   4.542  13.200 -0.1566  0.6413 -0.3458
 9243SOL    HW139365   1.275   4.571  13.291 -0.4202 -0.0907 -0.1254
 9243SOL    HW239366   1.239   4.614  13.152 -0.2403  1.8007  1.4527
 9244SOL     OW39367   1.249   1.228   1.006 -0.5157  0.1633 -0.4377
 9244SOL    HW139368   1.272   1.320   0.993 -1.1238  0.2103 -1.1729
 9244SOL    HW239369   1.228   1.225   1.100  1.3228  0.6714 -0.0189
 9245SOL     OW39370   1.499   4.231   3.921  0.1262 -0.1139  0.1741
 9245SOL    HW139371   1.568   4.286   3.955  0.8603 -1.4685  0.8453
 9245SOL    HW239372   1.494   4.243   3.826  1.8791 -1.6778 -0.1188
 9246SOL     OW39373   1.380   4.290  13.172 -0.2242 -0.1839  0.0275
 9246SOL    HW139374   1.446   4.289  13.242 -0.6570  0.4387  0.4357
 9246SOL    HW239375   1.357   4.383  13.171 -0.0580 -0.1219  2.1808
 9247SOL     OW39376   2.630   2.322   3.122 -0.5463 -0.0608  0.2141
 9247SOL    HW139377   2.639   2.355   3.033 -0.8203  1.9097  0.9073
 9247SOL    HW239378   2.585   2.241   3.099 -3.0079  1.2905  0.3639
 9248SOL     OW39379   4.252   0.965   3.738  0.3367  0.0150  0.4555
 9248SOL    HW139380   4.302   1.038   3.701 -0.6723  0.9620  0.9462
 9248SOL    HW239381   4.322   0.901   3.754  0.5620  0.1909  0.1750
 9249SOL     OW39382   1.827   2.996   8.289  0.7843  0.4275 -0.2744
 9249SOL    HW139383   1.893   2.984   8.221  2.3875 -1.7706  1.6750
 9249SOL    HW239384   1.791   3.082   8.264  1.1681  0.4170 -0.8574
 9250SOL     OW39385   0.139   4.376   3.482  0.1392 -0.8208 -0.0632
 9250SOL    HW139386   0.175   4.456   3.522  0.4299 -1.4257  0.8695
 9250SOL    HW239387   0.197   4.313   3.525  1.4217  0.0735 -0.4750
 9251SOL     OW39388   0.406   0.593   7.607  0.3943  0.2579 -0.3711
 9251SOL    HW139389   0.487   0.555   7.641  0.0932 -0.0116  0.0421
 9251SOL    HW239390   0.367   0.506   7.613 -0.2994  0.6046  0.0535
 9252SOL     OW39391   1.278   0.233   6.269  0.1845 -0.5807 -0.2414
 9252SOL    HW139392   1.240   0.177   6.336 -1.0544 -0.9121 -1.2128
 9252SOL    HW239393   1.206   0.293   6.249 -0.2267 -0.5740  1.3019
 9253SOL     OW39394   1.101   4.312  10.997 -0.1333 -0.4107 -0.5581
 9253SOL    HW139395   1.111   4.219  10.975 -0.2934 -0.3997 -0.6787
 9253SOL    HW239396   1.124   4.317  11.090  2.7148  0.3132 -1.3207
 9254SOL     OW39397   4.074   2.854   6.785  0.3610 -0.0839  0.2483
 9254SOL    HW139398   4.070   2.793   6.859  0.0967 -1.4062 -0.8358
 9254SOL    HW239399   4.158   2.895   6.803  0.0311 -0.6476  3.0598
 9255SOL     OW39400   2.538   1.408   6.890  0.0751  0.4214 -0.2434
 9255SOL    HW139401   2.613   1.455   6.854 -0.5804  1.0914 -0.7271
 9255SOL    HW239402   2.555   1.328   6.841  1.6000  0.9927 -0.6385
 9256SOL     OW39403   1.504   3.275   5.044  0.5075 -0.3495  0.0048
 9256SOL    HW139404   1.472   3.209   5.107  0.7902  1.4118  1.9976
 9256SOL    HW239405   1.524   3.221   4.967 -1.3658 -1.3185  0.1746
 9257SOL     OW39406   1.354   1.351  12.130 -0.3751  0.3120 -0.0238
 9257SOL    HW139407   1.345   1.279  12.068 -1.0969 -0.9515  1.5442
 9257SOL    HW239408   1.279   1.408  12.115 -1.8247 -1.3287  0.9280
 9258SOL     OW39409   2.570   3.392  11.343 -0.6768  0.2876 -0.2963
 9258SOL    HW139410   2.572   3.368  11.251  1.8314 -0.8928  0.0553
 9258SOL    HW239411   2.548   3.310  11.387  0.2318 -0.1292 -0.6202
 9259SOL     OW39412   1.029   0.269   8.469  0.3553  0.4551 -0.6857
 9259SOL    HW139413   0.990   0.344   8.424 -0.6278 -0.5416 -1.4788
 9259SOL    HW239414   0.978   0.280   8.549 -0.5761  2.5186 -1.5593
 9260SOL     OW39415   2.456   4.197   5.075 -0.5440 -0.2567  0.0757
 9260SOL    HW139416   2.475   4.106   5.099  3.0103 -0.4699 -3.6085
 9260SOL    HW239417   2.475   4.193   4.981 -0.5761  0.2797  0.0458
 9261SOL     OW39418   3.930   2.630   4.887 -0.3528  0.2353  0.2405
 9261SOL    HW139419   3.966   2.549   4.920 -1.8635 -0.5426 -0.0116
 9261SOL    HW239420   3.950   2.617   4.794  0.5585  2.5470  0.1099
 9262SOL     OW39421   2.764   3.146  15.084 -0.3658  0.1420 -0.4578
 9262SOL    HW139422   2.766   3.095  15.003 -0.5035 -1.6695  0.6625
 9262SOL    HW239423   2.680   3.126  15.127 -0.6280 -0.4449 -1.2411
 9263SOL     OW39424   2.441   3.695   8.450 -0.1693  0.1006  0.6600
 9263SOL    HW139425   2.489   3.651   8.520  0.2451 -0.9198 -0.2853
 9263SOL    HW239426   2.486   3.778   8.466 -1.8697  1.1112  0.2017
 9264SOL     OW39427   2.421   0.980   6.644  0.2515 -0.5982 -0.6515
 9264SOL    HW139428   2.437   0.893   6.680  0.4342 -0.1869  0.2693
 9264SOL    HW239429   2.480   0.962   6.572  1.6063 -0.6142  0.4679
 9265SOL     OW39430   1.395   4.025   1.641  0.0839 -0.3519 -0.1452
 9265SOL    HW139431   1.312   4.008   1.685  0.6049  0.2557  1.0965
 9265SOL    HW239432   1.381   4.102   1.586 -1.9387 -0.5423  0.1366
 9266SOL     OW39433   0.828   4.726   9.217  0.3613 -0.1481 -0.3319
 9266SOL    HW139434   0.810   4.639   9.181  0.4821  0.2375 -1.3220
 9266SOL    HW239435   0.923   4.735   9.210  0.1989  0.8636 -1.1905
 9267SOL     OW39436   0.925   0.274  13.038  0.3366 -0.0492  0.2836
 9267SOL    HW139437   0.997   0.248  12.980  0.1068 -1.5568  0.6716
 9267SOL    HW239438   0.857   0.213  13.009  1.5942 -1.6141  0.6910
 9268SOL     OW39439   4.523   0.130   0.545  0.3928 -0.5092 -0.5043
 9268SOL    HW139440   4.464   0.189   0.592  0.5313 -1.8659  1.3636
 9268SOL    HW239441   4.468   0.070   0.493  0.9139 -1.1195 -0.3507
 9269SOL     OW39442   2.722   1.146   5.509  0.6235  0.1651  0.2808
 9269SOL    HW139443   2.634   1.124   5.481  1.5286  0.0555 -2.5287
 9269SOL    HW239444   2.750   1.078   5.570 -2.0031  0.6064  1.9745
 9270SOL     OW39445   2.444   3.130   3.894 -0.3022  0.3004 -0.1161
 9270SOL    HW139446   2.421   3.089   3.811  0.0082  1.2775 -0.6902
 9270SOL    HW239447   2.422   3.221   3.875 -1.3200  0.0916  0.0622
 9271SOL     OW39448   1.616   1.362   2.122  0.1032  0.0269 -0.1401
 9271SOL    HW139449   1.544   1.378   2.061 -2.4256 -3.8430  1.8327
 9271SOL    HW239450   1.576   1.356   2.209 -2.4427  0.3355 -1.3009
 9272SOL     OW39451   2.847   3.319   3.167 -0.3787  0.1469  0.0915
 9272SOL    HW139452   2.792   3.374   3.224 -0.5476 -2.0014  2.0030
 9272SOL    HW239453   2.928   3.370   3.161  0.7404 -1.8119 -1.6365
 9273SOL     OW39454   0.412   1.630   7.611 -0.4123  0.0680  0.5819
 9273SOL    HW139455   0.366   1.560   7.565 -0.9166 -0.4050  1.8137
 9273SOL    HW239456   0.431   1.676   7.529  1.2043 -1.8855 -0.1464
 9274SOL     OW39457   2.838   2.807   2.146 -0.3645  0.5631  0.4261
 9274SOL    HW139458   2.859   2.735   2.205 -0.8637  2.1137  2.4999
 9274SOL    HW239459   2.751   2.832   2.178  0.5557  0.9878  2.5935
 9275SOL     OW39460   2.205   2.084   3.658 -0.4545 -0.3600 -0.3487
 9275SOL    HW139461   2.112   2.108   3.662 -0.4975 -0.3193 -1.8464
 9275SOL    HW239462   2.238   2.117   3.742  1.5184 -2.8097 -0.1488
 9276SOL     OW39463   0.300   4.028   5.833  0.8310 -0.2318  0.4177
 9276SOL    HW139464   0.279   3.960   5.897  0.3418  0.0143  0.5193
 9276SOL    HW239465   0.276   3.983   5.753 -0.8519  2.6358 -0.6718
 9277SOL     OW39466   3.779   1.390   5.053 -0.0243  0.7305  0.0637
 9277SOL    HW139467   3.715   1.319   5.061 -0.5460  1.1670 -0.2236
 9277SOL    HW239468   3.850   1.372   5.115 -2.3169 -1.6519  1.9727
 9278SOL     OW39469   1.713   4.179   7.333  0.8133 -0.3805 -0.4415
 9278SOL    HW139470   1.660   4.159   7.410  0.6894 -0.3986 -0.5328
 9278SOL    HW239471   1.724   4.274   7.323 -0.5908 -0.2540 -0.7366
 9279SOL     OW39472   3.096   4.159   1.502 -0.1227 -0.2398  0.2027
 9279SOL    HW139473   3.053   4.153   1.417 -0.5080  0.1258  0.3666
 9279SOL    HW239474   3.051   4.242   1.520  0.6433  0.2583 -0.1604
 9280SOL     OW39475   4.563   4.463  16.410  0.3568 -0.3395 -0.2184
 9280SOL    HW139476   4.492   4.402  16.387 -0.8484  1.5227 -1.4801
 9280SOL    HW239477   4.637   4.412  16.377 -0.8274 -1.0317 -1.8510
 9281SOL     OW39478   2.440   3.204   6.479  0.0317 -0.4162  0.5611
 9281SOL    HW139479   2.412   3.296   6.478 -0.0012 -0.4247  0.7428
 9281SOL    HW239480   2.533   3.213   6.496  0.5246  0.0234 -2.2535
 9282SOL     OW39481   1.917   0.481   7.846  0.0809 -0.5448  0.1113
 9282SOL    HW139482   2.001   0.500   7.805  2.4515 -1.4156  4.5232
 9282SOL    HW239483   1.875   0.567   7.845  1.0780 -0.0497  1.4641
 9283SOL     OW39484   2.413   4.099   1.581  0.1338 -0.0729  0.1101
 9283SOL    HW139485   2.505   4.127   1.580  0.4218 -1.0577 -1.5021
 9283SOL    HW239486   2.400   4.056   1.496 -1.3102 -1.3687  0.9830
 9284SOL     OW39487   1.672   3.670   7.956 -0.7702 -0.1536  0.4281
 9284SOL    HW139488   1.689   3.603   7.889 -0.3577 -0.2514  0.6277
 9284SOL    HW239489   1.742   3.733   7.940  0.7770 -1.9954 -0.1179
 9285SOL     OW39490   2.244   2.329   2.664  0.0543  0.4529 -0.2903
 9285SOL    HW139491   2.204   2.411   2.693 -1.3993 -0.2402 -0.3010
 9285SOL    HW239492   2.178   2.319   2.595 -1.1153 -2.4898  1.2323
 9286SOL     OW39493   2.969   1.085   5.863  0.4558  0.2323  0.3633
 9286SOL    HW139494   3.008   1.016   5.809 -0.6611  0.5440 -0.8096
 9286SOL    HW239495   3.005   1.165   5.824  0.1034 -0.2514 -0.9355
 9287SOL     OW39496   0.871   1.522   6.475  0.6938 -0.1347  0.2197
 9287SOL    HW139497   0.835   1.573   6.402 -0.4729  1.7798  2.1448
 9287SOL    HW239498   0.841   1.433   6.455 -0.5267  0.4406 -0.5450
 9288SOL     OW39499   3.459   0.416   7.174 -0.1335 -0.3956 -0.7931
 9288SOL    HW139500   3.368   0.413   7.202  0.1487  1.2368  0.2871
 9288SOL    HW239501   3.502   0.443   7.255  0.6170  1.3381 -1.7552
 9289SOL     OW39502   3.423   3.712   2.828  0.1967  0.4343 -0.1827
 9289SOL    HW139503   3.398   3.627   2.863  0.2981  0.3690 -0.2702
 9289SOL    HW239504   3.408   3.689   2.736 -0.3550  2.2685 -0.5488
 9290SOL     OW39505   1.848   4.458   6.184 -0.0098  0.2268 -0.0436
 9290SOL    HW139506   1.809   4.469   6.098  0.0650 -4.7062 -0.7344
 9290SOL    HW239507   1.928   4.510   6.175  0.0137  0.0295 -0.8951
 9291SOL     OW39508   4.731   1.233  16.615  0.1109  0.4134 -0.2523
 9291SOL    HW139509   4.737   1.321  16.580 -1.3131  0.1814 -1.0874
 9291SOL    HW239510   4.644   1.217  16.579  1.0032  0.0610 -2.2503
 9292SOL     OW39511   1.627   2.088   3.186  0.8362 -0.1758  0.4068
 9292SOL    HW139512   1.658   2.123   3.102  0.4010  0.0061  0.3219
 9292SOL    HW239513   1.601   1.999   3.165  1.5040  0.3157 -2.6241
 9293SOL     OW39514   1.409   1.811  10.676  0.3657 -0.0029 -0.4839
 9293SOL    HW139515   1.411   1.905  10.658  0.1960 -0.3894 -2.5791
 9293SOL    HW239516   1.419   1.812  10.771  3.1287 -0.4289 -0.7712
 9294SOL     OW39517   2.203   2.975  10.857  0.4566  0.0647 -0.0830
 9294SOL    HW139518   2.161   2.921  10.924  1.8536 -0.2137  0.5703
 9294SOL    HW239519   2.287   2.933  10.837  0.5906  0.6388 -0.7370
 9295SOL     OW39520   3.367   4.118   3.141 -0.7051 -0.2228  0.3692
 9295SOL    HW139521   3.436   4.121   3.209 -0.2429 -1.8897 -0.0374
 9295SOL    HW239522   3.422   4.161   3.076  0.3348  0.1973  1.5044
 9296SOL     OW39523   3.273   4.014   4.280 -0.4384  0.0579 -0.2813
 9296SOL    HW139524   3.341   3.991   4.217 -1.8519  1.6687 -2.3829
 9296SOL    HW239525   3.196   4.011   4.223 -0.2235 -2.0695 -0.4535
 9297SOL     OW39526   0.510   1.077   4.850 -0.1782  0.1193 -0.4573
 9297SOL    HW139527   0.565   1.065   4.773  1.0800  0.9079  0.3365
 9297SOL    HW239528   0.559   1.146   4.894 -2.4678  0.0456  2.2558
 9298SOL     OW39529   2.765   4.732   3.435  0.4639 -0.8027 -0.0899
 9298SOL    HW139530   2.839   0.053   3.434 -1.1750  1.2059  0.3962
 9298SOL    HW239531   2.789   4.674   3.363 -0.9241 -3.2806  1.4301
 9299SOL     OW39532   2.817   3.008   9.411  0.1290  0.0210 -0.1722
 9299SOL    HW139533   2.809   2.919   9.377 -2.0818  0.0679  0.2375
 9299SOL    HW239534   2.878   2.990   9.482  0.1018  2.6327  0.5189
 9300SOL     OW39535   0.429   0.811   6.285 -0.2272  0.3211  0.0336
 9300SOL    HW139536   0.453   0.849   6.201  1.0962  1.0397  0.7377
 9300SOL    HW239537   0.334   0.821   6.280  0.1394  2.6096 -2.2098
 9301SOL     OW39538   0.079   1.387   0.129 -0.0931  0.0070  0.2658
 9301SOL    HW139539   0.053   1.333   0.203  1.8824 -0.9845  0.2388
 9301SOL    HW239540   0.120   1.318   0.077  0.7768  0.9368 -0.2994
 9302SOL     OW39541   2.573   3.259  10.704  0.3306 -0.2887 -0.6841
 9302SOL    HW139542   2.541   3.190  10.645  1.6976 -2.0740  0.6685
 9302SOL    HW239543   2.522   3.330  10.666 -0.2867 -1.3540 -1.8635
 9303SOL     OW39544   2.807   1.952   9.588  0.6167  0.3859 -0.1024
 9303SOL    HW139545   2.855   1.943   9.671 -1.1312 -0.1807  0.8507
 9303SOL    HW239546   2.865   1.910   9.525  2.2483 -1.2218  2.4787
 9304SOL     OW39547   0.274   1.003   4.995 -0.1226 -0.4952 -0.2804
 9304SOL    HW139548   0.353   1.009   4.942  1.0897 -0.1728  1.5289
 9304SOL    HW239549   0.216   0.950   4.941  0.3812 -1.0314 -0.2986
 9305SOL     OW39550   2.312   3.365  10.615  0.3324 -0.0713 -0.4402
 9305SOL    HW139551   2.233   3.320  10.645 -1.0238  2.5985 -0.0824
 9305SOL    HW239552   2.289   3.363  10.522  1.7374  0.0754 -0.7927
 9306SOL     OW39553   0.247   0.058   3.697  0.1335  0.5862  0.2162
 9306SOL    HW139554   0.223   4.719   3.747  0.0116  0.2969 -0.2910
 9306SOL    HW239555   0.331   0.088   3.733 -0.7494  0.0979  2.6716
 9307SOL     OW39556   1.191   3.320   4.486  0.6484  0.0272 -0.7359
 9307SOL    HW139557   1.120   3.351   4.542  1.2338 -2.7252  1.4958
 9307SOL    HW239558   1.221   3.408   4.465 -0.2130  0.7209  1.0023
 9308SOL     OW39559   1.498   0.544   3.812  0.0757 -0.4668  0.6090
 9308SOL    HW139560   1.492   0.497   3.728  0.6862 -0.6940  0.6910
 9308SOL    HW239561   1.552   0.478   3.856 -1.0129  0.2560  3.0170
 9309SOL     OW39562   4.514   0.452  14.720  0.3609  0.3210 -0.1886
 9309SOL    HW139563   4.589   0.480  14.772 -0.4155  0.2165  0.9958
 9309SOL    HW239564   4.492   0.377  14.774 -0.8626  1.6724  1.1943
 9310SOL     OW39565   0.366   3.774   1.298 -0.5249 -0.3069  0.6565
 9310SOL    HW139566   0.408   3.832   1.362  0.1394 -3.4999  3.1293
 9310SOL    HW239567   0.284   3.750   1.342  0.6624 -1.9261  1.9838
 9311SOL     OW39568   4.498   1.042   1.390 -0.2977  0.0549 -0.1911
 9311SOL    HW139569   4.538   0.961   1.358 -0.6819  0.0346 -0.6204
 9311SOL    HW239570   4.458   1.070   1.308 -0.3077 -1.6514 -0.7670
 9312SOL     OW39571   2.326   4.370   3.910 -0.2425 -0.1241  0.0871
 9312SOL    HW139572   2.417   4.371   3.879 -0.1027 -0.2507  0.5027
 9312SOL    HW239573   2.292   4.455   3.882 -0.1222  0.5119  1.8830
 9313SOL     OW39574   2.618   3.102  13.001 -0.2488  0.2150  0.1907
 9313SOL    HW139575   2.687   3.168  12.997 -2.1890  2.3162  0.7583
 9313SOL    HW239576   2.637   3.061  13.085  2.3076  1.1327  0.0558
 9314SOL     OW39577   1.474   3.055   4.840 -0.8411 -0.4612  0.3913
 9314SOL    HW139578   1.450   2.971   4.877 -0.2618 -1.4162 -1.3591
 9314SOL    HW239579   1.560   3.036   4.801 -1.1663 -0.0502 -0.5397
 9315SOL     OW39580   4.124   1.123   5.077 -0.0613  0.4620  0.7012
 9315SOL    HW139581   4.047   1.085   5.118 -0.6881  0.8421 -0.1226
 9315SOL    HW239582   4.095   1.214   5.070  2.1008  1.0225 -1.1455
 9316SOL     OW39583   4.258   3.340   3.314  0.1155  0.8545 -0.1664
 9316SOL    HW139584   4.330   3.279   3.330 -1.7863 -1.4229 -0.3141
 9316SOL    HW239585   4.231   3.320   3.224  1.3853  0.7538 -0.5229
 9317SOL     OW39586   0.989   3.416  12.479 -0.4720 -0.3717 -1.0454
 9317SOL    HW139587   1.074   3.457  12.494 -0.7782 -1.0340  2.6916
 9317SOL    HW239588   0.927   3.487  12.465  0.1049  0.4544  0.5461
 9318SOL     OW39589   2.975   4.668   2.545  0.2141  0.1256 -0.2593
 9318SOL    HW139590   2.987   4.615   2.624  0.8281 -1.6305 -1.5379
 9318SOL    HW239591   3.003   0.015   2.575 -2.0594  0.3854  1.1638
 9319SOL     OW39592   3.479   4.421  14.940  0.2958 -0.1599 -0.1627
 9319SOL    HW139593   3.444   4.509  14.951 -0.2456 -0.3170 -0.6370
 9319SOL    HW239594   3.520   4.394  15.022 -0.8494  0.1390  0.4964
 9320SOL     OW39595   1.996   4.539  13.393 -0.1779 -0.3301  0.0697
 9320SOL    HW139596   1.964   4.629  13.391  1.2636  0.1749 -0.3145
 9320SOL    HW239597   1.918   4.484  13.400  0.1626 -0.8809 -0.3964
 9321SOL     OW39598   0.997   2.147   8.177 -0.1981  0.4361 -0.1082
 9321SOL    HW139599   0.911   2.140   8.137  0.0133  0.6057 -0.5946
 9321SOL    HW239600   0.996   2.061   8.218 -0.0931  0.1987 -0.5959
 9322SOL     OW39601   1.098   3.629  14.618  0.3791 -0.0030 -0.3853
 9322SOL    HW139602   1.047   3.610  14.697  0.4136  1.3854 -0.0267
 9322SOL    HW239603   1.059   3.566  14.558 -0.0205 -0.4938  0.3789
 9323SOL     OW39604   0.140   4.462   2.609  0.3195 -0.3047  0.4593
 9323SOL    HW139605   0.198   4.431   2.678 -0.9183  3.3047  3.1250
 9323SOL    HW239606   0.185   4.427   2.532  1.3384  1.0205  0.4542
 9324SOL     OW39607   1.502   1.801   5.998  0.4734 -0.0189  0.2235
 9324SOL    HW139608   1.443   1.747   6.050  0.4324 -0.3537 -0.1632
 9324SOL    HW239609   1.443   1.862   5.954 -1.6044 -0.0391  3.0226
 9325SOL     OW39610   3.902   0.690   5.603 -0.4044  0.2756  0.2119
 9325SOL    HW139611   3.902   0.636   5.524 -0.6430  0.4022  0.1274
 9325SOL    HW239612   3.896   0.618   5.666 -0.9624 -0.1884 -0.3741
 9326SOL     OW39613   2.256   2.512   4.475  0.4316  0.0026  0.1828
 9326SOL    HW139614   2.248   2.417   4.468 -0.4198  0.0016  1.1674
 9326SOL    HW239615   2.192   2.532   4.543 -1.7489  2.0513 -2.5054
 9327SOL     OW39616   2.034   0.709   7.045  0.4138 -0.2509 -0.0444
 9327SOL    HW139617   1.981   0.745   7.116  0.7139 -0.8892  0.5096
 9327SOL    HW239618   2.013   0.758   6.966  2.6264 -0.8238 -0.9914
 9328SOL     OW39619   1.873   3.134   6.015  0.1876 -0.0099  0.3015
 9328SOL    HW139620   1.950   3.102   5.967  0.5702  1.1506  0.1465
 9328SOL    HW239621   1.849   3.206   5.956 -0.1376  0.0851  0.5552
 9329SOL     OW39622   3.982   0.775  16.517  0.1592 -0.2628 -0.3786
 9329SOL    HW139623   4.075   0.758  16.506  0.3783 -0.6115  2.0131
 9329SOL    HW239624   3.953   0.699  16.466 -1.9963 -0.4399  1.1019
 9330SOL     OW39625   0.459   2.850   5.922  0.5796  0.4359 -0.1795
 9330SOL    HW139626   0.509   2.827   6.000  1.2042 -0.1942 -0.7558
 9330SOL    HW239627   0.402   2.918   5.958 -0.6904  0.2770 -1.8903
 9331SOL     OW39628   2.803   1.812  15.171  0.2943 -0.0372 -0.0702
 9331SOL    HW139629   2.886   1.858  15.158 -0.5742  1.4782 -0.3106
 9331SOL    HW239630   2.741   1.885  15.178  0.2639 -0.0895  0.2124
 9332SOL     OW39631   1.637   3.095   7.573 -0.2693  0.2715 -0.2768
 9332SOL    HW139632   1.641   3.067   7.482 -0.6554  2.9094 -1.0925
 9332SOL    HW239633   1.601   3.182   7.558 -0.7864 -0.1246 -1.2840
 9333SOL     OW39634   4.111   3.143  12.143 -0.4595 -0.5503  0.1456
 9333SOL    HW139635   4.138   3.230  12.172  1.0641 -1.4656  1.5008
 9333SOL    HW239636   4.025   3.146  12.185 -1.1934  1.0822 -1.4590
 9334SOL     OW39637   2.762   1.423   8.113 -0.2840 -0.2777  0.0672
 9334SOL    HW139638   2.823   1.443   8.042 -0.8479  2.0285  0.2177
 9334SOL    HW239639   2.766   1.504   8.164  1.8484 -0.8806  0.8336
 9335SOL     OW39640   0.433   2.477   7.139  0.1509  0.0461  0.2486
 9335SOL    HW139641   0.513   2.460   7.090  0.3954  0.0623  0.6409
 9335SOL    HW239642   0.402   2.388   7.154 -0.0808  0.1622  0.4588
 9336SOL     OW39643   4.134   2.320   7.581  0.6991  0.5796 -0.5491
 9336SOL    HW139644   4.162   2.299   7.670  1.3240  0.0458 -0.8728
 9336SOL    HW239645   4.058   2.263   7.569  0.6015  0.8740 -1.3704
 9337SOL     OW39646   0.159   2.660   5.722  0.1612  0.2819 -0.1657
 9337SOL    HW139647   0.070   2.657   5.756 -0.3214 -1.3451 -1.5372
 9337SOL    HW239648   0.143   2.695   5.634 -3.3175 -0.1831  0.2640
 9338SOL     OW39649   2.676   2.548   1.277 -0.9012 -0.1530  0.1392
 9338SOL    HW139650   2.713   2.635   1.266  0.5362 -0.8083 -0.1506
 9338SOL    HW239651   2.669   2.517   1.186 -1.9997  0.2120  0.0959
 9339SOL     OW39652   2.583   0.505   6.424  0.1593 -0.3619  0.7773
 9339SOL    HW139653   2.494   0.472   6.434 -0.4430  2.1411  3.6017
 9339SOL    HW239654   2.630   0.421   6.429 -1.7858 -1.5271 -1.0938
 9340SOL     OW39655   2.581   1.996   9.791 -0.3959 -0.7297 -0.3099
 9340SOL    HW139656   2.589   2.056   9.717  0.4386 -0.3677  0.0652
 9340SOL    HW239657   2.529   1.923   9.757 -3.6666  1.1407  0.7802
 9341SOL     OW39658   3.276   0.556   8.856 -0.6574 -0.3158  0.2073
 9341SOL    HW139659   3.368   0.565   8.881 -0.3073 -0.2733 -1.0990
 9341SOL    HW239660   3.258   0.465   8.880 -0.2725 -0.5820 -0.5072
 9342SOL     OW39661   3.225   1.154   5.261 -0.3262  0.2185  0.2684
 9342SOL    HW139662   3.188   1.130   5.346 -1.4071  2.3092  0.3831
 9342SOL    HW239663   3.152   1.149   5.199  0.1633  1.3973 -0.4067
 9343SOL     OW39664   4.659   1.864   9.949 -0.2441  0.0498  0.0945
 9343SOL    HW139665   4.688   1.775   9.930 -1.3447 -0.3922  0.4511
 9343SOL    HW239666   4.630   1.852  10.039 -1.8090  0.2142 -0.3867
 9344SOL     OW39667   3.743   0.892   8.061 -0.0050  0.8414  0.5276
 9344SOL    HW139668   3.754   0.860   7.972 -1.2424  0.9946  0.3265
 9344SOL    HW239669   3.735   0.987   8.055 -2.9660  0.4814 -0.9702
 9345SOL     OW39670   0.672   3.241  10.479  0.4803  0.1996 -0.0214
 9345SOL    HW139671   0.657   3.288  10.561 -2.4210  0.6408 -0.8127
 9345SOL    HW239672   0.753   3.270  10.436  0.3920  2.5331  1.4096
 9346SOL     OW39673   1.722   1.465  14.781 -0.6688  0.2208 -0.2548
 9346SOL    HW139674   1.695   1.407  14.709  0.3752 -0.0902 -0.4042
 9346SOL    HW239675   1.736   1.402  14.852  1.1289  1.9296  0.9078
 9347SOL     OW39676   1.810   0.041  15.147  0.0086  0.4566  0.1989
 9347SOL    HW139677   1.735   0.073  15.197 -1.0616 -0.9705 -0.4799
 9347SOL    HW239678   1.765   0.019  15.065  2.9661  0.9115 -1.5562
 9348SOL     OW39679   2.818   1.762   9.150 -0.2009  0.1827 -0.2983
 9348SOL    HW139680   2.841   1.670   9.137 -1.2392 -0.2125  0.6678
 9348SOL    HW239681   2.765   1.750   9.229 -1.1653 -1.0923 -1.1217
 9349SOL     OW39682   4.455   3.177  11.844  0.2853 -0.2334 -0.2141
 9349SOL    HW139683   4.448   3.212  11.933 -0.3359  1.8725 -1.0950
 9349SOL    HW239684   4.543   3.139  11.846  0.1788 -0.4194  1.0139
 9350SOL     OW39685   0.487   3.713   2.245  0.0744 -0.4737 -0.3025
 9350SOL    HW139686   0.470   3.721   2.151  1.2233  0.5969 -0.4282
 9350SOL    HW239687   0.463   3.623   2.267  1.9567 -0.9422 -0.1985
 9351SOL     OW39688   3.218   2.683   2.635  0.1142 -0.2155 -0.6316
 9351SOL    HW139689   3.312   2.676   2.647  0.2411 -1.3839 -2.2705
 9351SOL    HW239690   3.222   2.686   2.539  0.8565  0.2993 -0.5761
 9352SOL     OW39691   1.310   3.257   9.163  0.1476  0.0326  0.0401
 9352SOL    HW139692   1.371   3.187   9.184  0.5457  0.4502  0.2648
 9352SOL    HW239693   1.337   3.321   9.229 -1.6715  0.0953  0.7284
 9353SOL     OW39694   3.263   4.474   4.350  0.1199 -0.0514  0.2675
 9353SOL    HW139695   3.266   4.387   4.391  1.1511  0.3426  1.0241
 9353SOL    HW239696   3.168   4.471   4.342  0.3768 -0.2852 -2.5808
 9354SOL     OW39697   3.558   4.038   2.104 -0.4354  0.3089  0.4102
 9354SOL    HW139698   3.522   4.026   2.016 -0.7684 -0.6053  0.6767
 9354SOL    HW239699   3.648   4.006   2.104 -0.9029 -1.0312  0.1748
 9355SOL     OW39700   0.535   0.872  10.777 -0.1648  0.1515 -0.1434
 9355SOL    HW139701   0.454   0.845  10.821 -1.2730  2.8245 -0.5541
 9355SOL    HW239702   0.606   0.851  10.838 -2.6484 -4.2672  1.2395
 9356SOL     OW39703   3.273   0.270   5.761 -0.4292  0.1305 -0.3907
 9356SOL    HW139704   3.337   0.200   5.748 -0.5107  0.5447 -2.9365
 9356SOL    HW239705   3.196   0.230   5.801  0.4311 -0.2492  0.8948
 9357SOL     OW39706   1.948   2.207   3.994 -0.4061 -0.6533 -0.4794
 9357SOL    HW139707   1.884   2.136   4.002 -0.5706 -0.6086 -1.3680
 9357SOL    HW239708   1.934   2.254   4.076  0.7869 -0.0302 -0.6422
 9358SOL     OW39709   0.510   0.846   5.427 -0.3476  0.0230  0.0865
 9358SOL    HW139710   0.590   0.891   5.452  0.1438 -0.7517 -0.0884
 9358SOL    HW239711   0.508   0.854   5.332  3.1694  1.5848  0.1388
 9359SOL     OW39712   3.203   1.646   3.846  0.7289  0.7401 -0.1634
 9359SOL    HW139713   3.158   1.599   3.917  2.3635  0.4494  0.6830
 9359SOL    HW239714   3.232   1.576   3.788  0.3695  0.9078 -0.5482
 9360SOL     OW39715   2.277   2.106   6.290 -0.0911  0.0046  0.2523
 9360SOL    HW139716   2.239   2.192   6.307  0.9734 -0.4314  4.9149
 9360SOL    HW239717   2.214   2.080   6.223  0.9191  0.7942 -1.0099
 9361SOL     OW39718   1.023   2.581   2.277  0.2274  0.3787  0.1676
 9361SOL    HW139719   0.972   2.504   2.302  1.4837  0.2895  2.4278
 9361SOL    HW239720   0.959   2.649   2.259  0.1749  0.8000  1.9410
 9362SOL     OW39721   0.055   2.987   7.664 -0.4833  0.0398  0.0161
 9362SOL    HW139722   0.039   2.996   7.758  0.3188 -0.6924  0.2296
 9362SOL    HW239723   0.080   2.894   7.658 -1.4262 -0.1684 -0.7170
 9363SOL     OW39724   0.920   3.810   4.848  0.2166 -0.9152  0.1377
 9363SOL    HW139725   0.897   3.836   4.758 -0.7399  0.3763  0.7615
 9363SOL    HW239726   0.904   3.716   4.836 -1.1767 -0.8122  1.2033
 9364SOL     OW39727   0.755   0.550   4.106  0.5397 -0.3269 -0.5491
 9364SOL    HW139728   0.759   0.586   4.194  1.5014  0.4812 -0.9224
 9364SOL    HW239729   0.734   0.458   4.124 -2.0707  0.8906  2.5460
 9365SOL     OW39730   1.954   0.842   8.719  0.1193 -0.1828  0.0269
 9365SOL    HW139731   1.858   0.840   8.718  0.1496 -0.5786 -1.7710
 9365SOL    HW239732   1.972   0.835   8.813  1.5494 -0.6259 -0.2892
 9366SOL     OW39733   2.579   2.866  12.200 -0.6066 -0.6875 -0.1494
 9366SOL    HW139734   2.623   2.805  12.259  1.1983  0.0419 -0.7495
 9366SOL    HW239735   2.555   2.801  12.134 -0.7451 -1.0306  0.2368
 9367SOL     OW39736   2.607   2.250   0.066  0.3605 -0.0060 -0.4097
 9367SOL    HW139737   2.575   2.170   0.109  2.4634  0.0276  1.2520
 9367SOL    HW239738   2.624   2.311   0.138 -1.6623 -0.0723  0.1063
 9368SOL     OW39739   3.128   0.946   4.187 -0.2584 -0.4937  0.0111
 9368SOL    HW139740   3.117   0.895   4.267  1.3817 -2.1708 -0.8445
 9368SOL    HW239741   3.172   1.027   4.213 -1.0487 -0.1205  0.2046
 9369SOL     OW39742   3.634   4.485   1.465 -0.1509 -0.1577 -0.2087
 9369SOL    HW139743   3.555   4.444   1.500 -0.9991  1.6264 -0.0229
 9369SOL    HW239744   3.658   4.415   1.405 -0.8488  0.3687 -1.1059
 9370SOL     OW39745   2.182   2.812  14.375 -0.9330  0.0575 -0.1553
 9370SOL    HW139746   2.208   2.741  14.316  0.2745 -2.2021  3.0793
 9370SOL    HW239747   2.088   2.816  14.361 -1.0755 -0.6693  0.6242
 9371SOL     OW39748   1.844   0.556   9.016 -0.1653  0.2140 -0.2557
 9371SOL    HW139749   1.877   0.466   9.024 -2.3175 -0.6807 -1.5668
 9371SOL    HW239750   1.758   0.543   8.978  0.9497 -2.1133 -1.9634
 9372SOL     OW39751   2.223   4.241   9.618 -0.2362  0.2746  0.1991
 9372SOL    HW139752   2.141   4.200   9.590  0.9895 -1.5782 -0.6202
 9372SOL    HW239753   2.269   4.171   9.665 -0.7111 -0.8814 -1.0759
 9373SOL     OW39754   1.097   4.404  12.330 -0.5637 -0.5910 -0.0008
 9373SOL    HW139755   1.192   4.394  12.339 -0.6576  0.9729  2.6603
 9373SOL    HW239756   1.083   4.467  12.260  0.3426 -1.1005 -0.6384
 9374SOL     OW39757   1.159   0.289   3.302  0.1933 -0.2155  0.4358
 9374SOL    HW139758   1.164   0.383   3.320 -0.8901 -0.0312 -0.2642
 9374SOL    HW239759   1.253   0.271   3.309  0.0671 -0.2511  2.1033
 9375SOL     OW39760   0.804   2.911   1.260 -0.4688 -0.0707 -0.0061
 9375SOL    HW139761   0.716   2.905   1.297 -0.4974 -1.5184 -0.3051
 9375SOL    HW239762   0.840   2.823   1.273  0.7171  0.6679  1.7508
 9376SOL     OW39763   2.545   1.425  15.306  0.0242 -0.2535  0.7072
 9376SOL    HW139764   2.549   1.494  15.372  1.0902  0.4527 -0.0889
 9376SOL    HW239765   2.558   1.345  15.358 -0.9572 -0.7894  0.1275
 9377SOL     OW39766   0.072   1.902   4.074  0.5191 -0.4047 -0.2396
 9377SOL    HW139767   0.031   1.961   4.138 -0.6492 -0.1773 -1.1929
 9377SOL    HW239768   0.060   1.814   4.110 -0.1369 -0.6198 -0.9852
 9378SOL     OW39769   1.472   0.528   1.855 -0.2581  0.1605  0.0478
 9378SOL    HW139770   1.428   0.468   1.915  0.0712 -1.2888 -1.1449
 9378SOL    HW239771   1.397   0.587   1.857  0.5224  1.1197  0.8773
 9379SOL     OW39772   4.368   0.482  10.765  0.2452  0.3224 -0.1116
 9379SOL    HW139773   4.276   0.460  10.776 -0.2495  2.5814  0.3811
 9379SOL    HW239774   4.411   0.397  10.776 -0.7479 -0.0902  0.5099
 9380SOL     OW39775   0.770   1.272   6.322 -0.6252 -0.1751  0.2433
 9380SOL    HW139776   0.684   1.254   6.362 -0.5976 -0.3806  0.2102
 9380SOL    HW239777   0.746   1.318   6.242 -0.4165 -2.4935 -1.1448
 9381SOL     OW39778   4.215   2.129   4.768  0.2186 -0.0680 -0.1052
 9381SOL    HW139779   4.237   2.115   4.860  1.2496  0.2698 -0.2965
 9381SOL    HW239780   4.301   2.142   4.729  0.1576 -0.1278 -0.2587
 9382SOL     OW39781   4.071   1.457   4.046  0.3267 -0.1272 -0.2323
 9382SOL    HW139782   4.063   1.376   4.096  2.5866  0.6033  1.3498
 9382SOL    HW239783   4.129   1.514   4.097  0.1993  0.7327 -1.0373
 9383SOL     OW39784   0.957   2.565   7.866 -0.0823  0.4401  0.2102
 9383SOL    HW139785   1.022   2.497   7.886 -1.0377 -1.3159 -2.5718
 9383SOL    HW239786   0.956   2.552   7.771  1.8945 -1.8424  0.4987
 9384SOL     OW39787   1.958   2.356  17.474 -0.6171 -0.0750  0.1849
 9384SOL    HW139788   1.916   2.384  17.392  3.4078  3.2546 -0.7813
 9384SOL    HW239789   1.888   2.358  17.539  1.2903  0.9765  2.1808
 9385SOL     OW39790   2.417   2.039  10.010  0.3767 -0.2057 -0.1472
 9385SOL    HW139791   2.491   2.071   9.959 -0.3625  2.8193  0.6427
 9385SOL    HW239792   2.424   1.944  10.014  1.2187 -0.0808  1.3507
 9386SOL     OW39793   0.574   2.670  16.655 -0.0458 -0.0789 -0.5110
 9386SOL    HW139794   0.512   2.694  16.725 -0.5673  0.6805 -1.2359
 9386SOL    HW239795   0.622   2.604  16.704 -0.5234 -1.7517 -2.3171
 9387SOL     OW39796   3.912   2.667  14.735 -0.5111 -0.1369 -0.5066
 9387SOL    HW139797   3.981   2.643  14.674 -0.2317  2.2375 -1.1167
 9387SOL    HW239798   3.956   2.668  14.820 -1.5428 -0.6977  0.0489
 9388SOL     OW39799   2.294   0.879   5.509 -0.1251  0.6041 -0.5067
 9388SOL    HW139800   2.330   0.793   5.532  1.2880  1.6293  1.1198
 9388SOL    HW239801   2.226   0.893   5.575  1.1534 -0.1878  0.9782
 9389SOL     OW39802   2.753   1.337  16.225 -0.5984  0.9468 -0.5892
 9389SOL    HW139803   2.720   1.307  16.140  0.2040 -0.7998 -0.3038
 9389SOL    HW239804   2.838   1.374  16.199 -1.1195  2.2651 -0.3680
 9390SOL     OW39805   1.189   0.770   5.462 -0.5722 -0.0545 -0.2128
 9390SOL    HW139806   1.176   0.798   5.371  0.5572 -1.1680 -0.7155
 9390SOL    HW239807   1.278   0.805   5.466 -0.1559 -1.2222  0.6487
 9391SOL     OW39808   1.291   4.724   2.910 -0.2502  0.3480 -0.0881
 9391SOL    HW139809   1.311   0.075   2.885 -0.3145  0.1645 -0.8083
 9391SOL    HW239810   1.219   4.732   2.972 -0.5422  0.9130 -0.5005
 9392SOL     OW39811   0.873   2.934   6.913 -0.7889  0.2180  0.2126
 9392SOL    HW139812   0.891   2.972   7.000  0.8939  0.2784 -0.1714
 9392SOL    HW239813   0.874   2.842   6.941  0.6462  0.6681  1.6309
 9393SOL     OW39814   4.257   3.914   7.428  0.1298  0.2170  0.5918
 9393SOL    HW139815   4.226   3.867   7.506 -1.7153  0.7090  0.1529
 9393SOL    HW239816   4.213   3.999   7.431  0.5104  0.4627 -0.9688
 9394SOL     OW39817   2.645   2.192   5.595 -0.1547 -0.1199 -0.1259
 9394SOL    HW139818   2.728   2.147   5.581 -0.5834 -0.5307 -1.2914
 9394SOL    HW239819   2.647   2.245   5.516  0.9238  1.3704  0.8943
 9395SOL     OW39820   1.324   3.713   2.745 -0.1952 -0.4921 -0.3887
 9395SOL    HW139821   1.415   3.696   2.723 -0.6460 -1.8363 -1.1917
 9395SOL    HW239822   1.293   3.633   2.703  0.5004 -2.0295  2.0269
 9396SOL     OW39823   3.061   0.194  14.559  0.3282 -0.0194 -0.3867
 9396SOL    HW139824   3.156   0.184  14.553  0.2444  0.0250 -1.9480
 9396SOL    HW239825   3.048   0.278  14.515  1.4698  0.7276  0.7213
 9397SOL     OW39826   0.268   4.195  13.364  0.5170  0.1761  0.5993
 9397SOL    HW139827   0.261   4.230  13.276  1.3854  0.3895  0.6153
 9397SOL    HW239828   0.339   4.134  13.343 -1.9000 -2.0566 -1.2034
 9398SOL     OW39829   1.353   1.311   9.452 -0.2396 -0.1680  0.0933
 9398SOL    HW139830   1.290   1.352   9.393  1.8336  0.6466 -1.5914
 9398SOL    HW239831   1.360   1.228   9.403  2.0087 -1.4346  2.5882
 9399SOL     OW39832   1.010   2.993   6.322  0.1760  0.2119 -0.1491
 9399SOL    HW139833   1.052   3.046   6.255 -1.3540  1.1543 -0.3716
 9399SOL    HW239834   0.978   3.056   6.388 -0.9234  1.1793 -1.6095
 9400SOL     OW39835   1.281   4.313   8.017  0.0179  1.1515  0.0995
 9400SOL    HW139836   1.300   4.386   7.958  1.6786  0.2684 -0.4503
 9400SOL    HW239837   1.371   4.287   8.037  0.3612  0.7043 -1.9540
 9401SOL     OW39838   0.851   0.272  10.208  0.0655 -0.5191  0.2395
 9401SOL    HW139839   0.939   0.286  10.243  0.3111 -2.8158  0.5208
 9401SOL    HW239840   0.797   0.330  10.261  0.8884  1.0405 -0.6388
 9402SOL     OW39841   2.889   2.487   2.901  0.1277  0.1547  0.4121
 9402SOL    HW139842   2.836   2.523   2.830  1.1325  1.1486  0.1520
 9402SOL    HW239843   2.853   2.399   2.908 -3.0959  1.3763 -0.9136
 9403SOL     OW39844   0.868   4.173   5.949  0.2455 -0.2243 -0.8764
 9403SOL    HW139845   0.921   4.121   6.009 -0.6255  1.7373  1.6023
 9403SOL    HW239846   0.916   4.191   5.868  2.3045 -1.2098  0.1312
 9404SOL     OW39847   0.845   3.926   2.095 -1.0620  0.2000 -0.4022
 9404SOL    HW139848   0.762   3.956   2.131 -1.8831 -1.5951 -0.7918
 9404SOL    HW239849   0.905   3.996   2.121 -1.6517  0.3438  0.5875
 9405SOL     OW39850   4.526   1.154   2.656 -0.4674  0.2686  0.4299
 9405SOL    HW139851   4.522   1.240   2.699  0.1233 -0.0436  1.1187
 9405SOL    HW239852   4.461   1.155   2.586  0.4010  1.5377 -0.3633
 9406SOL     OW39853   1.674   2.901  10.153  0.3562  0.0493 -0.0809
 9406SOL    HW139854   1.763   2.925  10.180  0.4535  0.7238 -0.9864
 9406SOL    HW239855   1.649   2.846  10.227  0.3180 -1.5395 -1.2739
 9407SOL     OW39856   1.298   2.374   7.667  0.7785 -0.2301 -0.0156
 9407SOL    HW139857   1.389   2.362   7.640  0.1732  1.3192 -2.7199
 9407SOL    HW239858   1.246   2.334   7.597 -0.3481  1.1991 -0.0039
 9408SOL     OW39859   0.685   1.635   8.836  0.8218  0.1830  0.5041
 9408SOL    HW139860   0.625   1.671   8.902 -0.0984 -0.8949  0.2322
 9408SOL    HW239861   0.731   1.576   8.896  1.0843 -0.7910 -0.6735
 9409SOL     OW39862   3.714   0.209   6.453  0.3443  0.4996 -0.2235
 9409SOL    HW139863   3.725   0.287   6.399  0.3977 -0.4420 -1.5653
 9409SOL    HW239864   3.678   0.149   6.388  0.0081 -1.6729  1.9484
 9410SOL     OW39865   2.671   1.265  14.787 -0.2606  0.3807 -0.5242
 9410SOL    HW139866   2.718   1.342  14.757  1.4928 -0.5354 -0.1646
 9410SOL    HW239867   2.664   1.284  14.881  0.3909 -0.6177 -0.2697
 9411SOL     OW39868   0.307   2.829   6.540 -0.0343 -0.1411 -0.2536
 9411SOL    HW139869   0.226   2.838   6.490  0.9563  3.7980 -1.1574
 9411SOL    HW239870   0.307   2.736   6.562 -0.5174 -0.0527  0.1217
 9412SOL     OW39871   0.110   2.797  17.713 -0.6566 -0.3864  0.1611
 9412SOL    HW139872   0.116   2.768  17.622 -0.4012  0.6803 -0.1613
 9412SOL    HW239873   0.180   2.862  17.705 -1.4306  0.5141  0.7109
 9413SOL     OW39874   3.868   0.208   7.565  0.0488 -0.7430 -0.1625
 9413SOL    HW139875   3.886   0.283   7.622 -0.3524 -1.6107  1.1257
 9413SOL    HW239876   3.874   0.126   7.614  1.5464 -1.1174 -0.9528
 9414SOL     OW39877   4.115   3.156  16.333 -0.3721  0.4234  0.2219
 9414SOL    HW139878   4.207   3.139  16.309 -1.2684 -0.4665 -2.5517
 9414SOL    HW239879   4.065   3.134  16.255 -3.5440  2.5438  1.6823
 9415SOL     OW39880   3.009   0.192   3.665 -0.5911 -0.3702  0.3979
 9415SOL    HW139881   2.949   0.260   3.698 -1.4174 -1.3914  0.9991
 9415SOL    HW239882   2.985   0.195   3.572  1.1889  0.2408 -0.0313
 9416SOL     OW39883   1.035   4.011   0.682  0.3639 -1.3483  0.2921
 9416SOL    HW139884   1.093   3.949   0.638  1.4733 -0.0305 -0.0719
 9416SOL    HW239885   1.039   4.081   0.617  0.9531 -1.0878  0.6128
 9417SOL     OW39886   0.144   4.569  14.979  0.8161 -0.0894  0.0418
 9417SOL    HW139887   0.200   4.595  14.906 -0.4857  0.3902 -0.7788
 9417SOL    HW239888   0.126   4.478  14.954  0.3029 -0.5912  2.1948
 9418SOL     OW39889   0.263   2.155   9.359  0.1919  0.0625  0.0195
 9418SOL    HW139890   0.242   2.169   9.452  5.9865 -0.0389  1.3249
 9418SOL    HW239891   0.234   2.233   9.310 -1.4060  0.9709  2.3786
 9419SOL     OW39892   4.337   0.814  12.170 -0.2644  0.1066  0.7621
 9419SOL    HW139893   4.387   0.888  12.205 -1.3918  1.4627 -0.4608
 9419SOL    HW239894   4.288   0.862  12.103  0.3641  1.9511  1.6254
 9420SOL     OW39895   0.418   0.235   5.994 -0.1558 -0.4032 -0.1317
 9420SOL    HW139896   0.441   0.314   5.946  1.2560 -1.6084 -1.4286
 9420SOL    HW239897   0.325   0.227   5.973 -0.3002  0.5989  0.1253
 9421SOL     OW39898   1.106   2.794   8.357  0.0492 -0.0266 -0.2751
 9421SOL    HW139899   1.015   2.822   8.343 -0.3423 -0.0220  2.2574
 9421SOL    HW239900   1.127   2.781   8.265  0.3473  0.5332 -0.2863
 9422SOL     OW39901   0.523   4.365   8.133  0.3380  0.1025 -0.4077
 9422SOL    HW139902   0.549   4.439   8.189  1.6023 -0.9163  0.3377
 9422SOL    HW239903   0.533   4.410   8.049  2.0403  2.5121  1.0893
 9423SOL     OW39904   0.389   1.791   6.976  0.1013 -0.2020  0.2075
 9423SOL    HW139905   0.408   1.700   6.994  0.0286  0.1439  2.0086
 9423SOL    HW239906   0.479   1.821   6.966  0.1309 -0.1902  0.5108
 9424SOL     OW39907   2.552   1.799   2.925 -0.3432 -0.5375 -0.0002
 9424SOL    HW139908   2.610   1.728   2.949 -0.1456  0.0248  1.1882
 9424SOL    HW239909   2.468   1.756   2.942 -1.0017  0.2015 -1.2993
 9425SOL     OW39910   3.000   4.476   4.032 -0.0189  0.5174  0.2858
 9425SOL    HW139911   2.934   4.468   3.963  0.8034  1.8691 -0.6699
 9425SOL    HW239912   3.053   4.397   4.025 -0.9295 -0.2370  1.8707
 9426SOL     OW39913   3.752   2.926   2.329 -0.7554  0.0580  0.5834
 9426SOL    HW139914   3.668   2.881   2.332  0.5950 -2.6889 -3.0661
 9426SOL    HW239915   3.777   2.946   2.239 -2.4513 -0.5242 -0.0117
 9427SOL     OW39916   1.843   4.144   5.813  0.0169 -0.1465 -0.2811
 9427SOL    HW139917   1.792   4.157   5.734 -1.7599  3.2302  1.4258
 9427SOL    HW239918   1.802   4.062   5.842 -0.9911  0.5974  0.3869
 9428SOL     OW39919   3.193   1.665  15.366 -0.2268  0.6603  0.1859
 9428SOL    HW139920   3.107   1.622  15.359  0.2086 -0.2805  0.5452
 9428SOL    HW239921   3.178   1.734  15.430  0.6337  1.2309 -0.2354
 9429SOL     OW39922   4.002   1.726  12.621  0.0536  0.0321  0.1255
 9429SOL    HW139923   4.036   1.735  12.710  0.7131  1.5661 -0.2720
 9429SOL    HW239924   3.948   1.805  12.618  1.6554  1.1572  1.3212
 9430SOL     OW39925   3.660   3.725   0.089 -0.6693  0.6451 -0.7015
 9430SOL    HW139926   3.755   3.732   0.076 -0.5900 -1.4604 -1.2519
 9430SOL    HW239927   3.649   3.660   0.019  1.5135  1.9696 -2.2636
 9431SOL     OW39928   1.586   4.458  14.074  0.0805 -1.0025  0.2122
 9431SOL    HW139929   1.628   4.541  14.095  2.4292 -2.6724  2.1742
 9431SOL    HW239930   1.656   4.404  14.110  1.2368 -1.3799 -2.5758
 9432SOL     OW39931   3.186   0.235   5.083  0.3664  0.2553  0.2908
 9432SOL    HW139932   3.166   0.328   5.074  1.4584  0.4878  0.3538
 9432SOL    HW239933   3.162   0.227   5.175 -0.8545  0.1876 -0.0250
 9433SOL     OW39934   3.810   2.689   5.796 -0.1373  0.5591 -0.0673
 9433SOL    HW139935   3.718   2.713   5.792 -0.1710  0.7604  1.6844
 9433SOL    HW239936   3.825   2.702   5.890 -0.5412 -2.0767  0.3403
 9434SOL     OW39937   2.621   3.677   3.259 -0.4801  0.9450 -0.0244
 9434SOL    HW139938   2.667   3.596   3.282  2.1473  1.8113 -2.2633
 9434SOL    HW239939   2.693   3.730   3.225 -0.3352  0.1246 -1.0028
 9435SOL     OW39940   1.709   4.705  14.015 -0.7551  0.3262  0.1437
 9435SOL    HW139941   1.633   0.023  14.023  0.2241  1.8620 -1.9188
 9435SOL    HW239942   1.754   4.730  14.096  2.7102 -0.8737 -1.4310
 9436SOL     OW39943   4.483   1.106  11.708 -0.2545 -0.1289  0.1426
 9436SOL    HW139944   4.414   1.170  11.724 -0.1879  0.0609 -0.3121
 9436SOL    HW239945   4.553   1.171  11.695 -0.1174 -0.0365  1.3324
 9437SOL     OW39946   2.893   0.208  10.531  0.4655  0.4348 -0.2997
 9437SOL    HW139947   2.986   0.230  10.532  0.5532  0.0204  0.6253
 9437SOL    HW239948   2.900   0.114  10.545 -0.9354  0.3456 -0.1488
 9438SOL     OW39949   3.240   0.975  16.437  0.2949 -0.3246  0.4161
 9438SOL    HW139950   3.293   0.917  16.382  0.9483  0.3100  0.3766
 9438SOL    HW239951   3.182   0.911  16.478  0.6855 -0.1011  1.3233
 9439SOL     OW39952   2.538   3.122   2.611  0.5528  0.6311  0.6773
 9439SOL    HW139953   2.594   3.070   2.669 -0.3858  0.7223  1.6563
 9439SOL    HW239954   2.458   3.138   2.661 -0.6569  1.0122 -1.3962
 9440SOL     OW39955   0.550   2.357   8.710  0.1862  0.5062  0.2528
 9440SOL    HW139956   0.624   2.417   8.701  1.9471 -1.1202  4.0741
 9440SOL    HW239957   0.543   2.324   8.620  0.2077 -0.5453  0.6478
 9441SOL     OW39958   2.621   2.506   5.855 -0.4902  0.5341  0.0475
 9441SOL    HW139959   2.676   2.554   5.917 -0.3246 -0.8611  0.9823
 9441SOL    HW239960   2.624   2.553   5.772  1.1304  0.6105  0.1449
 9442SOL     OW39961   1.315   2.026   9.379  0.3577  0.2139  0.3558
 9442SOL    HW139962   1.229   1.987   9.362  1.0470 -0.3520 -1.8342
 9442SOL    HW239963   1.289   2.118   9.379  1.6304  0.5761  0.8804
 9443SOL     OW39964   4.143   0.426   8.663 -0.0647 -0.2400  0.5523
 9443SOL    HW139965   4.133   0.495   8.728 -1.7232 -0.3474  0.4062
 9443SOL    HW239966   4.139   0.477   8.582 -0.3278  0.1662  0.8253
 9444SOL     OW39967   3.110   1.293   5.762  0.2488  0.1614 -0.1940
 9444SOL    HW139968   3.185   1.302   5.703  1.7980  1.1438  1.9387
 9444SOL    HW239969   3.102   1.382   5.796  2.1998  1.4588 -3.1325
 9445SOL     OW39970   3.436   0.683  10.406  0.1959  0.3218 -0.0681
 9445SOL    HW139971   3.431   0.637  10.323  2.1581 -1.0989  0.6009
 9445SOL    HW239972   3.529   0.683  10.429  0.3345 -1.7053 -0.6752
 9446SOL     OW39973   4.559   1.232   6.349 -0.1515  0.6936  0.0721
 9446SOL    HW139974   4.497   1.297   6.317 -0.2713  0.7151  0.3511
 9446SOL    HW239975   4.587   1.194   6.265  0.8633  1.1406  0.2134
 9447SOL     OW39976   3.527   2.052   1.371 -0.0452 -0.1503  0.1265
 9447SOL    HW139977   3.544   2.049   1.465  1.1789  0.4409 -0.0719
 9447SOL    HW239978   3.513   1.960   1.347  0.2596 -0.7737  2.3113
 9448SOL     OW39979   0.625   3.792   1.701 -0.7791  0.0158 -0.5158
 9448SOL    HW139980   0.714   3.756   1.710  0.4491  2.9152 -0.9869
 9448SOL    HW239981   0.622   3.856   1.772  2.3690  0.9358 -1.1925
 9449SOL     OW39982   1.757   1.796  15.266  0.0972  0.0296 -0.4951
 9449SOL    HW139983   1.751   1.890  15.249 -1.8783 -0.3020 -1.6890
 9449SOL    HW239984   1.810   1.766  15.192 -2.6068 -1.4841 -1.8054
 9450SOL     OW39985   0.055   3.898   7.282  0.1665  0.0955  0.2022
 9450SOL    HW139986   0.023   3.889   7.192 -0.5318 -0.8377  0.5508
 9450SOL    HW239987   0.112   3.821   7.282  1.5488  1.1156 -1.7176
 9451SOL     OW39988   2.662   2.157   9.285 -0.3610  0.6470  0.4291
 9451SOL    HW139989   2.629   2.069   9.269 -0.3824  1.0649 -1.8313
 9451SOL    HW239990   2.754   2.133   9.282 -0.0823  1.6550  1.0223
 9452SOL     OW39991   3.331   4.469   1.431  0.1097  0.2290  0.2303
 9452SOL    HW139992   3.346   4.376   1.449 -3.9824 -0.8477 -2.0191
 9452SOL    HW239993   3.351   4.483   1.338 -0.4271 -0.4822  0.0052
 9453SOL     OW39994   2.454   1.210   3.686  0.1643  0.5472 -0.3814
 9453SOL    HW139995   2.459   1.304   3.669  1.2826  0.8299  1.5208
 9453SOL    HW239996   2.405   1.221   3.768  0.3272 -0.6247 -0.1227
 9454SOL     OW39997   1.947   0.923   6.110  0.2053 -0.2178  0.2535
 9454SOL    HW139998   2.022   0.904   6.166  0.4563 -0.5237 -0.1873
 9454SOL    HW239999   1.922   0.835   6.083  0.5568 -0.4476  0.6651
 9455SOL     OW40000   3.793   1.384   6.937  0.1549  0.1848  0.4988
 9455SOL    HW140001   3.789   1.404   7.030  0.7833 -0.9594  0.7795
 9455SOL    HW240002   3.879   1.343   6.926 -0.5590 -1.3938  0.7747
 9456SOL     OW40003   1.606   1.910  17.700  0.3964 -0.6852 -0.6550
 9456SOL    HW140004   1.685   1.910  17.646 -0.3659 -1.0408 -1.7863
 9456SOL    HW240005   1.540   1.923  17.631  0.0082 -1.1236 -0.3672
 9457SOL     OW40006   2.065   4.561   9.241  0.2202 -0.5001  0.4952
 9457SOL    HW140007   2.035   4.472   9.218  0.1364  0.0971 -1.7805
 9457SOL    HW240008   2.104   4.536   9.324 -0.3555 -0.6730  0.7176
 9458SOL     OW40009   1.039   4.432   0.825 -0.3786 -0.0322 -0.5498
 9458SOL    HW140010   1.043   4.336   0.831 -0.2272  0.0130  0.0122
 9458SOL    HW240011   1.001   4.449   0.911 -0.2974 -0.7375 -0.3714
 9459SOL     OW40012   3.829   2.044   7.356 -0.1246 -0.2937  0.1616
 9459SOL    HW140013   3.891   2.074   7.424 -0.9626  0.5939  0.5232
 9459SOL    HW240014   3.807   1.959   7.393  0.2191  0.1176  1.3259
 9460SOL     OW40015   1.652   2.396   8.841  0.2179 -0.3874  0.1053
 9460SOL    HW140016   1.638   2.490   8.833  0.4768 -0.4713 -1.2597
 9460SOL    HW240017   1.573   2.368   8.797 -0.2825 -2.3989  2.2722
 9461SOL     OW40018   0.665   4.346   4.747 -0.1034 -0.1938  0.3755
 9461SOL    HW140019   0.588   4.358   4.691  1.6177 -0.0566 -1.9804
 9461SOL    HW240020   0.727   4.362   4.676  0.1512 -0.2467  0.5852
 9462SOL     OW40021   1.027   4.652   4.462 -0.4833 -0.5769 -0.2482
 9462SOL    HW140022   1.108   4.687   4.426  1.1570 -3.4733  0.6059
 9462SOL    HW240023   1.050   4.617   4.548 -0.8082  0.1798  0.1464
 9463SOL     OW40024   1.276   2.069  10.968 -0.7087 -0.1691  0.2250
 9463SOL    HW140025   1.228   2.090  10.888 -1.0095 -0.9260  0.2055
 9463SOL    HW240026   1.220   2.109  11.033 -0.7462 -1.5900  1.0618
 9464SOL     OW40027   3.232   4.291   5.005  0.0731 -0.1080  0.4596
 9464SOL    HW140028   3.224   4.302   4.910 -4.0311 -0.3136  0.7695
 9464SOL    HW240029   3.327   4.283   5.009  0.2811  2.0926  0.0857
 9465SOL     OW40030   1.741   4.373   9.093 -0.3013  0.0320  0.4308
 9465SOL    HW140031   1.702   4.288   9.074 -0.0022 -0.2450  1.0374
 9465SOL    HW240032   1.830   4.351   9.120  0.0581  1.8765  0.7518
 9466SOL     OW40033   4.695   0.820  13.034  0.3755  0.3046  0.3459
 9466SOL    HW140034   0.025   0.880  13.064  0.5772 -0.1188  0.7153
 9466SOL    HW240035   4.659   0.874  12.963  1.2255  0.8167  0.3037
 9467SOL     OW40036   3.711   0.694   3.964 -0.5472  0.2345 -0.3728
 9467SOL    HW140037   3.767   0.707   4.040 -0.0878 -1.7194 -0.3768
 9467SOL    HW240038   3.628   0.734   3.991 -0.9609 -2.2331  2.1063
 9468SOL     OW40039   0.497   4.318   5.053 -0.0788 -0.4148 -0.0674
 9468SOL    HW140040   0.552   4.387   5.016  0.5361 -1.3313 -0.8629
 9468SOL    HW240041   0.412   4.338   5.015  0.8599 -0.6069 -2.2954
 9469SOL     OW40042   0.106   3.915  17.152  0.1688  0.1818  0.0603
 9469SOL    HW140043   0.193   3.954  17.159  0.7585 -0.4992 -3.7524
 9469SOL    HW240044   0.057   3.989  17.116 -2.1882 -1.7176 -0.6015
 9470SOL     OW40045   3.457   4.473   0.439  0.3188  0.2564 -0.4860
 9470SOL    HW140046   3.523   4.506   0.378 -0.3179  0.3436 -1.1327
 9470SOL    HW240047   3.462   4.377   0.434  1.9432  0.2426  1.3833
 9471SOL     OW40048   3.369   4.356   1.860  0.1323 -0.0674  0.3334
 9471SOL    HW140049   3.354   4.312   1.776 -3.8742 -0.4647  1.2691
 9471SOL    HW240050   3.431   4.424   1.832 -1.1597  0.4873 -1.2046
 9472SOL     OW40051   2.627   0.715   4.018  0.6057  0.2153 -0.6656
 9472SOL    HW140052   2.611   0.634   4.066  0.3127  1.3075  1.0713
 9472SOL    HW240053   2.705   0.754   4.059 -1.2301 -0.3059  3.2718
 9473SOL     OW40054   3.787   1.243   1.673 -0.0050 -0.2649 -0.1683
 9473SOL    HW140055   3.853   1.303   1.705 -0.0315  0.1075 -0.8127
 9473SOL    HW240056   3.723   1.245   1.744 -1.4910 -0.8246 -1.4870
 9474SOL     OW40057   3.934   0.177  17.414 -0.1475 -0.8229 -0.2449
 9474SOL    HW140058   3.962   0.108  17.354  1.6367 -0.4147  0.1214
 9474SOL    HW240059   3.992   0.249  17.389 -3.0060  1.2185 -0.9533
 9475SOL     OW40060   0.594   1.351   7.268  0.0102  0.3032  0.3270
 9475SOL    HW140061   0.592   1.341   7.363 -1.3055 -2.6722 -0.0034
 9475SOL    HW240062   0.685   1.374   7.254 -0.1835 -0.2034 -1.8312
 9476SOL     OW40063   4.112   1.360  11.228 -1.1453 -0.2441  0.5885
 9476SOL    HW140064   4.057   1.381  11.152  0.6699  0.7595 -0.4315
 9476SOL    HW240065   4.073   1.403  11.304  0.2151 -0.1143  1.1932
 9477SOL     OW40066   1.204   2.647  16.042 -0.2997  0.4467  0.6068
 9477SOL    HW140067   1.235   2.565  16.005  1.0964  1.1337  0.2517
 9477SOL    HW240068   1.233   2.652  16.133 -0.0292 -1.2128  0.5959
 9478SOL     OW40069   1.224   1.631   0.225  0.5128 -0.0252  0.0319
 9478SOL    HW140070   1.303   1.627   0.171 -0.3949  2.8410 -1.5550
 9478SOL    HW240071   1.206   1.538   0.221  2.0394 -0.3048 -0.2615
 9479SOL     OW40072   0.194   2.198   2.849 -0.0713 -0.5716 -0.1173
 9479SOL    HW140073   0.131   2.267   2.871  3.2913  1.6280  2.6472
 9479SOL    HW240074   0.162   2.159   2.768  2.6630 -1.7306 -0.6488
 9480SOL     OW40075   2.569   0.760   6.508  0.4855  0.2484 -0.0451
 9480SOL    HW140076   2.606   0.809   6.434 -0.2755 -1.3593 -1.4821
 9480SOL    HW240077   2.573   0.677   6.461  0.1996  0.9801 -1.3681
 9481SOL     OW40078   0.690   2.196   7.250 -0.1686 -0.1541 -0.2453
 9481SOL    HW140079   0.692   2.122   7.189  3.5485 -0.3343  0.0441
 9481SOL    HW240080   0.623   2.161   7.309  0.1517  1.3416  0.9983
 9482SOL     OW40081   1.892   0.431   2.137 -1.1708  0.6172  0.0113
 9482SOL    HW140082   1.842   0.413   2.217  2.3594 -0.1889  2.0708
 9482SOL    HW240083   1.827   0.488   2.096  1.3151  0.3887 -4.2049
 9483SOL     OW40084   0.082   3.330   6.593  0.0704 -0.4493  0.4148
 9483SOL    HW140085   0.113   3.337   6.503  1.2965  1.1481  0.9700
 9483SOL    HW240086   0.017   3.400   6.597  0.5135  0.1305 -2.4429
 9484SOL     OW40087   0.893   3.044  10.671  0.4218  0.1091  0.7903
 9484SOL    HW140088   0.933   3.038  10.584  2.3511  1.7214  1.5774
 9484SOL    HW240089   0.806   3.081  10.652  0.3713 -0.3289  0.1663
 9485SOL     OW40090   0.927   0.023   1.442 -0.1162 -0.6679  0.1379
 9485SOL    HW140091   0.838   4.734   1.423 -0.8791  0.1913  2.3592
 9485SOL    HW240092   0.964   4.694   1.387  0.0300 -0.3217 -0.1880
 9486SOL     OW40093   3.663   1.316  11.796  0.2090 -0.0788  0.4024
 9486SOL    HW140094   3.622   1.402  11.792 -3.3443 -1.7455 -0.0971
 9486SOL    HW240095   3.746   1.357  11.819 -0.0546  0.9686 -0.4974
 9487SOL     OW40096   2.928   0.656   0.713 -0.1837 -0.2806 -0.3307
 9487SOL    HW140097   2.962   0.728   0.661  1.2437  0.3779  1.5327
 9487SOL    HW240098   3.006   0.647   0.766 -0.8364 -0.3451  0.6210
 9488SOL     OW40099   2.414   2.549   1.310  0.1256 -0.5764  0.3792
 9488SOL    HW140100   2.509   2.548   1.310  0.1262 -0.4762  2.0105
 9488SOL    HW240101   2.408   2.639   1.342 -2.4192 -1.0315  1.1884
 9489SOL     OW40102   0.635   4.718   2.260  0.3351  0.1293  0.0048
 9489SOL    HW140103   0.670   4.707   2.348 -1.7875 -0.8994  0.6942
 9489SOL    HW240104   0.541   4.712   2.274  0.2337  1.1613 -0.2400
 9490SOL     OW40105   1.172   3.278  11.327  0.4851 -0.0041  0.2377
 9490SOL    HW140106   1.080   3.284  11.352  0.5085 -1.4476  0.6590
 9490SOL    HW240107   1.190   3.186  11.348  2.0720  0.3048  0.2490
 9491SOL     OW40108   0.044   0.452  12.235 -0.1493 -0.1842  0.1579
 9491SOL    HW140109   4.707   0.507  12.256  0.5792 -0.6991  4.1183
 9491SOL    HW240110   0.099   0.506  12.179 -0.0070  0.4657  0.9328
 9492SOL     OW40111   3.666   2.805  15.849 -0.0324 -0.2223  0.5012
 9492SOL    HW140112   3.706   2.807  15.936 -1.7108 -3.1914  1.3653
 9492SOL    HW240113   3.746   2.783  15.802 -0.0641  1.5124 -0.3412
 9493SOL     OW40114   3.980   2.133   9.272 -0.2211  0.2343 -0.1696
 9493SOL    HW140115   3.977   2.228   9.283 -0.0861  0.4052 -1.5852
 9493SOL    HW240116   3.967   2.100   9.361  0.4198  0.9631  0.1944
 9494SOL     OW40117   4.350   1.271   5.593  0.1894 -0.1504  0.0834
 9494SOL    HW140118   4.256   1.260   5.578  0.2025 -1.3554  0.8860
 9494SOL    HW240119   4.343   1.361   5.623 -0.6650 -0.4916  0.8825
 9495SOL     OW40120   3.416   4.403   8.711 -0.1974  0.1649 -0.2003
 9495SOL    HW140121   3.381   4.323   8.673  3.3143 -1.2208 -0.5191
 9495SOL    HW240122   3.338   4.440   8.751 -0.8810  0.4052 -1.7731
 9496SOL     OW40123   3.998   2.636   5.199 -0.1320  0.0528 -0.1649
 9496SOL    HW140124   3.940   2.712   5.204 -1.0791 -0.7753  1.3492
 9496SOL    HW240125   4.082   2.681   5.214 -0.1061  0.4567 -1.4895
 9497SOL     OW40126   4.114   1.516  16.864 -0.1400  0.1647 -0.3702
 9497SOL    HW140127   4.039   1.485  16.813 -0.3547  0.5826 -0.3007
 9497SOL    HW240128   4.182   1.453  16.841  0.2091 -0.1890  1.6023
 9498SOL     OW40129   1.313   2.517   8.522 -0.1013 -0.3223  0.2511
 9498SOL    HW140130   1.332   2.600   8.478 -0.0909 -1.1952 -1.3829
 9498SOL    HW240131   1.227   2.536   8.560  0.5882 -1.6957  2.5147
 9499SOL     OW40132   0.259   2.108   2.355 -0.0772 -0.1690 -0.3241
 9499SOL    HW140133   0.276   2.118   2.449 -1.2446 -1.1432 -0.0104
 9499SOL    HW240134   0.183   2.166   2.342  0.2233  0.7621  2.0183
 9500SOL     OW40135   1.187   3.998   8.876 -0.6353  0.7046  0.3345
 9500SOL    HW140136   1.278   3.969   8.887 -0.7594  0.5143  0.9127
 9500SOL    HW240137   1.188   4.087   8.842 -1.9927  0.3961 -0.4788
 9501SOL     OW40138   4.147   4.004  11.980 -0.6196 -0.0642 -0.3092
 9501SOL    HW140139   4.136   3.942  12.052  1.5397  0.8852  0.8366
 9501SOL    HW240140   4.058   4.022  11.950 -1.6172 -2.9611  0.9684
 9502SOL     OW40141   2.633   2.999   4.501  0.1739 -0.6548 -0.0739
 9502SOL    HW140142   2.647   2.979   4.593 -1.6166  0.6235  0.4793
 9502SOL    HW240143   2.540   2.979   4.492 -0.4425  1.6452  1.3952
 9503SOL     OW40144   0.018   3.235  10.961  0.3703 -0.2320 -0.0156
 9503SOL    HW140145   0.034   3.275  10.875 -0.3794 -0.1928 -0.1403
 9503SOL    HW240146   4.663   3.220  10.950  0.5343 -0.8624 -0.5279
 9504SOL     OW40147   2.307   3.203  15.757  0.0644  0.0856 -0.4291
 9504SOL    HW140148   2.227   3.223  15.806 -0.3637 -0.7364 -0.7972
 9504SOL    HW240149   2.292   3.115  15.725  0.0765 -0.8343  2.0592
 9505SOL     OW40150   4.104   1.968   1.085  0.3057 -0.0030  0.5139
 9505SOL    HW140151   4.026   1.913   1.078 -0.2259  0.8048  0.1347
 9505SOL    HW240152   4.169   1.905   1.056 -0.3317  0.1747 -1.2942
 9506SOL     OW40153   2.849   0.411   1.737  0.5100  0.4427 -0.1045
 9506SOL    HW140154   2.935   0.371   1.750  0.1171  0.0483  1.2762
 9506SOL    HW240155   2.861   0.506   1.746 -2.3107  0.5664  2.2274
 9507SOL     OW40156   2.423   3.450   9.246 -0.7405 -0.7041 -0.3544
 9507SOL    HW140157   2.482   3.428   9.174 -2.3122 -1.8104 -1.3045
 9507SOL    HW240158   2.334   3.421   9.227 -0.5320 -0.9823 -0.8964
 9508SOL     OW40159   0.722   1.352   2.900  0.2154  0.3463 -0.6207
 9508SOL    HW140160   0.770   1.421   2.946  1.3495  0.8521 -2.5356
 9508SOL    HW240161   0.674   1.297   2.962  1.4990 -0.7959 -0.6334
 9509SOL     OW40162   1.581   1.430   3.880  0.3459 -0.2024  0.0013
 9509SOL    HW140163   1.658   1.373   3.870  0.4239  0.2689 -2.1014
 9509SOL    HW240164   1.592   1.502   3.818  1.6237  0.3989  0.9125
 9510SOL     OW40165   3.997   2.472  17.229  0.1950  0.1946 -0.5413
 9510SOL    HW140166   3.977   2.562  17.202 -1.0463  0.0183 -0.2263
 9510SOL    HW240167   4.091   2.481  17.240  0.5472 -2.7937 -1.0452
 9511SOL     OW40168   3.931   0.820  10.181  0.4075  0.3062  0.7252
 9511SOL    HW140169   3.949   0.741  10.231  2.2577  0.0658 -0.3352
 9511SOL    HW240170   4.006   0.875  10.202  1.5964 -1.2824  0.6300
 9512SOL     OW40171   3.634   3.551   4.142  0.4688  0.4459  0.3020
 9512SOL    HW140172   3.690   3.478   4.170 -0.2928 -0.2644  0.0038
 9512SOL    HW240173   3.690   3.628   4.138  1.6664 -0.4582 -0.1349
 9513SOL     OW40174   3.805   2.437   6.246 -0.5926 -0.2765 -0.0498
 9513SOL    HW140175   3.791   2.363   6.306  0.7908  0.0878  0.7268
 9513SOL    HW240176   3.798   2.388   6.165  0.0530 -3.1194  1.6210
 9514SOL     OW40177   1.757   3.101  15.151  0.4084 -0.0413 -0.1610
 9514SOL    HW140178   1.719   3.089  15.064  1.2411 -0.2582 -0.4867
 9514SOL    HW240179   1.742   3.192  15.177  2.6761  0.4225 -0.4561
 9515SOL     OW40180   4.079   1.655   5.433  0.0100  0.0409  0.0662
 9515SOL    HW140181   4.128   1.662   5.515 -0.6636  1.6682  0.3312
 9515SOL    HW240182   4.109   1.729   5.379  0.3550 -1.1792 -1.4204
 9516SOL     OW40183   0.400   2.411   9.529  0.2278  0.0588  0.2093
 9516SOL    HW140184   0.335   2.427   9.460 -0.8564  1.1256  1.4822
 9516SOL    HW240185   0.355   2.380   9.608 -1.3321  0.3476 -0.5556
 9517SOL     OW40186   4.541   3.999   3.934  0.1802  0.3136  0.8680
 9517SOL    HW140187   4.461   3.979   3.983 -0.2944  1.0552  0.4067
 9517SOL    HW240188   4.510   3.970   3.849  0.5884  3.6687 -0.4414
 9518SOL     OW40189   0.798   4.175   5.371  0.4400  0.3240  0.7105
 9518SOL    HW140190   0.865   4.188   5.304 -1.6889  0.1667 -1.4369
 9518SOL    HW240191   0.822   4.245   5.432  1.6001 -0.7672  1.5161
 9519SOL     OW40192   3.379   2.789   1.653  0.7742  0.0959 -0.6007
 9519SOL    HW140193   3.306   2.839   1.690  1.5113  0.9092 -0.2641
 9519SOL    HW240194   3.447   2.822   1.711 -0.8453  0.9328  0.8291
 9520SOL     OW40195   3.366   1.451   1.969 -1.5643 -0.0778  0.4743
 9520SOL    HW140196   3.305   1.524   1.967 -1.4483  0.0153  0.3569
 9520SOL    HW240197   3.373   1.433   2.063 -1.1612 -1.0448  0.2695
 9521SOL     OW40198   3.012   1.000  16.152  0.3591  0.6271 -0.2790
 9521SOL    HW140199   2.988   0.947  16.077 -0.0040  0.1185  0.1988
 9521SOL    HW240200   3.064   0.933  16.197 -1.5096  0.0910  1.1123
 9522SOL     OW40201   3.077   2.015  12.688  0.3990 -0.2525 -0.1178
 9522SOL    HW140202   3.122   1.968  12.618  2.3782  0.3441  0.7680
 9522SOL    HW240203   3.132   2.089  12.713 -0.7198  0.0758  1.3761
 9523SOL     OW40204   1.705   2.044   4.031  0.2832  0.2113  0.6580
 9523SOL    HW140205   1.625   2.026   3.981  1.6250  0.8296 -1.7490
 9523SOL    HW240206   1.693   1.981   4.102 -1.0235  0.9260  1.0673
 9524SOL     OW40207   0.827   1.009   9.725  0.1520 -0.2552 -0.0254
 9524SOL    HW140208   0.855   0.987   9.636 -1.9939  0.2495 -0.8338
 9524SOL    HW240209   0.862   1.099   9.726  1.6674 -0.8379 -0.6636
 9525SOL     OW40210   2.165   2.540  12.252  0.0293 -0.7318  0.0450
 9525SOL    HW140211   2.235   2.579  12.303 -1.1325  2.5076 -0.8298
 9525SOL    HW240212   2.192   2.449  12.264 -2.3103 -1.1976  1.7037
 9526SOL     OW40213   4.701   0.281   7.358 -0.3692 -0.3007 -0.2920
 9526SOL    HW140214   0.020   0.233   7.418  1.2810  1.9730 -0.0879
 9526SOL    HW240215   4.618   0.234   7.366 -0.2081 -0.7316 -1.1210
 9527SOL     OW40216   1.783   2.275   6.175  0.2844 -0.3629 -0.5149
 9527SOL    HW140217   1.748   2.259   6.262  0.1028  0.1064 -0.5019
 9527SOL    HW240218   1.738   2.209   6.122 -0.7981  0.3905 -0.5290
 9528SOL     OW40219   4.144   3.969   1.182 -1.0981  0.1038 -0.2276
 9528SOL    HW140220   4.173   3.935   1.267  0.3695  0.4016 -0.6043
 9528SOL    HW240221   4.115   4.052   1.221 -0.1916 -0.3635  1.4618
 9529SOL     OW40222   4.696   0.524  13.501  0.1105 -0.1959  0.7549
 9529SOL    HW140223   0.001   0.602  13.471 -0.7899 -0.4204 -1.1693
 9529SOL    HW240224   4.607   0.559  13.509  0.7136  1.8942 -1.7441
 9530SOL     OW40225   1.875   2.779   6.793  0.2448 -0.4586  0.4897
 9530SOL    HW140226   1.909   2.728   6.720  1.3262 -1.2163  1.5286
 9530SOL    HW240227   1.809   2.718   6.826  0.4265 -0.0432  1.6336
 9531SOL     OW40228   4.493   1.016  10.743 -0.1015 -0.3922  0.0480
 9531SOL    HW140229   4.400   1.032  10.727 -0.3557 -1.4569  0.4499
 9531SOL    HW240230   4.502   0.925  10.715  2.4287 -0.0970 -0.0455
 9532SOL     OW40231   3.016   0.424   6.348 -0.1988  0.7958  0.5265
 9532SOL    HW140232   3.074   0.356   6.313 -2.3596  0.2882 -2.0116
 9532SOL    HW240233   3.015   0.394   6.439  1.0937 -1.9653 -0.3674
 9533SOL     OW40234   2.753   3.068   8.153 -0.2052  0.5303 -0.0570
 9533SOL    HW140235   2.806   2.994   8.180  0.5168  0.7894 -0.7981
 9533SOL    HW240236   2.827   3.126   8.138  0.9418 -0.3234  2.2914
 9534SOL     OW40237   2.335   3.923   5.390  0.3868  0.5223 -0.2367
 9534SOL    HW140238   2.402   3.982   5.356 -0.5001  2.0595  0.7063
 9534SOL    HW240239   2.292   3.892   5.310 -0.4842  0.5585  0.2190
 9535SOL     OW40240   3.867   1.331   1.340  0.1156  0.6693 -0.3437
 9535SOL    HW140241   3.940   1.273   1.363  0.6489  2.0772  1.5453
 9535SOL    HW240242   3.837   1.362   1.426 -1.6626 -1.0525 -0.3288
 9536SOL     OW40243   3.741   3.125   2.746  0.1301 -0.2611  0.8310
 9536SOL    HW140244   3.830   3.115   2.781  0.8542 -0.3452 -0.9941
 9536SOL    HW240245   3.700   3.177   2.815 -2.3347  1.2151 -1.7634
 9537SOL     OW40246   3.842   2.391   6.663  0.2646 -0.4317  0.4095
 9537SOL    HW140247   3.748   2.392   6.646  0.1743 -3.9502  0.7477
 9537SOL    HW240248   3.835   2.395   6.758  1.0789 -0.8875  0.4902
 9538SOL     OW40249   1.023   3.944   5.829 -0.5755  0.0822  0.3912
 9538SOL    HW140250   1.115   3.959   5.806 -0.9306  0.5242 -0.7168
 9538SOL    HW240251   0.975   3.976   5.753 -2.4915  0.5107  1.7773
 9539SOL     OW40252   1.396   3.202  12.735  0.3927 -0.3567  0.0454
 9539SOL    HW140253   1.430   3.188  12.823  0.9435  0.9837  0.0426
 9539SOL    HW240254   1.410   3.297  12.735 -1.0623 -0.1382  1.2498
 9540SOL     OW40255   1.846   1.397  11.332  0.3553  0.5298 -0.7730
 9540SOL    HW140256   1.857   1.442  11.416  1.3053 -1.3630  0.1247
 9540SOL    HW240257   1.752   1.410  11.315  0.1585  1.1786  0.7522
 9541SOL     OW40258   4.658   4.560   3.769 -0.3678  0.1778  0.2796
 9541SOL    HW140259   4.670   4.612   3.848 -1.2039 -2.0008  1.8288
 9541SOL    HW240260   4.647   4.470   3.801 -0.6902  0.2641  0.4084
 9542SOL     OW40261   4.117   1.369   7.867 -0.0939  0.0479  0.2177
 9542SOL    HW140262   4.029   1.386   7.833 -1.3030 -0.6140  2.9980
 9542SOL    HW240263   4.166   1.435   7.819  3.4847 -3.8722 -1.4095
 9543SOL     OW40264   2.211   0.828   8.567 -0.1646  0.3824 -0.0133
 9543SOL    HW140265   2.126   0.796   8.598 -1.2931  2.4342 -0.9639
 9543SOL    HW240266   2.261   0.845   8.646 -0.8298 -2.5666  1.0449
 9544SOL     OW40267   1.524   4.109   6.375 -0.1914 -0.3727  0.0309
 9544SOL    HW140268   1.555   4.101   6.465 -2.3032  1.3345  0.9315
 9544SOL    HW240269   1.517   4.205   6.376  0.6536 -0.3321  1.5656
 9545SOL     OW40270   1.500   3.429   2.467  0.0107  0.4405 -0.2122
 9545SOL    HW140271   1.561   3.478   2.522 -1.8106  0.5835  1.6746
 9545SOL    HW240272   1.455   3.372   2.529  0.0238 -0.9689 -1.5058
 9546SOL     OW40273   4.207   4.062   0.226 -0.6362 -0.2528  0.0073
 9546SOL    HW140274   4.180   4.150   0.200  0.4212  0.0482 -0.0735
 9546SOL    HW240275   4.233   4.037   0.138 -0.0187 -2.5067  0.8293
 9547SOL     OW40276   1.314   2.961   8.458  0.5593 -0.2898  0.3647
 9547SOL    HW140277   1.237   2.917   8.423  0.0171 -1.2531  2.7663
 9547SOL    HW240278   1.304   2.977   8.552 -0.3836  0.4855  0.1340
 9548SOL     OW40279   4.620   1.193   6.099 -0.3318 -0.0402 -0.1116
 9548SOL    HW140280   4.582   1.213   6.013 -1.9484  1.9041  1.0432
 9548SOL    HW240281   4.694   1.250   6.082 -0.9511  1.1231  1.1050
 9549SOL     OW40282   3.404   4.201   0.438 -0.2071 -0.1737 -0.5533
 9549SOL    HW140283   3.348   4.148   0.382 -1.7227 -2.1876  2.8162
 9549SOL    HW240284   3.466   4.131   0.462 -0.7846 -1.2973 -2.3302
 9550SOL     OW40285   2.908   3.095  17.339 -0.0732  0.2804 -0.3466
 9550SOL    HW140286   2.819   3.076  17.370 -0.5101 -1.4978 -2.7434
 9550SOL    HW240287   2.898   3.066  17.249 -2.3720 -1.8045  0.5539
 9551SOL     OW40288   4.297   4.091   4.620 -0.3976 -0.3819 -0.0451
 9551SOL    HW140289   4.202   4.099   4.609 -0.1815  1.0496 -0.8544
 9551SOL    HW240290   4.326   4.175   4.583 -0.9008 -0.1824  0.0086
 9552SOL     OW40291   2.715   3.268  10.943 -0.7879 -0.2328 -0.0542
 9552SOL    HW140292   2.666   3.288  10.864 -0.4611  0.6961 -0.0222
 9552SOL    HW240293   2.641   3.249  11.001 -0.9357 -2.4535 -0.9832
 9553SOL     OW40294   4.479   4.638   1.310  0.4525  0.7016 -0.7755
 9553SOL    HW140295   4.544   4.705   1.333 -0.7849  0.8196  2.4207
 9553SOL    HW240296   4.543   4.575   1.278  1.4141  2.1181 -1.6482
 9554SOL     OW40297   4.492   3.380   4.585  0.3344  0.6509 -0.3001
 9554SOL    HW140298   4.418   3.325   4.563  0.7272 -0.0837  0.2166
 9554SOL    HW240299   4.555   3.325   4.538 -0.0584  0.8027 -1.0039
 9555SOL     OW40300   2.250   1.757   8.971 -0.0927 -0.4537 -0.5965
 9555SOL    HW140301   2.242   1.809   9.052  1.5891 -0.3973 -0.4673
 9555SOL    HW240302   2.160   1.726   8.967 -0.9033  2.1086 -2.0704
 9556SOL     OW40303   3.774   4.108   3.194  0.0502 -0.0020  0.2751
 9556SOL    HW140304   3.806   4.037   3.138 -0.5505 -0.5438  0.6241
 9556SOL    HW240305   3.734   4.153   3.119 -0.9242 -0.1151  0.7279
 9557SOL     OW40306   3.883   4.146   5.138  0.0034  0.1156 -0.6084
 9557SOL    HW140307   3.901   4.189   5.222  2.0418  1.2426 -1.5988
 9557SOL    HW240308   3.854   4.061   5.171  0.9442 -0.1543 -0.4523
 9558SOL     OW40309   0.411   1.870   2.371 -0.1992  0.0252 -0.2187
 9558SOL    HW140310   0.371   1.816   2.439  0.9394 -0.2856  0.1996
 9558SOL    HW240311   0.350   1.943   2.359  1.8626  1.6213 -1.1176
 9559SOL     OW40312   1.976   3.557   4.027 -0.0977  0.3965  0.6914
 9559SOL    HW140313   1.995   3.551   4.121  0.7420 -2.5018  0.3201
 9559SOL    HW240314   2.063   3.558   3.986 -0.5751  0.6420 -0.3193
 9560SOL     OW40315   3.041   4.122   2.682  0.0130 -0.7281 -0.1655
 9560SOL    HW140316   2.993   4.152   2.759 -1.1006  0.5327 -1.3498
 9560SOL    HW240317   3.096   4.197   2.661 -2.4262  1.3358  0.8658
 9561SOL     OW40318   1.352   3.767   3.340  0.2122 -0.4553  0.0613
 9561SOL    HW140319   1.267   3.725   3.326 -0.0415  0.0718 -0.0042
 9561SOL    HW240320   1.401   3.708   3.284  1.3285 -0.4690  1.0783
 9562SOL     OW40321   0.657   3.729  13.231 -0.3808 -0.3286  0.3005
 9562SOL    HW140322   0.702   3.799  13.185 -1.5257  0.9204  1.0770
 9562SOL    HW240323   0.617   3.775  13.305  1.6670  0.5561  0.8417
 9563SOL     OW40324   1.833   1.046   1.696 -0.1834 -0.4353  0.0663
 9563SOL    HW140325   1.923   1.078   1.691 -1.4674  3.5411  2.3054
 9563SOL    HW240326   1.822   1.010   1.608  0.8822  3.3011 -1.6011
 9564SOL     OW40327   2.557   0.224   3.769 -0.2634 -0.5057  0.0548
 9564SOL    HW140328   2.544   0.302   3.823  0.8712  1.0486 -1.9268
 9564SOL    HW240329   2.647   0.235   3.738  0.2187 -2.0586  0.9228
 9565SOL     OW40330   0.468   3.671   0.455 -0.1694 -0.1681 -0.0379
 9565SOL    HW140331   0.421   3.729   0.516  0.5794 -2.4796  2.7628
 9565SOL    HW240332   0.395   3.618   0.423 -1.4911  0.6145  1.6647
 9566SOL     OW40333   0.794   4.583  13.731  0.4592 -0.4412 -0.1790
 9566SOL    HW140334   0.723   4.522  13.713  0.2639 -0.1174 -0.5012
 9566SOL    HW240335   0.865   4.519  13.734 -0.0873 -1.0359  0.0409
 9567SOL     OW40336   3.633   1.597  16.147 -0.2033 -0.1720  0.7916
 9567SOL    HW140337   3.683   1.561  16.220 -0.3233  0.4048  1.1595
 9567SOL    HW240338   3.696   1.591  16.076 -2.7435  0.3008 -1.4902
 9568SOL     OW40339   3.271   4.709   7.691  0.0927  0.6125  0.0889
 9568SOL    HW140340   3.354   0.018   7.696  1.2505 -1.3872  0.5633
 9568SOL    HW240341   3.307   4.620   7.698 -0.9886  0.1793  0.0882
 9569SOL     OW40342   0.495   0.065   3.860  0.0299  0.3900 -0.2981
 9569SOL    HW140343   0.506   0.065   3.955 -2.3647  0.8313 -0.0462
 9569SOL    HW240344   0.553   4.730   3.842 -0.8380 -0.2797 -0.3288
   4.73930   4.73930  17.75500
