Membrane in water
40344
    1TMC1    C1    1   1.056   1.942  11.321 -0.1416 -0.2369  0.0931
    1TMC1    C2    2   0.962   1.904  11.231  0.0310  0.1674 -0.3631
    1TMC1    C3    3   0.989   1.886  11.101  0.4335  0.3595 -0.2205
    1TMC1    C4    4   1.179   1.985  11.273 -0.2250  0.1469  0.2775
    1TMC1    C5    5   1.204   1.971  11.135  0.1262  0.1793  0.3135
    1TMC1    C6    6   1.112   1.916  11.047 -0.1480 -0.6483  0.6528
    1TMC1     C    7   1.041   1.906  11.466 -0.5503  0.4212  0.5100
    1TMC1     O    8   0.926   1.892  11.512  0.3009  0.4901  0.3215
    1TMC1     H    9   0.870   1.873  11.279  1.0262 -1.1253  0.7032
    1TMC1    H1   10   1.259   2.020  11.337  1.4514 -2.3381 -0.4747
    1TMC1    H2   11   1.141   1.896  10.944  1.9255  2.9207  0.5444
    1TMC1    C7   12   1.332   2.010  11.080 -0.6641  0.2410 -0.0209
    1TMC1    C8   13   0.892   1.839  11.006 -0.1450 -0.2479  0.2722
    1TMC1    O1   14   1.381   1.956  10.982  0.0385 -0.3347  0.0139
    1TMC1    O2   15   0.932   1.769  10.912  0.2175  0.9119 -0.0082
    1TMC1    O3   16   1.395   2.089  11.166  0.1673  0.3535  0.7110
    1TMC1    H3   17   1.329   2.144  11.214  1.6084  0.8742  2.0809
    1TMC1    O5   18   0.769   1.826  11.069  0.5818 -0.6407  0.5041
    1TMC1    H5   19   0.745   1.905  11.122  0.4039 -1.7634  2.0887
    2MPD2     C   20   1.263   1.876  11.931 -0.4508  1.3472 -1.0302
    2MPD2    C1   21   1.133   1.905  11.899 -0.2871 -0.3467 -0.2159
    2MPD2    C2   22   1.096   1.914  11.768  0.0141  0.2473  0.5735
    2MPD2    C3   23   1.189   1.894  11.667  0.0754 -0.1733  0.0529
    2MPD2    C4   24   1.320   1.879  11.699 -0.0540 -0.1105 -0.3092
    2MPD2    C5   25   1.354   1.852  11.832 -0.0332 -0.6185  0.1643
    2MPD2     H   26   0.993   1.935  11.739  0.2461 -0.2063 -0.5911
    2MPD2    H1   27   1.402   1.896  11.630 -1.2908 -0.3176 -1.8058
    2MPD2    H2   28   1.298   1.870  12.033  0.1019  1.6776 -1.2026
    2MPD2    H3   29   1.458   1.835  11.856 -0.3203 -1.0888  1.0647
    2MPD2     N   30   1.159   1.889  11.527 -0.3573 -0.2677 -0.1178
    2MPD2    H5   31   1.233   1.867  11.461  1.7622  1.5387  1.6554
    2MPD2    N1   32   1.035   1.911  12.003  0.4281 -0.0856  0.4166
    2MPD2    H7   33   0.941   1.940  11.977  1.5466  2.3892 -0.8245
    3TMC1    C1   34   0.664   3.031  10.988 -0.1235 -0.8449 -0.4663
    3TMC1    C2   35   0.713   3.118  11.083 -0.6916 -0.5614 -0.9660
    3TMC1    C3   36   0.850   3.124  11.097 -0.2119 -0.2335 -0.3941
    3TMC1    C4   37   0.749   2.956  10.906  0.0460 -0.9558  0.1344
    3TMC1    C5   38   0.882   2.954  10.932  0.2830  0.0334  0.2276
    3TMC1    C6   39   0.927   3.037  11.025  0.1768  0.3986  0.3309
    3TMC1     C   40   0.530   3.046  10.932  0.2586  0.5131  0.3783
    3TMC1     O   41   0.474   2.958  10.869 -0.3213  0.6476 -0.7586
    3TMC1     H   42   0.653   3.173  11.155 -0.0615 -1.4044  0.1955
    3TMC1    H1   43   0.706   2.886  10.835 -0.9676 -0.9059  0.7026
    3TMC1    H2   44   1.034   3.048  11.037 -0.0395  1.6759  1.0862
    3TMC1    C7   45   0.974   2.857  10.862  0.2571  0.0693 -0.5422
    3TMC1    C8   46   0.896   3.204  11.208 -0.2314  0.5974  0.4686
    3TMC1    O1   47   0.930   2.812  10.758 -0.0757  0.1135 -0.2088
    3TMC1    O2   48   0.981   3.162  11.284  0.2700 -0.1575  0.1391
    3TMC1    O3   49   1.030   2.789  10.964  0.0137  0.2483 -0.1108
    3TMC1    H3   50   1.037   2.841  11.046  0.5749  0.4774 -0.2995
    3TMC1    O5   51   0.870   3.338  11.180  0.4463 -0.3289 -0.2895
    3TMC1    H5   52   0.805   3.351  11.108  0.5029  1.6969  0.0172
    4MPD2     C   53   0.114   3.348  10.865 -0.1227 -0.3463  0.4928
    4MPD2    C1   54   0.218   3.424  10.923  0.3679  0.5044 -0.3728
    4MPD2    C2   55   0.333   3.360  10.945 -0.1017 -0.4465  0.6886
    4MPD2    C3   56   0.357   3.232  10.907  0.7116  0.3946  0.2375
    4MPD2    C4   57   0.264   3.161  10.836 -0.0298 -0.0046 -1.1133
    4MPD2    C5   58   0.140   3.221  10.817  0.1848  0.7917 -0.5078
    4MPD2     H   59   0.398   3.422  11.005 -1.4554  1.3309  0.3293
    4MPD2    H1   60   0.280   3.060  10.802 -0.1842 -0.9275  1.5732
    4MPD2    H2   61   0.013   3.383  10.848 -0.4023 -0.8850  1.0597
    4MPD2    H3   62   0.062   3.153  10.784 -0.3468  0.4779  1.4333
    4MPD2     N   63   0.485   3.175  10.947  0.0826 -0.6523  0.8286
    4MPD2    H5   64   0.541   3.243  10.997  0.5302  0.5916 -1.3854
    4MPD2    N1   65   0.196   3.556  10.957 -0.1843 -0.0385  0.3762
    4MPD2    H7   66   0.281   3.602  10.987 -0.7299  0.1190  1.7074
    5TCq1    O1   67   1.720   0.193  12.371 -0.3898  0.1289 -0.0155
    5TCq1    C1   68   1.700   0.094  12.289 -0.1339  0.2207  0.5290
    5TCq1    O2   69   1.783   0.070  12.202  0.0496  0.4952 -0.2411
    5TCq1    C2   70   1.561   0.095  12.271  0.7818  1.1210  0.1548
    5TCq1    C3   71   1.475   0.063  12.376  0.0491  0.5332 -0.6147
    5TCq1    C4   72   1.342   0.067  12.360  0.7992  0.4364 -0.0180
    5TCq1    C5   73   1.289   0.105  12.243  0.3357 -0.3227 -0.6985
    5TCq1    C6   74   1.371   0.141  12.142 -0.3956 -0.5083 -0.2176
    5TCq1    C7   75   1.506   0.142  12.154  0.3779  0.8495 -0.5312
    5TCq1    C8   76   1.299   0.189  12.022 -0.1892  0.1455 -0.2602
    5TCq1    O4   77   1.356   0.160  11.917 -0.0914  0.4678  0.2339
    5TCq1    C9   78   1.259   0.019  12.466 -0.0343 -0.1814 -0.0804
    5TCq1    O5   79   1.312   4.704  12.568 -0.1261  0.0286  0.4778
    5TCq1    O6   80   1.138   0.057  12.453  0.3804 -0.3066  0.2043
    5TCq1    H1   81   1.656   0.201  12.446  2.2528 -0.4131  2.2703
    5TCq1    H2   82   1.506   0.016  12.469 -0.4351  0.9182 -0.2614
    5TCq1    H3   83   1.186   0.075  12.224  0.6120 -2.0741  0.5622
    5TCq1    H4   84   1.569   0.185  12.077  0.9283  1.2658  0.1580
    6MPD2     C   85   0.953   0.326  11.987  0.6904  0.5647  0.1004
    6MPD2    C1   86   1.069   0.261  11.952 -0.0208  0.4961 -0.5717
    6MPD2    C2   87   1.085   0.225  11.820  0.7478 -0.1524 -0.2291
    6MPD2    C3   88   0.994   0.251  11.721  0.1307 -0.6423  0.0244
    6MPD2    C4   89   0.874   0.322  11.763  0.0968  0.2723 -0.4893
    6MPD2    C5   90   0.853   0.357  11.895  0.3772 -0.1361  0.1927
    6MPD2     H   91   1.179   0.174  11.801  0.3279 -0.0633 -2.5304
    6MPD2    H1   92   0.798   0.360  11.696  0.0756  1.5272  0.2617
    6MPD2    H2   93   0.928   0.355  12.089  0.2881 -1.1918  0.4957
    6MPD2    H3   94   0.762   0.412  11.915  0.1790 -1.8908  4.0090
    6MPD2     N   95   1.021   0.215  11.591 -0.2329 -0.0616  0.4069
    6MPD2    H5   96   1.106   0.165  11.568 -0.5753  0.2695 -1.5608
    6MPD2    N1   97   1.170   0.243  12.048 -0.1192  0.2894  0.0543
    6MPD2    H7   98   1.146   0.264  12.144 -0.3084  1.4662 -0.2455
    7TCq1    O1   99   2.777   3.547  13.273 -0.4066  0.2568 -0.0541
    7TCq1    C1  100   2.770   3.416  13.253  0.1636  0.5615 -0.1155
    7TCq1    O2  101   2.736   3.370  13.142  0.8449  0.4489  0.7749
    7TCq1    C2  102   2.886   3.362  13.318  0.0744  0.5445  0.5505
    7TCq1    C3  103   2.952   3.270  13.245 -0.1228  0.1063  0.1767
    7TCq1    C4  104   3.073   3.233  13.276  0.7351  0.0874  0.4189
    7TCq1    C5  105   3.131   3.277  13.390 -0.1620 -0.2099  0.2108
    7TCq1    C6  106   3.065   3.373  13.463 -0.4631 -0.5219 -0.7834
    7TCq1    C7  107   2.946   3.418  13.423  0.1524  0.5145  0.5055
    7TCq1    C8  108   3.114   3.429  13.589 -0.2793  0.3632 -0.2266
    7TCq1    O4  109   3.037   3.496  13.658 -0.5309 -0.2028  0.8849
    7TCq1    C9  110   3.148   3.132  13.201  0.0597 -0.3977 -0.6879
    7TCq1    O5  111   3.275   3.143  13.196 -0.2739  0.3075  0.0463
    7TCq1    O6  112   3.082   3.053  13.131  0.2365  0.2142 -0.2215
    7TCq1    H1  113   2.796   3.572  13.365  3.0801  0.3169 -0.7702
    7TCq1    H2  114   2.903   3.217  13.164  0.2420 -1.4962  0.9957
    7TCq1    H3  115   3.232   3.241  13.407  0.9537  3.4321  1.3975
    7TCq1    H4  116   2.887   3.491  13.477  0.5966 -0.2861  2.0751
    8MPD2     C  117   3.508   3.475  13.909 -0.3261 -0.0202 -0.0191
    8MPD2    C1  118   3.522   3.357  13.846  0.2067 -0.1569  0.5658
    8MPD2    C2  119   3.425   3.326  13.754 -0.5353 -0.0735 -0.0786
    8MPD2    C3  120   3.318   3.411  13.732 -0.1340  0.0291  0.1832
    8MPD2    C4  121   3.311   3.529  13.795 -0.2644  0.6709  0.0265
    8MPD2    C5  122   3.396   3.563  13.893  0.0321 -0.4572 -0.5683
    8MPD2     H  123   3.429   3.238  13.692 -1.5078  0.8937 -1.4856
    8MPD2    H1  124   3.236   3.607  13.784 -1.6798 -0.6429  0.4324
    8MPD2    H2  125   3.588   3.496  13.979  0.7147 -0.0643 -1.1828
    8MPD2    H3  126   3.387   3.654  13.952 -1.5617 -2.1030  1.7396
    8MPD2     N  127   3.237   3.375  13.624  0.0565 -0.2631  0.5938
    8MPD2    H5  128   3.275   3.306  13.560  1.4569  0.0581  1.0645
    8MPD2    N1  129   3.639   3.277  13.864 -0.6080 -0.1706 -0.2587
    8MPD2    H7  130   3.718   3.316  13.913 -0.2488 -1.7776  0.4085
    9TMC1    C1  131   0.553   1.875  11.351 -0.8503  0.4022  0.3639
    9TMC1    C2  132   0.514   1.805  11.240  0.2060  0.1244  0.2226
    9TMC1    C3  133   0.450   1.682  11.261  0.5483 -0.1069 -0.0576
    9TMC1    C4  134   0.528   1.830  11.478 -0.1584 -0.4175  0.0921
    9TMC1    C5  135   0.456   1.716  11.488  0.4500  0.5154  0.3886
    9TMC1    C6  136   0.417   1.634  11.385  1.1528  0.2132  0.3324
    9TMC1     C  137   0.626   2.002  11.326 -0.2838  0.6011  0.0085
    9TMC1     O  138   0.664   2.018  11.208 -0.3843  0.5064 -0.4383
    9TMC1     H  139   0.530   1.833  11.136  1.6007 -1.5143 -0.0118
    9TMC1    H1  140   0.553   1.881  11.570 -1.5414  1.9016 -0.8280
    9TMC1    H2  141   0.366   1.540  11.403 -0.5646  1.3515  1.4144
    9TMC1    C7  142   0.464   1.637  11.611 -0.8646 -0.4762 -0.2359
    9TMC1    C8  143   0.438   1.602  11.148  0.1913  0.4522 -0.0301
    9TMC1    O1  144   0.503   1.519  11.617  0.5398  0.2398  0.5573
    9TMC1    O2  145   0.523   1.603  11.058  0.2411  0.1651 -0.7587
    9TMC1    O3  146   0.368   1.685  11.687 -0.2662  0.2682 -0.3087
    9TMC1    H3  147   0.321   1.763  11.652 -2.0481  0.3243  2.1757
    9TMC1    O5  148   0.333   1.529  11.145  0.4229 -0.0933  0.3177
    9TMC1    H5  149   0.250   1.570  11.177  0.4757  1.4005 -1.5093
   10MPD2     C  150   0.813   2.231  11.352  0.1520 -0.1781 -0.2880
   10MPD2    C1  151   0.701   2.213  11.439  0.0559  0.3980 -0.1195
   10MPD2    C2  152   0.689   2.299  11.545 -0.3162  0.5181  0.2378
   10MPD2    C3  153   0.759   2.414  11.549  0.2003 -0.2495  0.6943
   10MPD2    C4  154   0.864   2.427  11.463  0.6808  0.1218  0.2888
   10MPD2    C5  155   0.895   2.335  11.363  0.5424 -0.9009  0.8590
   10MPD2     H  156   0.603   2.272  11.605  0.3334 -0.4595  0.7309
   10MPD2    H1  157   0.924   2.517  11.469  0.4573  0.4518 -2.1536
   10MPD2    H2  158   0.825   2.158  11.273  1.2921 -0.1094 -0.1780
   10MPD2    H3  159   0.981   2.353  11.300  1.2384 -3.7743  0.9892
   10MPD2     N  160   0.712   2.527  11.629 -0.4786 -0.3142 -0.0135
   10MPD2    H5  161   0.775   2.607  11.627 -0.6211 -0.1375  2.7387
   10MPD2    N1  162   0.630   2.093  11.435  0.6628 -0.1244 -0.1793
   10MPD2    H7  163   0.572   2.078  11.517  2.1573 -0.1093  0.8756
   11TCq1    O1  164   1.750   3.145  15.459 -0.3156 -0.5540  0.3184
   11TCq1    C1  165   1.709   3.021  15.437 -0.7580 -0.0884 -0.6140
   11TCq1    O2  166   1.624   2.965  15.503  0.3141 -0.3528  0.2181
   11TCq1    C2  167   1.704   3.005  15.293 -0.2409  0.1959 -0.3997
   11TCq1    C3  168   1.815   3.031  15.218 -0.6851  0.3843 -0.2797
   11TCq1    C4  169   1.813   2.985  15.086  0.3090  0.2756 -0.8624
   11TCq1    C5  170   1.713   2.898  15.043  0.2695 -0.6114  0.4954
   11TCq1    C6  171   1.606   2.869  15.121 -0.1147  0.8072 -0.2514
   11TCq1    C7  172   1.600   2.923  15.245 -0.0048 -0.1882 -0.3093
   11TCq1    C8  173   1.505   2.770  15.090  0.2413  0.3487  0.1060
   11TCq1    O4  174   1.447   2.725  15.188 -0.4883 -0.4076  0.2984
   11TCq1    C9  175   1.933   3.005  15.007  0.6335  0.6067  0.3326
   11TCq1    O5  176   1.925   2.956  14.890 -0.0464 -0.5649  0.0705
   11TCq1    O6  177   2.018   3.087  15.045 -0.1922 -0.6248  0.0856
   11TCq1    H1  178   1.756   3.191  15.372 -0.0972 -1.7727 -0.3014
   11TCq1    H2  179   1.899   3.087  15.256  0.3292 -0.1616 -1.7532
   11TCq1    H3  180   1.720   2.857  14.943 -2.6732 -1.8285  0.8102
   11TCq1    H4  181   1.520   2.888  15.309  0.5947 -2.5048 -0.8244
   12MPD2     C  182   1.357   2.532  15.004 -0.4430 -0.6257  0.2590
   12MPD2    C1  183   1.427   2.620  14.918 -0.1341  0.0260 -0.3570
   12MPD2    C2  184   1.424   2.591  14.778  0.5257 -0.8262 -0.5747
   12MPD2    C3  185   1.365   2.476  14.732 -0.1436  0.4827 -0.3070
   12MPD2    C4  186   1.314   2.385  14.820 -0.1508 -0.6990  0.3487
   12MPD2    C5  187   1.306   2.410  14.952  0.2352 -0.0904 -0.4201
   12MPD2     H  188   1.471   2.670  14.720 -0.9061  0.3654 -0.1052
   12MPD2    H1  189   1.285   2.284  14.796  0.9056 -1.2410  1.3216
   12MPD2    H2  190   1.350   2.546  15.112  1.7639  1.6626  0.0818
   12MPD2    H3  191   1.271   2.337  15.023  0.6008  0.0105 -0.1342
   12MPD2     N  192   1.359   2.443  14.596  0.3142 -0.2514  0.2916
   12MPD2    H5  193   1.306   2.358  14.581  1.1357 -1.1288  2.3572
   12MPD2    N1  194   1.500   2.732  14.957  0.0510  0.5506 -0.9517
   12MPD2    H7  195   1.545   2.786  14.883 -0.7873  0.9264 -1.1828
   13TCq1    O1  196   0.551   2.063  10.933 -0.1146  0.1565  0.0061
   13TCq1    C1  197   0.420   2.026  10.942  0.2154 -0.3194  0.2705
   13TCq1    O2  198   0.363   1.950  10.861 -0.1226 -0.4835 -0.6306
   13TCq1    C2  199   0.358   2.069  11.065 -0.9359  0.0384  0.6695
   13TCq1    C3  200   0.262   1.985  11.121  0.3270 -0.2161 -0.3991
   13TCq1    C4  201   0.232   2.017  11.247  0.5123  0.4804 -0.0119
   13TCq1    C5  202   0.279   2.124  11.309  0.1294 -0.5909 -0.1943
   13TCq1    C6  203   0.370   2.210  11.250  0.4428  0.0118 -0.4953
   13TCq1    C7  204   0.405   2.180  11.124 -0.7030  0.3815  0.4321
   13TCq1    C8  205   0.394   2.349  11.295 -0.5243  0.4351  0.1810
   13TCq1    O4  206   0.331   2.390  11.394  0.5367 -0.2151  0.0204
   13TCq1    C9  207   0.114   1.945  11.303  1.2371  0.0598 -0.2560
   13TCq1    O5  208   0.030   1.902  11.222  0.1746  0.4257 -0.0869
   13TCq1    O6  209   0.075   1.966  11.420  0.0665 -0.2281  0.0067
   13TCq1    H1  210   0.587   2.115  11.008  0.2542 -0.8512  0.5273
   13TCq1    H2  211   0.217   1.901  11.070 -0.9137  1.4994 -2.1363
   13TCq1    H3  212   0.242   2.150  11.407 -2.4377 -1.8245 -0.8393
   13TCq1    H4  213   0.453   2.255  11.063 -1.5723  1.9303  1.6342
   14MPD2     C  214   0.677   2.569  11.220 -0.8473  0.2626 -0.1644
   14MPD2    C1  215   0.559   2.533  11.287  0.2425 -0.1996 -0.3396
   14MPD2    C2  216   0.490   2.630  11.357  0.6563  0.4699  1.0877
   14MPD2    C3  217   0.539   2.762  11.366  0.3061  0.4219 -0.3675
   14MPD2    C4  218   0.664   2.784  11.310 -0.5209  0.0260 -0.1062
   14MPD2    C5  219   0.736   2.697  11.240 -0.4380  0.0192 -0.6679
   14MPD2     H  220   0.387   2.610  11.383  0.1091  1.3677 -0.4009
   14MPD2    H1  221   0.711   2.881  11.317  1.6357 -0.9490 -1.1380
   14MPD2    H2  222   0.736   2.503  11.158 -1.7014 -0.8989  0.2537
   14MPD2    H3  223   0.828   2.728  11.192  0.9888 -0.4988  1.7460
   14MPD2     N  224   0.461   2.854  11.431 -0.3394  0.4082 -0.3620
   14MPD2    H5  225   0.373   2.823  11.472 -0.5220  1.1822 -0.1691
   14MPD2    N1  226   0.504   2.407  11.241  0.3865  0.5418  0.2132
   14MPD2    H7  227   0.562   2.349  11.181  0.5441 -0.1467  1.0346
   15TCq1    O1  228   3.889   2.324   0.777 -0.1517  0.5234 -0.4356
   15TCq1    C1  229   3.912   2.402   0.880 -0.0657 -0.0983  0.1244
   15TCq1    O2  230   3.983   2.503   0.874 -0.2709  0.7434  0.2749
   15TCq1    C2  231   3.849   2.351   1.003  0.7270  0.2550 -0.3145
   15TCq1    C3  232   3.787   2.437   1.094 -0.2934 -0.5597 -0.9492
   15TCq1    C4  233   3.754   2.387   1.214 -0.1917 -0.0514  0.0737
   15TCq1    C5  234   3.764   2.249   1.245  0.1795  0.7289 -0.2602
   15TCq1    C6  235   3.825   2.171   1.148  0.7084 -0.0565  0.2054
   15TCq1    C7  236   3.867   2.215   1.026 -0.3232 -0.0230  0.2298
   15TCq1    C8  237   3.772   2.040   1.137 -0.0598  0.0211  0.3782
   15TCq1    O4  238   3.814   1.947   1.063  0.0039 -0.5430  0.1443
   15TCq1    C9  239   3.701   2.473   1.318  0.3199  0.5109  0.1579
   15TCq1    O5  240   3.683   2.420   1.428  0.0015 -0.0625 -0.4914
   15TCq1    O6  241   3.627   2.568   1.281  0.2029  0.2827 -0.0751
   15TCq1    H1  242   3.830   2.246   0.774 -0.0301  0.3645  1.1958
   15TCq1    H2  243   3.747   2.532   1.058  0.1248 -0.1038 -0.2108
   15TCq1    H3  244   3.737   2.204   1.340  1.3770 -0.8293 -0.6477
   15TCq1    H4  245   3.900   2.146   0.949 -1.5014 -1.6754  1.2244
   16MPD2     C  246   3.444   1.946   1.289 -0.1270  0.4776 -0.4128
   16MPD2    C1  247   3.570   1.921   1.229 -0.0097  0.4705  0.1181
   16MPD2    C2  248   3.607   1.789   1.214  0.1278 -0.6377  0.2456
   16MPD2    C3  249   3.521   1.685   1.242  0.8448  0.6600 -0.3897
   16MPD2    C4  250   3.398   1.714   1.293 -0.7763  0.6114 -0.5749
   16MPD2    C5  251   3.362   1.841   1.312  0.2576 -0.6450 -0.2162
   16MPD2     H  252   3.709   1.771   1.181  0.0670  0.6664 -0.6526
   16MPD2    H1  253   3.324   1.638   1.315 -0.4314 -0.0839 -1.8352
   16MPD2    H2  254   3.416   2.050   1.304 -0.0621  0.5725 -0.9753
   16MPD2    H3  255   3.264   1.864   1.353  1.3086 -0.2925  2.0741
   16MPD2     N  256   3.571   1.552   1.228 -0.0820 -0.1237  0.7775
   16MPD2    H5  257   3.669   1.556   1.202 -0.1983  4.7890  0.9669
   16MPD2    N1  258   3.655   2.031   1.214 -0.0877  0.2462  0.2893
   16MPD2    H7  259   3.620   2.118   1.253 -0.4564  0.1954  0.0732
   17TMC1    C1  260   0.728   1.642  10.517 -0.3504 -0.1983  0.4599
   17TMC1    C2  261   0.641   1.594  10.426  0.0280 -0.4164 -0.1323
   17TMC1    C3  262   0.642   1.459  10.400 -0.7154  1.0068 -0.4408
   17TMC1    C4  263   0.815   1.563  10.592 -0.2050  0.5720 -0.4589
   17TMC1    C5  264   0.804   1.429  10.568  0.2794  0.1502  0.2013
   17TMC1    C6  265   0.719   1.377  10.473  0.2173 -0.1511 -0.1987
   17TMC1     C  266   0.720   1.788  10.542 -0.2586  0.5474 -0.6810
   17TMC1     O  267   0.618   1.849  10.510 -0.4525 -0.3171  0.1094
   17TMC1     H  268   0.574   1.657  10.368  1.8732  1.5498 -0.1126
   17TMC1    H1  269   0.866   1.599  10.681 -1.9225  0.0958  0.7186
   17TMC1    H2  270   0.712   1.269  10.464 -0.9086  0.0393 -1.5514
   17TMC1    C7  271   0.859   1.334  10.659 -0.0144  0.3570  0.3225
   17TMC1    C8  272   0.536   1.402  10.322  0.5097 -0.3210  0.2340
   17TMC1    O1  273   0.876   1.215  10.636 -0.3988  0.3045  0.6611
   17TMC1    O2  274   0.466   1.466  10.244  0.3545  0.9892  0.1812
   17TMC1    O3  275   0.818   1.380  10.783  0.0903 -0.5364 -0.3411
   17TMC1    H3  276   0.756   1.454  10.768  0.9954 -0.2231 -2.5174
   17TMC1    O5  277   0.486   1.300  10.399 -0.2612 -0.0632  0.5782
   17TMC1    H5  278   0.536   1.290  10.483  0.1958  0.6699  0.3892
   18MPD2     C  279   0.736   2.052  10.695  0.0681 -0.7523 -0.4364
   18MPD2    C1  280   0.840   1.967  10.658 -0.6672 -0.3341  0.0854
   18MPD2    C2  281   0.969   2.006  10.681  0.4559 -0.0248  0.2733
   18MPD2    C3  282   0.999   2.125  10.741 -0.3627 -0.5349 -0.1118
   18MPD2    C4  283   0.898   2.204  10.780  0.7802  0.4354 -0.0814
   18MPD2    C5  284   0.767   2.171  10.753  0.4393 -0.5197 -0.2824
   18MPD2     H  285   1.052   1.949  10.641  1.1958  0.4849  1.0541
   18MPD2    H1  286   0.919   2.306  10.812  2.2110  0.2401 -0.4096
   18MPD2    H2  287   0.634   2.019  10.675 -0.2996 -0.3745  0.7768
   18MPD2    H3  288   0.692   2.247  10.770  1.7566  0.1309  2.6240
   18MPD2     N  289   1.132   2.174  10.759  0.7594 -0.3527 -0.2817
   18MPD2    H5  290   1.140   2.265  10.802 -0.6895  0.3939 -1.6329
   18MPD2    N1  291   0.834   1.845  10.595  0.1140  0.5160 -0.5812
   18MPD2    H7  292   0.918   1.789  10.590  0.8412  1.6237 -0.7063
   19TMC2    C1  293   3.033   2.929  14.318  0.2392  0.5154 -0.6837
   19TMC2    C2  294   3.025   3.059  14.371 -0.8229 -0.5369  0.1624
   19TMC2    C3  295   2.929   3.081  14.462 -0.0645 -1.0056 -0.6229
   19TMC2    C4  296   2.953   2.833  14.367 -0.6819 -0.1048 -0.2363
   19TMC2    C5  297   2.854   2.863  14.456 -0.4195 -0.1902 -0.3851
   19TMC2    C6  298   2.846   2.986  14.509 -0.3284 -0.3932  0.3884
   19TMC2     C  299   3.099   2.896  14.196 -0.4284  0.4118  0.6780
   19TMC2     O  300   3.127   2.987  14.120  0.5691  0.0724  0.2036
   19TMC2     H  301   3.079   3.141  14.325  1.2318  0.2839  4.0732
   19TMC2    H1  302   2.940   2.741  14.311  0.9914 -0.1011 -0.6168
   19TMC2    H2  303   2.786   2.999  14.598  0.7592 -1.6329  1.3067
   19TMC2    C7  304   2.751   2.762  14.474  1.1221 -0.1245  0.1067
   19TMC2    C8  305   2.926   3.208  14.521 -0.4489  0.4568  0.1617
   19TMC2    O1  306   2.775   2.650  14.436  0.1389 -0.2068  0.5466
   19TMC2    O2  307   3.016   3.285  14.497 -0.4953 -0.9232  0.1677
   19TMC2    O5  308   2.801   3.236  14.552  0.4399  0.7497 -0.1717
   19TMC2    H5  309   2.728   3.176  14.528  0.7863  0.2025  0.1560
   20MPD2     C  310   3.217   2.745  13.955 -0.5819 -0.0319 -0.0233
   20MPD2    C1  311   3.180   2.686  14.075 -0.4175 -1.1024 -1.0457
   20MPD2    C2  312   3.205   2.550  14.096 -0.1575 -0.6069 -0.3639
   20MPD2    C3  313   3.290   2.476  14.009  0.9144 -0.1948  0.4840
   20MPD2    C4  314   3.323   2.541  13.895 -0.5905 -0.0488  1.6190
   20MPD2    C5  315   3.294   2.667  13.865 -0.1256  0.3872 -0.3036
   20MPD2     H  316   3.179   2.510  14.193 -2.7971  0.4169 -0.6581
   20MPD2    H1  317   3.390   2.495  13.823 -0.9427  0.7645  0.7628
   20MPD2    H2  318   3.205   2.847  13.922 -0.7275  0.0363  0.2419
   20MPD2    H3  319   3.317   2.708  13.767 -2.0006 -1.0860 -1.3597
   20MPD2     N  320   3.345   2.346  14.040 -0.8086  0.6182  0.5381
   20MPD2    H5  321   3.407   2.302  13.974 -1.7980  0.4171 -0.2491
   20MPD2    N1  322   3.126   2.761  14.187 -0.3558 -0.6587 -0.5397
   20MPD2    H7  323   3.106   2.704  14.269 -1.7561  0.8792  0.1948
   21TMC2    C1  324   0.470   2.745  14.405  0.5400 -0.0398  0.0265
   21TMC2    C2  325   0.495   2.610  14.420 -0.6651  0.3763 -0.8346
   21TMC2    C3  326   0.414   2.535  14.500  0.0821  0.0340 -0.7592
   21TMC2    C4  327   0.372   2.802  14.479  0.6378 -0.2553  0.2693
   21TMC2    C5  328   0.304   2.726  14.572 -0.6852  0.8794  0.6425
   21TMC2    C6  329   0.321   2.595  14.579 -0.1947 -0.1569  0.5475
   21TMC2     C  330   0.587   2.826  14.387  0.2327  1.2192 -0.7636
   21TMC2     O  331   0.691   2.762  14.373 -0.2810  0.1272  0.2751
   21TMC2     H  332   0.575   2.561  14.366 -1.3323  0.2531 -1.7200
   21TMC2    H1  333   0.368   2.910  14.466 -2.8664 -0.6160 -1.6738
   21TMC2    H2  334   0.272   2.525  14.646  0.1524  0.0127  0.9832
   21TMC2    C7  335   0.200   2.784  14.655  0.5319 -0.2617 -0.0796
   21TMC2    C8  336   0.468   2.416  14.554 -0.4280  0.0483  0.0340
   21TMC2    O1  337   0.173   2.718  14.753  0.2964  0.0674  0.3205
   21TMC2    O2  338   0.397   2.319  14.566 -0.0098  0.4564 -0.5026
   21TMC2    O5  339   0.523   2.466  14.664  0.2040 -0.0668  0.1934
   21TMC2    H5  340   0.555   2.557  14.651  1.2143 -0.6860 -1.6094
   22MPD2     C  341   0.812   3.283  14.442 -0.9106  0.4761 -0.0287
   22MPD2    C1  342   0.837   3.147  14.481  0.3532 -0.1928 -0.1300
   22MPD2    C2  343   0.763   3.043  14.442 -0.0746 -0.1999  0.1411
   22MPD2    C3  344   0.646   3.065  14.374  0.1986  1.3148  0.4974
   22MPD2    C4  345   0.611   3.196  14.336  0.2042 -0.0389 -0.4002
   22MPD2    C5  346   0.697   3.299  14.369  0.3433  0.1291 -0.5393
   22MPD2     H  347   0.795   2.943  14.469  1.9977 -0.1932 -2.2365
   22MPD2    H1  348   0.518   3.219  14.286  1.1293 -0.0476 -2.1345
   22MPD2    H2  349   0.873   3.366  14.476 -0.5087 -1.5145  4.0816
   22MPD2    H3  350   0.671   3.404  14.360  1.8351  0.5155 -0.3555
   22MPD2     N  351   0.555   2.956  14.353  0.0945 -0.1269 -0.2809
   22MPD2    H5  352   0.466   2.977  14.309 -1.6521 -2.3469  2.2111
   22MPD2    N1  353   0.946   3.109  14.563 -0.2607 -0.1980  0.5023
   22MPD2    H7  354   0.966   3.009  14.567 -1.4411 -0.4628 -0.0545
   23TMC2    C1  355   1.406   4.229  14.870 -0.5255  0.5008  0.0329
   23TMC2    C2  356   1.438   4.305  14.762 -0.0256  0.5827 -0.1700
   23TMC2    C3  357   1.396   4.263  14.638 -0.5675 -0.3796 -0.0661
   23TMC2    C4  358   1.336   4.107  14.857 -0.1337  0.1853 -0.4992
   23TMC2    C5  359   1.300   4.068  14.728  0.4816  0.2055 -0.0973
   23TMC2    C6  360   1.328   4.142  14.610 -0.2832  0.8103  0.4158
   23TMC2     C  361   1.460   4.263  14.998  0.0181 -0.1700  0.1497
   23TMC2     O  362   1.497   4.176  15.071 -0.8204 -0.1065  0.5288
   23TMC2     H  363   1.507   4.387  14.778 -2.3037  2.6656 -0.9775
   23TMC2    H1  364   1.295   4.054  14.942 -0.6806 -0.8760 -1.4295
   23TMC2    H2  365   1.309   4.109  14.508  1.2402 -0.5534  0.5777
   23TMC2    C7  366   1.244   3.943  14.703 -0.7552  0.5513 -0.4479
   23TMC2    C8  367   1.416   4.349  14.526  0.2086 -0.1007 -0.5682
   23TMC2    O1  368   1.283   3.851  14.774 -0.5654 -0.4686 -0.1790
   23TMC2    O2  369   1.389   4.295  14.417 -0.2125 -0.5277  0.2520
   23TMC2    O5  370   1.373   4.469  14.561 -0.6067 -0.5500  0.5963
   23TMC2    H5  371   1.363   4.491  14.656  1.2349 -1.1543  0.9106
   24MPD2     C  372   1.530   4.616  15.364 -0.8950  0.8302  0.6859
   24MPD2    C1  373   1.575   4.486  15.359 -0.1718 -0.1592  0.3954
   24MPD2    C2  374   1.543   4.414  15.248 -0.5376 -0.1689 -1.0973
   24MPD2    C3  375   1.474   4.466  15.134 -0.2101 -0.8252  0.2716
   24MPD2    C4  376   1.429   4.600  15.141  0.3243 -0.3279  0.3975
   24MPD2    C5  377   1.461   4.665  15.255 -0.3899 -0.3397 -0.9302
   24MPD2     H  378   1.566   4.308  15.250 -1.9270 -0.4061  1.4966
   24MPD2    H1  379   1.376   4.645  15.057 -2.1797 -0.8339  1.7121
   24MPD2    H2  380   1.550   4.681  15.449  0.1527  1.5530 -0.1123
   24MPD2    H3  381   1.420   0.029  15.268  2.7486  1.2127 -3.0964
   24MPD2     N  382   1.443   4.395  15.016  0.2780 -0.7266 -0.1410
   24MPD2    H5  383   1.382   4.445  14.952  1.4760 -0.2422 -0.8975
   24MPD2    N1  384   1.649   4.422  15.459  0.4408 -0.1614 -0.5838
   24MPD2    H7  385   1.690   4.331  15.441 -1.0041 -1.3173  1.9551
   25TMC2    C1  386   1.020   1.534  11.759 -0.6890  0.2599 -0.4057
   25TMC2    C2  387   1.147   1.534  11.816  0.1975 -0.0204  0.7923
   25TMC2    C3  388   1.150   1.534  11.953 -0.4345 -0.3186  0.6816
   25TMC2    C4  389   0.895   1.524  11.833 -0.1667 -0.0356  0.2579
   25TMC2    C5  390   0.910   1.535  11.968  0.1738 -0.7091  0.5631
   25TMC2    C6  391   1.032   1.538  12.028 -0.8002  0.8078 -0.1258
   25TMC2     C  392   1.018   1.522  11.609  0.3977 -0.3306 -0.8069
   25TMC2     O  393   1.121   1.537  11.547  0.6328 -0.3007 -0.1398
   25TMC2     H  394   1.236   1.518  11.757 -1.9046 -0.2162 -2.3340
   25TMC2    H1  395   0.797   1.529  11.787  0.8328  0.2793 -1.8482
   25TMC2    H2  396   1.047   1.543  12.136 -1.3863 -1.1666  0.0386
   25TMC2    C7  397   0.803   1.581  12.049  0.4599  0.3926  0.2856
   25TMC2    C8  398   1.275   1.513  12.026  0.6278  0.0457  0.1958
   25TMC2    O1  399   0.811   1.551  12.173  0.2529  0.0679  0.1748
   25TMC2    O2  400   1.362   1.438  11.983 -0.5636 -0.1208  1.0874
   25TMC2    O5  401   1.282   1.594  12.136  0.2249  0.0080  0.0440
   25TMC2    H5  402   1.216   1.666  12.146 -1.8506 -1.8067 -0.6130
   26MPD2     C  403   0.768   1.469  11.175  0.2208 -1.1951  0.5239
   26MPD2    C1  404   0.707   1.389  11.269  0.0342 -0.6280 -0.2193
   26MPD2    C2  405   0.756   1.393  11.399  0.5694 -0.3594  0.6510
   26MPD2    C3  406   0.860   1.473  11.432 -0.2196 -0.7186  0.1556
   26MPD2    C4  407   0.924   1.551  11.331 -0.0364  0.0296  0.5158
   26MPD2    C5  408   0.877   1.541  11.207  0.1346  0.2092  0.2626
   26MPD2     H  409   0.709   1.330  11.474  0.9338  1.5027  2.4163
   26MPD2    H1  410   1.009   1.615  11.352 -0.0363 -0.3151  1.5428
   26MPD2    H2  411   0.737   1.479  11.072  1.0680 -0.6044  0.3244
   26MPD2    H3  412   0.923   1.588  11.121 -1.4465 -0.0565 -0.7239
   26MPD2     N  413   0.902   1.479  11.564 -0.1325  0.1093 -0.9884
   26MPD2    H5  414   0.855   1.418  11.631  1.7983  0.0762  0.3457
   26MPD2    N1  415   0.600   1.314  11.226  0.4125 -1.0194 -0.0882
   26MPD2    H7  416   0.576   1.320  11.128  2.3024 -0.8672 -0.5512
   27TMC2    C1  417   3.994   3.712  12.046  0.5834  0.5127 -0.4837
   27TMC2    C2  418   3.983   3.737  11.908  0.0447 -0.3808  0.1484
   27TMC2    C3  419   4.003   3.869  11.876 -0.0454 -0.4507  0.4322
   27TMC2    C4  420   4.029   3.808  12.137 -0.4437 -0.3355  0.2175
   27TMC2    C5  421   4.037   3.938  12.100 -0.7251  0.0020 -0.7091
   27TMC2    C6  422   4.030   3.973  11.966 -0.5384 -0.4861  0.1615
   27TMC2     C  423   3.926   3.594  12.102  0.3597  0.3957 -0.5382
   27TMC2     O  424   3.908   3.497  12.031  0.5848 -0.2644  0.2051
   27TMC2     H  425   3.967   3.657  11.836  1.3236 -3.4747  3.2600
   27TMC2    H1  426   4.047   3.793  12.243  1.8372  1.5703  0.0992
   27TMC2    H2  427   4.039   4.078  11.940  0.7503 -0.2277  1.5696
   27TMC2    C7  428   3.964   4.014  12.196 -0.3424 -0.0110  0.5939
   27TMC2    C8  429   4.026   3.907  11.736 -0.4241  0.7807  0.2278
   27TMC2    O1  430   3.890   3.953  12.272  0.1076  0.2663 -0.1120
   27TMC2    O2  431   4.056   4.019  11.693 -0.3039 -0.2156  0.0711
   27TMC2    O5  432   4.061   3.788  11.675 -0.9938  0.4069  0.0629
   27TMC2    H5  433   4.079   3.714  11.737 -1.5922  0.1986 -0.0167
   28MPD2     C  434   3.694   3.363  12.485  0.3354  0.0725 -0.2032
   28MPD2    C1  435   3.680   3.497  12.498  0.5707 -0.4592 -0.1800
   28MPD2    C2  436   3.744   3.576  12.407 -0.1883 -0.3055 -0.2909
   28MPD2    C3  437   3.815   3.527  12.304  0.2149  0.2709 -0.4640
   28MPD2    C4  438   3.839   3.395  12.293  0.1262 -0.0396 -0.1295
   28MPD2    C5  439   3.776   3.314  12.381  0.3661 -0.3422  0.5929
   28MPD2     H  440   3.737   3.683  12.425 -0.0340 -0.6372  1.7082
   28MPD2    H1  441   3.914   3.354  12.227 -0.1702 -0.0075 -0.4844
   28MPD2    H2  442   3.649   3.288  12.549  0.2923 -0.0398 -0.3664
   28MPD2    H3  443   3.798   3.208  12.380  0.8125 -0.2607  1.4019
   28MPD2     N  444   3.874   3.625  12.226  0.2785  0.2185  0.2713
   28MPD2    H5  445   3.867   3.722  12.255 -1.2916  0.3570 -0.5245
   28MPD2    N1  446   3.598   3.542  12.607 -0.0286 -0.2657 -0.3237
   28MPD2    H7  447   3.542   3.473  12.656  0.1195 -0.0702  0.1255
   29TMC2    C1  448   3.618   1.333  14.509  0.4540  0.0898  0.1781
   29TMC2    C2  449   3.588   1.377  14.634  0.3261 -0.5102 -0.0538
   29TMC2    C3  450   3.578   1.512  14.649  0.7926 -0.3590  0.2691
   29TMC2    C4  451   3.646   1.421  14.407 -0.0087 -0.1890 -0.5802
   29TMC2    C5  452   3.644   1.554  14.437  0.2486 -0.8812  0.6373
   29TMC2    C6  453   3.618   1.599  14.560  0.2913 -0.0471  0.2284
   29TMC2     C  454   3.617   1.186  14.488 -0.0128 -0.0270 -0.1680
   29TMC2     O  455   3.600   1.126  14.594 -0.0547  0.2885  0.2745
   29TMC2     H  456   3.581   1.313  14.721 -0.5118  0.0398  0.2706
   29TMC2    H1  457   3.677   1.386  14.309  1.9602  1.0846 -0.4185
   29TMC2    H2  458   3.602   1.705  14.576  2.4428  0.5490 -1.6472
   29TMC2    C7  459   3.706   1.636  14.344 -0.1825  0.5457 -0.3092
   29TMC2    C8  460   3.514   1.557  14.769 -0.5233  0.0233  0.0831
   29TMC2    O1  461   3.707   1.603  14.227 -0.6029 -0.3447 -0.4242
   29TMC2    O2  462   3.411   1.511  14.812  0.2486  0.2086  0.5257
   29TMC2    O5  463   3.573   1.669  14.815  0.2688 -0.3046  0.1681
   29TMC2    H5  464   3.651   1.681  14.756  1.1773 -1.6775  1.1116
   30MPD2     C  465   3.471   0.789  14.200  0.0685 -0.0987  0.2232
   30MPD2    C1  466   3.507   0.783  14.338 -0.0725 -0.2337 -0.6388
   30MPD2    C2  467   3.559   0.911  14.392 -0.9209  0.4482 -0.2275
   30MPD2    C3  468   3.545   1.021  14.311  0.1494 -0.2305  0.1269
   30MPD2    C4  469   3.498   1.019  14.180  0.0976 -0.2128  0.5114
   30MPD2    C5  470   3.461   0.897  14.126  0.0369 -0.2878  0.1198
   30MPD2     H  471   3.615   0.912  14.484 -0.6585  1.0497 -0.3951
   30MPD2    H1  472   3.499   1.116  14.131 -0.9207 -0.7668 -0.6101
   30MPD2    H2  473   3.437   0.699  14.151 -2.8169  1.5640 -0.7605
   30MPD2    H3  474   3.429   0.909  14.023  1.9361 -0.4132 -0.4777
   30MPD2     N  475   3.585   1.149  14.356  0.4960  0.0836 -0.4684
   30MPD2    H5  476   3.602   1.214  14.280  1.0417  0.1521 -0.2872
   30MPD2    N1  477   3.532   0.663  14.404 -0.8191 -0.0383  0.1249
   30MPD2    H7  478   3.568   0.671  14.498 -0.1902  0.0411 -0.1167
   31TMC2    C1  479   1.397   0.157  15.805  0.2402  0.0898  0.0014
   31TMC2    C2  480   1.259   0.159  15.836  0.2510  0.6471 -0.4244
   31TMC2    C3  481   1.230   0.153  15.969 -0.7750 -0.8287 -1.1373
   31TMC2    C4  482   1.499   0.150  15.898 -0.7173  0.3164 -0.8683
   31TMC2    C5  483   1.459   0.164  16.031 -0.4652  0.0058 -0.4710
   31TMC2    C6  484   1.329   0.156  16.060  0.1285  0.2673 -0.1129
   31TMC2     C  485   1.426   0.184  15.661  0.4041 -0.1998  0.1184
   31TMC2     O  486   1.334   0.229  15.595 -0.0237  0.4491 -0.3744
   31TMC2     H  487   1.188   0.130  15.759 -0.7267  0.8484  0.3896
   31TMC2    H1  488   1.604   0.168  15.876 -0.3886 -0.3503  0.1728
   31TMC2    H2  489   1.294   0.168  16.162  0.7921  1.4001 -0.0154
   31TMC2    C7  490   1.553   0.141  16.134 -0.2011  0.5561  0.4574
   31TMC2    C8  491   1.105   0.100  16.013 -0.4256  1.0833 -0.5853
   31TMC2    O1  492   1.654   0.076  16.118  0.0356 -0.4672  0.2423
   31TMC2    O2  493   1.008   0.107  15.940 -0.5555  0.0562 -0.4827
   31TMC2    O5  494   1.135   4.725  16.080  0.2078  0.6231  0.5912
   31TMC2    H5  495   1.230   4.699  16.079 -0.8704 -3.2081 -0.1836
   32MPD2     C  496   1.742   0.223  15.267 -0.6573 -0.5134 -0.1705
   32MPD2    C1  497   1.616   0.268  15.282  0.0537  0.2569 -0.0538
   32MPD2    C2  498   1.550   0.237  15.400  0.4905  0.7066 -0.2549
   32MPD2    C3  499   1.617   0.183  15.504 -0.1375  0.0023  0.4321
   32MPD2    C4  500   1.747   0.134  15.487 -0.6333 -1.0128 -0.7443
   32MPD2    C5  501   1.806   0.154  15.363 -0.1901 -0.0164 -0.1329
   32MPD2     H  502   1.448   0.270  15.410  0.4530  0.8531 -1.1599
   32MPD2    H1  503   1.795   0.073  15.563 -0.9498  0.6196  0.7469
   32MPD2    H2  504   1.794   0.257  15.178 -0.9659  1.3266  0.3565
   32MPD2    H3  505   1.912   0.134  15.351 -0.1472  0.0687  0.1109
   32MPD2     N  506   1.554   0.165  15.627  0.3007  0.3320 -0.6862
   32MPD2    H5  507   1.605   0.105  15.691 -2.3222 -1.1733  0.0005
   32MPD2    N1  508   1.556   0.342  15.181 -0.2835  0.2630  0.0616
   32MPD2    H7  509   1.607   0.375  15.099  1.3198  1.6820  1.6197
   33TMC2    C1  510   1.874   3.070  10.645  1.1073 -0.4733 -0.5108
   33TMC2    C2  511   1.923   3.170  10.725  0.3864 -0.0428 -0.4364
   33TMC2    C3  512   1.979   3.285  10.671 -0.0792 -0.1706  0.4032
   33TMC2    C4  513   1.882   3.088  10.511 -0.7196 -0.1096  0.2496
   33TMC2    C5  514   1.929   3.207  10.455  0.1861  0.2553 -0.7593
   33TMC2    C6  515   1.978   3.306  10.536  0.4134 -0.3788  0.2192
   33TMC2     C  516   1.777   2.975  10.691  0.6323 -0.1632 -0.5626
   33TMC2     O  517   1.731   2.889  10.617 -0.2161  0.6018 -0.0357
   33TMC2     H  518   1.958   3.143  10.824  0.6735 -1.6058 -0.9642
   33TMC2    H1  519   1.836   3.016  10.444 -0.9966 -1.2736  1.6975
   33TMC2    H2  520   2.008   3.402  10.497  2.5162 -0.2233  2.2635
   33TMC2    C7  521   1.926   3.248  10.314 -0.7010 -0.6251 -0.2909
   33TMC2    C8  522   2.063   3.362  10.758  0.0316 -0.4825 -0.1640
   33TMC2    O1  523   2.006   3.332  10.284  0.2742  0.4968 -0.0503
   33TMC2    O2  524   2.164   3.416  10.714 -0.1613 -0.2904  0.5607
   33TMC2    O5  525   2.032   3.350  10.890  0.4468 -0.3595  0.3243
   33TMC2    H5  526   1.939   3.319  10.894 -0.3345  2.0582  0.8921
   34MPD2     C  527   1.464   2.776  11.029  1.1628  0.3647  0.2455
   34MPD2    C1  528   1.545   2.711  10.931  0.1516  0.7161 -0.1537
   34MPD2    C2  529   1.637   2.788  10.867 -0.0551 -0.4330  0.5306
   34MPD2    C3  530   1.654   2.921  10.897  0.2503  0.0394 -0.0320
   34MPD2    C4  531   1.588   2.977  11.000 -0.0555  0.4262  0.6119
   34MPD2    C5  532   1.493   2.901  11.065  0.2405 -0.6894  1.2762
   34MPD2     H  533   1.687   2.746  10.780  0.7692  0.0939  0.7509
   34MPD2    H1  534   1.606   3.079  11.032  0.5656  0.2384  0.8741
   34MPD2    H2  535   1.388   2.729  11.090  0.2550  0.9524 -0.4381
   34MPD2    H3  536   1.443   2.947  11.149  0.1853 -0.1173  0.9246
   34MPD2     N  537   1.736   3.006  10.820 -0.5168  0.0699 -0.1672
   34MPD2    H5  538   1.759   3.092  10.868 -0.4517  0.2353 -0.4974
   34MPD2    N1  539   1.536   2.571  10.904 -0.7961  0.3658 -0.4446
   34MPD2    H7  540   1.608   2.547  10.836 -1.4356  1.9319 -1.6674
   35TMC2    C1  541   2.277   3.928  11.546 -0.0510 -0.0276  0.5249
   35TMC2    C2  542   2.163   4.000  11.537 -0.1647  0.4735  0.6248
   35TMC2    C3  543   2.056   3.957  11.609  0.1999  0.1049 -0.1145
   35TMC2    C4  544   2.282   3.812  11.615  0.6444 -0.9530 -0.1102
   35TMC2    C5  545   2.165   3.766  11.681  0.6785 -0.4292  1.2241
   35TMC2    C6  546   2.050   3.838  11.675  0.2036  0.4126  0.0999
   35TMC2     C  547   2.389   3.971  11.475  0.8063  0.1597  0.1759
   35TMC2     O  548   2.368   4.046  11.381  0.0462 -0.7195 -0.2322
   35TMC2     H  549   2.154   4.080  11.463  0.9191 -0.1822 -0.2203
   35TMC2    H1  550   2.366   3.744  11.609  1.5332 -0.1109  2.9111
   35TMC2    H2  551   1.961   3.803  11.724  1.0001  0.7083  1.7445
   35TMC2    C7  552   2.142   3.628  11.719  0.6928 -0.0001 -0.4398
   35TMC2    C8  553   1.940   4.040  11.602  0.5039 -0.0734 -0.2494
   35TMC2    O1  554   2.032   3.576  11.716 -0.5289  0.1120 -0.2864
   35TMC2    O2  555   1.833   3.997  11.635  0.0987  0.5647  0.2502
   35TMC2    O5  556   1.975   4.165  11.628  0.0610 -0.1136  0.4949
   35TMC2    H5  557   2.071   4.181  11.616  0.0774 -0.9750 -0.5719
   36MPD2     C  558   2.904   4.016  11.409 -0.8263 -0.3643 -0.6302
   36MPD2    C1  559   2.874   3.925  11.509 -0.1175 -0.4832 -0.2838
   36MPD2    C2  560   2.749   3.884  11.544 -0.4674 -0.3698  0.2796
   36MPD2    C3  561   2.641   3.947  11.479  0.1748 -0.1258 -0.4372
   36MPD2    C4  562   2.672   4.040  11.381 -0.4017 -0.0681 -0.5763
   36MPD2    C5  563   2.800   4.077  11.348  0.4079  0.0505 -0.4255
   36MPD2     H  564   2.719   3.838  11.637 -0.3614 -0.0799  0.4581
   36MPD2    H1  565   2.596   4.094  11.325  1.4699  0.9558 -2.1451
   36MPD2    H2  566   3.004   4.048  11.385 -0.7006  0.3576  0.8877
   36MPD2    H3  567   2.813   4.153  11.272  3.8976 -0.4500 -0.3657
   36MPD2     N  568   2.513   3.920  11.525 -0.1200 -0.0236  0.5738
   36MPD2    H5  569   2.504   3.868  11.612 -0.5209 -0.8060  0.0650
   36MPD2    N1  570   2.984   3.882  11.587 -0.6245  0.6594  0.2614
   36MPD2    H7  571   3.077   3.918  11.570  0.5457 -1.9887  1.0844
   37TMC2    C1  572   0.475   3.897  11.616 -0.7528 -0.1818 -0.6072
   37TMC2    C2  573   0.363   3.973  11.584  0.3525  0.3284 -0.6225
   37TMC2    C3  574   0.370   4.053  11.469  0.4351 -0.0615  0.0230
   37TMC2    C4  575   0.586   3.903  11.536 -0.3474  0.4920  0.1505
   37TMC2    C5  576   0.593   3.990  11.433  0.2730  0.4452 -0.0291
   37TMC2    C6  577   0.482   4.061  11.395  0.0186  0.3519  0.3202
   37TMC2     C  578   0.464   3.807  11.733 -0.1285  0.2244 -0.8446
   37TMC2     O  579   0.352   3.795  11.780  0.2231  0.6496 -0.2245
   37TMC2     H  580   0.276   3.980  11.648 -0.8490 -2.7310 -1.9367
   37TMC2    H1  581   0.673   3.841  11.552 -0.3002  0.5306  0.0365
   37TMC2    H2  582   0.494   4.120  11.305 -1.2134  0.3977  0.1869
   37TMC2    C7  583   0.721   4.063  11.420  0.6384 -0.5775 -0.8400
   37TMC2    C8  584   0.251   4.122  11.414 -0.2638 -0.6321 -0.1025
   37TMC2    O1  585   0.822   3.994  11.425 -0.3190 -0.1428  0.4264
   37TMC2    O2  586   0.252   4.190  11.313 -0.3929 -0.2123  0.5369
   37TMC2    O5  587   0.135   4.089  11.487 -0.5681 -0.8180  0.1687
   37TMC2    H5  588   0.153   4.028  11.562  2.2225  0.0458  0.2003
   38MPD2     C  589   0.618   3.469  12.089  0.6877 -0.6087  0.9142
   38MPD2    C1  590   0.721   3.556  12.060 -0.8273  0.9004  0.1818
   38MPD2    C2  591   0.708   3.653  11.959 -0.4827  0.7438 -0.2600
   38MPD2    C3  592   0.584   3.664  11.895 -0.0997  0.0754 -0.6441
   38MPD2    C4  593   0.481   3.579  11.929  0.2727  0.2008  0.0750
   38MPD2    C5  594   0.498   3.478  12.022 -0.5710 -0.0675  0.1027
   38MPD2     H  595   0.791   3.719  11.935  1.0095 -1.0534  0.0050
   38MPD2    H1  596   0.392   3.575  11.868 -0.8848  1.5657  1.6822
   38MPD2    H2  597   0.623   3.387  12.160  0.6459 -0.9832  0.4880
   38MPD2    H3  598   0.407   3.420  12.038 -1.3115  0.6132 -1.6224
   38MPD2     N  599   0.580   3.767  11.791  0.4003 -0.6770  0.5894
   38MPD2    H5  600   0.667   3.811  11.766 -0.0827  1.0043  1.8712
   38MPD2    N1  601   0.846   3.555  12.123 -0.0391 -1.0296 -0.7620
   38MPD2    H7  602   0.923   3.610  12.085  0.6648  1.1764  3.7541
   39TMC2    C1  603   2.709   1.444   1.939  0.2492  0.2862  0.0390
   39TMC2    C2  604   2.583   1.477   1.882 -0.4442  0.0385 -0.4079
   39TMC2    C3  605   2.536   1.600   1.921 -0.1198  1.1998  0.1908
   39TMC2    C4  606   2.782   1.519   2.022  0.2195  0.5529  0.2308
   39TMC2    C5  607   2.722   1.640   2.057  0.6171  0.5636 -0.4527
   39TMC2    C6  608   2.601   1.678   2.012 -0.6208 -0.7854 -0.0370
   39TMC2     C  609   2.764   1.310   1.908  0.0017 -0.2961  0.1343
   39TMC2     O  610   2.881   1.302   1.939  0.4847  0.1111 -0.3818
   39TMC2     H  611   2.545   1.427   1.794  1.7214 -1.2888 -0.5962
   39TMC2    H1  612   2.878   1.490   2.064  0.2377  0.4249  0.0985
   39TMC2    H2  613   2.590   1.786   2.018  0.5374 -0.5329 -2.7132
   39TMC2    C7  614   2.802   1.736   2.132 -0.5710  0.5058  0.2792
   39TMC2    C8  615   2.410   1.653   1.868 -0.3829 -0.2601 -0.3661
   39TMC2    O1  616   2.751   1.779   2.229 -0.0365 -0.0189  0.7826
   39TMC2    O2  617   2.366   1.762   1.900 -0.4387  0.3145 -0.3161
   39TMC2    O5  618   2.331   1.554   1.834  0.4723  0.2816  0.1316
   39TMC2    H5  619   2.372   1.468   1.856  0.0392  0.2834  0.9343
   40MPD2     C  620   2.603   1.040   1.733  0.1822  0.5787 -0.7772
   40MPD2    C1  621   2.705   1.114   1.775  0.3878  0.5280 -0.2076
   40MPD2    C2  622   2.832   1.064   1.747  0.1085 -0.3546  0.4617
   40MPD2    C3  623   2.853   0.940   1.689  0.8237 -0.3402 -0.3070
   40MPD2    C4  624   2.742   0.867   1.650 -0.4118 -0.2235 -0.7067
   40MPD2    C5  625   2.618   0.910   1.685  0.2275 -0.0008 -0.7587
   40MPD2     H  626   2.920   1.120   1.776  0.1286 -0.0991 -0.0911
   40MPD2    H1  627   2.744   0.762   1.624  1.2177 -0.7449  1.5580
   40MPD2    H2  628   2.503   1.074   1.754 -0.2324 -1.3205  0.3517
   40MPD2    H3  629   2.531   0.849   1.666  0.7605 -0.3221 -2.1206
   40MPD2     N  630   2.974   0.885   1.651 -0.1766 -0.3112  0.3263
   40MPD2    H5  631   2.965   0.817   1.576  0.7139 -1.5954  1.3836
   40MPD2    N1  632   2.677   1.236   1.829 -0.0967  0.3886 -0.0801
   40MPD2    H7  633   2.583   1.274   1.833  0.0616  0.7104  0.6150
   41TMC2    C1  634   2.704   3.902  13.395 -0.9651 -0.6944 -0.4056
   41TMC2    C2  635   2.586   3.972  13.391  0.1124 -0.0804 -0.0894
   41TMC2    C3  636   2.548   4.010  13.260  0.2578 -0.2122 -1.1600
   41TMC2    C4  637   2.798   3.908  13.297 -0.1560  0.0071  0.7047
   41TMC2    C5  638   2.760   3.949  13.173  0.6900 -0.1535  0.2266
   41TMC2    C6  639   2.639   4.007  13.156  0.1538  0.5816  0.2253
   41TMC2     C  640   2.730   3.821  13.515 -0.1821  0.0193  0.6426
   41TMC2     O  641   2.770   3.713  13.488  0.0690  0.1279 -0.2737
   41TMC2     H  642   2.514   3.963  13.471  0.6163 -0.6559  0.3021
   41TMC2    H1  643   2.889   3.851  13.300  0.3840  0.8949  1.1061
   41TMC2    H2  644   2.606   4.056  13.064 -0.5873  1.3574  0.8997
   41TMC2    C7  645   2.871   3.983  13.090  0.5404 -0.3280  0.2929
   41TMC2    C8  646   2.417   4.065  13.249  0.1256 -0.2922  0.7431
   41TMC2    O1  647   2.967   4.026  13.153 -0.3796 -0.1125  0.0094
   41TMC2    O2  648   2.388   4.147  13.164  0.0725  0.2145 -0.8347
   41TMC2    O5  649   2.324   4.001  13.324  1.1188  0.9264  0.5072
   41TMC2    H5  650   2.359   3.911  13.339 -0.4562 -0.1062 -2.1764
   42MPD2     C  651   2.774   3.712  13.783  0.3289  0.4463 -0.2133
   42MPD2    C1  652   2.724   3.841  13.758  0.5424  0.4450 -0.1909
   42MPD2    C2  653   2.701   3.922  13.863  0.8798 -0.1546 -0.2167
   42MPD2    C3  654   2.721   3.885  13.999  0.2708  0.3558 -0.1125
   42MPD2    C4  655   2.772   3.764  14.023  0.3173  0.7344 -0.2674
   42MPD2    C5  656   2.790   3.681  13.913 -0.2623  0.1012 -0.4199
   42MPD2     H  657   2.660   4.017  13.830 -1.8420 -1.0591  0.5662
   42MPD2    H1  658   2.803   3.724  14.119 -0.9677 -0.5724 -0.3866
   42MPD2    H2  659   2.795   3.643  13.702  3.0798  1.4450 -0.3465
   42MPD2    H3  660   2.836   3.585  13.936 -0.0686  0.5774  1.1609
   42MPD2     N  661   2.690   3.960  14.114  0.2321  0.1517 -0.1969
   42MPD2    H5  662   2.718   3.915  14.201 -1.2566  0.2178  0.3167
   42MPD2    N1  663   2.697   3.896  13.627 -0.2988 -0.0398  0.4950
   42MPD2    H7  664   2.665   3.991  13.615 -2.0457 -0.5464  1.2658
   43TMC2    C1  665   3.546   2.684   0.906 -0.2799  0.0866  0.8543
   43TMC2    C2  666   3.434   2.655   0.972 -0.6553  0.3182  0.1978
   43TMC2    C3  667   3.412   2.713   1.092  0.9701  1.0409 -1.0128
   43TMC2    C4  668   3.634   2.773   0.961  0.1441 -0.1408  0.2946
   43TMC2    C5  669   3.611   2.833   1.080  0.0659 -0.2821 -0.3040
   43TMC2    C6  670   3.499   2.800   1.150  0.4193  0.0585  0.1224
   43TMC2     C  671   3.597   2.604   0.799  0.0731 -0.5118 -0.7381
   43TMC2     O  672   3.717   2.621   0.779 -0.0786  0.0390  0.5706
   43TMC2     H  673   3.357   2.584   0.945  2.3665 -2.4093 -1.2694
   43TMC2    H1  674   3.721   2.801   0.902 -0.0201 -1.4497 -0.5727
   43TMC2    H2  675   3.479   2.861   1.238  1.3968  0.0449  0.3579
   43TMC2    C7  676   3.725   2.882   1.147 -0.5048  0.2630 -0.6550
   43TMC2    C8  677   3.310   2.656   1.167  0.5460 -0.2224 -0.0781
   43TMC2    O1  678   3.791   2.966   1.092 -0.2712  0.1559  0.4499
   43TMC2    O2  679   3.211   2.615   1.106  0.2529 -0.2964  0.3707
   43TMC2    O5  680   3.369   2.591   1.271 -0.0663 -0.3483 -0.1924
   43TMC2    H5  681   3.466   2.596   1.277  0.0296 -1.2298 -1.1102
   44MPD2     C  682   3.597   2.256   0.437 -0.4821  0.0886 -0.6156
   44MPD2    C1  683   3.706   2.316   0.497 -0.2579  0.0055  0.1811
   44MPD2    C2  684   3.670   2.403   0.594 -0.3793  0.3862 -0.1932
   44MPD2    C3  685   3.544   2.418   0.646  0.2788 -0.4238 -0.4498
   44MPD2    C4  686   3.443   2.350   0.593 -0.1609  0.1073 -0.2190
   44MPD2    C5  687   3.469   2.261   0.488 -0.2722  0.6112  0.0557
   44MPD2     H  688   3.753   2.466   0.626 -0.2690  0.2587 -0.2304
   44MPD2    H1  689   3.343   2.343   0.633  0.1231 -0.5784  0.3934
   44MPD2    H2  690   3.607   2.184   0.357 -2.0689  2.7585 -3.1906
   44MPD2    H3  691   3.390   2.194   0.457 -0.3348  0.5315  0.3893
   44MPD2     N  692   3.511   2.510   0.749  0.0568  0.0386  0.4336
   44MPD2    H5  693   3.415   2.514   0.780  0.3820 -2.0755  1.7180
   44MPD2    N1  694   3.845   2.306   0.466  0.4141 -0.1061  0.7461
   44MPD2    H7  695   3.895   2.357   0.538  0.8910  0.0244  0.3193
   45TMC2    C1  696   3.845   4.615   9.727 -0.5854 -0.3765  0.1764
   45TMC2    C2  697   3.712   4.627   9.767 -0.1693 -0.0578 -0.3373
   45TMC2    C3  698   3.688   0.004   9.842  0.0885 -0.4963 -0.2459
   45TMC2    C4  699   3.945   4.708   9.755 -0.0976 -0.1842  1.1926
   45TMC2    C5  700   3.909   0.071   9.837 -0.5316 -0.3574  0.1612
   45TMC2    C6  701   3.783   0.098   9.876  0.2745  0.0704 -0.6764
   45TMC2     C  702   3.890   4.503   9.651  0.1845 -0.0845 -0.0711
   45TMC2     O  703   3.997   4.516   9.589 -0.2168 -0.7029  0.0804
   45TMC2     H  704   3.629   4.561   9.745 -1.0570  1.0528 -0.2875
   45TMC2    H1  705   4.048   4.690   9.727  0.0028 -1.8870  2.6377
   45TMC2    H2  706   3.755   0.170   9.952  0.2860  0.3546 -0.9406
   45TMC2    C7  707   4.007   0.175   9.854  0.1595 -0.5152 -0.2772
   45TMC2    C8  708   3.574   0.006   9.922 -0.3112 -0.0359  0.3795
   45TMC2    O1  709   4.122   0.134   9.866  0.5268  0.0828 -0.2991
   45TMC2    O2  710   3.499   4.646   9.936 -0.4259 -0.5610 -0.3064
   45TMC2    O5  711   3.523   0.132   9.886 -0.0442 -0.4913  0.0749
   45TMC2    H5  712   3.592   0.185   9.840 -0.6265  0.9165  0.8290
   46MPD2     C  713   3.917   4.242   9.491  0.2561  0.2239  0.0449
   46MPD2    C1  714   3.846   4.263   9.611  0.5867 -0.3485  0.1369
   46MPD2    C2  715   3.788   4.154   9.665 -0.0661  0.1445  0.0736
   46MPD2    C3  716   3.785   4.030   9.603 -0.6144 -0.3549 -0.0647
   46MPD2    C4  717   3.844   4.011   9.481 -1.0162 -0.2361 -0.6907
   46MPD2    C5  718   3.914   4.114   9.429  0.4985 -0.6464 -0.3456
   46MPD2     H  719   3.724   4.163   9.753  0.3450  1.1701  0.2724
   46MPD2    H1  720   3.850   3.918   9.427  0.3120 -1.0749  0.8932
   46MPD2    H2  721   3.967   4.317   9.430 -0.7361  1.5034  0.8050
   46MPD2    H3  722   3.946   4.105   9.326  2.1482 -0.6463  0.1619
   46MPD2     N  723   3.716   3.921   9.674  0.4749 -0.1193  1.1727
   46MPD2    H5  724   3.684   3.942   9.768  1.2532  0.4743  1.3067
   46MPD2    N1  725   3.826   4.387   9.676  0.2529  0.2020  0.3441
   46MPD2    H7  726   3.761   4.393   9.754  0.7657  1.6872  0.6616
   47TMC2    C1  727   1.284   0.703   9.740  0.1375  0.9692  0.0527
   47TMC2    C2  728   1.173   0.751   9.682 -0.1689 -0.5257 -0.2801
   47TMC2    C3  729   1.053   0.708   9.727  0.2652 -1.0751 -0.5921
   47TMC2    C4  730   1.277   0.614   9.846  0.9251 -0.0389  0.0739
   47TMC2    C5  731   1.148   0.587   9.892 -0.1108  0.1949 -0.1416
   47TMC2    C6  732   1.036   0.636   9.838  0.2362 -0.0673 -0.1550
   47TMC2     C  733   1.416   0.736   9.689 -0.3504  0.1851 -0.6461
   47TMC2     O  734   1.435   0.845   9.633  0.3250  0.8210 -0.2655
   47TMC2     H  735   1.174   0.802   9.587 -0.6681  1.8992  1.0398
   47TMC2    H1  736   1.361   0.559   9.887  0.0713 -0.9353  0.6115
   47TMC2    H2  737   0.934   0.624   9.873  0.9829 -0.3819  1.8873
   47TMC2    C7  738   1.128   0.493   9.996  0.4257  0.5437  0.4891
   47TMC2    C8  739   0.934   0.736   9.647 -0.0269  0.1340 -0.5625
   47TMC2    O1  740   1.018   0.440   9.991 -0.4319 -0.2566 -0.0865
   47TMC2    O2  741   0.828   0.686   9.676  0.8089  0.3207  0.6505
   47TMC2    O5  742   0.961   0.840   9.563  0.2273 -0.7246 -0.5123
   47TMC2    H5  743   1.052   0.878   9.560  0.0077  0.0280  2.0634
   48MPD2     C  744   1.721   0.746   9.663 -0.3928  0.3470  0.6500
   48MPD2    C1  745   1.644   0.640   9.693  0.4730  0.5067  0.3375
   48MPD2    C2  746   1.696   0.513   9.673  0.5121 -0.0359 -0.4868
   48MPD2    C3  747   1.833   0.489   9.647  0.1123 -0.4256 -0.5077
   48MPD2    C4  748   1.916   0.598   9.628  0.0960  0.2182  0.0380
   48MPD2    C5  749   1.857   0.721   9.630 -0.0643  0.3509 -0.1601
   48MPD2     H  750   1.636   0.428   9.703  1.1856  0.1531  1.4394
   48MPD2    H1  751   2.023   0.593   9.614  0.0289 -1.8819  0.2347
   48MPD2    H2  752   1.687   0.849   9.663  0.6451  0.6942 -0.5262
   48MPD2    H3  753   1.918   0.808   9.611  1.2314 -0.3967  0.5971
   48MPD2     N  754   1.872   0.355   9.621  1.2614  0.1671  0.2323
   48MPD2    H5  755   1.797   0.290   9.642  1.6149 -0.9903 -2.0401
   48MPD2    N1  756   1.507   0.636   9.713 -0.3066 -0.0137 -0.3415
   48MPD2    H7  757   1.462   0.546   9.731 -0.2484 -0.3266 -1.7826
   49TMC2    C1  758   0.513   2.212  10.248  0.1520 -0.6531 -0.3627
   49TMC2    C2  759   0.470   2.274  10.136 -0.4340  0.0536  0.1028
   49TMC2    C3  760   0.397   2.194  10.047 -0.4575  0.0029 -0.3791
   49TMC2    C4  761   0.466   2.082  10.284 -0.1189 -0.5081  0.0391
   49TMC2    C5  762   0.393   2.019  10.190 -0.2065  0.1482 -0.0326
   49TMC2    C6  763   0.357   2.069  10.070  0.5738 -0.0316  0.4737
   49TMC2     C  764   0.585   2.296  10.346 -0.4317  0.8351 -0.1110
   49TMC2     O  765   0.653   2.389  10.302  0.0998  0.2090 -0.5813
   49TMC2     H  766   0.504   2.374  10.111 -1.2880  0.0812 -0.9433
   49TMC2    H1  767   0.502   2.035  10.375 -1.6288 -1.6290  0.0475
   49TMC2    H2  768   0.315   2.004   9.994 -0.0377  0.2969  0.5261
   49TMC2    C7  769   0.348   1.888  10.222 -0.3922  0.0131  0.4383
   49TMC2    C8  770   0.358   2.265   9.929  0.0983  0.4694 -0.1777
   49TMC2    O1  771   0.298   1.822  10.129  0.2308  0.3702  0.4196
   49TMC2    O2  772   0.431   2.344   9.873 -0.7339  0.1212 -0.2452
   49TMC2    O5  773   0.246   2.214   9.872  0.5413 -0.0157 -0.7531
   49TMC2    H5  774   0.203   2.150   9.932 -1.5105  1.2291 -0.9029
   50MPD2     C  775   0.656   2.442  10.601 -0.2828  0.6560 -0.1155
   50MPD2    C1  776   0.559   2.345  10.594  0.6674  0.3695  0.9950
   50MPD2    C2  777   0.467   2.337  10.695 -0.2466 -0.0918  0.5031
   50MPD2    C3  778   0.462   2.435  10.792 -0.0178 -1.5330 -0.0543
   50MPD2    C4  779   0.559   2.533  10.791 -1.2473  0.0406  0.4198
   50MPD2    C5  780   0.657   2.538  10.700 -0.2229 -0.2907  0.5371
   50MPD2     H  781   0.398   2.253  10.692 -1.8568  1.2928 -1.5957
   50MPD2    H1  782   0.547   2.612  10.864 -0.7461 -0.3954  0.9761
   50MPD2    H2  783   0.727   2.457  10.520  1.5320 -3.1527  0.7671
   50MPD2    H3  784   0.732   2.616  10.693 -0.6352 -0.0135 -0.8984
   50MPD2     N  785   0.353   2.461  10.877  0.6890 -0.5867  0.1434
   50MPD2    H5  786   0.346   2.545  10.933  2.2674  0.7618 -1.6947
   50MPD2    N1  787   0.534   2.277  10.472 -0.2224 -0.1545  0.1339
   50MPD2    H7  788   0.460   2.208  10.481 -0.7920  0.3281 -0.8406
   51TMC2    C1  789   1.643   0.251   2.368 -0.1456 -0.0901  0.1864
   51TMC2    C2  790   1.521   0.248   2.422 -0.3430  0.0073  0.7697
   51TMC2    C3  791   1.462   0.358   2.476 -0.4086 -0.0117 -0.2834
   51TMC2    C4  792   1.709   0.367   2.357 -0.4430 -0.3734 -0.1360
   51TMC2    C5  793   1.641   0.485   2.394 -0.0959  0.5782 -0.0285
   51TMC2    C6  794   1.519   0.482   2.454  0.8578  0.4683  0.3580
   51TMC2     C  795   1.695   0.144   2.291  0.7290  0.0203  0.1736
   51TMC2     O  796   1.785   0.173   2.212 -0.6071 -0.7201  0.3126
   51TMC2     H  797   1.452   0.166   2.427 -1.3426  0.9588  2.4100
   51TMC2    H1  798   1.812   0.371   2.324 -0.4624  1.2085  0.0101
   51TMC2    H2  799   1.476   0.572   2.496 -1.3961  0.0652 -1.1096
   51TMC2    C7  800   1.697   0.614   2.337 -0.9935 -0.2054 -0.0213
   51TMC2    C8  801   1.334   0.351   2.548  0.1460 -0.0967  0.6625
   51TMC2    O1  802   1.816   0.608   2.304  0.0350 -0.2636  0.3258
   51TMC2    O2  803   1.258   0.442   2.575 -0.2299  0.7740 -0.1398
   51TMC2    O5  804   1.323   0.224   2.595 -0.7353  0.2420  0.6340
   51TMC2    H5  805   1.398   0.162   2.601  0.1019  1.0875 -1.1110
   52MPD2     C  806   1.761   4.390   2.208  0.4879  0.3705 -0.1508
   52MPD2    C1  807   1.761   4.492   2.117 -0.2134 -0.0183 -0.4799
   52MPD2    C2  808   1.723   4.615   2.157 -0.5644 -0.1445 -0.3498
   52MPD2    C3  809   1.681   4.634   2.284 -0.8324  0.4543 -0.0081
   52MPD2    C4  810   1.669   4.529   2.374 -0.1747  0.4288 -0.1345
   52MPD2    C5  811   1.711   4.406   2.334  0.0502  0.2347 -0.2236
   52MPD2     H  812   1.725   4.705   2.096 -1.5108 -1.3466 -2.1364
   52MPD2    H1  813   1.639   4.540   2.478  0.2025 -1.0169  0.1309
   52MPD2    H2  814   1.794   4.292   2.175 -0.1394 -0.6126  2.0938
   52MPD2    H3  815   1.704   4.317   2.396 -0.0852  0.2958 -0.1507
   52MPD2     N  816   1.649   0.027   2.339 -0.6333  0.1054  0.2702
   52MPD2    H5  817   1.602   0.027   2.428  1.3296 -0.4969  1.2978
   52MPD2    N1  818   1.789   4.469   1.985  0.6176 -0.6990 -0.3995
   52MPD2    H7  819   1.778   4.546   1.919 -0.4347 -0.0999  0.4901
   53TMC2    C1  820   1.320   4.285  11.743  0.8934  0.6490  0.6810
   53TMC2    C2  821   1.456   4.302  11.755  0.4742  0.3226  0.7102
   53TMC2    C3  822   1.513   4.219  11.850 -0.4685 -0.2274  0.0927
   53TMC2    C4  823   1.243   4.204  11.833 -0.0310 -0.7321  0.4754
   53TMC2    C5  824   1.308   4.142  11.933 -0.5076  0.3187  0.3291
   53TMC2    C6  825   1.440   4.158  11.947 -0.7957  0.1411  0.1078
   53TMC2     C  826   1.239   4.372  11.658 -0.0343 -0.6051 -0.5168
   53TMC2     O  827   1.267   4.492  11.657  0.2325  0.6261 -0.1004
   53TMC2     H  828   1.507   4.371  11.688  1.7214 -0.6425  0.6735
   53TMC2    H1  829   1.135   4.212  11.836 -0.1169 -1.2268 -1.1855
   53TMC2    H2  830   1.502   4.109  12.022  0.7442  0.0525 -1.2076
   53TMC2    C7  831   1.224   4.094  12.035 -0.1683  0.0457 -0.2218
   53TMC2    C8  832   1.657   4.191  11.851  0.0044 -0.4023  0.4372
   53TMC2    O1  833   1.115   4.065  11.988  0.9105 -0.1435 -0.0931
   53TMC2    O2  834   1.722   4.175  11.956  0.3289 -0.1474 -0.1747
   53TMC2    O5  835   1.700   4.230  11.729 -0.4115 -0.5046 -0.4700
   53TMC2    H5  836   1.633   4.206  11.662  2.3711 -1.8897 -2.7493
   54MPD2     C  837   1.015   4.480  11.499 -0.4255 -0.5391 -0.2320
   54MPD2    C1  838   1.029   4.345  11.530 -0.5189  0.2800  0.1004
   54MPD2    C2  839   0.934   4.252  11.503 -0.0501 -0.0173  0.5735
   54MPD2    C3  840   0.815   4.287  11.438 -0.2517  0.1473  0.0266
   54MPD2    C4  841   0.801   4.419  11.399 -0.4315 -0.2232  0.5593
   54MPD2    C5  842   0.899   4.508  11.434 -0.3060  0.1767 -0.5745
   54MPD2     H  843   0.948   4.151  11.537 -1.5607  0.1267  1.6204
   54MPD2    H1  844   0.719   4.457  11.340  1.2412  1.7300 -0.4922
   54MPD2    H2  845   1.091   4.553  11.523 -0.0128 -1.0539  0.0270
   54MPD2    H3  846   0.898   4.607  11.388 -1.9518 -0.8598 -2.7601
   54MPD2     N  847   0.705   4.202  11.412  0.3877  0.3038  0.4005
   54MPD2    H5  848   0.611   4.232  11.390  0.6799  0.1788 -1.0021
   54MPD2    N1  849   1.140   4.294  11.598  0.2114  0.0920  0.1386
   54MPD2    H7  850   1.121   4.197  11.621 -0.0078 -0.0190 -0.5303
   55TMC2    C1  851   1.728   2.606   0.225 -0.1193  0.1041  0.2675
   55TMC2    C2  852   1.753   2.639   0.088 -0.8678  0.1942 -0.8414
   55TMC2    C3  853   1.759   2.538  17.738  1.5911  0.1000  0.0535
   55TMC2    C4  854   1.711   2.476   0.269 -0.4933 -0.0513 -0.0896
   55TMC2    C5  855   1.705   2.375   0.173 -0.2608 -0.5323 -0.7159
   55TMC2    C6  856   1.733   2.409   0.044  0.0477 -1.0304 -0.2029
   55TMC2     C  857   1.676   2.710   0.315  0.7588 -0.0068 -0.1314
   55TMC2     O  858   1.705   2.690   0.434  0.6814 -0.3066  0.0760
   55TMC2     H  859   1.761   2.742   0.057  0.3009 -0.1593 -1.7266
   55TMC2    H1  860   1.699   2.465   0.376  0.4436 -3.0210 -0.2981
   55TMC2    H2  861   1.735   2.323  17.721  2.4256 -0.0288 -1.4559
   55TMC2    C7  862   1.704   2.228   0.213  0.2565 -0.7000  0.9005
   55TMC2    C8  863   1.780   2.571  17.600  0.4621  0.4137  0.1179
   55TMC2    O1  864   1.693   2.143   0.122 -0.1159 -0.2848 -0.0967
   55TMC2    O2  865   1.732   2.671  17.549 -0.1578 -0.0201 -0.1879
   55TMC2    O5  866   1.819   2.456  17.541  0.6547  0.1567 -0.3261
   55TMC2    H5  867   1.879   2.407  17.601  0.6969  1.4403  0.6945
   56MPD2     C  868   1.527   3.039   0.222  0.3770  0.0969 -0.1966
   56MPD2    C1  869   1.563   2.928   0.304 -0.8363  0.2447 -0.1593
   56MPD2    C2  870   1.526   2.934   0.439  0.2346 -0.1403 -1.2929
   56MPD2    C3  871   1.447   3.039   0.487 -0.2203 -0.1915  0.2024
   56MPD2    C4  872   1.396   3.127   0.397  0.3426  0.0591  0.2537
   56MPD2    C5  873   1.440   3.139   0.268  0.7855 -0.4645 -0.3590
   56MPD2     H  874   1.578   2.861   0.502  1.2746 -0.0509 -2.0523
   56MPD2    H1  875   1.333   3.211   0.425  1.5348  1.8786 -2.4759
   56MPD2    H2  876   1.553   3.038   0.117 -0.7603  1.0532 -0.4844
   56MPD2    H3  877   1.397   3.215   0.205  2.9210  1.0611  0.0431
   56MPD2     N  878   1.385   3.030   0.616  0.4826  0.0774 -0.3275
   56MPD2    H5  879   1.407   2.947   0.669 -0.9934  0.6357  1.1783
   56MPD2    N1  880   1.639   2.819   0.253  0.1038 -0.0990 -0.4799
   56MPD2    H7  881   1.637   2.818   0.152  0.9855 -1.1519 -0.4802
   57TMC2    C1  882   1.796   3.052  14.095  0.3067 -0.4599  0.4890
   57TMC2    C2  883   1.848   3.006  14.210  0.7112 -0.3931  0.3775
   57TMC2    C3  884   1.953   2.912  14.198 -0.6815 -0.0895 -0.2665
   57TMC2    C4  885   1.828   3.008  13.971 -0.3234  0.3957 -0.1501
   57TMC2    C5  886   1.923   2.908  13.968  0.2936  0.4126 -0.1461
   57TMC2    C6  887   1.984   2.858  14.076 -0.5961  0.1558 -0.1405
   57TMC2     C  888   1.654   3.077  14.100 -0.2338  0.0883 -0.2133
   57TMC2     O  889   1.612   3.164  14.023  0.0859  0.0922 -0.6790
   57TMC2     H  890   1.816   3.049  14.305  0.5305  1.6699 -0.6066
   57TMC2    H1  891   1.774   3.039  13.882 -0.6323 -0.6409 -0.3234
   57TMC2    H2  892   2.063   2.784  14.069  0.9515  1.8076  0.0524
   57TMC2    C7  893   1.969   2.853  13.836 -0.7327  0.3611  0.4049
   57TMC2    C8  894   2.016   2.843  14.309 -0.5461 -0.1353  0.5220
   57TMC2    O1  895   2.020   2.935  13.765 -0.0478 -0.0215 -0.0570
   57TMC2    O2  896   2.053   2.725  14.304  0.6575 -0.1610  0.2855
   57TMC2    O5  897   1.979   2.907  14.425  0.5243  0.0569 -0.1105
   57TMC2    H5  898   1.970   3.002  14.404  1.4775 -0.2782 -2.0765
   58MPD2     C  899   1.186   2.967  14.279  0.3465 -0.5681 -0.0970
   58MPD2    C1  900   1.222   3.057  14.183 -0.8695  0.2556 -0.0188
   58MPD2    C2  901   1.357   3.073  14.153  0.5932 -0.1200 -0.4867
   58MPD2    C3  902   1.454   2.994  14.219  0.7045  0.1381 -0.1198
   58MPD2    C4  903   1.417   2.907  14.314  0.3409 -0.0979  0.5496
   58MPD2    C5  904   1.283   2.886  14.337  0.5356 -0.8881 -0.0628
   58MPD2     H  905   1.384   3.148  14.079  0.1646 -0.9539 -1.4963
   58MPD2    H1  906   1.488   2.852  14.374 -0.2168  0.5164  1.7561
   58MPD2    H2  907   1.084   2.950  14.312  0.1218  2.3870  0.7422
   58MPD2    H3  908   1.255   2.817  14.415 -1.7592  0.1932  0.0759
   58MPD2     N  909   1.595   3.007  14.202  0.0716  0.4418 -0.3385
   58MPD2    H5  910   1.647   2.945  14.262  1.0065  1.3716 -0.1853
   58MPD2    N1  911   1.128   3.140  14.117 -0.4038 -0.2465  1.0975
   58MPD2    H7  912   1.169   3.221  14.072 -0.7503 -0.7652 -0.1626
   59TMC2    C1  913   3.338   3.178  12.808  0.0252  0.0382 -0.6753
   59TMC2    C2  914   3.290   3.070  12.883  0.1703  0.6801  0.3499
   59TMC2    C3  915   3.216   2.982  12.816 -0.1831  0.6490  0.6217
   59TMC2    C4  916   3.307   3.195  12.677  0.3115 -0.3958 -0.4629
   59TMC2    C5  917   3.231   3.103  12.620  0.2451 -0.3058  0.6114
   59TMC2    C6  918   3.187   2.997  12.684 -0.2195 -0.3550 -0.5642
   59TMC2     C  919   3.409   3.290  12.872  0.5198 -0.6225 -0.7962
   59TMC2     O  920   3.462   3.368  12.793  0.1059  0.2835 -0.0775
   59TMC2     H  921   3.326   3.049  12.982  1.2770  0.8034 -0.0263
   59TMC2    H1  922   3.330   3.292  12.636 -3.1139  1.0457  1.0574
   59TMC2    H2  923   3.145   2.913  12.630 -0.9883 -0.1834 -0.2238
   59TMC2    C7  924   3.198   3.116  12.478  0.8097  0.2624 -0.9702
   59TMC2    C8  925   3.177   2.856  12.863 -0.0527 -0.6137  0.8515
   59TMC2    O1  926   3.145   3.017  12.428 -0.1752  0.4127  0.5891
   59TMC2    O2  927   3.192   2.758  12.794  0.8014  0.2048 -0.3209
   59TMC2    O5  928   3.202   2.854  12.997 -0.2213 -0.2882 -0.1448
   59TMC2    H5  929   3.190   2.946  13.030  1.2665 -0.9069  2.0777
   60MPD2     C  930   3.470   3.534  13.041  0.6588 -0.0243 -0.2816
   60MPD2    C1  931   3.461   3.402  13.087 -0.1841 -0.0102 -0.4311
   60MPD2    C2  932   3.499   3.371  13.220 -0.0661  0.2686  0.1391
   60MPD2    C3  933   3.538   3.465  13.310  0.1775 -0.8045 -0.3835
   60MPD2    C4  934   3.544   3.594  13.264  0.3779 -0.0434  0.5663
   60MPD2    C5  935   3.510   3.629  13.133  1.1343  0.4192  0.7994
   60MPD2     H  936   3.488   3.266  13.248 -1.7321  0.4205  0.0609
   60MPD2    H1  937   3.571   3.677  13.328 -1.4159  1.4690 -0.6620
   60MPD2    H2  938   3.443   3.565  12.941 -2.8385 -0.4482  0.5212
   60MPD2    H3  939   3.509   3.734  13.106  1.4335  0.1826 -0.1221
   60MPD2     N  940   3.588   3.429  13.440  0.0284 -0.2378  0.0013
   60MPD2    H5  941   3.597   3.329  13.453 -0.2273 -0.1518  0.8201
   60MPD2    N1  942   3.417   3.293  13.010  0.8153  0.3449  0.1679
   60MPD2    H7  943   3.381   3.215  13.064 -1.9270  0.1108 -1.9945
   61TMC2    C1  944   2.661   4.644  16.071  0.1946  0.3110  0.7373
   61TMC2    C2  945   2.713   4.628  16.193 -0.4541  0.0604  0.2893
   61TMC2    C3  946   2.725   4.732  16.276  0.2166  0.7601 -0.2793
   61TMC2    C4  947   2.628   0.034  16.022  0.1372 -0.1168 -0.3753
   61TMC2    C5  948   2.630   0.140  16.116 -0.1628  0.1443  0.6883
   61TMC2    C6  949   2.683   0.121  16.247 -0.7716 -0.5458  0.3200
   61TMC2     C  950   2.690   4.540  15.980  0.4596  0.2746 -0.4705
   61TMC2     O  951   2.681   4.427  16.022 -0.1038 -0.2071  0.4483
   61TMC2     H  952   2.732   4.527  16.227  3.4552  0.6533 -0.1043
   61TMC2    H1  953   2.566   0.052  15.935 -0.3975 -2.2183 -0.4286
   61TMC2    H2  954   2.703   0.204  16.313  0.6061 -0.7139  0.1099
   61TMC2    C7  955   2.603   0.273  16.067  0.0877 -1.6992 -0.8282
   61TMC2    C8  956   2.803   4.717  16.402  0.4187  0.3680 -1.4209
   61TMC2    O1  957   2.591   0.289  15.946 -0.4937 -0.1664 -0.7246
   61TMC2    O2  958   2.797   0.076  16.481  0.4391  0.0242 -0.1288
   61TMC2    O5  959   2.902   4.623  16.403  0.4396  0.7391 -0.1941
   61TMC2    H5  960   2.912   4.584  16.314  2.5314 -1.1938  0.8722
   62MPD2     C  961   2.746   4.367  15.752 -0.1183 -0.2733 -0.4432
   62MPD2    C1  962   2.775   4.508  15.755  0.3671  0.3088  0.0033
   62MPD2    C2  963   2.838   4.562  15.646 -0.0638 -1.0262  0.4357
   62MPD2    C3  964   2.900   4.487  15.550 -0.5309  0.3154 -0.2576
   62MPD2    C4  965   2.876   4.351  15.553  0.4767  0.4282 -0.7770
   62MPD2    C5  966   2.796   4.293  15.652  0.9831 -0.0485 -0.5930
   62MPD2     H  967   2.844   4.669  15.659  0.6765 -1.2323  1.7591
   62MPD2    H1  968   2.921   4.281  15.484  1.2581 -0.0717  0.2355
   62MPD2    H2  969   2.701   4.312  15.834  2.9312 -0.9276  0.7977
   62MPD2    H3  970   2.781   4.186  15.660  0.4573  0.0116 -0.7641
   62MPD2     N  971   2.986   4.543  15.444 -0.5556 -0.0555  0.8862
   62MPD2    H5  972   2.999   4.472  15.373 -1.5610  0.3165  0.3300
   62MPD2    N1  973   2.730   4.589  15.864 -0.3484 -0.2546  0.9270
   62MPD2    H7  974   2.743   4.689  15.852  1.1767 -0.4079  1.3732
   63TMC2    C1  975   2.284   4.581  11.429  0.6535 -0.1340 -0.4884
   63TMC2    C2  976   2.358   4.570  11.544  0.0194  0.9918 -0.5504
   63TMC2    C3  977   2.482   4.628  11.549  0.9894 -0.8014  0.0149
   63TMC2    C4  978   2.334   4.639  11.311 -0.1792 -0.1939 -0.9518
   63TMC2    C5  979   2.468   4.683  11.322  0.7561 -0.4811  0.0446
   63TMC2    C6  980   2.541   4.681  11.437  0.4583  0.0408 -0.4153
   63TMC2     C  981   2.149   4.525  11.428  0.1531  0.2249 -0.8080
   63TMC2     O  982   2.087   4.530  11.534  0.4323  0.5095 -0.0838
   63TMC2     H  983   2.322   4.514  11.630  0.3907 -0.1723 -1.1477
   63TMC2    H1  984   2.264   4.639  11.228  1.3216  2.4175 -2.2088
   63TMC2    H2  985   2.645   4.715  11.440  0.2711  0.5462  0.3146
   63TMC2    C7  986   2.539   0.000  11.208  0.2132 -0.8159 -0.1713
   63TMC2    C8  987   2.576   4.619  11.659 -0.7332  0.9783 -0.2838
   63TMC2    O1  988   2.643   0.065  11.223 -0.2166  0.2108 -0.0831
   63TMC2    O2  989   2.629   4.512  11.685 -0.2401  0.7394  0.0978
   63TMC2    O5  990   2.635   0.009  11.665  0.4833  0.4065 -0.3331
   63TMC2    H5  991   2.572   0.080  11.639  1.3727  0.7964 -1.4267
   64MPD2     C  992   1.787   4.232  11.214 -0.9005  0.2135  0.3294
   64MPD2    C1  993   1.901   4.233  11.129 -0.1499 -0.3059  0.6508
   64MPD2    C2  994   2.010   4.297  11.178 -0.3676 -0.0491  0.1230
   64MPD2    C3  995   2.013   4.370  11.296  0.1508  0.2351  0.0591
   64MPD2    C4  996   1.914   4.356  11.388  0.3651 -0.6209 -0.4074
   64MPD2    C5  997   1.798   4.282  11.343 -0.0504 -0.5015  0.4429
   64MPD2     H  998   2.097   4.316  11.117 -0.9173  1.0238 -0.3330
   64MPD2    H1  999   1.919   4.406  11.484  1.5515  0.7134 -1.1705
   64MPD2    H2 1000   1.692   4.190  11.184 -1.0193  0.2600  0.6514
   64MPD2    H3 1001   1.720   4.261  11.417 -2.9790  1.6356 -2.0628
   64MPD2     N 1002   2.132   4.446  11.321  0.1102 -0.4792 -0.4402
   64MPD2    H5 1003   2.201   4.447  11.246 -0.9591 -0.5916 -1.4225
   64MPD2    N1 1004   1.903   4.180  11.000 -0.2856 -0.1817  0.9103
   64MPD2    H7 1005   1.987   4.183  10.944 -1.4840  1.2323 -0.7899
   65TMC2    C1 1006   3.961   4.170  15.626 -0.0972  0.0863 -0.1465
   65TMC2    C2 1007   4.012   4.181  15.498  0.3997  0.4533  0.4709
   65TMC2    C3 1008   4.053   4.307  15.455 -0.2719 -0.5473 -0.4893
   65TMC2    C4 1009   3.928   4.284  15.699  0.5828 -0.3517  0.1502
   65TMC2    C5 1010   3.957   4.408  15.644  0.5728 -0.0543 -0.6143
   65TMC2    C6 1011   4.029   4.422  15.530 -0.2248  0.1664 -0.5384
   65TMC2     C 1012   3.906   4.038  15.681  0.1422  0.0791  0.6988
   65TMC2     O 1013   3.876   4.032  15.800  0.4674  0.7343 -0.5029
   65TMC2     H 1014   4.030   4.094  15.436  0.3613  0.9292 -0.1996
   65TMC2    H1 1015   3.875   4.260  15.790  2.6830 -0.5221  1.3327
   65TMC2    H2 1016   4.056   4.517  15.486  0.8889  0.5046  0.8793
   65TMC2    C7 1017   3.936   4.521  15.726  0.4250  0.1950 -0.8540
   65TMC2    C8 1018   4.119   4.313  15.326 -0.1654  0.3977 -0.1690
   65TMC2    O1 1019   3.990   4.624  15.683  0.9627  0.4084 -0.3053
   65TMC2    O2 1020   4.194   4.227  15.283 -0.1683 -0.0752  0.2044
   65TMC2    O5 1021   4.029   4.392  15.253 -0.0867 -0.4842 -0.1463
   65TMC2    H5 1022   3.955   4.429  15.306 -0.7710 -3.1702  0.7870
   66MPD2     C 1023   3.866   3.743  15.736  0.0516  0.5152  0.0659
   66MPD2    C1 1024   3.849   3.804  15.607  0.2932 -0.1333 -0.1124
   66MPD2    C2 1025   3.803   3.727  15.502  0.1080  0.0379  0.2156
   66MPD2    C3 1026   3.765   3.597  15.533 -0.0071  0.1974 -0.6188
   66MPD2    C4 1027   3.791   3.541  15.657  0.5352 -0.1001  0.1359
   66MPD2    C5 1028   3.848   3.609  15.760 -0.7487  0.6168 -0.4740
   66MPD2     H 1029   3.794   3.777  15.406 -1.9605  0.2531  0.5278
   66MPD2    H1 1030   3.774   3.436  15.681 -2.7874  0.5557  0.5444
   66MPD2    H2 1031   3.911   3.795  15.820 -0.9127 -0.4459  1.1844
   66MPD2    H3 1032   3.867   3.561  15.855 -0.7236 -1.8248 -1.6946
   66MPD2     N 1033   3.713   3.508  15.441 -0.0421 -0.0099 -0.4057
   66MPD2    H5 1034   3.672   3.424  15.480 -0.2152 -0.5652 -1.7823
   66MPD2    N1 1035   3.880   3.941  15.586 -0.5309  0.6073  0.4129
   66MPD2    H7 1036   3.881   3.971  15.490  1.2436  0.5450  0.4107
   67TMC2    C1 1037   4.015   3.346  14.671 -0.9677 -0.0460  0.6539
   67TMC2    C2 1038   3.946   3.460  14.688 -0.1655 -0.9192 -0.1183
   67TMC2    C3 1039   4.003   3.572  14.734 -0.1535 -0.2551  0.3404
   67TMC2    C4 1040   4.149   3.346  14.700 -0.0322 -0.5123  0.8162
   67TMC2    C5 1041   4.202   3.461  14.754  0.3786  0.2098  0.2081
   67TMC2    C6 1042   4.130   3.572  14.771  0.5171 -0.6310  0.7074
   67TMC2     C 1043   3.961   3.244  14.584  0.3995 -0.6194 -0.3824
   67TMC2     O 1044   4.019   3.135  14.585  0.1646 -0.0191 -0.6345
   67TMC2     H 1045   3.839   3.470  14.668  0.2137  0.0590 -1.6354
   67TMC2    H1 1046   4.209   3.256  14.690  0.2340 -0.4593  2.0560
   67TMC2    H2 1047   4.173   3.667  14.802 -2.1210  0.1957  1.9174
   67TMC2    C7 1048   4.335   3.458  14.804 -0.0248  0.2511  0.1337
   67TMC2    C8 1049   3.916   3.678  14.784  0.0435  0.3170  0.1444
   67TMC2    O1 1050   4.429   3.464  14.729 -0.0231 -0.1734 -0.1565
   67TMC2    O2 1051   3.972   3.757  14.859 -0.1155 -0.1026  0.2339
   67TMC2    O5 1052   3.839   3.724  14.683  0.0212  0.2005  0.6745
   67TMC2    H5 1053   3.833   3.680  14.596  1.3618 -2.1489  1.7739
   68MPD2     C 1054   3.867   3.090  14.356  0.3931 -0.2900 -0.1554
   68MPD2    C1 1055   3.795   3.197  14.405  0.1100  1.0983 -0.5204
   68MPD2    C2 1056   3.671   3.232  14.345  0.0311 -0.1911 -0.3195
   68MPD2    C3 1057   3.616   3.157  14.237  0.4903  0.7250 -0.8178
   68MPD2    C4 1058   3.692   3.056  14.191  0.1191 -0.1132 -0.4030
   68MPD2    C5 1059   3.807   3.014  14.254  0.7803 -0.3034  0.5376
   68MPD2     H 1060   3.616   3.316  14.386 -0.8285 -1.6215  1.4986
   68MPD2    H1 1061   3.661   2.993  14.108 -0.9084  0.5684 -0.5298
   68MPD2    H2 1062   3.960   3.052  14.397  1.2063  0.8479 -0.9541
   68MPD2    H3 1063   3.875   2.937  14.219 -1.1178 -2.0936  0.8646
   68MPD2     N 1064   3.497   3.192  14.169  0.0534  0.0828  0.2243
   68MPD2    H5 1065   3.456   3.121  14.109  0.6850  0.6750 -0.9115
   68MPD2    N1 1066   3.846   3.275  14.511  0.2471  0.0414 -0.5149
   68MPD2    H7 1067   3.801   3.364  14.529 -0.6650 -0.3785 -0.7269
   69TMC2    C1 1068   1.152   4.206  12.757 -0.6164  0.3557  0.5433
   69TMC2    C2 1069   1.017   4.239  12.768 -1.1403 -0.2612 -0.4665
   69TMC2    C3 1070   0.960   4.307  12.668  0.4152  0.1878  0.0978
   69TMC2    C4 1071   1.220   4.226  12.637 -0.2429 -0.9846 -0.4187
   69TMC2    C5 1072   1.155   4.290  12.537 -0.1341  0.4226 -0.0416
   69TMC2    C6 1073   1.026   4.331  12.554  0.1469 -0.2334 -0.0039
   69TMC2     C 1074   1.194   4.094  12.844 -0.0071  0.1661  0.2567
   69TMC2     O 1075   1.107   4.037  12.906 -0.2824  0.0320  0.6801
   69TMC2     H 1076   0.952   4.218  12.852  0.8464  1.3838  1.4876
   69TMC2    H1 1077   1.321   4.196  12.613  0.7040  1.7350  0.1402
   69TMC2    H2 1078   0.977   4.379  12.469 -2.2689  0.1102  1.5801
   69TMC2    C7 1079   1.230   4.336  12.423  0.0750 -0.7919  0.5042
   69TMC2    C8 1080   0.822   4.343  12.681  0.3710  0.3317 -0.1044
   69TMC2    O1 1081   1.351   4.336  12.437  0.2431  0.1679  0.4839
   69TMC2    O2 1082   0.743   4.288  12.754 -0.5824 -0.4115 -0.1063
   69TMC2    O5 1083   0.788   4.433  12.588  0.4113  0.0721  0.0268
   69TMC2    H5 1084   0.864   4.473  12.541 -0.7166  1.3526 -0.7270
   70MPD2     C 1085   1.526   4.017  12.966  0.2208  0.3423  0.1975
   70MPD2    C1 1086   1.398   3.986  12.938  0.3369 -0.1861 -0.6780
   70MPD2    C2 1087   1.342   3.865  12.958  0.4513  0.0930  0.5056
   70MPD2    C3 1088   1.421   3.766  13.023 -0.5999 -0.2897 -0.4900
   70MPD2    C4 1089   1.549   3.798  13.045  0.0523 -0.2152  0.0358
   70MPD2    C5 1090   1.603   3.922  13.018 -0.2456 -0.3910 -0.0819
   70MPD2     H 1091   1.241   3.851  12.923  0.5051  0.6423  0.1248
   70MPD2    H1 1092   1.614   3.721  13.086 -1.1121 -1.5781 -0.6882
   70MPD2    H2 1093   1.562   4.115  12.939 -3.1381  1.8597  1.3156
   70MPD2    H3 1094   1.709   3.937  13.034 -0.5595  1.7822  0.0068
   70MPD2     N 1095   1.372   3.639  13.063 -0.6502 -0.0385 -0.1970
   70MPD2    H5 1096   1.446   3.585  13.107 -1.9123  0.5642  2.7134
   70MPD2    N1 1097   1.323   4.089  12.876  0.1016 -0.3129  0.3154
   70MPD2    H7 1098   1.382   4.164  12.841 -0.0259 -0.6066 -0.5202
   71TMC2    C1 1099   2.824   0.602   2.003 -0.4186 -0.5635 -0.1414
   71TMC2    C2 1100   2.948   0.583   2.058  0.2385  0.2334  0.3124
   71TMC2    C3 1101   2.969   0.589   2.189  0.0323  0.1561 -0.0930
   71TMC2    C4 1102   2.720   0.625   2.082  0.2548  0.4992 -0.0360
   71TMC2    C5 1103   2.749   0.644   2.215 -0.8973  0.4993 -0.4401
   71TMC2    C6 1104   2.869   0.618   2.278  0.1100  0.4564  0.8185
   71TMC2     C 1105   2.813   0.580   1.864  0.4086 -1.0380  0.0553
   71TMC2     O 1106   2.911   0.598   1.791 -0.5849  0.4399  0.2129
   71TMC2     H 1107   3.035   0.569   1.996 -0.4133  0.3358 -0.6192
   71TMC2    H1 1108   2.626   0.650   2.034  0.9977  1.2230 -1.1154
   71TMC2    H2 1109   2.894   0.644   2.380  1.0200 -0.6978  0.8891
   71TMC2    C7 1110   2.637   0.646   2.314  0.1044 -0.1909  0.6940
   71TMC2    C8 1111   3.097   0.553   2.231  0.0940  0.8635 -0.4309
   71TMC2    O1 1112   2.670   0.669   2.426 -0.3153 -0.4199  0.1389
   71TMC2    O2 1113   3.156   0.468   2.170 -0.2238  0.3251  0.1547
   71TMC2    O5 1114   3.150   0.663   2.283 -0.3756  0.9269  0.1032
   71TMC2    H5 1115   3.086   0.737   2.285 -0.6972  0.6917 -1.2939
   72MPD2     C 1116   2.587   0.376   1.444  0.1274  0.2655  0.0050
   72MPD2    C1 1117   2.713   0.431   1.454 -0.0205 -0.5038 -0.1025
   72MPD2    C2 1118   2.752   0.482   1.581 -0.0191 -0.5262  0.4467
   72MPD2    C3 1119   2.660   0.484   1.691  0.0522 -0.1060 -0.2575
   72MPD2    C4 1120   2.526   0.438   1.670 -0.1340  0.4636  0.0375
   72MPD2    C5 1121   2.498   0.388   1.546  0.8175  0.2804  0.2313
   72MPD2     H 1122   2.851   0.527   1.590 -0.9770  1.4601  1.1151
   72MPD2    H1 1123   2.449   0.435   1.747  0.0619  0.1046  0.2184
   72MPD2    H2 1124   2.556   0.318   1.358 -1.9562  1.9686 -0.4039
   72MPD2    H3 1125   2.398   0.349   1.532  0.2880  1.4278  0.8279
   72MPD2     N 1126   2.696   0.523   1.822  0.2265 -0.1079 -0.0167
   72MPD2    H5 1127   2.624   0.512   1.892  0.4126  1.1474  0.3686
   72MPD2    N1 1128   2.816   0.427   1.354 -0.1503  0.2238 -0.0662
   72MPD2    H7 1129   2.911   0.460   1.373  1.3375 -3.2763 -1.3936
   73TMC2    C1 1130   2.824   2.319  14.168 -0.3820  0.1709 -0.0161
   73TMC2    C2 1131   2.886   2.406  14.259  0.4976  0.3871 -0.5495
   73TMC2    C3 1132   2.951   2.344  14.360  0.5353 -0.3861 -0.6664
   73TMC2    C4 1133   2.834   2.187  14.185 -0.4534 -0.2348  0.1045
   73TMC2    C5 1134   2.903   2.129  14.291  0.0292 -0.7738  0.7126
   73TMC2    C6 1135   2.961   2.214  14.386  0.4459 -0.2893 -0.2054
   73TMC2     C 1136   2.849   2.348  14.029  0.8273  0.1073 -0.1886
   73TMC2     O 1137   2.887   2.256  13.952 -0.0745  0.3307  0.5561
   73TMC2     H 1138   2.898   2.512  14.241 -3.4104  1.1001  0.8749
   73TMC2    H1 1139   2.776   2.127  14.116 -0.5401  0.1119 -0.1226
   73TMC2    H2 1140   3.040   2.182  14.453 -0.0680  1.2156  1.1226
   73TMC2    C7 1141   2.996   2.030  14.244 -0.6785  0.6559 -0.0866
   73TMC2    C8 1142   3.013   2.437  14.452 -0.4546 -0.5424  0.1639
   73TMC2    O1 1143   3.068   1.976  14.320 -0.0257  0.5095 -0.7220
   73TMC2    O2 1144   3.061   2.542  14.417 -0.9162  0.1417 -0.5477
   73TMC2    O5 1145   2.973   2.406  14.575  0.4382 -0.0686 -0.1469
   73TMC2    H5 1146   2.904   2.336  14.580  0.5266 -0.0064  2.1672
   74MPD2     C 1147   2.974   2.677  13.653 -0.4300 -0.2519 -0.1589
   74MPD2    C1 1148   3.013   2.549  13.676 -0.0940  0.1712 -0.1188
   74MPD2    C2 1149   2.971   2.498  13.799  0.0422 -0.5556  0.0980
   74MPD2    C3 1150   2.874   2.549  13.884 -0.0255  0.2996 -0.1904
   74MPD2    C4 1151   2.830   2.674  13.852  0.0534  0.3268 -0.7341
   74MPD2    C5 1152   2.878   2.728  13.740  1.0528  0.2677 -0.0017
   74MPD2     H 1153   3.029   2.411  13.825  1.1676 -0.2666 -1.4488
   74MPD2    H1 1154   2.754   2.727  13.908  0.4265 -0.9495  0.9770
   74MPD2    H2 1155   3.012   2.728  13.566  1.0327  1.1222  1.3094
   74MPD2    H3 1156   2.835   2.823  13.710 -2.3370 -0.6967  1.7387
   74MPD2     N 1157   2.838   2.487  14.007 -0.1367 -0.3091 -0.8457
   74MPD2    H5 1158   2.789   2.536  14.081  0.9446  0.4046 -0.6013
   74MPD2    N1 1159   3.095   2.481  13.587  0.0848  0.1093  0.2849
   74MPD2    H7 1160   3.140   2.541  13.519 -0.0092 -0.7527 -0.5398
   75TMC2    C1 1161   3.287   3.308  14.151  0.3727  0.8070 -0.5138
   75TMC2    C2 1162   3.191   3.376  14.220 -0.5382  0.2235  0.0842
   75TMC2    C3 1163   3.057   3.377  14.174 -0.3250  0.1534 -0.4511
   75TMC2    C4 1164   3.247   3.229  14.045 -0.1314 -0.2298 -0.0507
   75TMC2    C5 1165   3.112   3.225  14.007 -0.1752  0.2905 -0.0604
   75TMC2    C6 1166   3.012   3.296  14.071 -0.1605  0.3540 -0.1023
   75TMC2     C 1167   3.420   3.302  14.202 -0.3931  0.5248 -0.0297
   75TMC2     O 1168   3.450   3.399  14.271 -0.1051 -0.0213  0.1076
   75TMC2     H 1169   3.219   3.437  14.305 -0.2187 -1.1758  0.9662
   75TMC2    H1 1170   3.327   3.188  13.985 -1.8410  2.2568 -4.0611
   75TMC2    H2 1171   2.908   3.290  14.043  0.0101  0.5874 -0.7779
   75TMC2    C7 1172   3.073   3.156  13.887 -0.6499  0.1255 -0.1096
   75TMC2    C8 1173   2.950   3.451  14.234  0.1685 -0.0507 -0.3030
   75TMC2    O1 1174   2.964   3.191  13.839  0.0922 -0.4745  0.2097
   75TMC2    O2 1175   2.828   3.428  14.236 -0.5401  0.5220  0.2483
   75TMC2    O5 1176   3.009   3.554  14.291  0.5310  0.3288 -0.0547
   75TMC2    H5 1177   3.094   3.575  14.246  0.0587  1.2899 -0.5139
   76TMC2    C1 1178   1.928   3.596  12.026  0.2416 -0.2065  0.3230
   76TMC2    C2 1179   1.811   3.549  11.969  0.8727 -0.3837  0.2931
   76TMC2    C3 1180   1.792   3.413  11.963  0.7030 -0.8489  0.4364
   76TMC2    C4 1181   2.019   3.506  12.079 -0.0384  0.0514  0.5646
   76TMC2    C5 1182   1.992   3.365  12.083  0.6055 -0.1784  0.3639
   76TMC2    C6 1183   1.877   3.322  12.022  0.0093  0.2591 -0.2593
   76TMC2     C 1184   1.954   3.739  12.021  0.4735  0.3227 -0.6169
   76TMC2     O 1185   1.852   3.803  12.003  0.7566  0.8346  0.5929
   76TMC2     H 1186   1.746   3.619  11.918 -0.5690 -2.1103 -0.2192
   76TMC2    H1 1187   2.109   3.543  12.127 -0.0505  2.2894 -1.1665
   76TMC2    H2 1188   1.857   3.216  12.026  1.9646 -0.1632 -1.4690
   76TMC2    C7 1189   2.085   3.261  12.133 -0.2657 -0.1068 -0.4461
   76TMC2    C8 1190   1.669   3.365  11.895  0.8678  0.0688 -0.2094
   76TMC2    O1 1191   2.046   3.146  12.147  0.1603  0.1553  0.2836
   76TMC2    O2 1192   1.569   3.436  11.885  0.2747 -0.1999 -0.6463
   76TMC2    O5 1193   1.722   3.286  11.799  0.4783 -0.3162 -0.3566
   76TMC2    H5 1194   1.819   3.271  11.806  0.8833  2.0179 -0.7852
   77MPD2     C 1195   2.241   4.164  11.971 -0.0265  0.3315  0.4727
   77MPD2    C1 1196   2.107   4.147  11.972 -0.5225 -0.5107  0.3643
   77MPD2    C2 1197   2.058   4.015  11.992 -0.0889  0.0408 -0.0713
   77MPD2    C3 1198   2.140   3.911  11.999 -0.5392 -0.1589 -0.2046
   77MPD2    C4 1199   2.279   3.928  12.006 -0.0362  0.6531  0.4208
   77MPD2    C5 1200   2.326   4.056  11.984  0.3493  0.3411 -0.1704
   77MPD2     H 1201   1.950   4.007  11.991  0.0990 -2.1760 -1.5032
   77MPD2    H1 1202   2.351   3.849  12.022 -2.1141 -0.9299  2.0197
   77MPD2    H2 1203   2.291   4.259  11.955  0.9773 -0.3734 -0.6215
   77MPD2    H3 1204   2.434   4.066  11.985  0.3181  0.7019 -1.0712
   77MPD2     N 1205   2.089   3.776  12.008  0.1574  0.0886  0.0420
   77MPD2    H5 1206   2.155   3.701  12.026  0.1448  0.1680  0.4234
   77MPD2    N1 1207   2.017   4.246  11.961 -0.7405 -0.2380  0.3213
   77MPD2    H7 1208   1.919   4.229  11.979 -0.9368 -0.3474 -0.8561
   78TMC2    C1 1209   2.617   4.714   0.963 -0.0487 -0.3339 -0.3224
   78TMC2    C2 1210   2.630   4.698   0.829  0.0898  0.4049 -0.0699
   78TMC2    C3 1211   2.739   0.010   0.767  0.6651 -0.5412  0.3490
   78TMC2    C4 1212   2.723   0.028   1.036 -1.0359 -0.1343 -0.0534
   78TMC2    C5 1213   2.842   0.064   0.974  0.2662  0.6172 -0.3724
   78TMC2    C6 1214   2.847   0.061   0.834 -0.7550 -0.1333 -0.2034
   78TMC2     C 1215   2.492   4.673   1.030 -0.6838  0.0974  0.1920
   78TMC2     O 1216   2.472   4.706   1.147 -0.7237  0.3295  0.4795
   78TMC2     H 1217   2.546   4.669   0.766 -1.4892  1.2841  1.6329
   78TMC2    H1 1218   2.703   0.050   1.140 -3.1907 -1.3859 -0.2167
   78TMC2    H2 1219   2.939   0.083   0.781 -1.3785  1.1213 -0.7454
   78TMC2    C7 1220   2.973   0.074   1.047 -0.5331  0.1106 -0.1157
   78TMC2    C8 1221   2.718   0.038   0.626 -0.6341  0.2302 -0.0760
   78TMC2    O1 1222   3.064   0.109   0.976 -0.2945  0.2661 -0.3040
   78TMC2    O2 1223   2.681   4.688   0.547  0.1354 -0.0349 -0.1340
   78TMC2    O5 1224   2.788   0.148   0.593 -0.5411 -0.3636 -0.3480
   78TMC2    H5 1225   2.788   0.221   0.659  1.6572  1.8307 -2.7711
   79MPD1     C 1226   2.048   4.433   1.080 -0.4823 -0.6459  0.7380
   79MPD1    C1 1227   2.096   4.545   1.141  0.3206  0.5863  0.1699
   79MPD1    C2 1228   2.215   4.599   1.090  0.1114 -0.7625  0.0161
   79MPD1    C3 1229   2.299   4.527   0.999  0.7533 -0.0597  0.0965
   79MPD1    C4 1230   2.246   4.405   0.958  0.5803  0.0525  0.5446
   79MPD1    C5 1231   2.124   4.363   0.993 -0.0241 -0.3562 -0.0690
   79MPD1     H 1232   2.247   4.695   1.129 -0.4087  0.4020 -2.3774
   79MPD1    H1 1233   2.310   4.343   0.896  0.2998 -0.8963  1.2093
   79MPD1    H2 1234   1.946   4.397   1.094 -1.3396  1.6856  0.6220
   79MPD1    H3 1235   2.085   4.269   0.954  2.0579 -1.3619  0.2677
   79MPD1     N 1236   2.426   4.579   0.960  0.2134 -0.0022  0.3777
   79MPD1    H5 1237   2.473   4.538   0.881 -1.0616 -0.3961 -0.1816
   79MPD1    N1 1238   2.014   4.623   1.222  0.4253  0.1225 -0.3292
   79MPD1    H6 1239   2.069   4.684   1.281 -0.2436 -1.1664  1.6153
   79MPD1    H7 1240   1.965   4.569   1.293 -0.0061 -1.0481 -1.5070
   80TMC2    C1 1241   0.199   3.231  12.284  0.2469 -0.2071  0.2884
   80TMC2    C2 1242   0.122   3.344  12.282  0.4893  0.5014  0.4140
   80TMC2    C3 1243   0.025   3.350  12.377 -0.1786 -0.0167  0.1136
   80TMC2    C4 1244   0.190   3.130  12.376  0.6634 -0.6259  0.0964
   80TMC2    C5 1245   0.102   3.159  12.481  0.9980  0.7067  0.5452
   80TMC2    C6 1246   0.013   3.264  12.481  0.1628 -0.1636 -0.5769
   80TMC2     C 1247   0.283   3.203  12.176  0.2350  0.6904  0.3043
   80TMC2     O 1248   0.239   3.231  12.066 -0.1122  0.4078 -0.0788
   80TMC2     H 1249   0.140   3.415  12.202  1.3107 -0.5901 -0.3762
   80TMC2    H1 1250   0.241   3.037  12.357  0.3122 -0.3088 -2.5250
   80TMC2    H2 1251   4.679   3.263  12.564 -0.2708  1.5359 -0.9032
   80TMC2    C7 1252   0.086   3.055  12.576  0.0834  0.4285  0.0120
   80TMC2    C8 1253   4.655   3.446  12.361  0.4784 -0.6248 -0.4292
   80TMC2    O1 1254   4.706   3.038  12.610 -0.1061  0.0602  0.1305
   80TMC2    O2 1255   4.569   3.449  12.447 -0.4693 -0.5590  0.3769
   80TMC2    O5 1256   4.615   3.416  12.233  0.1115 -0.5687  0.3816
   80TMC2    H5 1257   4.622   3.487  12.166  1.5368 -1.0718  0.0029
   81MPD2     C 1258   0.506   3.142  11.991 -0.1244  0.1517  0.2675
   81MPD2    C1 1259   0.517   3.144  12.130 -0.1632 -0.1292 -0.3400
   81MPD2    C2 1260   0.652   3.135  12.173  0.5159 -0.7588 -1.0656
   81MPD2    C3 1261   0.762   3.127  12.089  0.3256 -0.0045 -0.0134
   81MPD2    C4 1262   0.741   3.132  11.953 -0.2143  0.0335 -0.5454
   81MPD2    C5 1263   0.616   3.138  11.906  0.6172  0.0491  0.4315
   81MPD2     H 1264   0.684   3.135  12.276 -1.2246 -0.1915 -0.5109
   81MPD2    H1 1265   0.825   3.131  11.883 -0.3304 -0.3362 -0.6793
   81MPD2    H2 1266   0.405   3.126  11.953 -0.6983  0.6798  1.5552
   81MPD2    H3 1267   0.594   3.138  11.800  2.8056  1.3251 -0.0185
   81MPD2     N 1268   0.896   3.144  12.141 -0.7574 -0.1589  0.1959
   81MPD2    H5 1269   0.907   3.186  12.233 -0.3064  0.5017 -0.1513
   81MPD2    N1 1270   0.408   3.159  12.222 -0.1472 -0.4331 -0.2145
   81MPD2    H7 1271   0.431   3.154  12.321  1.6122  0.5082 -0.5649
   82TMC2    C1 1272   4.038   3.036  11.223  0.2220 -0.0682 -0.4493
   82TMC2    C2 1273   4.136   3.081  11.310  0.4036  0.3341  0.3900
   82TMC2    C3 1274   4.196   2.982  11.385 -0.5407  0.3912 -0.0274
   82TMC2    C4 1275   3.976   2.916  11.238  0.1441  0.4007  0.7125
   82TMC2    C5 1276   4.023   2.834  11.330 -0.0655  0.9234  0.0489
   82TMC2    C6 1277   4.133   2.863  11.402 -0.8038  0.1703 -0.0857
   82TMC2     C 1278   3.974   3.140  11.149 -0.5565  0.4344  0.3127
   82TMC2     O 1279   3.850   3.130  11.149 -0.1578 -0.4268 -0.3077
   82TMC2     H 1280   4.181   3.180  11.310  1.8480 -0.3280  2.6708
   82TMC2    H1 1281   3.905   2.895  11.158 -0.1866  1.4583  0.7265
   82TMC2    H2 1282   4.180   2.783  11.460 -1.5611  0.5325  1.0347
   82TMC2    C7 1283   3.935   2.725  11.380  0.3697 -0.4937 -1.3685
   82TMC2    C8 1284   4.304   3.016  11.474  0.3573  1.0490 -0.0660
   82TMC2    O1 1285   3.965   2.669  11.480  0.2002 -0.0605 -0.1158
   82TMC2    O2 1286   4.352   2.946  11.561 -0.8269 -0.6170  0.4097
   82TMC2    O5 1287   4.379   3.115  11.417 -0.4861  0.5440  0.3346
   82TMC2    H5 1288   4.357   3.141  11.325  0.6096 -0.0739 -0.1023
   83MPD2     C 1289   3.939   3.586  10.897  0.1361 -0.3471 -0.8570
   83MPD2    C1 1290   3.847   3.496  10.937 -0.0449  0.2927  0.2078
   83MPD2    C2 1291   3.891   3.385  10.998  0.0774  1.1321  0.2256
   83MPD2    C3 1292   4.021   3.363  11.033  0.1250  0.7758  0.3386
   83MPD2    C4 1293   4.115   3.460  10.998  0.1570  0.6041 -0.2321
   83MPD2    C5 1294   4.067   3.566  10.923  0.1777 -0.0276 -0.4836
   83MPD2     H 1295   3.816   3.309  11.015 -0.1345  1.2361 -0.2481
   83MPD2    H1 1296   4.219   3.453  11.027  0.0437 -1.8866 -0.4641
   83MPD2    H2 1297   3.917   3.668  10.829 -2.6865  0.4459  1.0078
   83MPD2    H3 1298   4.135   3.648  10.902  3.6489 -2.9774 -0.7897
   83MPD2     N 1299   4.057   3.245  11.109  1.2388 -0.0649 -0.0358
   83MPD2    H5 1300   4.152   3.234  11.144  1.4107 -0.0042 -0.4890
   83MPD2    N1 1301   3.715   3.520  10.897  0.2988  0.0803  0.4371
   83MPD2    H7 1302   3.685   3.600  10.842  0.3057 -0.6236 -0.5755
   84TMC2    C1 1303   0.112   2.511  11.214 -0.1416  0.5769 -0.1376
   84TMC2    C2 1304   0.007   2.425  11.234 -0.1158 -0.4951 -0.3865
   84TMC2    C3 1305   4.702   2.334  11.134 -0.6716 -0.3001 -0.4003
   84TMC2    C4 1306   0.192   2.507  11.099  0.4011 -0.3619 -0.3084
   84TMC2    C5 1307   0.150   2.418  11.004  0.0049 -0.4777  0.5186
   84TMC2    C6 1308   0.040   2.337  11.017  0.6366  0.0043  0.0993
   84TMC2     C 1309   0.090   2.646  11.271  0.1481  0.0687 -0.1466
   84TMC2     O 1310   0.029   2.645  11.378  0.4967 -0.4674 -0.0473
   84TMC2     H 1311   4.680   2.438  11.321  0.2042  0.9347 -0.3579
   84TMC2    H1 1312   0.262   2.588  11.084 -1.7690  1.6222  0.4247
   84TMC2    H2 1313   0.011   2.263  10.943  0.1071 -0.2678  0.5793
   84TMC2    C7 1314   0.241   2.377  10.897 -0.7181  0.6072  0.2104
   84TMC2    C8 1315   4.564   2.304  11.132  0.2939  1.0139  0.3473
   84TMC2    O1 1316   0.217   2.263  10.848  0.4401  0.3886 -0.2475
   84TMC2    O2 1317   4.481   2.342  11.214  0.0153 -0.0128  0.4719
   84TMC2    O5 1318   4.532   2.230  11.021 -0.0200 -0.0390  0.4087
   84TMC2    H5 1319   4.609   2.187  10.980  0.1631 -0.6502  1.3926
   85TMC2    C1 1320   0.968   0.580  15.999  0.1071 -0.4947 -0.4510
   85TMC2    C2 1321   0.843   0.558  15.950  0.2146 -0.8435  0.4555
   85TMC2    C3 1322   0.785   0.646  15.870 -0.5907 -0.0695 -0.2930
   85TMC2    C4 1323   1.049   0.676  15.946  0.5332  0.1632  0.1081
   85TMC2    C5 1324   0.981   0.775  15.884 -0.9548 -0.4630 -0.4250
   85TMC2    C6 1325   0.845   0.766  15.852  0.0804  0.2713  0.0509
   85TMC2     C 1326   1.014   0.517  16.122  0.4342 -0.1195  0.3241
   85TMC2     O 1327   1.133   0.514  16.148  0.9885 -0.4990 -0.1399
   85TMC2     H 1328   0.791   0.468  15.981 -0.3861  0.1416  2.3641
   85TMC2    H1 1329   1.155   0.672  15.970  0.4449 -1.7155  0.1743
   85TMC2    H2 1330   0.817   0.849  15.787 -0.8290 -0.5526 -0.6172
   85TMC2    C7 1331   1.064   0.834  15.776  0.3859  0.7718  0.1092
   85TMC2    C8 1332   0.641   0.648  15.869 -0.6152 -0.3238  0.0974
   85TMC2    O1 1333   1.024   0.793  15.670 -0.4712 -0.3521  0.7672
   85TMC2    O2 1334   0.570   0.563  15.920 -0.5962 -0.2834  0.0900
   85TMC2    O5 1335   0.607   0.754  15.789 -0.1398 -0.0666 -0.1403
   85TMC2    H5 1336   0.689   0.775  15.740  1.2048 -0.9213  1.7352
   86MPD2     C 1337   0.941   0.200  16.517 -0.3504 -0.6741  0.1045
   86MPD2    C1 1338   0.820   0.214  16.448 -0.4917  0.5236 -0.1424
   86MPD2    C2 1339   0.822   0.300  16.342  0.5554 -0.6391 -0.5604
   86MPD2    C3 1340   0.937   0.371  16.303  0.4192 -0.4592  0.1331
   86MPD2    C4 1341   1.057   0.363  16.377 -0.2904 -0.2394 -0.4378
   86MPD2    C5 1342   1.051   0.280  16.480 -0.5827  0.1132  0.5980
   86MPD2     H 1343   0.733   0.317  16.282  0.2171  0.6142  0.2955
   86MPD2    H1 1344   1.148   0.418  16.358 -0.1084 -0.4023 -0.0411
   86MPD2    H2 1345   0.962   0.131  16.598  1.4316  0.1519  0.3171
   86MPD2    H3 1346   1.140   0.266  16.539  0.8450 -0.1605 -1.6089
   86MPD2     N 1347   0.922   0.459  16.190  0.1692 -0.4464  0.0257
   86MPD2    H5 1348   0.827   0.471  16.157  0.2087  1.4005  0.5821
   86MPD2    N1 1349   0.700   0.146  16.475  0.1438  0.0248  0.4564
   86MPD2    H7 1350   0.628   0.158  16.405  0.4677  2.7143  0.5965
   87TMC2    C1 1351   3.257   3.572   0.568 -0.8733 -0.1717 -0.2932
   87TMC2    C2 1352   3.334   3.669   0.630  0.3799  0.3856  0.5890
   87TMC2    C3 1353   3.291   3.795   0.619 -0.2011  0.2099  0.4581
   87TMC2    C4 1354   3.143   3.602   0.492  0.4160 -0.6678 -0.1224
   87TMC2    C5 1355   3.104   3.734   0.492 -0.7230  1.1994  0.9571
   87TMC2    C6 1356   3.179   3.832   0.551  0.0594  0.3962  0.6914
   87TMC2     C 1357   3.273   3.421   0.599 -0.0473 -0.4085  0.0027
   87TMC2     O 1358   3.209   3.346   0.525  0.5906 -0.0027  0.0983
   87TMC2     H 1359   3.426   3.638   0.678  1.1946 -0.1800 -1.3474
   87TMC2    H1 1360   3.072   3.526   0.461  0.8246 -0.3619 -1.8413
   87TMC2    H2 1361   3.156   3.937   0.542  1.0696  0.3451 -2.2221
   87TMC2    C7 1362   2.968   3.770   0.451  0.0402 -0.0913  0.1109
   87TMC2    C8 1363   3.382   3.902   0.657  0.2436 -0.6621  0.0842
   87TMC2    O1 1364   2.921   3.714   0.358 -0.3027  0.1712 -0.4937
   87TMC2    O2 1365   3.495   3.869   0.661  0.7735  0.1367  0.2305
   87TMC2    O5 1366   3.319   3.955   0.764  0.4654 -0.1858 -0.0755
   87TMC2    H5 1367   3.225   3.971   0.740 -0.0894 -1.1530  1.4725
   88MPD2     C 1368   2.694   3.860   0.422 -0.5724 -0.3924  0.1713
   88MPD2    C1 1369   2.786   3.922   0.501 -0.3650  0.5110  0.4741
   88MPD2    C2 1370   2.752   4.032   0.579  1.0146  0.3026 -0.3939
   88MPD2    C3 1371   2.619   4.070   0.589 -1.0737 -0.4293 -0.4069
   88MPD2    C4 1372   2.528   4.011   0.510  0.0589  0.2347  0.5498
   88MPD2    C5 1373   2.561   3.899   0.425  0.7559 -0.3452  0.3982
   88MPD2     H 1374   2.825   4.085   0.640  0.5177 -1.6693  1.9218
   88MPD2    H1 1375   2.424   4.041   0.521 -0.1411 -0.2235 -0.0477
   88MPD2    H2 1376   2.724   3.782   0.353  2.3218  0.8396  0.0377
   88MPD2    H3 1377   2.492   3.839   0.368  0.3200  0.2507  0.3048
   88MPD2     N 1378   2.578   4.163   0.686  0.2180  0.6492  0.1021
   88MPD2    H5 1379   2.478   4.178   0.697  0.0389 -1.1416  0.9651
   88MPD2    N1 1380   2.916   3.876   0.520  0.3431 -0.2971  0.3167
   88MPD2    H7 1381   2.977   3.911   0.593 -0.9606  0.3052  1.1112
   89TMC2    C1 1382   3.478   2.174   1.860  0.1626  0.2823  0.4211
   89TMC2    C2 1383   3.406   2.207   1.749  0.0613 -0.4144 -0.1620
   89TMC2    C3 1384   3.484   2.242   1.639  0.1105  0.3649 -0.1907
   89TMC2    C4 1385   3.618   2.170   1.865  0.1757 -0.5523  0.2858
   89TMC2    C5 1386   3.687   2.199   1.753 -0.1503  0.1971  0.5241
   89TMC2    C6 1387   3.619   2.236   1.635  0.9238 -0.5412  0.1090
   89TMC2     C 1388   3.390   2.138   1.972 -0.1384 -0.4544  0.1190
   89TMC2     O 1389   3.456   2.131   2.074  0.4282 -0.3009  0.1499
   89TMC2     H 1390   3.298   2.208   1.745  0.0270  1.3687  1.6328
   89TMC2    H1 1391   3.665   2.125   1.951 -0.6969 -1.4513  0.2965
   89TMC2    H2 1392   3.679   2.236   1.544  1.1523  0.9185  0.2596
   89TMC2    C7 1393   3.827   2.212   1.776  0.0083 -0.5313  0.2589
   89TMC2    C8 1394   3.409   2.222   1.510 -0.1228 -0.3900 -0.2561
   89TMC2    O1 1395   3.869   2.190   1.892  0.1139  0.1331  0.4454
   89TMC2    O2 1396   3.297   2.171   1.498  0.2376 -0.0004 -0.1343
   89TMC2    O5 1397   3.469   2.280   1.410 -0.0755 -0.6148 -0.0455
   89TMC2    H5 1398   3.547   2.334   1.436 -0.8312  0.0694  0.7998
   90MPD2     C 1399   2.984   1.947   2.219 -0.2983  0.1406  0.2667
   90MPD2    C1 1400   2.988   1.896   2.095  0.1061 -0.9613  0.1185
   90MPD2    C2 1401   3.090   1.937   2.001 -0.7055 -0.1619  0.4756
   90MPD2    C3 1402   3.177   2.040   2.038  0.3143 -0.1943 -0.3580
   90MPD2    C4 1403   3.176   2.085   2.171 -0.5298 -1.2414 -0.5667
   90MPD2    C5 1404   3.082   2.036   2.262 -0.7973 -0.2247  0.0423
   90MPD2     H 1405   3.091   1.902   1.899  0.6581 -1.5895  0.9866
   90MPD2    H1 1406   3.256   2.146   2.212 -1.7417 -0.6154  0.8618
   90MPD2    H2 1407   2.913   1.924   2.297  0.8570 -1.2099  0.9201
   90MPD2    H3 1408   3.072   2.082   2.359 -0.7040  1.5511 -0.7953
   90MPD2     N 1409   3.277   2.075   1.940 -0.3468 -0.1092 -0.1802
   90MPD2    H5 1410   3.255   2.053   1.843  0.7972  0.9556 -0.6823
   90MPD2    N1 1411   2.907   1.784   2.059 -0.4776  0.1481 -0.0708
   90MPD2    H7 1412   2.932   1.730   1.976 -0.2903  0.7629 -0.4147
   91TMC2    C1 1413   0.883   1.773  16.730  0.3200  0.0420  0.2847
   91TMC2    C2 1414   0.977   1.753  16.828  0.7555  0.1726  0.1321
   91TMC2    C3 1415   0.931   1.757  16.957  0.7735  0.7402  0.0474
   91TMC2    C4 1416   0.756   1.800  16.758 -0.1074 -0.4808 -0.4220
   91TMC2    C5 1417   0.719   1.806  16.888  0.7555  0.5543  0.5107
   91TMC2    C6 1418   0.801   1.782  16.994  0.3140 -0.3594 -0.2237
   91TMC2     C 1419   0.921   1.769  16.590  0.4520 -0.3946 -0.4268
   91TMC2     O 1420   0.838   1.795  16.501  0.1896 -0.1570  0.2247
   91TMC2     H 1421   1.085   1.739  16.821  0.7652  0.8463 -1.1113
   91TMC2    H1 1422   0.684   1.828  16.682 -0.0657 -1.3431 -0.7843
   91TMC2    H2 1423   0.775   1.784  17.099 -0.6722 -0.6633 -0.4705
   91TMC2    C7 1424   0.582   1.790  16.918  0.1312 -0.6428  0.2180
   91TMC2    C8 1425   1.028   1.749  17.058 -0.8674  0.3655 -0.6401
   91TMC2    O1 1426   0.527   1.865  17.000 -0.5743  0.8024  1.0816
   91TMC2    O2 1427   1.112   1.661  17.062  0.6123 -0.2369  0.0763
   91TMC2    O5 1428   1.035   1.862  17.123  0.8145  0.2200 -0.4038
   91TMC2    H5 1429   0.954   1.914  17.105 -0.1096 -1.1421 -0.1675
   92MPD2     C 1430   1.075   1.686  16.341 -0.2360 -0.4678  0.2286
   92MPD2    C1 1431   1.127   1.714  16.466 -1.0057 -0.3386  0.5145
   92MPD2    C2 1432   1.268   1.679  16.472  0.3615 -0.6231 -0.0678
   92MPD2    C3 1433   1.333   1.629  16.364  0.1382 -0.4628  0.3917
   92MPD2    C4 1434   1.268   1.600  16.245 -0.1051 -0.1806  0.4743
   92MPD2    C5 1435   1.137   1.634  16.236  0.0456 -0.3935 -0.1240
   92MPD2     H 1436   1.327   1.697  16.561 -0.8684 -0.4169  0.7161
   92MPD2    H1 1437   1.315   1.551  16.160  0.5999  1.1731  0.0865
   92MPD2    H2 1438   0.968   1.702  16.338 -0.1570 -0.4135 -2.6115
   92MPD2    H3 1439   1.095   1.623  16.136  0.4814 -2.7253 -0.0481
   92MPD2     N 1440   1.474   1.624  16.387 -0.1358 -0.3078  0.7043
   92MPD2    H5 1441   1.502   1.659  16.479  1.9686  1.9454 -0.8040
   92MPD2    N1 1442   1.056   1.752  16.581 -0.3928  0.0686 -0.4186
   92MPD2    H7 1443   1.104   1.751  16.670 -1.7075  2.4575  0.3189
   93TMC2    C1 1444   2.894   1.460  14.253 -0.3645  0.8921  0.0463
   93TMC2    C2 1445   2.887   1.524  14.376  0.4745 -0.1702 -0.3541
   93TMC2    C3 1446   3.001   1.586  14.416 -0.0092 -0.3550 -0.3340
   93TMC2    C4 1447   3.012   1.443  14.192 -0.4974  0.8568  0.1090
   93TMC2    C5 1448   3.126   1.515  14.234 -0.0115 -0.4136 -1.2730
   93TMC2    C6 1449   3.118   1.591  14.349 -0.4336  0.1675 -1.4983
   93TMC2     C 1450   2.791   1.362  14.225  0.3820  0.5969 -0.0614
   93TMC2     O 1451   2.832   1.271  14.152  0.2681 -0.0209 -0.0856
   93TMC2     H 1452   2.800   1.534  14.439  2.0386  0.3212  1.7463
   93TMC2    H1 1453   3.018   1.379  14.104 -0.8726 -0.5376  1.0951
   93TMC2    H2 1454   3.197   1.653  14.391  0.8757 -3.1600  0.9502
   93TMC2    C7 1455   3.254   1.517  14.172  0.2327 -0.4177  0.7871
   93TMC2    C8 1456   3.008   1.636  14.554  0.4784 -0.3189  0.0395
   93TMC2    O1 1457   3.350   1.563  14.233 -0.2792  0.0302 -0.1495
   93TMC2    O2 1458   2.911   1.691  14.610 -0.1658 -0.0040 -0.4543
   93TMC2    O5 1459   3.123   1.595  14.611 -0.1641 -0.3639 -0.0841
   93TMC2    H5 1460   3.182   1.538  14.557  0.0253 -1.8031  1.6480
   94MPD2     C 1461   2.543   1.208  14.175  0.1779  0.8355  0.0704
   94MPD2    C1 1462   2.545   1.324  14.248  0.0216 -0.2977  0.6027
   94MPD2    C2 1463   2.425   1.370  14.301 -0.4303  0.1750  0.2048
   94MPD2    C3 1464   2.307   1.292  14.293 -0.0514  0.3525  0.1214
   94MPD2    C4 1465   2.319   1.172  14.233 -0.3982  0.4032  0.2917
   94MPD2    C5 1466   2.430   1.131  14.172  0.9027  0.1622  0.2589
   94MPD2     H 1467   2.415   1.460  14.362  1.1332  0.2387  0.3692
   94MPD2    H1 1468   2.231   1.109  14.225  0.9868 -1.3039 -1.4455
   94MPD2    H2 1469   2.629   1.170  14.122  0.0781  2.0529 -0.9911
   94MPD2    H3 1470   2.422   1.037  14.119 -1.8996  2.0376 -2.5762
   94MPD2     N 1471   2.190   1.337  14.361  0.2697  0.1815 -0.7321
   94MPD2    H5 1472   2.194   1.431  14.398  0.4352  0.3500 -1.1775
   94MPD2    N1 1473   2.663   1.402  14.262  0.0098 -0.2731  0.3146
   94MPD2    H7 1474   2.655   1.491  14.309  0.7483  0.2929 -0.6353
   95TMC2    C1 1475   2.836   4.021  14.996 -1.0278 -1.1779 -0.0284
   95TMC2    C2 1476   2.904   4.119  15.065  0.8769  0.2585 -0.3127
   95TMC2    C3 1477   2.843   4.242  15.068 -0.4299 -0.3175  1.1787
   95TMC2    C4 1478   2.712   4.033  14.943  0.2577 -0.4236 -0.1621
   95TMC2    C5 1479   2.655   4.156  14.955  0.2115  0.5430 -0.7462
   95TMC2    C6 1480   2.715   4.261  15.018 -0.3796  0.5218 -0.4996
   95TMC2     C 1481   2.899   3.896  14.986 -0.5795 -0.1667 -0.0242
   95TMC2     O 1482   2.988   3.885  15.071 -0.2593  0.3993  0.1174
   95TMC2     H 1483   3.009   4.100  15.085  1.0433  2.7770  1.1425
   95TMC2    H1 1484   2.670   3.945  14.895 -0.6597  1.0552 -2.0980
   95TMC2    H2 1485   2.664   4.357  15.016 -2.6013 -0.6453  0.3459
   95TMC2    C7 1486   2.520   4.168  14.912 -0.8036  0.2062 -0.1292
   95TMC2    C8 1487   2.905   4.356  15.136  0.2393 -0.7623 -0.1408
   95TMC2    O1 1488   2.485   4.284  14.904 -0.3682 -0.0692 -0.2621
   95TMC2    O2 1489   2.852   4.467  15.126 -0.1664  0.3148  0.4398
   95TMC2    O5 1490   2.965   4.307  15.244 -0.5267 -0.3143  0.4532
   95TMC2    H5 1491   3.015   4.229  15.212  1.8967  2.2462 -1.8764
   96MPD2     C 1492   3.095   3.493  14.748 -0.0285 -0.1193  1.3087
   96MPD2    C1 1493   3.131   3.556  14.869 -0.2489 -0.2891 -0.0182
   96MPD2    C2 1494   3.061   3.663  14.913  0.1409  0.4866  0.3149
   96MPD2    C3 1495   2.968   3.719  14.830 -0.3669 -0.4220 -0.2702
   96MPD2    C4 1496   2.952   3.668  14.704 -0.0170 -0.1199 -0.0823
   96MPD2    C5 1497   3.013   3.559  14.664  0.4460 -0.4596  0.5695
   96MPD2     H 1498   3.058   3.689  15.018 -2.3244 -1.3522  0.6869
   96MPD2    H1 1499   2.892   3.711  14.625 -1.6721 -1.8978  0.2157
   96MPD2    H2 1500   3.140   3.400  14.716  2.2971  0.9234  1.5753
   96MPD2    H3 1501   3.002   3.529  14.560 -1.5897 -0.9721  0.9337
   96MPD2     N 1502   2.896   3.840  14.862 -0.2078 -0.2248 -0.1372
   96MPD2    H5 1503   2.849   3.891  14.788 -1.8727 -1.4042  0.1001
   96MPD2    N1 1504   3.224   3.494  14.954  0.1447 -0.2000  0.1685
   96MPD2    H7 1505   3.270   3.407  14.929 -1.5310 -0.8198 -0.7160
   97TMC2    C1 1506   0.755   0.858   0.823  0.7405  0.1168  0.1999
   97TMC2    C2 1507   0.792   0.769   0.723  0.4236  1.1505 -0.2347
   97TMC2    C3 1508   0.741   0.795   0.600 -0.3661 -0.0833  0.1036
   97TMC2    C4 1509   0.692   0.976   0.796  0.0416 -0.6391 -0.0888
   97TMC2    C5 1510   0.652   1.002   0.670  0.5899  0.6855  0.5052
   97TMC2    C6 1511   0.681   0.915   0.569 -0.3233  0.6445 -0.3673
   97TMC2     C 1512   0.747   0.819   0.960  0.2219  0.6359 -0.3016
   97TMC2     O 1513   0.764   0.902   1.044 -0.9297  0.5254 -0.2257
   97TMC2     H 1514   0.823   0.669   0.749 -1.0321  1.5032  2.9442
   97TMC2    H1 1515   0.663   1.037   0.881  0.8279 -1.0832  0.4953
   97TMC2    H2 1516   0.652   0.935   0.467 -0.2332  0.9525 -0.3341
   97TMC2    C7 1517   0.620   1.143   0.639  0.2829  0.6332  1.0705
   97TMC2    C8 1518   0.784   0.706   0.491 -0.3789 -0.2736  0.5554
   97TMC2    O1 1519   0.622   1.223   0.732  0.2699  0.1603  0.5981
   97TMC2    O2 1520   0.882   0.634   0.500 -0.1942 -0.2406 -0.8358
   97TMC2    O5 1521   0.670   0.697   0.415 -0.3684  0.3264 -0.1091
   97TMC2    H5 1522   0.584   0.716   0.457  0.9293  3.1805  1.2315
   98MPD2     C 1523   0.656   0.490   1.338 -0.3890  0.4428  0.2716
   98MPD2    C1 1524   0.644   0.629   1.334 -0.1243 -0.6643  0.4850
   98MPD2    C2 1525   0.667   0.690   1.220  0.0567  0.0466 -0.0881
   98MPD2    C3 1526   0.694   0.623   1.101 -0.0028 -0.0729 -0.2693
   98MPD2    C4 1527   0.684   0.481   1.102 -0.4199 -0.3771  0.3005
   98MPD2    C5 1528   0.669   0.421   1.227 -0.0862 -0.2720  0.2221
   98MPD2     H 1529   0.647   0.797   1.215  0.7608  0.3288  2.9774
   98MPD2    H1 1530   0.711   0.421   1.016  1.7039  1.6017 -0.4190
   98MPD2    H2 1531   0.638   0.439   1.432  0.2759 -1.1744 -0.4914
   98MPD2    H3 1532   0.657   0.313   1.232  0.4298 -0.2529  1.7338
   98MPD2     N 1533   0.726   0.685   0.981 -0.2332 -0.4489  0.2621
   98MPD2    H5 1534   0.724   0.624   0.900 -0.5589 -0.2827  0.1408
   98MPD2    N1 1535   0.600   0.698   1.445  0.2258 -0.4279 -0.3173
   98MPD2    H7 1536   0.557   0.649   1.522 -0.7305  0.0344 -0.5644
   99TMC2    C1 1537   4.003   2.632   1.891 -0.7071 -0.5219  0.0621
   99TMC2    C2 1538   4.101   2.564   1.959  0.3192 -0.1989 -0.0520
   99TMC2    C3 1539   4.075   2.461   2.036 -1.2731  0.0595 -0.1552
   99TMC2    C4 1540   3.875   2.600   1.907 -0.5200 -0.3869 -0.3995
   99TMC2    C5 1541   3.843   2.499   1.991 -0.0570 -0.3802  0.4199
   99TMC2    C6 1542   3.939   2.436   2.068  0.3969 -0.5321 -0.5095
   99TMC2     C 1543   4.055   2.703   1.783 -0.4056 -0.5426 -0.0890
   99TMC2     O 1544   4.173   2.720   1.785  0.3042  0.2058 -0.0001
   99TMC2     H 1545   4.201   2.604   1.964  0.6280 -0.8798 -0.9537
   99TMC2    H1 1546   3.800   2.666   1.866 -1.4489 -0.8866  0.4817
   99TMC2    H2 1547   3.905   2.362   2.139 -1.2739  0.7028 -0.0413
   99TMC2    C7 1548   3.710   2.493   2.056 -0.0198 -0.6668  0.2485
   99TMC2    C8 1549   4.173   2.423   2.136  0.3387  0.2786 -0.2804
   99TMC2    O1 1550   3.698   2.480   2.175 -0.0279  0.5504  0.3342
   99TMC2    O2 1551   4.293   2.414   2.121 -0.6385 -0.4907  0.1725
   99TMC2    O5 1552   4.118   2.442   2.254  0.0337 -0.5413 -0.2455
   99TMC2    H5 1553   4.037   2.498   2.256  0.2044 -0.3606  1.7321
  100MPD2     C 1554   4.097   2.811   1.502 -0.8480 -0.2609  0.2070
  100MPD2    C1 1555   3.983   2.750   1.545  0.0130 -0.5333 -0.5040
  100MPD2    C2 1556   3.875   2.739   1.454 -0.5516  0.3721 -1.2391
  100MPD2    C3 1557   3.864   2.819   1.340  0.1245  0.4875  0.2606
  100MPD2    C4 1558   3.980   2.889   1.303  0.0830 -0.5638 -0.2307
  100MPD2    C5 1559   4.097   2.881   1.383 -0.0879 -0.0044 -0.8409
  100MPD2     H 1560   3.786   2.689   1.488  0.9587 -0.6508  1.2070
  100MPD2    H1 1561   3.988   2.935   1.205  0.9965 -2.1069 -0.8816
  100MPD2    H2 1562   4.183   2.826   1.567  0.8136 -2.2324 -1.5278
  100MPD2    H3 1563   4.186   2.936   1.353 -0.1978  0.3380 -0.5372
  100MPD2     N 1564   3.751   2.810   1.260  0.4362  0.1089  0.5021
  100MPD2    H5 1565   3.673   2.758   1.296  1.4617 -1.4990  0.3898
  100MPD2    N1 1566   3.968   2.693   1.674 -0.0990  0.2709  0.2799
  100MPD2    H7 1567   3.876   2.652   1.689 -0.2162  0.9591  1.4919
  101TMC2    C1 1568   4.347   3.686  12.886 -0.5074  0.2392  0.7764
  101TMC2    C2 1569   4.299   3.812  12.863  0.0351 -0.3506 -0.2448
  101TMC2    C3 1570   4.362   3.887  12.774  0.0213  0.4804  0.8055
  101TMC2    C4 1571   4.451   3.633  12.824  0.8813  0.8271  0.1147
  101TMC2    C5 1572   4.511   3.709  12.717 -0.4382  0.1844  0.1503
  101TMC2    C6 1573   4.465   3.842  12.697  0.5203  0.1402  0.7466
  101TMC2     C 1574   4.253   3.604  12.969 -0.1280 -0.4175 -0.0475
  101TMC2     O 1575   4.187   3.658  13.058 -0.5604  0.2132 -0.2140
  101TMC2     H 1576   4.207   3.849  12.906 -0.5961  0.2044 -2.0937
  101TMC2    H1 1577   4.476   3.534  12.858 -1.2634  0.6894  1.2804
  101TMC2    H2 1578   4.501   3.902  12.614  2.9827 -3.9951 -1.1649
  101TMC2    C7 1579   4.642   3.669  12.665 -0.2707  0.5458  0.4078
  101TMC2    C8 1580   4.277   3.987  12.716  0.0004 -0.5633 -0.3917
  101TMC2    O1 1581   4.689   3.734  12.570  0.3586 -0.4838  0.5669
  101TMC2    O2 1582   4.157   3.987  12.729  0.1944  0.0093 -0.4088
  101TMC2    O5 1583   4.360   4.089  12.686 -0.0237 -0.1145 -0.2326
  101TMC2    H5 1584   4.452   4.069  12.713  0.4104  1.6382 -0.4172
  102MPD2     C 1585   4.241   3.246  12.966 -0.3140 -0.2884 -0.8967
  102MPD2    C1 1586   4.229   3.371  13.020 -0.3886 -0.2969  0.7544
  102MPD2    C2 1587   4.177   3.379  13.149  0.0883  0.2549 -1.0498
  102MPD2    C3 1588   4.136   3.271  13.219 -0.9128 -0.8899  0.1957
  102MPD2    C4 1589   4.161   3.143  13.166 -0.9177  0.2375  0.3825
  102MPD2    C5 1590   4.214   3.133  13.039 -0.0199 -0.0065  0.2449
  102MPD2     H 1591   4.161   3.477  13.192  0.3112  0.1407 -0.7039
  102MPD2    H1 1592   4.148   3.045  13.212  1.7524 -2.1081 -3.8618
  102MPD2    H2 1593   4.285   3.231  12.867 -0.5614 -3.1333 -0.5680
  102MPD2    H3 1594   4.243   3.037  12.998  0.8460  0.6391 -0.6570
  102MPD2     N 1595   4.071   3.292  13.344 -1.0953  0.1342  0.0303
  102MPD2    H5 1596   4.065   3.389  13.375  1.5176 -0.0366  1.0842
  102MPD2    N1 1597   4.271   3.477  12.942  0.2740 -0.5429  0.5924
  102MPD2    H7 1598   4.326   3.463  12.858 -0.8581  1.7806 -0.5421
  103TMC2    C1 1599   2.837   3.494  12.201  0.2968  0.1522 -0.1289
  103TMC2    C2 1600   2.866   3.578  12.100  0.2652  0.4573 -0.6842
  103TMC2    C3 1601   2.912   3.704  12.122  0.4675  0.1267  0.3223
  103TMC2    C4 1602   2.852   3.533  12.331  0.7970  0.1702  0.1069
  103TMC2    C5 1603   2.917   3.650  12.355 -0.1617 -0.2333 -0.1342
  103TMC2    C6 1604   2.938   3.740  12.249  0.2733  0.4583  0.1747
  103TMC2     C 1605   2.710   3.434  12.174  0.3586  0.2579  0.2224
  103TMC2     O 1606   2.630   3.520  12.137  0.1562 -0.3850  0.0241
  103TMC2     H 1607   2.846   3.543  12.000  1.3415 -0.5895 -0.5282
  103TMC2    H1 1608   2.831   3.455  12.404 -1.1728  1.3760  0.8397
  103TMC2    H2 1609   2.966   3.843  12.271  0.9121  0.3742 -0.2416
  103TMC2    C7 1610   2.914   3.708  12.487  0.5972 -0.2183  0.3398
  103TMC2    C8 1611   2.855   3.815  12.046  0.1477  1.0304 -0.0379
  103TMC2    O1 1612   2.835   3.653  12.561  0.1825 -0.7169 -0.7632
  103TMC2    O2 1613   2.902   3.928  12.024  0.0748 -0.2196 -0.3119
  103TMC2    O5 1614   2.726   3.785  12.063  0.0932 -1.1057  0.1873
  103TMC2    H5 1615   2.710   3.691  12.084  0.5458 -1.3891 -0.7403
  104MPD2     C 1616   2.566   3.110  12.278 -0.5015 -0.9450 -0.3711
  104MPD2    C1 1617   2.562   3.238  12.232 -0.0558 -0.2033 -0.2696
  104MPD2    C2 1618   2.445   3.297  12.195  0.0944  0.5357  0.0838
  104MPD2    C3 1619   2.325   3.228  12.195  0.9446  0.3575  0.0057
  104MPD2    C4 1620   2.320   3.098  12.241 -0.5292  0.0672 -0.1150
  104MPD2    C5 1621   2.442   3.044  12.284  0.3666  0.7917 -0.1130
  104MPD2     H 1622   2.446   3.403  12.172  1.6614  1.0062  2.3820
  104MPD2    H1 1623   2.232   3.036  12.231 -1.0731  0.6503  1.0826
  104MPD2    H2 1624   2.660   3.069  12.312 -0.8895  0.4578  2.3835
  104MPD2    H3 1625   2.440   2.937  12.302  0.3219  0.5322 -1.5934
  104MPD2     N 1626   2.215   3.302  12.143  0.9485  0.2472 -0.1479
  104MPD2    H5 1627   2.230   3.388  12.091 -0.2433  0.2379 -0.5045
  104MPD2    N1 1628   2.689   3.309  12.229 -0.8900 -0.1255  0.2950
  104MPD2    H7 1629   2.768   3.254  12.262 -0.9411 -1.3008 -1.5538
  105TMC2    C1 1630   3.578   2.639   0.241  0.2127 -0.3240  0.1609
  105TMC2    C2 1631   3.465   2.565   0.272  0.6855 -0.2203  0.4754
  105TMC2    C3 1632   3.386   2.611   0.375 -0.5242 -0.1192  0.4940
  105TMC2    C4 1633   3.611   2.752   0.310  0.0380  0.9954 -0.2837
  105TMC2    C5 1634   3.530   2.792   0.409 -0.4230  0.2434  0.1299
  105TMC2    C6 1635   3.411   2.724   0.442 -0.3874  0.8365 -0.6168
  105TMC2     C 1636   3.661   2.584   0.136  0.6158  0.2531 -0.2416
  105TMC2     O 1637   3.635   2.471   0.088 -0.5160 -0.5583  0.1668
  105TMC2     H 1638   3.449   2.469   0.225  0.0194 -0.4504  1.1673
  105TMC2    H1 1639   3.705   2.804   0.298  2.0220 -2.6129 -0.2864
  105TMC2    H2 1640   3.344   2.750   0.523 -2.2963  2.2710 -2.6810
  105TMC2    C7 1641   3.597   2.879   0.500  0.5117  0.9415  0.1197
  105TMC2    C8 1642   3.257   2.550   0.384  0.0232 -0.4694  0.1095
  105TMC2    O1 1643   3.706   2.846   0.535 -0.1514  0.2621  0.2068
  105TMC2    O2 1644   3.227   2.444   0.338 -0.6302 -0.1296  0.0047
  105TMC2    O5 1645   3.161   2.649   0.402 -0.0136 -0.1248 -0.5099
  105TMC2    H5 1646   3.202   2.734   0.428 -0.5661 -0.2248  0.6767
  106MPD2     C 1647   4.017   2.621  17.517 -0.0777  0.0530  0.2425
  106MPD2    C1 1648   3.988   2.747  17.561 -0.1355  0.4694 -0.3957
  106MPD2    C2 1649   3.897   2.771  17.660  0.3793  0.2482 -0.4382
  106MPD2    C3 1650   3.837   2.662  17.726  0.0349 -0.0903 -0.0765
  106MPD2    C4 1651   3.862   2.540  17.675 -0.5105  0.0544  0.0641
  106MPD2    C5 1652   3.949   2.514  17.567  0.4308 -0.2618 -0.1509
  106MPD2     H 1653   3.883   2.869  17.703  2.1977  1.3179 -2.3076
  106MPD2    H1 1654   3.818   2.455  17.726 -1.8644  0.2162 -0.8446
  106MPD2    H2 1655   4.086   2.605  17.435  1.2656  2.0102  1.0026
  106MPD2    H3 1656   3.966   2.414  17.527 -1.0359  0.8504 -3.5055
  106MPD2     N 1657   3.746   2.683   0.089  0.4732 -0.7282  0.8535
  106MPD2    H5 1658   3.747   2.772   0.138 -0.4046 -0.0892 -0.2989
  106MPD2    N1 1659   4.055   2.864  17.511  1.3749  0.1607 -0.2310
  106MPD2    H7 1660   4.014   2.948  17.550 -1.5121 -2.2754  1.9762
  107TMC2    C1 1661   4.511   3.198  11.829 -0.5845 -0.1475  0.1255
  107TMC2    C2 1662   4.534   3.313  11.899  0.0920  0.1191  0.1385
  107TMC2    C3 1663   4.595   3.415  11.829 -0.5782  0.3701 -0.7244
  107TMC2    C4 1664   4.544   3.178  11.701 -0.6898  0.4152  0.1704
  107TMC2    C5 1665   4.619   3.274  11.637  0.5175 -0.0100 -0.2403
  107TMC2    C6 1666   4.635   3.396  11.701 -0.4522 -0.1871 -0.1552
  107TMC2     C 1667   4.423   3.106  11.893 -0.0247  0.9540  0.4483
  107TMC2     O 1668   4.358   3.151  11.985  0.5177 -0.1555  0.0607
  107TMC2     H 1669   4.498   3.322  12.001  1.8724  3.5466  0.4487
  107TMC2    H1 1670   4.518   3.086  11.649  2.4996 -0.8058  0.7626
  107TMC2    H2 1671   4.694   3.471  11.650  1.9734 -0.0860  2.8263
  107TMC2    C7 1672   4.694   3.249  11.521 -0.2125  0.1287 -0.8961
  107TMC2    C8 1673   4.664   3.515  11.913 -0.8218  0.3710  0.4662
  107TMC2    O1 1674   0.004   3.350  11.471  0.2770  0.1516  0.0377
  107TMC2    O2 1675   4.627   3.552  12.023 -0.3013  0.4933  0.3891
  107TMC2    O5 1676   0.053   3.535  11.866 -0.5139 -0.2264  0.3744
  107TMC2    H5 1677   0.070   3.485  11.783 -1.0828 -0.3325  0.3225
  108MPD2     C 1678   4.408   2.738  11.876 -0.0690  0.1111  0.7648
  108MPD2    C1 1679   4.378   2.864  11.920 -0.4411 -0.2694 -0.0637
  108MPD2    C2 1680   4.298   2.884  12.029 -0.1895  0.1235 -0.2450
  108MPD2    C3 1681   4.243   2.769  12.092  0.3095 -0.3521 -0.7660
  108MPD2    C4 1682   4.276   2.648  12.039  0.8464  0.2052  0.0226
  108MPD2    C5 1683   4.362   2.629  11.937  0.0098  0.4874  0.4592
  108MPD2     H 1684   4.297   2.979  12.081  0.3760 -0.0712  0.1095
  108MPD2    H1 1685   4.236   2.563  12.092  0.2515  0.6085  0.2189
  108MPD2    H2 1686   4.464   2.734  11.784 -1.9856  0.2029 -0.4034
  108MPD2    H3 1687   4.395   2.536  11.892 -0.9130  0.3599  0.0555
  108MPD2     N 1688   4.166   2.783  12.213 -0.1955  0.0364 -0.5111
  108MPD2    H5 1689   4.139   2.700  12.265  0.3560  0.0034 -0.2673
  108MPD2    N1 1690   4.438   2.973  11.855  0.0654 -0.0874 -0.6839
  108MPD2    H7 1691   4.492   2.956  11.771  0.9930 -1.8384  0.2629
  109TMC2    C1 1692   4.206   1.156   1.020  0.2352  0.3280  0.5691
  109TMC2    C2 1693   4.229   1.291   0.999  0.8112  0.5445 -0.1659
  109TMC2    C3 1694   4.348   1.351   1.034 -0.2940  0.1019  0.2487
  109TMC2    C4 1695   4.295   1.084   1.100  0.3188  0.0792  0.2662
  109TMC2    C5 1696   4.403   1.152   1.151 -0.5445  0.1152  0.6183
  109TMC2    C6 1697   4.436   1.282   1.114 -0.5805  0.0763  0.1372
  109TMC2     C 1698   4.073   1.103   0.983 -0.7212  0.2383 -0.1692
  109TMC2     O 1699   4.007   1.179   0.913 -0.6912 -0.5130 -0.3761
  109TMC2     H 1700   4.158   1.351   0.942  0.5435  0.6231  0.2521
  109TMC2    H1 1701   4.298   0.976   1.113 -1.6022  0.1898  1.6119
  109TMC2    H2 1702   4.517   1.341   1.154  0.6643 -1.0467 -0.7103
  109TMC2    C7 1703   4.500   1.086   1.226 -0.4312  0.5975 -0.1393
  109TMC2    C8 1704   4.385   1.473   0.966 -0.4912  0.3141  0.4373
  109TMC2    O1 1705   4.615   1.128   1.227 -0.2231 -0.5107  0.4057
  109TMC2    O2 1706   4.302   1.558   0.933 -0.4434 -0.1496 -0.1935
  109TMC2    O5 1707   4.517   1.487   0.976 -0.6560 -0.2865 -0.3403
  109TMC2    H5 1708   4.568   1.405   0.990 -0.3162  0.0527  0.4649
  110MPD2     C 1709   3.674   0.779   0.956 -0.7143  0.6108  0.4989
  110MPD2    C1 1710   3.764   0.731   1.050 -0.2514  0.2996 -0.7449
  110MPD2    C2 1711   3.879   0.799   1.071  0.0076  0.4195 -0.2520
  110MPD2    C3 1712   3.907   0.922   1.017  0.0836  0.0768  0.7280
  110MPD2    C4 1713   3.804   0.977   0.943  0.6460  0.4095  0.4549
  110MPD2    C5 1714   3.696   0.903   0.905  0.1372 -0.3621 -0.2274
  110MPD2     H 1715   3.953   0.784   1.150  2.2485  0.5961 -2.3230
  110MPD2    H1 1716   3.814   1.076   0.902 -3.1161  0.6886  0.2049
  110MPD2    H2 1717   3.586   0.724   0.924 -0.1729  0.9046 -1.5364
  110MPD2    H3 1718   3.620   0.950   0.844  0.6057  0.1142 -0.4493
  110MPD2     N 1719   4.032   0.992   1.050  0.2414 -0.0976 -0.5905
  110MPD2    H5 1720   4.097   0.947   1.113 -1.5610  0.2328  1.4985
  110MPD2    N1 1721   3.729   0.609   1.116 -0.5869 -0.4370  0.1353
  110MPD2    H7 1722   3.643   0.566   1.084 -0.3066 -2.3549  1.9998
  111TMC2    C1 1723   4.488   4.366  11.705  0.6935 -0.2824 -0.1772
  111TMC2    C2 1724   4.400   4.306  11.786 -0.4032  0.2796  0.1548
  111TMC2    C3 1725   4.448   4.230  11.893  0.7693  0.0204  0.4359
  111TMC2    C4 1726   4.622   4.341  11.726  0.0490 -1.1101  0.1551
  111TMC2    C5 1727   4.664   4.262  11.835 -0.1191  0.5237  0.1217
  111TMC2    C6 1728   4.576   4.201  11.924  0.3531  0.5438  0.1843
  111TMC2     C 1729   4.451   4.479  11.631 -0.4416 -0.4214 -0.4844
  111TMC2     O 1730   4.527   4.521  11.544 -0.0974  0.1791 -0.7535
  111TMC2     H 1731   4.296   4.299  11.759 -0.5668 -0.4211  1.0128
  111TMC2    H1 1732   4.697   4.386  11.662 -0.2625 -0.1657  0.4628
  111TMC2    H2 1733   4.601   4.130  12.002  2.7204  2.6361  1.3496
  111TMC2    C7 1734   0.058   4.191  11.820 -0.1701  0.5712  0.0540
  111TMC2    C8 1735   4.346   4.164  11.969  0.1842 -0.3290  0.4319
  111TMC2    O1 1736   0.063   4.080  11.868  0.1723 -0.5144  0.3511
  111TMC2    O2 1737   4.229   4.196  11.973 -0.4125 -0.2310  0.0687
  111TMC2    O5 1738   4.377   4.032  11.980 -0.0496  0.2361 -0.4992
  111TMC2    H5 1739   4.471   4.013  11.963 -0.5213  0.5495 -3.3972
  112MPD2     C 1740   4.030   0.006  11.478  0.0881 -0.3788 -0.1593
  112MPD2    C1 1741   4.153   4.713  11.405 -0.1538  0.1517 -0.3529
  112MPD2    C2 1742   4.262   4.651  11.472  0.3865 -0.1972  0.1630
  112MPD2    C3 1743   4.239   4.612  11.603  0.0566 -0.2135 -0.1106
  112MPD2    C4 1744   4.120   4.633  11.674  0.8829 -0.0534  0.0612
  112MPD2    C5 1745   4.025   4.699  11.611 -0.8034 -0.1521 -0.0950
  112MPD2     H 1746   4.356   4.639  11.419  0.7980 -1.8057  1.2494
  112MPD2    H1 1747   4.104   4.598  11.776  1.4656  1.9394  0.8368
  112MPD2    H2 1748   3.942   0.049  11.431  0.7424 -0.3757 -1.3792
  112MPD2    H3 1749   3.929   4.717  11.659 -1.7612 -1.5995 -1.4606
  112MPD2     N 1750   4.329   4.529  11.674 -0.6147  0.4302 -0.4693
  112MPD2    H5 1751   4.307   4.505  11.770 -0.5113 -2.3932 -1.1423
  112MPD2    N1 1752   4.166   0.023  11.277 -0.0218  0.6559  0.2012
  112MPD2    H7 1753   4.261   0.013  11.243 -0.9739 -0.2219 -2.2537
  113TMC2    C1 1754   2.277   2.700   0.890  1.1953 -0.2754 -0.4450
  113TMC2    C2 1755   2.187   2.802   0.886 -0.7452  0.2897 -0.2502
  113TMC2    C3 1756   2.057   2.788   0.841 -0.2511  0.6635  0.2016
  113TMC2    C4 1757   2.236   2.576   0.854  0.7413  0.3539 -0.3804
  113TMC2    C5 1758   2.110   2.572   0.802  0.2797  0.1078 -0.2242
  113TMC2    C6 1759   2.012   2.672   0.794  0.5410 -0.1440 -0.5997
  113TMC2     C 1760   2.404   2.720   0.951  0.2155 -0.0962 -0.8043
  113TMC2     O 1761   2.418   2.820   1.016 -0.4881  0.1892 -0.0793
  113TMC2     H 1762   2.218   2.890   0.940  1.4368 -0.3025 -0.5453
  113TMC2    H1 1763   2.299   2.488   0.852 -1.4676 -1.2312 -0.0248
  113TMC2    H2 1764   1.917   2.653   0.747 -0.6793  0.1395  1.7507
  113TMC2    C7 1765   2.062   2.441   0.754  0.2068 -0.9374 -0.2050
  113TMC2    C8 1766   1.969   2.905   0.855  0.8784 -0.0789  0.3559
  113TMC2    O1 1767   1.975   2.430   0.669  0.0696 -1.1174 -0.6528
  113TMC2    O2 1768   1.974   2.992   0.941  0.0360  0.6786  0.2878
  113TMC2    O5 1769   1.893   2.907   0.738 -0.5964  1.0179 -0.5641
  113TMC2    H5 1770   1.912   2.841   0.668 -3.9578  0.1940 -0.7084
  114MPD2     C 1771   2.878   2.604   1.079  0.6615  0.0961  0.5141
  114MPD2    C1 1772   2.786   2.692   1.140 -0.5857 -0.1710 -0.4374
  114MPD2    C2 1773   2.657   2.684   1.092  0.2944 -0.2907  0.0811
  114MPD2    C3 1774   2.626   2.616   0.974  0.1410  0.2204  0.3881
  114MPD2    C4 1775   2.719   2.531   0.922 -0.3972  0.0932 -0.8277
  114MPD2    C5 1776   2.846   2.523   0.981  0.3101  0.8436 -0.2747
  114MPD2     H 1777   2.586   2.745   1.146 -1.2473 -1.9377 -0.0943
  114MPD2    H1 1778   2.698   2.468   0.836 -1.1092  3.7773 -3.3380
  114MPD2    H2 1779   2.983   2.596   1.105  0.7624  2.4526  0.8028
  114MPD2    H3 1780   2.924   2.460   0.939 -0.2394  0.2320 -0.3805
  114MPD2     N 1781   2.496   2.631   0.909 -0.2495 -0.0016  0.0032
  114MPD2    H5 1782   2.477   2.562   0.837  1.6550  0.9497 -1.4214
  114MPD2    N1 1783   2.804   2.766   1.259  0.3417  0.1389  1.3480
  114MPD2    H7 1784   2.723   2.818   1.292 -1.5077  0.2171 -3.3530
  115TMC2    C1 1785   3.461   0.557   0.334 -0.0910  0.5343 -0.0647
  115TMC2    C2 1786   3.490   0.632   0.445  0.4954  0.0237  0.1222
  115TMC2    C3 1787   3.503   0.766   0.446 -0.0679  0.8717 -0.2133
  115TMC2    C4 1788   3.432   0.622   0.220  0.7134  0.4791 -0.3094
  115TMC2    C5 1789   3.443   0.761   0.224 -1.0124  0.3139  0.3105
  115TMC2    C6 1790   3.480   0.836   0.334  0.0237  0.3574 -0.2715
  115TMC2     C 1791   3.404   0.427   0.338  0.1006 -0.0331  0.5011
  115TMC2     O 1792   3.352   0.379   0.238 -0.0203 -0.1726  0.3466
  115TMC2     H 1793   3.538   0.577   0.525 -1.1868 -4.1046 -1.7604
  115TMC2    H1 1794   3.424   0.571   0.125  1.6320 -1.7941  0.8289
  115TMC2    H2 1795   3.483   0.944   0.337  0.3612  0.3803 -1.2247
  115TMC2    C7 1796   3.429   0.825   0.099 -0.0827 -0.1978  0.1626
  115TMC2    C8 1797   3.537   0.829   0.577 -0.1534 -0.0831  0.3961
  115TMC2    O1 1798   3.335   0.788   0.029  0.1193  0.5923 -0.0178
  115TMC2    O2 1799   3.506   0.767   0.678  0.2914 -0.0599 -0.3860
  115TMC2    O5 1800   3.628   0.928   0.556  0.1297 -0.3071 -0.2055
  115TMC2    H5 1801   3.611   0.966   0.467 -1.8422  1.9208  1.1400
  116MPD2     C 1802   3.188   0.060   0.597  0.2652  0.1488 -0.8756
  116MPD2    C1 1803   3.227   0.063   0.463 -0.4260  0.1249  0.5360
  116MPD2    C2 1804   3.285   0.175   0.417  0.0516 -0.0095  0.0264
  116MPD2    C3 1805   3.312   0.280   0.503  0.2166  0.7213 -0.3048
  116MPD2    C4 1806   3.284   0.263   0.640 -0.2049  0.4749  0.0394
  116MPD2    C5 1807   3.228   0.152   0.687  0.5565 -0.1252  0.5100
  116MPD2     H 1808   3.293   0.179   0.308  3.1033  1.5132  0.2995
  116MPD2    H1 1809   3.303   0.342   0.712 -0.2540 -0.9887  1.6446
  116MPD2    H2 1810   3.137   4.707   0.634 -0.4440  0.8690 -0.1338
  116MPD2    H3 1811   3.224   0.133   0.794 -1.2340 -0.3042  0.4010
  116MPD2     N 1812   3.379   0.399   0.467  0.2938 -0.3970 -0.3724
  116MPD2    H5 1813   3.403   0.468   0.538  1.5004  0.3671 -1.5206
  116MPD2    N1 1814   3.206   4.684   0.383 -0.3524  0.0662 -1.3839
  116MPD2    H7 1815   3.138   4.618   0.418  0.9523 -0.3351  0.3806
  117TMC2    C1 1816   2.315   1.997  14.508  0.8171  0.5864  0.2920
  117TMC2    C2 1817   2.412   1.912  14.465 -0.1583 -0.2882  0.1870
  117TMC2    C3 1818   2.515   1.966  14.391 -0.4050 -0.4615  0.4653
  117TMC2    C4 1819   2.318   2.128  14.479  0.6877  0.3782 -0.4675
  117TMC2    C5 1820   2.424   2.177  14.405  0.5368  0.2217 -0.4592
  117TMC2    C6 1821   2.521   2.097  14.361  0.1359  0.6267  1.0093
  117TMC2     C 1822   2.188   1.937  14.548 -0.0214  0.2421  0.7022
  117TMC2     O 1823   2.190   1.824  14.601  0.3334 -0.2286  0.2414
  117TMC2     H 1824   2.386   1.807  14.466  0.3900 -0.4278 -0.1979
  117TMC2    H1 1825   2.255   2.197  14.534  0.3040  0.1497 -0.6213
  117TMC2    H2 1826   2.594   2.135  14.290 -0.0727  1.3513  1.1779
  117TMC2    C7 1827   2.447   2.325  14.386  0.6548  0.2571  0.1579
  117TMC2    C8 1828   2.625   1.887  14.327 -0.8406 -0.1307  0.3542
  117TMC2    O1 1829   2.551   2.352  14.326 -0.4761  0.6226 -0.1841
  117TMC2    O2 1830   2.676   1.922  14.219 -0.1097 -0.3413 -0.1443
  117TMC2    O5 1831   2.588   1.762  14.343 -0.3521 -0.4474  0.2493
  117TMC2    H5 1832   2.584   1.747  14.440 -1.5409  0.0257  0.2642
  118MPD2     C 1833   2.261   2.605  14.507  0.3476  0.1778  0.2436
  118MPD2    C1 1834   2.370   2.542  14.465  0.1821  0.1566  0.8860
  118MPD2    C2 1835   2.486   2.607  14.454 -0.2411 -0.5457 -0.3712
  118MPD2    C3 1836   2.499   2.742  14.483  0.1323 -0.3426 -0.2317
  118MPD2    C4 1837   2.377   2.805  14.522 -0.4015  0.0522 -0.1024
  118MPD2    C5 1838   2.265   2.733  14.547  0.4517  0.9608  0.3628
  118MPD2     H 1839   2.569   2.551  14.411 -0.7629 -0.6358 -1.2579
  118MPD2    H1 1840   2.380   2.912  14.538 -0.3913 -0.0363  0.4934
  118MPD2    H2 1841   2.164   2.557  14.519  0.3958  0.0098 -0.0335
  118MPD2    H3 1842   2.172   2.780  14.574 -1.3987 -1.6951 -1.3305
  118MPD2     N 1843   2.623   2.817  14.493  0.0453  0.1387 -0.5118
  118MPD2    H5 1844   2.619   2.915  14.518  1.5642 -0.0355  0.4528
  118MPD2    N1 1845   2.351   2.405  14.440  0.0849 -0.6647 -0.2122
  118MPD2    H7 1846   2.259   2.366  14.453 -0.5364  1.0044  0.4176
  119TMC2    C1 1847   1.111   2.863  13.884 -0.4203 -0.1680 -0.2024
  119TMC2    C2 1848   1.240   2.854  13.912  0.2400 -0.5920  0.1104
  119TMC2    C3 1849   1.279   2.749  13.992  0.2140  0.3576  0.5769
  119TMC2    C4 1850   1.012   2.779  13.920  0.2861  0.0977 -0.4689
  119TMC2    C5 1851   1.054   2.670  13.992  0.8328  0.1710  0.0693
  119TMC2    C6 1852   1.184   2.651  14.024  0.2861 -0.3092 -0.5995
  119TMC2     C 1853   1.064   2.960  13.794  0.6719  0.2179  0.3979
  119TMC2     O 1854   0.948   2.991  13.804  0.5903  0.7498 -0.3548
  119TMC2     H 1855   1.308   2.933  13.883 -1.4018  1.8843  2.9757
  119TMC2    H1 1856   0.909   2.789  13.889 -0.1002 -1.0967  0.4148
  119TMC2    H2 1857   1.210   2.569  14.090 -0.5723 -1.1122 -1.2558
  119TMC2    C7 1858   0.972   2.551  14.001  0.2579 -0.1569  0.5542
  119TMC2    C8 1859   1.419   2.706  14.012  0.5362  0.4938 -0.0186
  119TMC2    O1 1860   1.023   2.442  14.026  0.0684 -0.0519 -0.1716
  119TMC2    O2 1861   1.451   2.600  14.061  0.2239  0.7148 -0.4020
  119TMC2    O5 1862   1.497   2.776  13.932  0.5774  0.3306  0.1481
  119TMC2    H5 1863   1.470   2.868  13.911  0.5864  0.0248 -1.1991
  120MPD2     C 1864   1.219   3.406  13.609 -0.4381 -0.6883  0.2505
  120MPD2    C1 1865   1.101   3.366  13.671 -1.0433 -0.2233 -0.1290
  120MPD2    C2 1866   1.076   3.229  13.687 -0.5214  0.5621  0.6758
  120MPD2    C3 1867   1.175   3.135  13.667  0.0334 -0.3135  0.3565
  120MPD2    C4 1868   1.291   3.179  13.605  0.3446 -0.1605 -0.2675
  120MPD2    C5 1869   1.310   3.311  13.580 -1.0688  0.5628 -0.2039
  120MPD2     H 1870   0.979   3.200  13.726  0.0429 -0.9349  0.9881
  120MPD2    H1 1871   1.372   3.109  13.588  1.9548  1.5092  0.5344
  120MPD2    H2 1872   1.252   3.508  13.592 -1.0061  0.0186  3.3557
  120MPD2    H3 1873   1.398   3.340  13.523 -2.1616  1.1801 -1.5719
  120MPD2     N 1874   1.152   3.002  13.706  0.1086  0.2289  0.6515
  120MPD2    H5 1875   1.232   2.943  13.685 -0.4144 -0.4057  0.4549
  120MPD2    N1 1876   1.013   3.475  13.708  0.5336 -0.1641  0.1905
  120MPD2    H7 1877   1.039   3.566  13.672 -1.9870  0.6073  0.2764
  121TMC2    C1 1878   1.897   0.236  14.527  0.7639 -0.6706 -0.0651
  121TMC2    C2 1879   1.909   0.276  14.658  0.1107 -0.4271  0.2431
  121TMC2    C3 1880   1.811   0.251  14.743 -0.2606  0.0550  0.5914
  121TMC2    C4 1881   1.784   0.174  14.479 -0.9082  0.6424 -0.0828
  121TMC2    C5 1882   1.690   0.158  14.569  0.4199 -1.3890  0.1720
  121TMC2    C6 1883   1.697   0.192  14.699 -0.4034  0.6135  0.8519
  121TMC2     C 1884   1.985   0.286  14.430 -0.7282 -0.1744 -0.2382
  121TMC2     O 1885   2.095   0.316  14.479  0.8293 -0.9467  0.0083
  121TMC2     H 1886   2.002   0.321  14.692  0.0875 -0.7684  0.7662
  121TMC2    H1 1887   1.770   0.141  14.377  1.3483 -2.7740  0.7393
  121TMC2    H2 1888   1.613   0.161  14.761 -1.2651 -1.0738 -1.1654
  121TMC2    C7 1889   1.555   0.130  14.529 -0.2911 -0.7322  0.9193
  121TMC2    C8 1890   1.802   0.343  14.859  0.6688  0.3918 -0.7753
  121TMC2    O1 1891   1.474   0.209  14.571 -0.0428 -0.0971  0.4136
  121TMC2    O2 1892   1.700   0.371  14.918  0.7557  0.1404 -0.1273
  121TMC2    O5 1893   1.921   0.322  14.915 -0.6931  0.0396  0.4972
  121TMC2    H5 1894   1.971   0.260  14.857 -2.1281 -1.0926  0.4553
  122MPD2     C 1895   2.133   0.373  14.201 -0.4127 -0.6206 -0.1599
  122MPD2    C1 1896   1.994   0.390  14.205  0.5914 -0.4909  0.3874
  122MPD2    C2 1897   1.931   0.459  14.107 -0.5241  0.2231  0.1705
  122MPD2    C3 1898   1.993   0.483  13.984 -0.0784  0.4832  0.3586
  122MPD2    C4 1899   2.128   0.446  13.971 -0.4898  0.0949  0.1185
  122MPD2    C5 1900   2.193   0.406  14.084 -0.2435 -0.5135 -0.2063
  122MPD2     H 1901   1.824   0.477  14.114 -1.1529 -2.5272 -2.0333
  122MPD2    H1 1902   2.196   0.461  13.889 -0.8189  3.7960  0.5163
  122MPD2    H2 1903   2.193   0.320  14.275  0.4370  0.5404 -0.0000
  122MPD2    H3 1904   2.297   0.374  14.088  0.3985  1.6348  0.2504
  122MPD2     N 1905   1.934   0.545  13.867  0.1752 -0.0369 -0.3869
  122MPD2    H5 1906   1.982   0.530  13.779  0.9531 -2.5384  0.4627
  122MPD2    N1 1907   1.923   0.332  14.318 -0.3171  0.2220 -0.4353
  122MPD2    H7 1908   1.822   0.336  14.312 -0.4803 -2.5766  0.7587
  123TMC2    C1 1909   0.444   4.067  10.300 -0.5288  0.6631 -0.5606
  123TMC2    C2 1910   0.454   4.191  10.236 -0.6089 -0.2235 -0.0721
  123TMC2    C3 1911   0.576   4.212  10.169  0.3669 -0.1779 -0.1387
  123TMC2    C4 1912   0.544   3.974  10.311 -0.7845 -0.4719 -0.1697
  123TMC2    C5 1913   0.663   3.999  10.245 -0.7867  0.5057 -0.1098
  123TMC2    C6 1914   0.678   4.118  10.176  0.0689 -0.5255 -0.1250
  123TMC2     C 1915   0.313   4.014  10.311 -0.1853 -0.2364 -0.2544
  123TMC2     O 1916   0.221   4.091  10.287  0.6224 -0.4515 -0.0436
  123TMC2     H 1917   0.371   4.257  10.213  0.4716 -0.6008 -5.0251
  123TMC2    H1 1918   0.534   3.891  10.380 -0.2686 -0.6064 -0.2592
  123TMC2    H2 1919   0.752   4.129  10.097  1.0680  0.7150  0.9827
  123TMC2    C7 1920   0.749   3.885  10.209 -0.1677  0.8883  0.2258
  123TMC2    C8 1921   0.548   4.277  10.040 -0.1521 -0.2239 -0.4975
  123TMC2    O1 1922   0.695   3.777  10.197 -0.3481 -0.1619 -0.3555
  123TMC2    O2 1923   0.583   4.241   9.927  0.0812  0.6079  0.0839
  123TMC2    O5 1924   0.535   4.403  10.082  0.2187  0.6762 -0.2145
  123TMC2    H5 1925   0.539   4.415  10.179  0.2364  1.0036 -0.2539
  124MPD2     C 1926   4.733   3.608  10.264 -0.5540 -0.3025 -0.5188
  124MPD2    C1 1927   0.123   3.567  10.231 -0.6991 -0.5530  0.1870
  124MPD2    C2 1928   0.233   3.657  10.250  0.6869  0.7138 -0.5092
  124MPD2    C3 1929   0.209   3.788  10.285  0.1627 -0.1757  0.2807
  124MPD2    C4 1930   0.075   3.821  10.310 -1.0278 -0.5493  0.3247
  124MPD2    C5 1931   4.705   3.736  10.296 -0.2566 -0.5878  0.3938
  124MPD2     H 1932   0.335   3.619  10.246  0.4514  0.0771 -0.4523
  124MPD2    H1 1933   0.046   3.918  10.350 -1.4365  0.2108 -1.7827
  124MPD2    H2 1934   4.658   3.529  10.267  0.2611 -1.0844 -0.8136
  124MPD2    H3 1935   4.611   3.771  10.337  0.9084  1.9915  0.8629
  124MPD2     N 1936   0.318   3.874  10.292 -0.4547  0.5515 -0.6073
  124MPD2    H5 1937   0.411   3.833  10.293 -0.8089 -0.2751 -3.3850
  124MPD2    N1 1938   0.141   3.433  10.210 -0.0563 -0.1758 -0.3909
  124MPD2    H7 1939   0.072   3.381  10.262  0.9960 -0.6661  0.5152
  125TMC2    C1 1940   0.852   4.512  10.375  0.1803  0.6481 -0.9694
  125TMC2    C2 1941   0.890   4.384  10.385  0.0461 -0.2563  0.0619
  125TMC2    C3 1942   1.024   4.357  10.387  0.6733  0.0979  0.0835
  125TMC2    C4 1943   0.945   4.617  10.352  0.1158 -0.1669 -0.3792
  125TMC2    C5 1944   1.074   4.587  10.357 -0.6736  0.4232  0.5175
  125TMC2    C6 1945   1.121   4.456  10.368 -0.3351 -0.4167  0.2845
  125TMC2     C 1946   0.714   4.537  10.326  0.1203 -0.6711  0.3938
  125TMC2     O 1947   0.630   4.448  10.333  0.2154 -0.1872 -0.5288
  125TMC2     H 1948   0.816   4.308  10.367  0.3630 -0.1122 -1.8209
  125TMC2    H1 1949   0.922   4.722  10.365 -1.0977  0.0309 -4.2231
  125TMC2    H2 1950   1.228   4.440  10.375  0.0178  1.9564  0.3595
  125TMC2    C7 1951   1.180   4.683  10.370  0.7752 -0.1979  0.2413
  125TMC2    C8 1952   1.057   4.218  10.388  0.0301  0.0927 -0.1157
  125TMC2    O1 1953   1.280   4.655  10.432  0.3268  0.1625  0.0834
  125TMC2    O2 1954   0.994   4.149  10.306  0.0888  0.1080  0.1630
  125TMC2    O5 1955   1.191   4.201  10.421  0.1746 -0.0066  0.7767
  125TMC2    H5 1956   1.211   4.268  10.490  0.8288  0.2753  0.3094
  126MPD1     C 1957   0.332   0.075  10.116 -1.1891 -0.9594  0.0833
  126MPD1    C1 1958   0.450   0.128  10.076  0.5019 -0.2583  0.0721
  126MPD1    C2 1959   0.569   0.089  10.137  0.2627 -0.2630  0.4074
  126MPD1    C3 1960   0.567   4.708  10.216  0.2195  0.2987 -0.3360
  126MPD1    C4 1961   0.448   4.645  10.246 -0.8727  0.0093 -0.1781
  126MPD1    C5 1962   0.329   4.702  10.204  0.0054 -0.1984 -0.1260
  126MPD1     H 1963   0.664   0.136  10.114  1.2710 -3.2360 -1.4337
  126MPD1    H1 1964   0.439   4.562  10.315  0.0713  1.3941  1.6160
  126MPD1    H2 1965   0.240   0.119  10.080  0.7553  1.0314 -2.5378
  126MPD1    H3 1966   0.238   4.661  10.246  1.2955 -1.3144  1.5687
  126MPD1     N 1967   0.689   4.662  10.274 -0.4961 -0.1126 -0.6894
  126MPD1    H5 1968   0.775   4.715  10.265 -0.2090 -0.4255  0.1578
  126MPD1    N1 1969   0.443   0.250   9.997  0.5845 -0.1906 -0.7920
  126MPD1    H6 1970   0.365   0.258   9.932  0.3474  0.5782 -0.4163
  126MPD1    H7 1971   0.524   0.263   9.937 -0.1838  0.1915 -1.7404
  127TMC2    C1 1972   1.945   3.810   9.550 -0.1016  0.8544 -0.3280
  127TMC2    C2 1973   2.072   3.782   9.527  0.2340  0.6528  0.6013
  127TMC2    C3 1974   2.121   3.675   9.588  0.7632  0.7496  0.7126
  127TMC2    C4 1975   1.863   3.731   9.630 -0.2684 -0.0416 -0.6215
  127TMC2    C5 1976   1.920   3.628   9.691  0.2442 -0.1166  0.5715
  127TMC2    C6 1977   2.047   3.597   9.666  0.3292  0.7087 -0.3296
  127TMC2     C 1978   1.919   3.949   9.547 -1.0826  0.5014  0.3971
  127TMC2     O 1979   2.018   4.020   9.531 -0.3506  0.1100 -1.0984
  127TMC2     H 1980   2.137   3.848   9.471  2.9128 -2.8163 -0.3915
  127TMC2    H1 1981   1.760   3.764   9.640 -0.2057 -0.4286  1.1784
  127TMC2    H2 1982   2.084   3.505   9.710 -0.9320 -0.1805 -1.1168
  127TMC2    C7 1983   1.847   3.506   9.721 -0.2923  0.3077 -0.6684
  127TMC2    C8 1984   2.249   3.631   9.548  0.0382  0.1039 -0.2202
  127TMC2    O1 1985   1.813   3.437   9.624  0.3741 -0.0851  0.4392
  127TMC2    O2 1986   2.349   3.698   9.553 -0.1032 -1.0019 -0.0346
  127TMC2    O5 1987   2.216   3.537   9.460 -0.1308 -0.4474  0.8765
  127TMC2    H5 1988   2.129   3.492   9.451 -0.8760  1.2879 -0.4704
  128MPD2     C 1989   1.600   4.138   9.572  1.0595 -0.8305 -0.0979
  128MPD2    C1 1990   1.739   4.121   9.561  0.3066 -0.6254  0.2149
  128MPD2    C2 1991   1.821   4.236   9.556 -0.5111 -0.2203  0.4116
  128MPD2    C3 1992   1.769   4.362   9.561  0.2309  0.7478 -0.3827
  128MPD2    C4 1993   1.632   4.382   9.573 -0.7585  0.0237  0.1448
  128MPD2    C5 1994   1.549   4.272   9.572  0.5751 -0.2640  0.2777
  128MPD2     H 1995   1.927   4.234   9.533 -0.1788 -1.9425  2.1220
  128MPD2    H1 1996   1.590   4.482   9.575  0.8610  0.7337 -0.5745
  128MPD2    H2 1997   1.533   4.053   9.574  1.5149 -1.2038 -0.8030
  128MPD2    H3 1998   1.444   4.285   9.597  0.1089 -2.1300 -0.6955
  128MPD2     N 1999   1.864   4.467   9.561  0.4892 -0.5206 -0.3085
  128MPD2    H5 2000   1.961   4.438   9.564  0.3170 -1.0184  0.5875
  128MPD2    N1 2001   1.787   3.989   9.555 -0.2991  0.3848  0.1932
  128MPD2    H7 2002   1.723   3.913   9.535 -1.8351  1.1478  2.2564
  129TMC2    C1 2003   1.461   3.363   1.796  0.1863 -0.5351  0.9197
  129TMC2    C2 2004   1.403   3.444   1.895  0.2619  0.7398  1.0692
  129TMC2    C3 2005   1.297   3.393   1.962 -0.8328  0.1200 -0.3134
  129TMC2    C4 2006   1.401   3.248   1.757 -0.1827  0.6871  0.2802
  129TMC2    C5 2007   1.282   3.211   1.814 -0.0037 -0.1175  0.1843
  129TMC2    C6 2008   1.231   3.279   1.927  0.1890  0.3142  0.1088
  129TMC2     C 2009   1.554   3.423   1.708 -0.3237  0.0213 -0.0991
  129TMC2     O 2010   1.611   3.345   1.632 -0.3850  0.2604  0.8688
  129TMC2     H 2011   1.454   3.530   1.937  1.2621 -0.2131  1.8169
  129TMC2    H1 2012   1.442   3.181   1.682 -0.5948  0.0857  0.5965
  129TMC2    H2 2013   1.143   3.249   1.983  1.6588  0.2022  2.3695
  129TMC2    C7 2014   1.219   3.090   1.761 -0.9866 -0.1531  0.5007
  129TMC2    C8 2015   1.247   3.463   2.075 -0.2423 -0.2339  0.0956
  129TMC2    O1 2016   1.291   3.007   1.709  0.2746  0.5130  0.0160
  129TMC2    O2 2017   1.270   3.580   2.096  0.1043  0.0179  0.0528
  129TMC2    O5 2018   1.241   3.376   2.179  0.0085  0.0084  0.1734
  129TMC2    H5 2019   1.251   3.282   2.153  3.5658  0.5345 -0.3304
  130MPD2     C 2020   1.693   3.607   1.510 -0.3871 -0.0533 -0.2410
  130MPD2    C1 2021   1.621   3.643   1.618  0.5143 -0.0867 -0.3473
  130MPD2    C2 2022   1.604   3.777   1.642  0.2164 -0.1508 -0.3912
  130MPD2    C3 2023   1.654   3.872   1.549 -0.5505  0.1226 -0.0988
  130MPD2    C4 2024   1.708   3.829   1.428  0.2366  0.3313  0.4973
  130MPD2    C5 2025   1.714   3.697   1.405 -0.0712 -0.2732 -0.7862
  130MPD2     H 2026   1.563   3.811   1.736  1.4185  0.1178  0.0264
  130MPD2    H1 2027   1.744   3.897   1.352 -4.4048  0.9718 -1.0892
  130MPD2    H2 2028   1.711   3.502   1.490 -0.7181  0.0515 -1.0890
  130MPD2    H3 2029   1.752   3.659   1.311 -0.1845 -1.1652 -0.4688
  130MPD2     N 2030   1.652   4.008   1.588 -0.1036 -0.1152  0.1297
  130MPD2    H5 2031   1.610   4.032   1.677  0.3226 -0.2263  0.3624
  130MPD2    N1 2032   1.576   3.558   1.722 -0.5349 -0.1174  0.2206
  130MPD2    H7 2033   1.518   3.607   1.789 -0.7169  0.5319 -0.4060
  131TMC2    C1 2034   4.095   3.186   9.852 -0.5543  0.2906  0.7206
  131TMC2    C2 2035   4.027   3.110   9.764 -0.4825  0.3836  0.3876
  131TMC2    C3 2036   3.947   3.173   9.675 -0.3303  0.8181  0.8162
  131TMC2    C4 2037   4.095   3.323   9.848 -0.1783 -0.3675  0.0093
  131TMC2    C5 2038   4.014   3.381   9.759 -0.2949 -0.2088 -0.4751
  131TMC2    C6 2039   3.945   3.309   9.662  0.2929 -0.3005 -0.1358
  131TMC2     C 2040   4.223   3.138   9.894  0.1851 -0.3354 -0.2738
  131TMC2     O 2041   4.312   3.219   9.874 -0.3140 -0.2482  0.0411
  131TMC2     H 2042   4.037   3.002   9.774 -1.7078  0.2805  0.5951
  131TMC2    H1 2043   4.136   3.378   9.931 -0.3163 -0.2302 -0.0152
  131TMC2    H2 2044   3.896   3.359   9.579 -1.0388 -5.3247 -2.3801
  131TMC2    C7 2045   4.015   3.530   9.745 -0.6398 -0.1828 -0.5281
  131TMC2    C8 2046   3.880   3.089   9.575 -0.8361 -0.0745 -0.2661
  131TMC2    O1 2047   3.922   3.575   9.676  0.6790  0.0325 -0.3237
  131TMC2    O2 2048   3.908   2.968   9.559  0.1266  0.3872  0.1989
  131TMC2    O5 2049   3.772   3.154   9.527 -0.1015 -0.4154 -0.0433
  131TMC2    H5 2050   3.751   3.223   9.594  0.8627 -0.6938  0.5547
  132MPD2     C 2051   4.298   2.808  10.053  0.1969 -0.5990 -0.0695
  132MPD2    C1 2052   4.323   2.944  10.019 -0.0746  0.2759 -0.2936
  132MPD2    C2 2053   4.447   3.006  10.043 -0.0201 -0.0941  0.6088
  132MPD2    C3 2054   4.546   2.930  10.097 -0.0643  0.1493  0.7627
  132MPD2    C4 2055   4.523   2.792  10.127 -0.1116 -0.3139  0.0661
  132MPD2    C5 2056   4.402   2.735  10.116  0.6891 -0.4097 -0.2193
  132MPD2     H 2057   4.468   3.111  10.024  0.1470 -0.6125 -2.0842
  132MPD2    H1 2058   4.593   2.729  10.180 -1.7688 -2.9197 -0.8117
  132MPD2    H2 2059   4.203   2.762  10.031  0.2475  0.5781 -2.6501
  132MPD2    H3 2060   4.390   2.629  10.135  1.3085 -0.4099  0.1540
  132MPD2     N 2061   4.677   2.992  10.108  0.0365 -0.4621  0.2806
  132MPD2    H5 2062   4.683   3.089  10.080 -1.0469 -0.0135  1.5670
  132MPD2    N1 2063   4.217   3.008   9.951 -0.4162  0.1111 -0.2808
  132MPD2    H7 2064   4.128   2.959   9.946  0.0221 -0.7343  0.1562
  133TMC2    C1 2065   3.127   2.738   9.951 -0.3903 -0.2876  0.0816
  133TMC2    C2 2066   3.179   2.615   9.986 -0.0150 -0.3710 -0.5531
  133TMC2    C3 2067   3.105   2.511   9.941 -0.4358 -0.3602  0.0083
  133TMC2    C4 2068   3.013   2.760   9.881 -0.6243 -0.1342 -0.0518
  133TMC2    C5 2069   2.948   2.651   9.835 -0.0017  0.3705  0.9255
  133TMC2    C6 2070   2.989   2.526   9.875  0.6133  0.3819 -1.0041
  133TMC2     C 2071   3.202   2.859   9.963 -0.1331  0.2526  0.6648
  133TMC2     O 2072   3.136   2.961   9.967 -0.4294  0.2140 -0.2133
  133TMC2     H 2073   3.275   2.588  10.029  0.3778 -2.1915 -2.5761
  133TMC2    H1 2074   2.972   2.858   9.862 -0.3767  0.2194  1.2229
  133TMC2    H2 2075   2.921   2.442   9.868  1.7661 -0.5407 -0.9953
  133TMC2    C7 2076   2.827   2.669   9.758  0.3278  0.5911 -0.4052
  133TMC2    C8 2077   3.150   2.376   9.979 -0.4240  0.1265  0.2618
  133TMC2    O1 2078   2.777   2.779   9.754 -0.2532 -0.2073  0.3460
  133TMC2    O2 2079   3.165   2.346  10.096 -0.0829  1.0147 -0.2794
  133TMC2    O5 2080   3.243   2.347   9.884 -0.1218  0.7142  0.1650
  133TMC2    H5 2081   3.211   2.374   9.795 -1.4759 -1.0009  0.1187
  134MPD2     C 2082   3.569   2.873   9.908 -0.8305  0.6349  0.0905
  134MPD2    C1 2083   3.446   2.921   9.931 -0.5504  0.9069 -0.4339
  134MPD2    C2 2084   3.424   3.056   9.923 -0.1136  0.0038  0.5998
  134MPD2    C3 2085   3.526   3.146   9.880  0.4720  0.3029  0.3242
  134MPD2    C4 2086   3.656   3.094   9.850 -0.7027  0.3084 -0.0848
  134MPD2    C5 2087   3.671   2.956   9.868  0.7503 -1.2563  0.0819
  134MPD2     H 2088   3.329   3.100   9.953  0.1180  1.1042 -0.2787
  134MPD2    H1 2089   3.739   3.159   9.827  0.7450 -1.9570 -1.2250
  134MPD2    H2 2090   3.592   2.768   9.926  1.7608  0.7871 -2.4118
  134MPD2    H3 2091   3.772   2.922   9.852  1.4482  0.8363  0.1111
  134MPD2     N 2092   3.499   3.283   9.869 -0.2226  0.3300 -0.7277
  134MPD2    H5 2093   3.421   3.319   9.923  1.2779  1.2496  0.8607
  134MPD2    N1 2094   3.336   2.832   9.947  1.0002  0.1820 -0.5539
  134MPD2    H7 2095   3.365   2.736   9.935  0.0678  0.0141 -1.4685
  135TMC2    C1 2096   0.617   0.706  10.032  0.0937  0.1416 -0.2164
  135TMC2    C2 2097   0.484   0.672  10.049 -0.0333 -0.8399  0.6733
  135TMC2    C3 2098   0.446   0.583  10.140  0.1931  0.1583  0.1274
  135TMC2    C4 2099   0.716   0.640  10.104 -0.9515  0.3117 -0.0867
  135TMC2    C5 2100   0.674   0.545  10.194 -0.4711 -0.7432 -0.0682
  135TMC2    C6 2101   0.543   0.517  10.214  0.0055 -0.0513 -0.8797
  135TMC2     C 2102   0.659   0.837   9.970 -0.1359 -0.6330 -0.1359
  135TMC2     O 2103   0.563   0.904   9.934 -0.0809 -0.2275  0.7649
  135TMC2     H 2104   0.403   0.727  10.002  0.4364 -1.6231 -1.0377
  135TMC2    H1 2105   0.822   0.645  10.085 -0.9127 -0.3300 -0.0546
  135TMC2    H2 2106   0.509   0.449  10.291  0.1788  0.0061 -0.7540
  135TMC2    C7 2107   0.776   0.491  10.284 -0.0344  0.0968  0.8427
  135TMC2    C8 2108   0.303   0.554  10.135 -0.7329 -0.4280  0.1507
  135TMC2    O1 2109   0.879   0.558  10.304  0.4649  0.1142 -0.2883
  135TMC2    O2 2110   0.216   0.642  10.118  0.0643  0.7061  0.6665
  135TMC2    O5 2111   0.289   0.428  10.165  0.6154  0.2087  0.2153
  135TMC2    H5 2112   0.367   0.376  10.137  1.1043  0.8786  0.3193
  136MPD2     C 2113   0.789   1.052   9.812 -0.8334  0.0502  0.0551
  136MPD2    C1 2114   0.854   0.977   9.905  0.1012 -0.1344  0.3785
  136MPD2    C2 2115   0.994   0.993   9.913  1.1696  0.3664  0.2319
  136MPD2    C3 2116   1.063   1.077   9.835 -0.2860  0.3062 -0.0588
  136MPD2    C4 2117   0.991   1.148   9.739  0.3207 -0.3097  0.4651
  136MPD2    C5 2118   0.857   1.130   9.728 -0.0855 -0.1938  0.7511
  136MPD2     H 2119   1.048   0.929   9.983 -1.1378  0.7908  2.4070
  136MPD2    H1 2120   1.024   1.208   9.655 -0.4948  0.2057  0.5185
  136MPD2    H2 2121   0.687   1.038   9.780  0.6979 -3.2009 -3.4470
  136MPD2    H3 2122   0.805   1.181   9.647  0.3209  0.3284  0.8239
  136MPD2     N 2123   1.200   1.094   9.828  0.0864 -0.1053  0.3584
  136MPD2    H5 2124   1.234   1.161   9.760  0.1716 -1.0472 -0.5230
  136MPD2    N1 2125   0.795   0.863   9.972  0.4432 -0.4939 -0.2267
  136MPD2    H7 2126   0.860   0.804  10.025  0.2751 -1.2113 -0.8113
  137TMC2    C1 2127   1.112   4.099   9.696  0.2444  0.1473 -0.2536
  137TMC2    C2 2128   1.064   4.230   9.678  0.1859 -0.5942 -1.0366
  137TMC2    C3 2129   0.927   4.253   9.678  0.1251 -0.2850 -0.2502
  137TMC2    C4 2130   1.027   3.999   9.734 -0.3666  0.4501 -0.1878
  137TMC2    C5 2131   0.899   4.028   9.742 -0.9897  0.5776 -0.0211
  137TMC2    C6 2132   0.844   4.154   9.724 -0.7350 -0.2997  0.4056
  137TMC2     C 2133   1.249   4.070   9.699  0.1862 -0.2085  0.6064
  137TMC2     O 2134   1.326   4.145   9.751 -0.0339  0.4373  0.3986
  137TMC2     H 2135   1.131   4.313   9.658  0.8751 -0.9839 -0.3335
  137TMC2    H1 2136   1.069   3.905   9.769  1.8341  1.3992 -0.2869
  137TMC2    H2 2137   0.736   4.169   9.730 -0.3431  1.6391  2.9415
  137TMC2    C7 2138   0.816   3.909   9.779 -0.1864  0.6200 -1.0838
  137TMC2    C8 2139   0.872   4.382   9.644 -0.5019 -0.1195  0.8830
  137TMC2    O1 2140   0.871   3.803   9.760 -0.1390 -0.2154 -0.8183
  137TMC2    O2 2141   0.758   4.408   9.680  0.3913 -0.3201  0.1443
  137TMC2    O5 2142   0.919   4.410   9.525  0.1841  0.1990 -0.6893
  137TMC2    H5 2143   1.004   4.365   9.506 -0.2230 -0.5035 -0.8229
  138MPD2     C 2144   1.385   3.737   9.626  0.6481  0.7383 -0.0296
  138MPD2    C1 2145   1.383   3.862   9.680  0.5454 -0.5904  0.4437
  138MPD2    C2 2146   1.469   3.883   9.784 -0.2395 -0.5702  0.0594
  138MPD2    C3 2147   1.528   3.778   9.849 -0.7101  0.0240  0.0370
  138MPD2    C4 2148   1.540   3.658   9.786 -0.7514 -0.3596 -0.3168
  138MPD2    C5 2149   1.475   3.644   9.672 -0.0725 -0.5905 -0.3961
  138MPD2     H 2150   1.467   3.979   9.834  2.4765 -0.9337  0.8983
  138MPD2    H1 2151   1.599   3.571   9.813  3.6726  3.3312  1.9813
  138MPD2    H2 2152   1.326   3.725   9.536 -0.3362 -0.9278  0.8205
  138MPD2    H3 2153   1.479   3.551   9.616  0.8801 -0.9556  0.2754
  138MPD2     N 2154   1.582   3.793   9.979  0.0747 -0.5186 -0.3566
  138MPD2    H5 2155   1.593   3.887  10.016  1.2777 -0.5033 -0.7757
  138MPD2    N1 2156   1.281   3.948   9.637  0.2829  0.2754  0.4972
  138MPD2    H7 2157   1.215   3.901   9.576  0.9075  1.3713 -1.0210
  139TMC2    C1 2158   2.466   2.435  13.791  0.4662  0.3273  0.2396
  139TMC2    C2 2159   2.564   2.445  13.689 -0.1296  0.2338 -0.2717
  139TMC2    C3 2160   2.580   2.554  13.613 -0.3229  0.3050  0.3115
  139TMC2    C4 2161   2.391   2.544  13.822  0.8120 -0.7913  0.0806
  139TMC2    C5 2162   2.424   2.659  13.758  0.1113  0.0658  0.3209
  139TMC2    C6 2163   2.509   2.668  13.645 -0.8778 -0.2601 -0.1265
  139TMC2     C 2164   2.458   2.308  13.862  0.4322  0.2995  0.9267
  139TMC2     O 2165   2.548   2.226  13.850  0.2089  0.3522 -0.6791
  139TMC2     H 2166   2.614   2.353  13.660 -0.0796  0.2014 -0.0838
  139TMC2    H1 2167   2.328   2.546  13.910  0.3258 -0.2395 -0.2785
  139TMC2    H2 2168   2.522   2.759  13.588  0.3574  0.5262  1.4239
  139TMC2    C7 2169   2.385   2.785  13.810  0.1953  0.1359 -0.1360
  139TMC2    C8 2170   2.653   2.555  13.490  0.3850 -0.1026  0.2801
  139TMC2    O1 2171   2.395   2.883  13.737  0.1638 -0.6841 -0.2875
  139TMC2    O2 2172   2.610   2.612  13.388  0.0125  0.3946 -0.8764
  139TMC2    O5 2173   2.743   2.458  13.486  0.0625 -0.2420  0.0148
  139TMC2    H5 2174   2.757   2.406  13.568 -2.9405  0.1430  0.7811
  140MPD2     C 2175   2.195   2.217  14.114  0.8457 -0.6297  0.2619
  140MPD2    C1 2176   2.312   2.202  14.038 -0.5694  0.3841 -0.8632
  140MPD2    C2 2177   2.371   2.075  14.026 -0.2453  0.0200 -0.3921
  140MPD2    C3 2178   2.310   1.966  14.088 -0.0242 -0.2990 -0.2145
  140MPD2    C4 2179   2.190   1.988  14.151  0.1019  0.3633  0.1418
  140MPD2    C5 2180   2.144   2.113  14.180 -0.5564 -0.4344  0.0092
  140MPD2     H 2181   2.455   2.053  13.961 -0.5760  0.7007 -1.0511
  140MPD2    H1 2182   2.131   1.912  14.201 -1.0797  1.0766 -0.1636
  140MPD2    H2 2183   2.144   2.312  14.124 -1.9163 -2.3227  1.9582
  140MPD2    H3 2184   2.051   2.121  14.236 -2.7286 -2.2043 -3.2791
  140MPD2     N 2185   2.366   1.834  14.071  0.1997  0.3706  0.4470
  140MPD2    H5 2186   2.456   1.838  14.023 -1.2401 -0.6024 -2.3643
  140MPD2    N1 2187   2.350   2.307  13.950  0.2848 -0.0963  0.2822
  140MPD2    H7 2188   2.286   2.385  13.958  0.4956  0.1457 -0.3526
  141TMC2    C1 2189   2.618   4.138  14.246 -0.8882 -0.2855 -0.4401
  141TMC2    C2 2190   2.530   4.239  14.273  0.1536 -0.3106  0.2273
  141TMC2    C3 2191   2.537   4.300  14.390 -0.4924 -0.8652 -0.3434
  141TMC2    C4 2192   2.709   4.101  14.341  0.0234 -0.3075  0.4671
  141TMC2    C5 2193   2.716   4.167  14.454  0.0407  0.4642  0.6416
  141TMC2    C6 2194   2.628   4.267  14.487  0.8798  0.2913  0.4584
  141TMC2     C 2195   2.619   4.079  14.113  0.3251 -0.3772  0.9941
  141TMC2     O 2196   2.586   4.147  14.014  0.3539  0.2567 -0.4220
  141TMC2     H 2197   2.442   4.249  14.211  1.1874  3.4632 -0.6510
  141TMC2    H1 2198   2.796   4.041  14.314 -0.1286  0.0001 -0.6853
  141TMC2    H2 2199   2.640   4.315  14.583 -0.9775 -0.3364  1.0062
  141TMC2    C7 2200   2.816   4.133  14.558 -0.7334  0.4211  0.3909
  141TMC2    C8 2201   2.422   4.365  14.449 -0.2744 -0.3225  0.1674
  141TMC2    O1 2202   2.871   4.026  14.536 -0.1959  0.1774  0.1247
  141TMC2    O2 2203   2.411   4.381  14.570  0.5855  0.0216  0.3837
  141TMC2    O5 2204   2.376   4.446  14.361  0.2423 -0.4042 -0.3331
  141TMC2    H5 2205   2.430   4.461  14.280  1.8687 -0.8761  0.6548
  142TMC2    C1 2206   0.730   3.170   9.815  0.4191  0.3531 -0.0703
  142TMC2    C2 2207   0.832   3.096   9.765 -0.2721 -0.1792  0.7322
  142TMC2    C3 2208   0.958   3.140   9.792  0.6546 -0.3221  0.7597
  142TMC2    C4 2209   0.750   3.282   9.889  0.5496 -0.0807 -0.1288
  142TMC2    C5 2210   0.877   3.316   9.910  0.0858  0.7172 -0.0522
  142TMC2    C6 2211   0.984   3.252   9.857 -0.0601  0.1551  0.2905
  142TMC2     C 2212   0.596   3.124   9.789 -1.0824 -0.4606 -0.2897
  142TMC2     O 2213   0.576   3.012   9.747  0.0160 -0.1326 -0.0231
  142TMC2     H 2214   0.816   3.007   9.705 -0.5355  1.3182 -1.4431
  142TMC2    H1 2215   0.680   3.339   9.949 -2.6240 -2.0554 -1.9464
  142TMC2    H2 2216   1.086   3.286   9.876 -0.3221  0.0526  1.8583
  142TMC2    C7 2217   0.903   3.428   9.994 -0.1750  0.0417  0.6965
  142TMC2    C8 2218   1.075   3.065   9.761  0.0679  0.1890  0.0997
  142TMC2    O1 2219   0.836   3.441  10.094 -0.0587  0.6920 -0.2969
  142TMC2    O2 2220   1.190   3.081   9.798 -0.2340  0.0506  0.6396
  142TMC2    O5 2221   1.050   3.006   9.643 -0.1777 -0.2325 -0.4623
  142TMC2    H5 2222   0.966   3.040   9.607  0.6588  2.5665  0.2009
  143MPD2     C 2223   0.094   3.201   9.774 -0.1677 -0.1150 -0.5989
  143MPD2    C1 2224   0.166   3.090   9.802 -0.4306  0.2645  0.5443
  143MPD2    C2 2225   0.306   3.099   9.816 -0.6559 -0.6151 -0.0055
  143MPD2    C3 2226   0.370   3.221   9.797  0.5124 -0.0298  1.0421
  143MPD2    C4 2227   0.293   3.333   9.785 -0.5119  0.2927 -0.0513
  143MPD2    C5 2228   0.156   3.319   9.778  0.2083  0.0319 -0.0051
  143MPD2     H 2229   0.368   3.011   9.821  0.7615  0.3287 -0.9661
  143MPD2    H1 2230   0.339   3.429   9.767  2.2114 -1.3918 -2.0900
  143MPD2    H2 2231   4.722   3.208   9.780 -0.1412 -0.7319  0.5853
  143MPD2    H3 2232   0.095   3.409   9.769 -0.0529  0.0264  1.8661
  143MPD2     N 2233   0.515   3.230   9.801 -0.4635  0.0081 -0.2121
  143MPD2    H5 2234   0.552   3.324   9.807 -0.3416  0.0923 -2.1574
  143MPD2    N1 2235   0.104   2.964   9.812  0.0713  0.1431  0.4397
  143MPD2    H7 2236   0.005   2.963   9.790 -0.0899 -1.9680  1.2861
  144TMC2    C1 2237   3.038   1.582   0.952  0.1431  0.2150 -0.3810
  144TMC2    C2 2238   3.113   1.468   0.977 -0.4096  0.6942  0.1885
  144TMC2    C3 2239   3.250   1.477   0.970  0.5231  0.7054  0.0147
  144TMC2    C4 2240   3.102   1.702   0.924 -0.2149 -0.0936  0.6295
  144TMC2    C5 2241   3.232   1.700   0.910  0.0563  0.0446 -0.0517
  144TMC2    C6 2242   3.312   1.592   0.935  0.2308 -0.5647  0.6729
  144TMC2     C 2243   2.901   1.559   0.919  0.3044  0.2934 -0.5602
  144TMC2     O 2244   2.874   1.442   0.907 -0.0967 -0.2069  0.0982
  144TMC2     H 2245   3.070   1.377   1.015 -1.1485  1.9587  2.3792
  144TMC2    H1 2246   3.050   1.789   0.883  3.1792  1.9488  0.6659
  144TMC2    H2 2247   3.419   1.607   0.947  0.3377 -1.0311  0.2735
  144TMC2    C7 2248   3.306   1.823   0.905  0.2618  0.0555  0.3518
  144TMC2    C8 2249   3.322   1.350   0.963 -0.2096 -0.4298  0.3258
  144TMC2    O1 2250   3.418   1.815   0.845  0.9384  0.4259 -0.5517
  144TMC2    O2 2251   3.437   1.344   0.921  0.4562  0.3168  0.1499
  144TMC2    O5 2252   3.259   1.245   1.025 -0.1353 -0.1568  0.7322
  144TMC2    H5 2253   3.175   1.269   1.068 -1.2320  0.4478 -1.7823
  145MPD2     C 2254   2.456   1.760   0.757 -0.3024 -0.8412  0.5660
  145MPD2    C1 2255   2.523   1.642   0.726 -0.7158 -0.0172  0.4347
  145MPD2    C2 2256   2.633   1.607   0.795  0.3736  0.5145  0.4748
  145MPD2    C3 2257   2.698   1.697   0.877  0.3981  0.6184  1.0859
  145MPD2    C4 2258   2.633   1.815   0.908  0.0664 -0.0797 -0.8278
  145MPD2    C5 2259   2.514   1.843   0.845 -0.1275 -0.4632 -0.3347
  145MPD2     H 2260   2.680   1.511   0.773 -2.0647 -0.6992  0.5312
  145MPD2    H1 2261   2.674   1.892   0.972  1.5750 -0.3496 -1.4721
  145MPD2    H2 2262   2.359   1.789   0.720  0.0110  1.9738  1.9670
  145MPD2    H3 2263   2.460   1.936   0.858  2.3342  1.1883 -1.7230
  145MPD2     N 2264   2.828   1.675   0.926 -1.2370  0.0278 -0.4793
  145MPD2    H5 2265   2.872   1.748   0.981  1.1438 -1.1198 -0.8630
  145MPD2    N1 2266   2.476   1.544   0.638 -0.2507  0.4722 -0.0846
  145MPD2    H7 2267   2.533   1.462   0.621 -0.8335  0.2991 -1.2121
  146TMC2    C1 2268   4.380   0.127  11.910 -0.4747  0.3729 -1.0300
  146TMC2    C2 2269   4.364   0.175  11.782  0.0160 -0.0212  0.6583
  146TMC2    C3 2270   4.450   0.135  11.690 -0.2005 -0.1362 -0.3894
  146TMC2    C4 2271   4.477   0.030  11.939  0.8752 -0.5364 -0.0643
  146TMC2    C5 2272   4.560   4.726  11.839 -0.0751 -0.2429 -0.5306
  146TMC2    C6 2273   4.547   0.044  11.712 -0.0164  0.6120 -0.2223
  146TMC2     C 2274   4.296   0.176  12.013 -0.2196  0.4271  0.1591
  146TMC2     O 2275   4.211   0.264  11.989 -0.1855  0.2966  0.6080
  146TMC2     H 2276   4.278   0.236  11.757  1.1033  1.4997  0.5691
  146TMC2    H1 2277   4.504   4.724  12.035 -1.3741 -1.2852  0.2399
  146TMC2    H2 2278   4.610   0.001  11.634 -0.2609 -0.9456  0.4322
  146TMC2    C7 2279   4.686   4.653  11.864 -0.5522  0.1883 -0.1955
  146TMC2    C8 2280   4.464   0.214  11.569 -0.6402 -0.4792 -0.1859
  146TMC2    O1 2281   0.032   4.641  11.773  0.3546  0.2376 -0.9428
  146TMC2    O2 2282   4.518   0.166  11.470  0.2923  0.0226  0.2716
  146TMC2    O5 2283   4.459   0.348  11.596 -0.3375 -0.3484 -0.2428
  146TMC2    H5 2284   4.422   0.364  11.685 -0.9233  0.6831 -0.6620
  147MPD2     C 2285   0.307   4.427  12.130 -0.1918  0.1090 -0.6580
  147MPD2    C1 2286   0.184   4.395  12.188 -0.0661 -0.4118  0.0401
  147MPD2    C2 2287   0.065   4.451  12.144 -0.0412  0.2257  0.7375
  147MPD2    C3 2288   0.077   4.538  12.033  0.2286  0.4375 -0.3650
  147MPD2    C4 2289   0.199   4.564  11.978 -0.7207 -0.1576 -0.2560
  147MPD2    C5 2290   0.312   4.506  12.023  0.1108 -0.2366  0.5292
  147MPD2     H 2291   4.700   4.432  12.178  0.2615 -1.5904  0.6239
  147MPD2    H1 2292   0.211   4.638  11.900  0.4101 -1.2157 -1.0833
  147MPD2    H2 2293   0.400   4.380  12.160 -0.2446 -0.3833 -1.2540
  147MPD2    H3 2294   0.408   4.534  11.983 -0.0375  0.0231  0.3591
  147MPD2     N 2295   4.690   4.599  11.986 -0.3830  0.2740 -0.6931
  147MPD2    H5 2296   4.620   4.626  12.054  1.0870  1.3606  0.4108
  147MPD2    N1 2297   0.188   4.288  12.284  0.5622 -0.3238 -0.5659
  147MPD2    H7 2298   0.281   4.247  12.290 -0.1303 -1.8865 -0.6189
  148TMC2    C1 2299   0.510   3.530  10.631 -0.0795  1.0428 -0.2511
  148TMC2    C2 2300   0.607   3.505  10.722 -0.2233 -0.1382 -0.1001
  148TMC2    C3 2301   0.652   3.379  10.717 -0.3552  0.9982 -0.0339
  148TMC2    C4 2302   0.465   3.440  10.535  0.0477 -0.2029  0.0268
  148TMC2    C5 2303   0.499   3.309  10.547 -0.5200 -0.2275 -0.0962
  148TMC2    C6 2304   0.593   3.281  10.642 -0.4119 -0.0232 -0.3831
  148TMC2     C 2305   0.437   3.651  10.647  0.5067 -0.2731 -0.0460
  148TMC2     O 2306   0.471   3.731  10.732  0.0255  0.5567  0.3360
  148TMC2     H 2307   0.640   3.572  10.801 -0.1777 -1.5619  1.0904
  148TMC2    H1 2308   0.415   3.470  10.443  2.9946  0.8618 -1.2566
  148TMC2    H2 2309   0.610   3.176  10.660  1.6621  0.6024  1.3080
  148TMC2    C7 2310   0.395   3.214  10.518 -0.3143  0.5249  0.3345
  148TMC2    C8 2311   0.748   3.334  10.817  0.5381 -0.9769  0.8602
  148TMC2    O1 2312   0.284   3.265  10.494 -0.2684  0.2862  0.1751
  148TMC2    O2 2313   0.716   3.355  10.932 -0.2627 -0.0195  0.3420
  148TMC2    O5 2314   0.808   3.223  10.781 -0.2579  0.3791 -0.6068
  148TMC2    H5 2315   0.829   3.222  10.685  1.2791  0.5555 -0.2719
  149MPD2     C 2316   0.204   3.844  10.612 -0.3413 -0.7375  0.2828
  149MPD2    C1 2317   0.196   3.709  10.613 -0.1207 -0.1531  0.2962
  149MPD2    C2 2318   0.072   3.644  10.617 -0.4206  0.3435 -0.0461
  149MPD2    C3 2319   4.693   3.727  10.626  0.4294  0.0954  0.3185
  149MPD2    C4 2320   4.704   3.864  10.623 -0.1212 -0.6979  0.1078
  149MPD2    C5 2321   0.092   3.922  10.617  0.1350  0.6034 -0.5564
  149MPD2     H 2322   0.069   3.536  10.609 -1.0250  0.4570 -1.3066
  149MPD2    H1 2323   4.615   3.925  10.619  0.7188  0.6172  1.6447
  149MPD2    H2 2324   0.299   3.896  10.604 -1.0541  0.0914 -3.0531
  149MPD2    H3 2325   0.098   4.030  10.612  1.9611  0.5361  0.0972
  149MPD2     N 2326   4.561   3.677  10.630  0.3047  0.0130 -0.8100
  149MPD2    H5 2327   4.482   3.741  10.625  0.0787  0.0027  2.3202
  149MPD2    N1 2328   0.310   3.625  10.610 -0.7765 -0.6903 -0.1652
  149MPD2    H7 2329   0.301   3.527  10.585 -0.3019 -1.1189  1.3332
  150TMC2    C1 2330   1.424   2.822  12.372  0.0724  0.0986  0.0494
  150TMC2    C2 2331   1.433   2.918  12.274  0.7956 -0.4741  0.0717
  150TMC2    C3 2332   1.556   2.939  12.216  0.2908 -0.1959 -0.9002
  150TMC2    C4 2333   1.540   2.759  12.415 -0.0526  0.7124  0.1661
  150TMC2    C5 2334   1.656   2.796  12.359 -0.9794 -0.1661 -0.2210
  150TMC2    C6 2335   1.670   2.871  12.247  0.0403  0.1585  0.5062
  150TMC2     C 2336   1.298   2.772  12.419  0.5323  0.1122  0.3042
  150TMC2     O 2337   1.299   2.694  12.514  0.0062 -0.3468 -0.1740
  150TMC2     H 2338   1.346   2.973  12.242 -0.9988 -1.9576  2.4570
  150TMC2    H1 2339   1.547   2.687  12.497 -0.2289  0.2234 -0.2467
  150TMC2    H2 2340   1.760   2.901  12.194 -0.6504  2.7334  0.8149
  150TMC2    C7 2341   1.769   2.756  12.436  0.4860  0.2835 -0.1520
  150TMC2    C8 2342   1.566   3.040  12.113 -0.3749 -0.5702 -0.0200
  150TMC2    O1 2343   1.750   2.719  12.552  0.3038 -0.0117 -0.0370
  150TMC2    O2 2344   1.680   3.081  12.094  0.1240 -0.4058  0.3003
  150TMC2    O5 2345   1.460   3.037  12.031 -0.7598 -0.9251 -0.3921
  150TMC2    H5 2346   1.384   2.980  12.054 -1.3779  0.4169  0.8853
  151MPD2     C 2347   0.784   2.783  12.416 -0.3271 -0.1356  0.4549
  151MPD2    C1 2348   0.826   2.795  12.287 -0.3216  0.0392  0.9157
  151MPD2    C2 2349   0.958   2.821  12.271 -0.2793  0.0702  0.5217
  151MPD2    C3 2350   1.054   2.803  12.365  0.3852  0.0181  0.2107
  151MPD2    C4 2351   1.008   2.772  12.493 -0.6131  0.1274 -0.2399
  151MPD2    C5 2352   0.879   2.764  12.525  0.4584 -0.1199 -0.1829
  151MPD2     H 2353   0.990   2.862  12.176 -0.0185 -1.1512  0.0800
  151MPD2    H1 2354   1.072   2.773  12.580 -0.5093  2.4427 -0.3401
  151MPD2    H2 2355   0.678   2.775  12.436 -0.0663 -0.3122  1.7516
  151MPD2    H3 2356   0.833   2.742  12.621  0.6327 -1.3714 -0.3868
  151MPD2     N 2357   1.194   2.817  12.335  0.2210  0.3517 -0.4118
  151MPD2    H5 2358   1.224   2.852  12.245 -1.1963 -0.8877 -1.3550
  151MPD2    N1 2359   0.723   2.793  12.185  0.6934  0.7824 -0.2826
  151MPD2    H7 2360   0.629   2.784  12.220 -0.0169  1.1638 -2.1149
  152TMC2    C1 2361   1.526   2.654  13.657 -0.6881 -0.3904 -0.2248
  152TMC2    C2 2362   1.577   2.528  13.661 -0.3723 -0.1816  0.4958
  152TMC2    C3 2363   1.705   2.512  13.610 -0.3395 -0.2308 -0.1056
  152TMC2    C4 2364   1.602   2.765  13.622  0.2225  0.7248  0.2008
  152TMC2    C5 2365   1.717   2.740  13.554  0.0366  0.0454  0.8329
  152TMC2    C6 2366   1.775   2.615  13.551 -1.0326 -0.4246 -0.1483
  152TMC2     C 2367   1.382   2.684  13.636  0.3018 -0.6102 -0.5629
  152TMC2     O 2368   1.339   2.798  13.619  0.8436 -0.5463 -0.3447
  152TMC2     H 2369   1.530   2.444  13.710 -1.3977 -0.5332 -1.0765
  152TMC2    H1 2370   1.552   2.861  13.622  3.1245  2.2197  1.3734
  152TMC2    H2 2371   1.879   2.604  13.522 -0.6893  0.0311  0.8863
  152TMC2    C7 2372   1.766   2.848  13.469 -0.7972 -0.1506 -0.2633
  152TMC2    C8 2373   1.742   2.376  13.591  0.5014  0.2381 -0.4588
  152TMC2    O1 2374   1.705   2.954  13.458 -0.1629  0.6340 -0.0800
  152TMC2    O2 2375   1.719   2.308  13.689 -0.0141 -0.4951  0.0252
  152TMC2    O5 2376   1.697   2.335  13.471  0.5478 -0.5843 -0.6047
  152TMC2    H5 2377   1.712   2.412  13.412 -0.4948 -0.7827 -1.1437
  153MPD2     C 2378   1.093   2.457  13.699 -0.6031 -0.4859  1.0372
  153MPD2    C1 2379   1.165   2.562  13.636 -0.0546 -0.7307  0.1495
  153MPD2    C2 2380   1.095   2.648  13.545 -0.9635  0.2353 -0.5437
  153MPD2    C3 2381   0.968   2.609  13.510 -0.0194 -0.2031 -0.5521
  153MPD2    C4 2382   0.899   2.512  13.578 -0.4773  0.5276  0.5010
  153MPD2    C5 2383   0.964   2.437  13.671 -0.4017 -0.3887 -0.0056
  153MPD2     H 2384   1.144   2.724  13.485 -0.3068  0.0837 -0.2006
  153MPD2    H1 2385   0.795   2.486  13.564 -0.3799  0.1151  0.5279
  153MPD2    H2 2386   1.148   2.397  13.771  0.8326  0.0081  0.3598
  153MPD2    H3 2387   0.912   2.365  13.733 -0.4552  0.2869  0.7365
  153MPD2     N 2388   0.909   2.685  13.407  1.0233 -0.5740  0.1806
  153MPD2    H5 2389   0.949   2.771  13.372  0.3576 -0.5932 -0.6381
  153MPD2    N1 2390   1.300   2.568  13.666 -0.1200 -0.0958 -0.0483
  153MPD2    H7 2391   1.352   2.494  13.712  2.0373  0.9194 -0.8380
  154TMC2    C1 2392   2.587   2.715   0.496  0.0457 -0.0231 -0.4437
  154TMC2    C2 2393   2.710   2.707   0.558 -0.7786  0.2033 -0.3633
  154TMC2    C3 2394   2.786   2.606   0.508  0.7077  0.4353 -0.2016
  154TMC2    C4 2395   2.545   2.638   0.389  0.1023  0.1435  0.2549
  154TMC2    C5 2396   2.630   2.543   0.341  0.4560  0.0679 -0.1511
  154TMC2    C6 2397   2.755   2.527   0.399  0.4488  0.2950  0.0644
  154TMC2     C 2398   2.492   2.795   0.570  0.0239 -0.0826  0.1897
  154TMC2     O 2399   2.523   2.830   0.684  0.2689 -0.0411  0.1058
  154TMC2     H 2400   2.730   2.761   0.650  1.1702 -1.1562  0.0255
  154TMC2    H1 2401   2.457   2.666   0.332  1.1997 -1.9469 -2.4811
  154TMC2    H2 2402   2.825   2.451   0.367  1.1863  1.7713 -1.8401
  154TMC2    C7 2403   2.583   2.458   0.238 -0.8800  0.1892  0.0406
  154TMC2    C8 2404   2.907   2.565   0.580 -0.7088  0.4723 -0.3892
  154TMC2    O1 2405   2.485   2.493   0.169 -0.1397  0.0843 -0.0239
  154TMC2    O2 2406   2.954   2.454   0.566 -0.0963  0.0594  0.2547
  154TMC2    O5 2407   2.953   2.674   0.647 -0.4987 -0.7729 -0.1424
  154TMC2    H5 2408   2.911   2.759   0.621 -0.1870 -0.3983  0.5855
  155MPD2     C 2409   2.263   3.026   0.413  0.6841  1.1900 -0.3333
  155MPD2    C1 2410   2.333   2.971   0.512 -0.5943  0.3375  0.5227
  155MPD2    C2 2411   2.316   3.027   0.640  0.1186  1.0739 -0.5804
  155MPD2    C3 2412   2.220   3.118   0.659  0.6853  0.1050 -0.0827
  155MPD2    C4 2413   2.146   3.164   0.555  0.0502 -0.1766  0.5711
  155MPD2    C5 2414   2.168   3.116   0.431  0.8180 -0.9028 -0.4478
  155MPD2     H 2415   2.376   2.998   0.725  0.6326 -0.3087 -1.4233
  155MPD2    H1 2416   2.058   3.225   0.570 -1.0010 -1.1936 -1.5613
  155MPD2    H2 2417   2.280   2.986   0.314  0.2843 -0.4820  0.2834
  155MPD2    H3 2418   2.104   3.152   0.352  1.3092 -2.0085 -1.3572
  155MPD2     N 2419   2.211   3.172   0.794 -0.1111  0.8464  0.6153
  155MPD2    H5 2420   2.284   3.141   0.857  0.1370  0.9961  0.3991
  155MPD2    N1 2421   2.413   2.867   0.481 -0.6423 -0.1109 -0.7122
  155MPD2    H7 2422   2.415   2.848   0.381  0.0660  1.4802 -1.0025
  156TMC2    C1 2423   1.919   0.177  11.675 -0.2235 -0.1576  0.4342
  156TMC2    C2 2424   2.008   0.129  11.587 -0.4856  0.6277 -0.4001
  156TMC2    C3 2425   1.995   0.160  11.459 -0.1652 -0.8616  0.5772
  156TMC2    C4 2426   1.805   0.237  11.639 -0.6641  0.0601 -0.0756
  156TMC2    C5 2427   1.794   0.269  11.504 -0.0032 -0.4437 -0.3073
  156TMC2    C6 2428   1.888   0.236  11.415  0.7011 -0.4044 -0.3196
  156TMC2     C 2429   1.954   0.188  11.812  0.6509 -0.6016 -0.6303
  156TMC2     O 2430   1.851   0.209  11.882 -0.1964  0.2758 -0.6820
  156TMC2     H 2431   2.095   0.071  11.614  0.2688  1.9914  0.1458
  156TMC2    H1 2432   1.732   0.267  11.714 -0.3293 -0.3118  0.4019
  156TMC2    H2 2433   1.882   0.270  11.313  0.9181  0.0141 -0.1922
  156TMC2    C7 2434   1.705   0.369  11.448 -0.2387  0.8641  0.2950
  156TMC2    C8 2435   2.093   0.125  11.365 -0.1683  0.0745  0.0210
  156TMC2    O1 2436   1.735   0.427  11.346  0.5282  0.0614  0.3630
  156TMC2    O2 2437   2.069   0.074  11.255  1.2131  0.2108 -0.1429
  156TMC2    O5 2438   2.218   0.136  11.426  0.4163  0.1825 -0.4109
  156TMC2    H5 2439   2.220   0.172  11.517 -0.0994  0.4001 -0.4891
  157MPD2     C 2440   2.285   0.150  11.979 -0.4498  0.2636  0.1464
  157MPD2    C1 2441   2.150   0.167  11.967  0.2662 -0.4163 -0.7520
  157MPD2    C2 2442   2.085   0.210  12.077  0.0468 -0.3544  0.5272
  157MPD2    C3 2443   2.147   0.255  12.188 -0.3075  0.0700  0.0292
  157MPD2    C4 2444   2.286   0.253  12.193  0.7296  0.3054 -0.5887
  157MPD2    C5 2445   2.350   0.188  12.093 -0.4381 -0.4981  0.8391
  157MPD2     H 2446   1.977   0.218  12.083  0.1078  1.0234 -0.1664
  157MPD2    H1 2447   2.340   0.281  12.283  1.6424  1.4515 -1.4915
  157MPD2    H2 2448   2.359   0.120  11.905 -0.3576  0.1591  0.2815
  157MPD2    H3 2449   2.458   0.182  12.086 -0.3836  2.6832 -1.1564
  157MPD2     N 2450   2.062   0.316  12.278  0.5564  0.5593  0.3509
  157MPD2    H5 2451   1.963   0.301  12.260  0.9006 -0.6697 -0.5011
  157MPD2    N1 2452   2.090   0.162  11.841 -0.5157 -0.1561  0.3467
  157MPD2    H7 2453   2.153   0.170  11.762  1.2793  0.4310  1.8307
  158TMC2    C1 2454   1.673   4.499  13.254 -0.4255  0.1847  0.4175
  158TMC2    C2 2455   1.633   4.565  13.144 -0.5252 -0.3664 -0.7150
  158TMC2    C3 2456   1.667   4.519  13.027 -0.5918 -0.6451 -0.3307
  158TMC2    C4 2457   1.733   4.376  13.256 -0.0215  0.0795 -0.6068
  158TMC2    C5 2458   1.760   4.331  13.131  0.6263 -0.3013  0.1536
  158TMC2    C6 2459   1.726   4.400  13.017 -0.2279  0.0066  0.4903
  158TMC2     C 2460   1.590   4.524  13.373  0.1117  0.0101 -0.3987
  158TMC2     O 2461   1.494   4.601  13.357 -0.5351 -0.5879 -0.2183
  158TMC2     H 2462   1.591   4.665  13.151  5.2928  1.8199  3.4822
  158TMC2    H1 2463   1.770   4.334  13.349  0.3290 -1.0579 -1.2577
  158TMC2    H2 2464   1.755   4.367  12.918  3.2329  1.2992  1.1077
  158TMC2    C7 2465   1.831   4.208  13.108 -0.1740 -0.1813 -0.0458
  158TMC2    C8 2466   1.635   4.593  12.909 -0.4532 -0.2736  0.1022
  158TMC2    O1 2467   1.859   4.169  12.994  0.2708 -0.0961  0.1549
  158TMC2    O2 2468   1.560   4.689  12.915 -0.3226  0.0343  0.6259
  158TMC2    O5 2469   1.739   4.589  12.824 -0.0375 -0.2581  0.4250
  158TMC2    H5 2470   1.811   4.538  12.866 -1.3353 -0.8223  1.9590
  159MPD2     C 2471   1.529   4.578  13.875  0.3723 -0.7051 -0.1535
  159MPD2    C1 2472   1.652   4.520  13.849 -0.3324 -0.4213 -1.3386
  159MPD2    C2 2473   1.685   4.480  13.721  0.2502  0.0185  0.2069
  159MPD2    C3 2474   1.592   4.501  13.616 -0.3135  0.8914 -0.6686
  159MPD2    C4 2475   1.470   4.564  13.647  0.0368  0.0754  0.2423
  159MPD2    C5 2476   1.437   4.595  13.778 -0.5703 -0.6439  0.2353
  159MPD2     H 2477   1.780   4.432  13.698 -0.3277  0.0599 -2.2638
  159MPD2    H1 2478   1.403   4.584  13.564  0.3495 -0.1458 -0.0626
  159MPD2    H2 2479   1.487   4.592  13.974  0.0889  0.3511 -0.4182
  159MPD2    H3 2480   1.339   4.631  13.808  0.0347 -0.0348  1.4916
  159MPD2     N 2481   1.638   4.473  13.485  0.1157  0.0156 -0.8304
  159MPD2    H5 2482   1.724   4.418  13.484 -0.1433 -0.3767 -1.7935
  159MPD2    N1 2483   1.733   4.512  13.966  0.8634 -0.1460 -0.3022
  159MPD2    H7 2484   1.702   4.554  14.052  2.0650  0.7477 -0.3079
  160TMC2    C1 2485   1.611   2.086   1.815 -0.6806  1.0491 -0.1114
  160TMC2    C2 2486   1.604   1.979   1.897  0.3672  0.0158  0.2823
  160TMC2    C3 2487   1.647   1.854   1.845 -0.5633  0.7551 -0.4348
  160TMC2    C4 2488   1.659   2.075   1.685 -0.4248  0.8746 -0.8173
  160TMC2    C5 2489   1.693   1.952   1.643  0.3207  0.1329 -0.0544
  160TMC2    C6 2490   1.691   1.839   1.721 -0.0939 -0.0946  0.0502
  160TMC2     C 2491   1.595   2.220   1.875  0.8973 -0.0700 -0.1630
  160TMC2     O 2492   1.593   2.226   1.996  0.7257  0.2290  0.2407
  160TMC2     H 2493   1.579   1.977   2.002  0.6724 -1.1776  0.3359
  160TMC2    H1 2494   1.636   2.150   1.610 -0.2875  0.9824 -0.7514
  160TMC2    H2 2495   1.726   1.745   1.680 -0.8828  0.2156 -1.3275
  160TMC2    C7 2496   1.781   1.952   1.520 -0.4085 -0.0485 -0.5333
  160TMC2    C8 2497   1.681   1.745   1.936 -0.9481  0.5214 -0.1793
  160TMC2    O1 2498   1.778   1.858   1.444  0.3221 -0.4335 -0.2980
  160TMC2    O2 2499   1.770   1.663   1.922 -0.3985  0.0231  0.2738
  160TMC2    O5 2500   1.562   1.719   1.992  0.1300  0.0907  0.0512
  160TMC2    H5 2501   1.490   1.784   1.984 -1.4620 -1.6480  0.3685
  161MPD2     C 2502   1.557   2.526   1.890  0.1216 -1.3076 -0.2591
  161MPD2    C1 2503   1.515   2.441   1.794  0.9399 -0.0974 -0.3490
  161MPD2    C2 2504   1.442   2.507   1.695  0.2126 -0.0264 -0.2372
  161MPD2    C3 2505   1.407   2.649   1.698 -0.1563  0.0299 -0.1677
  161MPD2    C4 2506   1.450   2.722   1.806 -0.0771  0.0176  0.0176
  161MPD2    C5 2507   1.530   2.660   1.898  0.9239 -0.3707  0.0883
  161MPD2     H 2508   1.398   2.443   1.619  1.8588 -1.5180  0.0492
  161MPD2    H1 2509   1.430   2.827   1.820 -0.8407 -0.2040  0.5989
  161MPD2    H2 2510   1.626   2.488   1.965  0.0493  0.7492  0.8472
  161MPD2    H3 2511   1.570   2.721   1.978  1.7889 -1.9744  0.8727
  161MPD2     N 2512   1.329   2.710   1.596 -0.3270 -0.0548 -0.4734
  161MPD2    H5 2513   1.315   2.809   1.615  0.6745  0.2781 -1.4429
  161MPD2    N1 2514   1.547   2.303   1.779 -0.1614  0.1095  0.4358
  161MPD2    H7 2515   1.522   2.250   1.696 -0.0204  2.9035 -1.3981
  162TMC2    C1 2516   0.092   4.217   1.480 -0.0796 -0.6256  0.6049
  162TMC2    C2 2517   0.083   4.329   1.556 -0.2746 -0.1179  0.2601
  162TMC2    C3 2518   0.173   4.346   1.656  0.1339 -0.0245  0.4290
  162TMC2    C4 2519   0.190   4.126   1.509  0.3094 -0.2981  0.3145
  162TMC2    C5 2520   0.267   4.139   1.624  0.5228 -0.7658  0.5642
  162TMC2    C6 2521   0.266   4.257   1.689  0.0140 -0.1728 -0.1159
  162TMC2     C 2522   0.020   4.197   1.355 -0.4173  0.1408 -0.3596
  162TMC2     O 2523   0.059   4.108   1.281 -0.3371  0.1130  0.1404
  162TMC2     H 2524   0.006   4.402   1.534  0.1341  0.1110 -0.3876
  162TMC2    H1 2525   0.195   4.035   1.449  1.6237  1.8172 -2.7979
  162TMC2    H2 2526   0.329   4.283   1.773 -0.5663 -0.9702  0.5584
  162TMC2    C7 2527   0.379   4.054   1.635 -0.3173  0.6336  0.2209
  162TMC2    C8 2528   0.154   4.453   1.753  0.3701 -0.4318 -0.0864
  162TMC2    O1 2529   0.472   4.095   1.704  0.4101  0.1811 -0.3234
  162TMC2    O2 2530   0.239   4.487   1.834 -0.0729 -0.4775  0.2108
  162TMC2    O5 2531   0.020   4.446   1.784  0.2875  0.2334 -0.2706
  162TMC2    H5 2532   4.681   4.414   1.728 -0.1535  2.4028 -0.9219
  163MPD2     C 2533   4.373   4.348   1.047 -0.2437 -0.0765  0.2499
  163MPD2    C1 2534   4.477   4.263   1.020  0.1447  0.1744 -0.0921
  163MPD2    C2 2535   4.573   4.243   1.121 -0.7406 -0.1889  0.2206
  163MPD2    C3 2536   4.552   4.296   1.249 -0.2953 -0.6460  0.2814
  163MPD2    C4 2537   4.445   4.383   1.270  0.1728 -0.3609 -0.0570
  163MPD2    C5 2538   4.361   4.411   1.169  0.0676  0.0592 -0.1449
  163MPD2     H 2539   4.651   4.170   1.105 -1.0464 -0.4680 -0.0145
  163MPD2    H1 2540   4.436   4.432   1.366 -0.3608  2.6559 -1.6727
  163MPD2    H2 2541   4.286   4.354   0.983 -0.6295  1.7733  0.9444
  163MPD2    H3 2542   4.281   4.480   1.190  0.9044 -0.2418  4.2496
  163MPD2     N 2543   4.649   4.287   1.351  0.0565 -0.2105  0.4226
  163MPD2    H5 2544   4.627   4.343   1.433 -1.4304 -0.5463  0.2524
  163MPD2    N1 2545   4.473   4.181   0.901 -0.2138 -0.1549  0.2850
  163MPD2    H7 2546   4.394   4.193   0.839  0.7301 -0.5668 -0.9816
  164TMC2    C1 2547   0.069   3.757  10.995  0.9214 -0.1394 -0.0189
  164TMC2    C2 2548   0.172   3.829  10.939 -0.0299 -0.2436 -0.0249
  164TMC2    C3 2549   0.152   3.963  10.960  0.1052 -0.4614 -0.1840
  164TMC2    C4 2550   4.685   3.808  11.033 -0.0764 -0.3301 -0.5087
  164TMC2    C5 2551   4.659   3.940  11.024  0.5172 -0.2528 -0.1596
  164TMC2    C6 2552   0.034   4.023  10.992  0.0040 -0.3301  0.2091
  164TMC2     C 2553   0.070   3.610  10.989 -0.3754 -1.1732 -0.7244
  164TMC2     O 2554   4.700   3.556  11.014 -0.4995  0.4376  0.2758
  164TMC2     H 2555   0.259   3.792  10.886  0.0051  0.7955 -0.6760
  164TMC2    H1 2556   4.602   3.741  11.050  0.6322 -1.5973 -2.0800
  164TMC2    H2 2557   0.031   4.130  11.011  0.9039 -0.2979  0.2032
  164TMC2    C7 2558   4.569   4.003  11.120  0.1989 -0.1840 -0.4999
  164TMC2    C8 2559   0.282   4.027  10.981  0.2933 -0.1060  0.0305
  164TMC2    O1 2560   4.510   4.104  11.083 -0.5055 -0.2383  0.1915
  164TMC2    O2 2561   0.379   3.958  11.009  0.2014  0.1520 -0.2769
  164TMC2    O5 2562   0.293   4.130  10.900  0.1091 -0.6203 -0.3438
  164TMC2    H5 2563   0.211   4.168  10.863 -0.0281 -0.6676 -0.0862
  165TMC2    C1 2564   2.145   1.079   2.195  0.1344 -0.7365  0.1526
  165TMC2    C2 2565   2.266   1.046   2.242 -0.6441  0.8960  0.0949
  165TMC2    C3 2566   2.379   1.078   2.173 -0.0383  0.3667 -1.0175
  165TMC2    C4 2567   2.142   1.137   2.066  0.3405  0.5157 -0.0692
  165TMC2    C5 2568   2.261   1.159   1.992 -0.0116 -0.3678  0.5628
  165TMC2    C6 2569   2.380   1.134   2.049 -0.0749  0.1460  0.4369
  165TMC2     C 2570   2.026   1.015   2.237  0.8165 -0.7034  0.0958
  165TMC2     O 2571   2.037   0.929   2.325  0.3579 -0.2007  0.3955
  165TMC2     H 2572   2.288   1.013   2.343  0.2103  2.0914  0.3006
  165TMC2    H1 2573   2.048   1.152   2.013  1.3783  0.4888 -1.9291
  165TMC2    H2 2574   2.475   1.162   2.005 -0.0516 -0.2960  0.2113
  165TMC2    C7 2575   2.265   1.236   1.872 -0.3693  0.2570 -0.4782
  165TMC2    C8 2576   2.494   1.009   2.217  0.0936  0.0711  0.1000
  165TMC2    O1 2577   2.368   1.296   1.845  0.1747 -0.0956 -0.4303
  165TMC2    O2 2578   2.526   0.995   2.337 -0.4639  0.5663  0.6083
  165TMC2    O5 2579   2.561   0.955   2.112  0.1540 -0.0977 -0.1681
  165TMC2    H5 2580   2.508   0.950   2.029 -0.7771 -0.6205  0.4587
  166MPD2     C 2581   1.534   0.938   2.283 -0.5467  0.2856  0.4810
  166MPD2    C1 2582   1.636   0.846   2.286 -0.8448  0.5820 -0.4673
  166MPD2    C2 2583   1.765   0.883   2.245 -0.1081 -0.1186 -0.4716
  166MPD2    C3 2584   1.785   1.012   2.208 -0.4027 -0.1623 -0.0353
  166MPD2    C4 2585   1.687   1.100   2.186  0.3833  0.1810 -0.2510
  166MPD2    C5 2586   1.558   1.064   2.228  0.4576  0.3585  0.2338
  166MPD2     H 2587   1.841   0.806   2.240  0.7440  0.8510 -2.1408
  166MPD2    H1 2588   1.702   1.201   2.149  0.8100  0.7248  1.4080
  166MPD2    H2 2589   1.433   0.909   2.309 -0.6129 -1.8067 -2.1077
  166MPD2    H3 2590   1.479   1.137   2.221  1.1055  1.1390  1.0276
  166MPD2     N 2591   1.913   1.057   2.173 -0.4888  1.1015  0.1493
  166MPD2    H5 2592   1.923   1.149   2.132 -2.0930  0.9204 -0.6752
  166MPD2    N1 2593   1.604   0.716   2.330 -0.2732 -0.3064 -0.2154
  166MPD2    H7 2594   1.510   0.701   2.365 -1.0696  0.4111 -2.0676
  167TMC2    C1 2595   3.826   4.207  12.879  0.0093 -0.1041  0.4108
  167TMC2    C2 2596   3.735   4.259  12.965  0.0650  0.6964 -0.9163
  167TMC2    C3 2597   3.655   4.171  13.034 -0.2126  0.1764 -0.2463
  167TMC2    C4 2598   3.850   4.072  12.873  0.4026  0.5774  0.2442
  167TMC2    C5 2599   3.785   3.994  12.965  0.5176 -0.5757 -0.1232
  167TMC2    C6 2600   3.684   4.037  13.043 -0.7758  0.6740  0.0442
  167TMC2     C 2601   3.887   4.291  12.782 -0.0452 -0.5403 -0.3956
  167TMC2     O 2602   3.912   4.410  12.807  0.3367 -0.0499  0.4190
  167TMC2     H 2603   3.722   4.366  12.975  1.5404  0.7563  0.2834
  167TMC2    H1 2604   3.935   4.033  12.819  0.4421 -1.4769  1.8078
  167TMC2    H2 2605   3.624   3.975  13.109 -1.8195  0.8490 -0.7411
  167TMC2    C7 2606   3.817   3.853  12.986 -0.1454 -0.1782  0.2747
  167TMC2    C8 2607   3.547   4.216  13.121 -0.5855  0.4383 -0.1513
  167TMC2    O1 2608   3.792   3.804  13.095 -0.1802  0.1226  0.4734
  167TMC2    O2 2609   3.494   4.154  13.210 -0.1613  0.6741 -0.2718
  167TMC2    O5 2610   3.510   4.337  13.081 -0.0621 -0.4241 -0.1667
  167TMC2    H5 2611   3.523   4.346  12.984 -1.2640  0.0537 -0.2827
  168MPD2     C 2612   4.011   4.395  12.528  0.3818 -0.1079 -0.6497
  168MPD2    C1 2613   3.976   4.265  12.549 -0.6793  0.2254  0.5024
  168MPD2    C2 2614   3.971   4.179  12.442  0.3064  0.0654 -0.2757
  168MPD2    C3 2615   4.007   4.225  12.311  0.0411 -0.2583  0.0878
  168MPD2    C4 2616   4.047   4.354  12.290 -0.0513  0.0264  0.1508
  168MPD2    C5 2617   4.047   4.435  12.403  0.3422 -0.1295 -0.2257
  168MPD2     H 2618   3.911   4.089  12.442  0.5677 -0.1078  0.7342
  168MPD2    H1 2619   4.067   4.399  12.194 -0.6439  1.2540  0.5967
  168MPD2    H2 2620   4.001   4.471  12.604 -2.1413 -1.1826  0.0759
  168MPD2    H3 2621   4.062   4.541  12.384  2.8359 -0.6367 -1.1049
  168MPD2     N 2622   4.001   4.150  12.196 -0.0284  0.4913  0.3828
  168MPD2    H5 2623   4.053   4.193  12.121  0.0008  1.5214  0.9903
  168MPD2    N1 2624   3.917   4.219  12.669 -0.3121  0.3544 -0.2048
  168MPD2    H7 2625   3.901   4.121  12.686 -0.7339  0.6165  0.9153
  169MPD1     C 2626   1.479   2.730   9.383  0.2526 -0.4919 -0.2713
  169MPD1    C1 2627   1.485   2.679   9.512 -0.1584  0.4972 -0.8184
  169MPD1    C2 2628   1.584   2.715   9.603  0.9231 -0.2086 -0.2178
  169MPD1    C3 2629   1.666   2.821   9.574 -0.0298  1.3178 -0.2187
  169MPD1    C4 2630   1.647   2.891   9.456  0.1657  0.2961  0.1375
  169MPD1    C5 2631   1.561   2.839   9.359 -0.0554 -0.4738  0.1915
  169MPD1     H 2632   1.591   2.653   9.692 -2.3826 -1.7023 -0.9795
  169MPD1    H1 2633   1.693   2.985   9.430  0.3718  0.0712 -0.3273
  169MPD1    H2 2634   1.423   2.690   9.299 -1.0873  1.0345 -0.1053
  169MPD1    H3 2635   1.545   2.895   9.267 -1.3807 -0.4108  0.4538
  169MPD1     N 2636   1.766   2.861   9.668  0.2532 -0.1455  0.4084
  169MPD1    H5 2637   1.751   2.826   9.762 -0.9794 -1.2426 -0.1931
  169MPD1    N1 2638   1.414   2.559   9.535  0.2190  0.4211 -0.5553
  169MPD1    H6 2639   1.404   2.546   9.636  2.1396  0.3343 -0.3756
  169MPD1    H7 2640   1.327   2.550   9.483 -0.2262  0.6042  0.1652
  170MPD1     C 2641   1.077   1.728  13.621 -0.5725 -1.4630 -0.3468
  170MPD1    C1 2642   1.038   1.649  13.520 -0.0065 -0.2146  0.3628
  170MPD1    C2 2643   0.934   1.563  13.538  0.5789  0.4506 -0.5692
  170MPD1    C3 2644   0.870   1.563  13.662 -0.1704  0.3318  0.2256
  170MPD1    C4 2645   0.914   1.644  13.763  0.4424 -0.3846 -0.8030
  170MPD1    C5 2646   1.022   1.724  13.740 -0.5378 -0.1488 -0.1830
  170MPD1     H 2647   0.901   1.496  13.460  3.3109 -1.9241  0.3042
  170MPD1    H1 2648   0.860   1.655  13.856 -0.2935  0.9990 -1.3863
  170MPD1    H2 2649   1.152   1.804  13.603  0.5215 -2.7928 -1.4477
  170MPD1    H3 2650   1.059   1.785  13.821 -3.0530 -0.9382  1.5414
  170MPD1     N 2651   0.757   1.477  13.666  0.2029 -0.1199 -0.3443
  170MPD1    H5 2652   0.735   1.416  13.588 -1.1847 -0.8493  0.6249
  170MPD1    N1 2653   1.106   1.652  13.396 -0.7202  0.5219 -0.1437
  170MPD1    H6 2654   1.036   1.654  13.322 -0.6972 -0.2995 -0.1857
  170MPD1    H7 2655   1.164   1.736  13.393  0.0705 -0.1212 -2.3483
  171MPD1     C 2656   3.725   2.511  15.295 -0.5505  0.3815 -0.2028
  171MPD1    C1 2657   3.672   2.387  15.293  0.2840  0.6923  0.4882
  171MPD1    C2 2658   3.691   2.312  15.407 -0.0614 -0.0608  0.2765
  171MPD1    C3 2659   3.766   2.360  15.514 -0.7314  0.5014 -0.7171
  171MPD1    C4 2660   3.824   2.483  15.513  0.2791 -0.6238  0.2014
  171MPD1    C5 2661   3.803   2.557  15.400 -0.6595  0.3686  0.3065
  171MPD1     H 2662   3.649   2.212  15.403 -0.0702  0.0788 -3.0608
  171MPD1    H1 2663   3.895   2.521  15.585  0.8149 -1.9221  0.3464
  171MPD1    H2 2664   3.712   2.571  15.206  2.1344 -0.8411 -1.4114
  171MPD1    H3 2665   3.850   2.655  15.395  1.0343 -0.3513  2.1374
  171MPD1     N 2666   3.773   2.287  15.630  0.4347 -0.4501  0.4065
  171MPD1    H5 2667   3.819   2.329  15.710  1.2901  0.6107 -0.6434
  171MPD1    N1 2668   3.579   2.350  15.196  0.4379 -0.5191  0.5780
  171MPD1    H6 2669   3.605   2.254  15.171  0.7739 -0.1169 -0.6074
  171MPD1    H7 2670   3.590   2.405  15.111 -0.0531  0.1891  0.9722
  172MPD1     C 2671   2.641   0.873   0.467 -0.5451  0.0962 -0.0308
  172MPD1    C1 2672   2.585   0.986   0.519  0.4744  0.3997  0.3131
  172MPD1    C2 2673   2.655   1.101   0.517 -0.0070  0.0171 -0.4564
  172MPD1    C3 2674   2.793   1.101   0.489  0.0934  1.1447  0.1924
  172MPD1    C4 2675   2.851   0.987   0.456 -0.1333 -0.1874 -0.4234
  172MPD1    C5 2676   2.779   0.873   0.444  0.3281 -0.8231 -0.7583
  172MPD1     H 2677   2.600   1.183   0.563  0.6628  1.0078 -1.4211
  172MPD1    H1 2678   2.958   0.983   0.437  0.0886 -0.5567  0.9019
  172MPD1    H2 2679   2.589   0.780   0.446 -0.6781  0.7534 -2.5798
  172MPD1    H3 2680   2.835   0.781   0.432  1.4211 -0.1233 -0.9904
  172MPD1     N 2681   2.878   1.218   0.496 -0.3745  0.6401  0.0063
  172MPD1    H5 2682   2.978   1.204   0.485 -0.3470  2.3173 -1.8334
  172MPD1    N1 2683   2.445   0.995   0.549  0.2726  0.0836  0.1621
  172MPD1    H6 2684   2.420   0.906   0.591 -1.6597 -0.1430 -1.4716
  172MPD1    H7 2685   2.427   1.067   0.618  2.0291 -0.1446  0.8427
  173MPD1     C 2686   4.432   1.894  14.012 -0.5628 -0.3506  0.1064
  173MPD1    C1 2687   4.378   1.944  14.125  0.3896 -0.4377 -0.2582
  173MPD1    C2 2688   4.346   1.855  14.230 -0.1411 -0.6625 -0.2922
  173MPD1    C3 2689   4.358   1.719  14.211 -0.2244  0.1676 -0.1959
  173MPD1    C4 2690   4.407   1.678  14.096 -0.2339  1.0842  0.5323
  173MPD1    C5 2691   4.441   1.765  13.997  0.2915  0.1594  0.4304
  173MPD1     H 2692   4.307   1.892  14.324 -0.7806  1.4881 -1.3864
  173MPD1    H1 2693   4.414   1.571  14.077 -1.4244  0.9460  0.8880
  173MPD1    H2 2694   4.453   1.949  13.921  1.4243 -1.5453 -0.1663
  173MPD1    H3 2695   4.468   1.728  13.898 -1.5417  1.2966 -0.4935
  173MPD1     N 2696   4.319   1.636  14.321 -0.2030  0.1338  0.1519
  173MPD1    H5 2697   4.258   1.681  14.389 -1.0869 -1.5279  0.4365
  173MPD1    N1 2698   4.377   2.081  14.143  0.7989 -0.3750 -0.2738
  173MPD1    H6 2699   4.308   2.112  14.211 -0.6839 -2.1468 -0.9875
  173MPD1    H7 2700   4.371   2.136  14.057  0.8971 -0.3039 -0.2361
  174MPD1     C 2701   4.420   0.629  14.356  0.2208 -0.2690 -0.2162
  174MPD1    C1 2702   4.332   0.654  14.465  0.2724 -0.7232  0.2209
  174MPD1    C2 2703   4.319   0.791  14.501  0.4579 -0.3755 -0.8345
  174MPD1    C3 2704   4.367   0.889  14.419 -0.1864  0.1931 -1.0394
  174MPD1    C4 2705   4.426   0.861  14.301  0.6630  0.1576  0.6976
  174MPD1    C5 2706   4.448   0.729  14.273 -0.0464 -0.4460  0.3625
  174MPD1     H 2707   4.264   0.820  14.590 -2.1634 -4.1988 -1.1910
  174MPD1    H1 2708   4.455   0.942  14.235  3.8388 -1.7441 -0.2506
  174MPD1    H2 2709   4.444   0.527  14.330  0.5761  0.5291 -2.9909
  174MPD1    H3 2710   4.506   0.703  14.185 -1.7878 -2.9792 -0.0586
  174MPD1     N 2711   4.346   1.030  14.441 -0.9188  0.0842 -0.2106
  174MPD1    H5 2712   4.364   1.095  14.365  2.8737 -0.3691  0.3457
  174MPD1    N1 2713   4.292   0.555  14.552  0.1751 -0.0493 -0.0262
  174MPD1    H6 2714   4.272   0.461  14.516  0.9692 -0.0155 -0.5589
  174MPD1    H7 2715   4.213   0.592  14.603 -1.2998 -0.3869 -2.0585
  175MPD1     C 2716   2.605   2.580  15.636 -0.1894 -0.2006  0.2148
  175MPD1    C1 2717   2.483   2.633  15.698 -0.2065  0.1186 -0.3534
  175MPD1    C2 2718   2.443   2.577  15.816 -0.1763 -0.3266  0.6526
  175MPD1    C3 2719   2.501   2.465  15.867  0.4015 -0.1507  0.4266
  175MPD1    C4 2720   2.613   2.409  15.809 -0.0199  0.2046  0.2764
  175MPD1    C5 2721   2.665   2.474  15.700  0.4285 -0.0917  0.7119
  175MPD1     H 2722   2.356   2.624  15.859 -0.2214 -1.8226  2.1956
  175MPD1    H1 2723   2.664   2.330  15.863  0.1996  0.8012  0.9391
  175MPD1    H2 2724   2.643   2.625  15.545  0.3734  0.7965  0.9543
  175MPD1    H3 2725   2.766   2.448  15.670 -0.2104 -1.3439 -0.3500
  175MPD1     N 2726   2.460   2.410  15.984  0.0153  0.2216  0.2051
  175MPD1    H5 2727   2.519   2.343  16.033 -1.8456 -3.2752 -2.2571
  175MPD1    N1 2728   2.429   2.751  15.650  0.4378 -0.2740  0.0899
  175MPD1    H6 2729   2.445   2.768  15.551 -2.2077  1.0145 -0.1059
  175MPD1    H7 2730   2.327   2.748  15.655  0.4329 -1.3611 -0.7156
  176MPD1     C 2731   3.366   4.233  17.303 -0.9396 -0.2550  0.2560
  176MPD1    C1 2732   3.309   4.328  17.385 -0.2119  0.2696  0.3461
  176MPD1    C2 2733   3.399   4.401  17.459  0.9269 -0.0910  0.0653
  176MPD1    C3 2734   3.531   4.407  17.426 -0.0875 -0.0711  0.0697
  176MPD1    C4 2735   3.582   4.329  17.324 -0.1773 -0.0222 -0.1705
  176MPD1    C5 2736   3.495   4.236  17.278  0.2204 -0.1006 -0.4347
  176MPD1     H 2737   3.362   4.472  17.532 -1.0599 -0.0495 -0.9818
  176MPD1    H1 2738   3.684   4.315  17.289 -0.6722 -0.2634 -1.4827
  176MPD1    H2 2739   3.305   4.156  17.257 -1.3985  1.7842 -2.5873
  176MPD1    H3 2740   3.544   4.160  17.219  0.9605 -0.7156  0.9572
  176MPD1     N 2741   3.612   4.509  17.484  0.1629  0.2000 -0.3800
  176MPD1    H5 2742   3.568   4.568  17.554  2.2235 -0.4217  1.4134
  176MPD1    N1 2743   3.172   4.326  17.408  0.1831  0.0868  0.4538
  176MPD1    H6 2744   3.131   4.412  17.444  0.5223  0.8661 -1.0008
  176MPD1    H7 2745   3.117   4.284  17.333  0.8648  1.7097 -0.9586
  177MPD1     C 2746   2.765   0.028   9.309 -0.6914 -0.5540 -0.7943
  177MPD1    C1 2747   2.761   0.071   9.441 -0.6421 -0.3773 -0.0036
  177MPD1    C2 2748   2.643   0.096   9.505 -0.9101  0.3554 -0.4406
  177MPD1    C3 2749   2.530   0.027   9.466  0.6281  0.0464  0.9070
  177MPD1    C4 2750   2.536   4.692   9.346 -0.0031 -0.0028  0.7420
  177MPD1    C5 2751   2.650   4.703   9.264 -0.0236 -0.4715  0.1208
  177MPD1     H 2752   2.650   0.150   9.599  1.3589  0.9210 -0.9429
  177MPD1    H1 2753   2.453   4.629   9.317  0.6304  0.2488 -1.6530
  177MPD1    H2 2754   2.855   0.010   9.251 -0.3915  1.1976 -0.8643
  177MPD1    H3 2755   2.641   4.648   9.171 -0.6946 -0.7525  0.3560
  177MPD1     N 2756   2.418   0.031   9.550 -0.1891 -0.4542  0.7073
  177MPD1    H5 2757   2.411   0.104   9.621 -0.0102 -0.0015  0.2553
  177MPD1    N1 2758   2.884   0.108   9.491  0.1995 -0.2356  0.0400
  177MPD1    H6 2759   2.880   0.101   9.592 -1.7534 -3.6530 -0.2925
  177MPD1    H7 2760   2.949   0.036   9.459  2.9142  2.4043 -0.4060
  178MPD1     C 2761   4.685   0.582   0.464  0.3384 -0.3736  0.5444
  178MPD1    C1 2762   0.049   0.681   0.446 -0.5466 -0.3961  0.9875
  178MPD1    C2 2763   0.135   0.661   0.337 -0.1620  0.3759 -0.7403
  178MPD1    C3 2764   0.141   0.542   0.270 -0.2649  0.0747  0.1060
  178MPD1    C4 2765   0.054   0.444   0.303  0.6202 -0.6841 -0.5369
  178MPD1    C5 2766   4.690   0.461   0.398 -0.1824 -0.5737  0.2801
  178MPD1     H 2767   0.206   0.740   0.316  0.0698  0.2240 -0.5299
  178MPD1    H1 2768   0.048   0.358   0.237 -0.9630 -0.5853 -0.5189
  178MPD1    H2 2769   4.613   0.583   0.545  0.8412 -0.0651  0.9858
  178MPD1    H3 2770   4.619   0.387   0.433  0.6902 -1.1267  0.8899
  178MPD1     N 2771   0.233   0.514   0.168 -0.2548  0.1800 -0.4666
  178MPD1    H5 2772   0.215   0.433   0.109 -4.0732  1.3456 -0.9149
  178MPD1    N1 2773   0.049   0.802   0.522 -0.6112  0.0140 -0.9747
  178MPD1    H6 2774   0.019   0.797   0.619  0.4878  0.5228 -0.6091
  178MPD1    H7 2775   0.142   0.842   0.534 -1.3739  2.0275 -1.7398
  179MPD1     C 2776   4.212   3.450  16.280 -0.2598  0.0686 -0.3125
  179MPD1    C1 2777   4.178   3.412  16.155 -0.0862  0.2835  0.4212
  179MPD1    C2 2778   4.270   3.343  16.079 -0.0788 -1.0718  0.1802
  179MPD1    C3 2779   4.395   3.300  16.137  0.1489 -0.9041  0.0774
  179MPD1    C4 2780   4.429   3.344  16.267  0.2471  0.4880  0.3396
  179MPD1    C5 2781   4.337   3.420  16.338  0.0094 -0.0395 -0.0477
  179MPD1     H 2782   4.247   3.311  15.978 -0.7806 -2.9564  0.9323
  179MPD1    H1 2783   4.527   3.321  16.307  0.4946 -0.8490 -1.0287
  179MPD1    H2 2784   4.152   3.517  16.339 -0.3046 -0.5991  0.4000
  179MPD1    H3 2785   4.364   3.451  16.438 -0.7565  2.4994 -0.6317
  179MPD1     N 2786   4.498   3.227  16.072  0.5298 -0.3635 -0.2392
  179MPD1    H5 2787   4.587   3.205  16.117 -0.4020 -2.8005  0.3730
  179MPD1    N1 2788   4.048   3.428  16.106 -0.0718 -0.1316 -1.1184
  179MPD1    H6 2789   4.003   3.514  16.137 -0.3544 -1.3743  1.9843
  179MPD1    H7 2790   4.048   3.433  16.005 -1.0404 -0.6255 -1.1418
  180MPD1     C 2791   4.535   0.012  15.077  0.0443  0.2414  0.1153
  180MPD1    C1 2792   4.640   4.722  14.992 -0.3094  0.3714 -0.3752
  180MPD1    C2 2793   4.616   4.670  14.867 -0.2336 -0.1095 -0.0715
  180MPD1    C3 2794   4.486   4.658  14.814  0.3861 -0.5378  0.6362
  180MPD1    C4 2795   4.382   4.700  14.897 -0.1874  0.5957  0.0003
  180MPD1    C5 2796   4.404   0.002  15.027 -0.1068  0.4231 -0.0177
  180MPD1     H 2797   4.699   4.634  14.807  0.9699 -1.2309  2.2719
  180MPD1    H1 2798   4.283   4.710  14.854  0.1834  1.0608 -0.7504
  180MPD1    H2 2799   4.560   0.051  15.175  0.9167 -2.1669  0.8772
  180MPD1    H3 2800   4.318   0.021  15.091  0.1714 -2.1470  1.1344
  180MPD1     N 2801   4.464   4.617  14.678 -0.1708 -0.9747  0.1127
  180MPD1    H5 2802   4.552   4.602  14.629 -0.9212 -1.6953 -1.0013
  180MPD1    N1 2803   0.034   4.728  15.044 -0.0983  0.5357  0.0579
  180MPD1    H6 2804   0.098   0.006  14.966 -1.3229 -0.8286 -1.1875
  180MPD1    H7 2805   0.038   0.074  15.105 -1.0013 -0.6601  1.7364
  181MPD1     C 2806   0.882   1.894  10.278  0.0206  0.0804  0.8512
  181MPD1    C1 2807   0.993   1.814  10.248  0.2580 -0.3915  0.4502
  181MPD1    C2 2808   1.119   1.866  10.282  0.0975 -0.0356 -0.9415
  181MPD1    C3 2809   1.142   1.997  10.325 -0.2986 -0.9073  0.8882
  181MPD1    C4 2810   1.031   2.071  10.358 -0.0739  0.1528  0.3181
  181MPD1    C5 2811   0.902   2.024  10.320  0.4331  0.1358 -0.1914
  181MPD1     H 2812   1.193   1.788  10.275  0.2001  0.2289 -2.9490
  181MPD1    H1 2813   1.029   2.166  10.410 -0.4086  1.2375 -1.6798
  181MPD1    H2 2814   0.782   1.856  10.260  0.7238 -0.4289 -1.9996
  181MPD1    H3 2815   0.811   2.080  10.337  0.1206 -0.5917  0.5608
  181MPD1     N 2816   1.275   2.037  10.352  0.2747 -0.4334  0.2490
  181MPD1    H5 2817   1.289   2.130  10.390  0.8643 -0.9776  1.3630
  181MPD1    N1 2818   0.983   1.676  10.212  0.5530 -0.2752 -0.1931
  181MPD1    H6 2819   1.062   1.628  10.169  0.6179 -2.2269  2.1000
  181MPD1    H7 2820   0.905   1.674  10.146  2.8625 -1.1327 -2.8857
  182MPD1     C 2821   2.719   1.182   1.344  0.0882 -0.1183 -0.3206
  182MPD1    C1 2822   2.704   1.127   1.221 -0.2152 -0.0935 -0.4749
  182MPD1    C2 2823   2.572   1.082   1.192 -0.3418  0.6930  0.5451
  182MPD1    C3 2824   2.474   1.079   1.282  0.3059 -0.5934 -0.3350
  182MPD1    C4 2825   2.493   1.139   1.405  0.1315  0.1876 -0.3726
  182MPD1    C5 2826   2.614   1.189   1.434  1.0476 -0.2476 -0.1592
  182MPD1     H 2827   2.566   1.053   1.088  0.3568 -0.7877  0.9151
  182MPD1    H1 2828   2.413   1.141   1.478  0.2343 -0.4388 -0.2440
  182MPD1    H2 2829   2.807   1.244   1.360 -0.1257  0.1467 -0.1940
  182MPD1    H3 2830   2.630   1.251   1.522  1.8871  1.0625 -1.2292
  182MPD1     N 2831   2.348   1.023   1.240  0.0582  0.3706 -0.5968
  182MPD1    H5 2832   2.266   1.033   1.298  1.0401  0.7694  0.7061
  182MPD1    N1 2833   2.799   1.142   1.114 -0.4079  0.1932 -0.1375
  182MPD1    H6 2834   2.895   1.140   1.149 -0.6016 -0.7724  0.3349
  182MPD1    H7 2835   2.777   1.087   1.031 -0.3801  1.8122 -1.2085
  183MPD1     C 2836   3.224   1.414   9.201 -0.5899 -0.3277 -0.0365
  183MPD1    C1 2837   3.291   1.413   9.320  0.2524  0.0713  0.7508
  183MPD1    C2 2838   3.242   1.497   9.422  0.0571  0.1642  0.1980
  183MPD1    C3 2839   3.124   1.561   9.412  0.3046  0.1461  0.4060
  183MPD1    C4 2840   3.064   1.565   9.290 -0.4652  0.6782  0.6866
  183MPD1    C5 2841   3.115   1.495   9.185 -0.0902  0.1758  0.7808
  183MPD1     H 2842   3.296   1.506   9.516 -0.8760 -2.0763  0.9456
  183MPD1    H1 2843   2.971   1.618   9.281 -0.9997 -0.8735 -2.5892
  183MPD1    H2 2844   3.260   1.359   9.115 -3.0077 -1.3117 -0.4240
  183MPD1    H3 2845   3.061   1.491   9.092  1.7182  1.7093 -0.3319
  183MPD1     N 2846   3.082   1.633   9.523  0.0284  0.1582  0.3506
  183MPD1    H5 2847   3.140   1.632   9.607 -0.3547  0.0421  0.6094
  183MPD1    N1 2848   3.416   1.347   9.330 -0.0239 -0.1272  0.0855
  183MPD1    H6 2849   3.414   1.270   9.263 -0.4933 -0.9167  1.0200
  183MPD1    H7 2850   3.429   1.300   9.419  0.8060  0.3217  0.1955
  184MPD1     C 2851   2.157   3.779   9.925  0.0819 -0.3774  0.0588
  184MPD1    C1 2852   2.032   3.771   9.983 -0.0359  0.2074  0.7073
  184MPD1    C2 2853   1.936   3.869   9.961 -0.1863  0.5872  0.2846
  184MPD1    C3 2854   1.976   3.980   9.890  0.1955 -0.0264 -0.1152
  184MPD1    C4 2855   2.106   3.986   9.839 -0.3736 -0.1196  0.5533
  184MPD1    C5 2856   2.198   3.892   9.858  0.0268 -0.1039  0.2747
  184MPD1     H 2857   1.838   3.849  10.003 -0.4956  0.6538 -0.4020
  184MPD1    H1 2858   2.132   4.081   9.793 -1.7635 -0.0183 -0.0112
  184MPD1    H2 2859   2.236   3.705   9.923  0.6265  0.1814  0.5625
  184MPD1    H3 2860   2.290   3.897   9.802 -0.2809 -3.3749 -0.5390
  184MPD1     N 2861   1.892   4.104   9.862  0.5299  0.2372  0.3444
  184MPD1    H5 2862   1.923   4.181   9.804  2.6931 -0.6676  0.3036
  184MPD1    N1 2863   1.995   3.653  10.043 -0.4113 -0.5310 -0.2530
  184MPD1    H6 2864   2.070   3.615  10.101  0.0268  0.2953 -0.2902
  184MPD1    H7 2865   1.925   3.658  10.116  1.2477 -2.5227  1.5000
  185MPD1     C 2866   0.938   4.415   9.975 -0.1268  1.0061  0.4001
  185MPD1    C1 2867   1.003   4.516   9.918 -0.5129  0.0544  0.8875
  185MPD1    C2 2868   1.143   4.511   9.923  0.9360 -0.0280  0.1040
  185MPD1    C3 2869   1.211   4.389   9.955 -0.4252  0.3660  0.2056
  185MPD1    C4 2870   1.135   4.286  10.006 -0.1908 -0.5495  0.2555
  185MPD1    C5 2871   1.002   4.305  10.020  0.2461 -0.0471 -0.3491
  185MPD1     H 2872   1.200   4.593   9.881  0.0283  2.4177  3.6724
  185MPD1    H1 2873   1.180   4.190  10.024 -0.0864 -0.8003 -1.3574
  185MPD1    H2 2874   0.830   4.418   9.969 -0.1438 -2.7131 -1.1033
  185MPD1    H3 2875   0.939   4.235  10.074 -0.0484 -2.6580 -4.0443
  185MPD1     N 2876   1.349   4.376   9.934 -0.6528 -0.3670 -0.2124
  185MPD1    H5 2877   1.393   4.290   9.968  0.6279  0.0267 -0.8858
  185MPD1    N1 2878   0.939   4.634   9.872 -0.0227  0.1775  0.3169
  185MPD1    H6 2879   0.844   4.620   9.837  0.3266  1.5542 -1.1916
  185MPD1    H7 2880   0.984   4.679   9.792 -3.6987  1.7840 -0.8604
  186MPD1     C 2881   0.737   3.404  15.969 -0.2401 -0.1314 -0.0098
  186MPD1    C1 2882   0.715   3.346  16.084 -0.8671  0.1353  0.4737
  186MPD1    C2 2883   0.653   3.426  16.184  0.7485  0.1638 -0.1000
  186MPD1    C3 2884   0.636   3.563  16.166  0.1950  0.1511 -0.0008
  186MPD1    C4 2885   0.667   3.619  16.043  1.1498  0.4640 -0.4837
  186MPD1    C5 2886   0.709   3.535  15.940  0.0091  0.4896 -0.8754
  186MPD1     H 2887   0.638   3.378  16.280 -1.1371 -0.7120 -0.8297
  186MPD1    H1 2888   0.667   3.724  16.016  0.7904 -0.0534 -2.4586
  186MPD1    H2 2889   0.777   3.346  15.886  0.8842 -0.7866  1.0030
  186MPD1    H3 2890   0.715   3.576  15.840  2.5262  2.1495 -0.0219
  186MPD1     N 2891   0.599   3.646  16.272 -0.0914  0.3758 -0.1964
  186MPD1    H5 2892   0.615   3.747  16.267 -0.3851  0.4755  0.9692
  186MPD1    N1 2893   0.732   3.210  16.099  0.2290  0.1062 -0.1545
  186MPD1    H6 2894   0.803   3.172  16.037 -0.3866  1.8763 -1.9623
  186MPD1    H7 2895   0.761   3.187  16.194  0.9161 -0.7364 -0.5646
  187MPD1     C 2896   4.337   0.408   0.753 -0.8099  0.1719  0.1899
  187MPD1    C1 2897   4.396   0.530   0.716 -0.3181 -0.5603 -0.2198
  187MPD1    C2 2898   4.360   0.583   0.597  0.4381  0.0900 -0.4115
  187MPD1    C3 2899   4.262   0.523   0.521 -0.2576  0.2364  0.4340
  187MPD1    C4 2900   4.187   0.415   0.564  0.7301 -0.3600  0.5448
  187MPD1    C5 2901   4.229   0.359   0.682 -0.4201 -0.0835 -0.2321
  187MPD1     H 2902   4.415   0.658   0.542  1.4052 -0.5408 -0.2981
  187MPD1    H1 2903   4.112   0.366   0.503  1.3912 -1.0471  0.2933
  187MPD1    H2 2904   4.363   0.355   0.844 -0.9356 -0.6429 -0.2581
  187MPD1    H3 2905   4.178   0.266   0.699 -0.8847  0.0129 -1.1192
  187MPD1     N 2906   4.257   0.577   0.382 -0.0088 -0.1415  0.1638
  187MPD1    H5 2907   4.327   0.645   0.356  0.8852 -0.9770  0.3607
  187MPD1    N1 2908   4.513   0.568   0.789  0.1772  0.3066  0.7393
  187MPD1    H6 2909   4.556   0.660   0.780 -0.4506  0.4730 -0.4883
  187MPD1    H7 2910   4.513   0.543   0.888  0.4278  2.6935  1.3261
  188MPD1     C 2911   4.303   0.772  10.415  0.2160 -0.3217 -0.7374
  188MPD1    C1 2912   4.342   0.689  10.516  0.9047 -0.5159 -0.0581
  188MPD1    C2 2913   4.323   0.551  10.505  0.5626  1.0185 -0.1335
  188MPD1    C3 2914   4.261   0.500  10.398  0.5173 -0.3015 -0.5702
  188MPD1    C4 2915   4.241   0.582  10.292 -0.4539  0.4408 -0.5197
  188MPD1    C5 2916   4.247   0.714  10.301  0.3885 -0.3179 -0.2119
  188MPD1     H 2917   4.351   0.496  10.595  2.4089  1.9572 -0.1286
  188MPD1    H1 2918   4.181   0.544  10.210  1.5270 -2.5717 -0.5616
  188MPD1    H2 2919   4.336   0.874  10.406 -0.8113  0.0931  0.1143
  188MPD1    H3 2920   4.223   0.773  10.213  1.7829 -1.1378 -1.1431
  188MPD1     N 2921   4.239   0.365  10.368 -0.0304 -0.1943  0.1738
  188MPD1    H5 2922   4.213   0.342  10.272  3.4136 -0.0424 -0.8082
  188MPD1    N1 2923   4.393   0.749  10.630 -0.0273  0.0359  0.0084
  188MPD1    H6 2924   4.352   0.729  10.721  1.6380 -1.2584  0.4668
  188MPD1    H7 2925   4.378   0.847  10.604 -1.4625 -0.4916 -1.1431
  189MPD1     C 2926   1.449   1.504   0.785 -0.0336  0.3607 -0.2433
  189MPD1    C1 2927   1.328   1.449   0.825  0.4572 -0.1551  0.5033
  189MPD1    C2 2928   1.218   1.536   0.827  0.3929 -0.1565  0.4209
  189MPD1    C3 2929   1.233   1.664   0.783  0.1024 -0.5851  0.0885
  189MPD1    C4 2930   1.347   1.709   0.720  0.7205 -0.0706 -1.0095
  189MPD1    C5 2931   1.453   1.628   0.725 -0.5630  0.4452 -0.5911
  189MPD1     H 2932   1.126   1.512   0.879 -1.7359  1.5108 -2.6091
  189MPD1    H1 2933   1.361   1.815   0.700  1.7885 -0.2187 -1.0623
  189MPD1    H2 2934   1.536   1.440   0.792  1.0344  1.5207 -2.6408
  189MPD1    H3 2935   1.544   1.662   0.678 -0.1669 -1.2185 -1.0553
  189MPD1     N 2936   1.114   1.745   0.799  0.6300  0.5934 -0.3270
  189MPD1    H5 2937   1.034   1.688   0.823 -1.0086  2.1143 -2.1808
  189MPD1    N1 2938   1.318   1.325   0.887 -0.5188 -0.0762  0.0917
  189MPD1    H6 2939   1.226   1.281   0.886 -0.6272  0.0813  4.5228
  189MPD1    H7 2940   1.377   1.252   0.847  0.5824  0.0055  1.5689
  190MPD1     C 2941   4.206   0.212  15.819 -0.4131 -0.0886 -0.1828
  190MPD1    C1 2942   4.293   0.124  15.760 -0.0959 -0.2243  0.4693
  190MPD1    C2 2943   4.428   0.134  15.797  0.1656  0.6818 -0.7463
  190MPD1    C3 2944   4.471   0.213  15.901  0.0689  0.3945  0.1006
  190MPD1    C4 2945   4.374   0.304  15.955  0.0697 -0.1471 -0.1352
  190MPD1    C5 2946   4.247   0.304  15.905 -0.5301 -0.7055 -0.2780
  190MPD1     H 2947   4.493   0.059  15.753 -0.0442  2.0398 -3.3785
  190MPD1    H1 2948   4.407   0.381  16.024  3.5636 -1.8113  0.0718
  190MPD1    H2 2949   4.103   0.217  15.786 -0.1570 -0.0397 -0.9726
  190MPD1    H3 2950   4.167   0.364  15.948 -0.2336  0.5231 -1.4448
  190MPD1     N 2951   4.602   0.192  15.951 -0.2870  0.6015  0.2730
  190MPD1    H5 2952   4.662   0.135  15.892 -0.7411  0.8730 -0.4628
  190MPD1    N1 2953   4.255   0.041  15.656  0.1891 -0.0589 -0.1644
  190MPD1    H6 2954   4.316   4.695  15.653  0.5084  0.1219  1.5220
  190MPD1    H7 2955   4.166   4.728  15.666  1.7409 -3.2641 -1.8000
  191MPD1     C 2956   3.968   1.075  12.867  0.9943  0.0651  0.1480
  191MPD1    C1 2957   3.941   1.077  12.729  0.4063 -0.1380 -0.1001
  191MPD1    C2 2958   3.949   1.189  12.650  0.6715 -0.3529  0.6969
  191MPD1    C3 2959   3.992   1.306  12.710  0.2887 -0.0730 -0.4061
  191MPD1    C4 2960   4.030   1.303  12.840 -0.5783 -0.2805 -0.1175
  191MPD1    C5 2961   4.027   1.190  12.915  0.3772  0.1423 -0.2901
  191MPD1     H 2962   3.931   1.191  12.543  2.0358 -0.6004  0.4573
  191MPD1    H1 2963   4.066   1.396  12.884 -2.5493  0.0395  0.8299
  191MPD1    H2 2964   3.967   0.993  12.937 -2.4128  2.2316  2.6221
  191MPD1    H3 2965   4.066   1.197  13.016 -0.1081  1.8584 -0.2242
  191MPD1     N 2966   3.983   1.424  12.636  0.0086 -0.3188  0.3597
  191MPD1    H5 2967   3.943   1.418  12.543 -1.8379 -2.7632  1.3309
  191MPD1    N1 2968   3.939   0.954  12.658 -0.0258 -0.1795 -0.2786
  191MPD1    H6 2969   3.873   0.961  12.581  1.1877  2.7100 -1.0613
  191MPD1    H7 2970   3.917   0.871  12.714 -1.8420  3.0649  3.8520
  192MPD1     C 2971   3.397   1.536  11.999  0.5261 -0.0638  0.1521
  192MPD1    C1 2972   3.474   1.648  11.975  0.7565  0.1799  0.0726
  192MPD1    C2 2973   3.591   1.663  12.053  0.1705 -0.2226  0.0958
  192MPD1    C3 2974   3.613   1.589  12.167  0.4517  0.3055 -0.4056
  192MPD1    C4 2975   3.533   1.481  12.191  0.3968  0.0881  0.4015
  192MPD1    C5 2976   3.431   1.452  12.100  0.6122  0.3594 -0.2887
  192MPD1     H 2977   3.648   1.750  12.021  0.4793  0.0872  1.4818
  192MPD1    H1 2978   3.545   1.417  12.278 -3.3815  0.1986  1.0153
  192MPD1    H2 2979   3.319   1.503  11.931  1.4939  3.1862 -2.5286
  192MPD1    H3 2980   3.358   1.375  12.120  1.6124 -0.7785 -0.9690
  192MPD1     N 2981   3.723   1.601  12.253 -1.2874  0.4754  0.0920
  192MPD1    H5 2982   3.734   1.538  12.332  0.5668  0.5073 -0.1556
  192MPD1    N1 2983   3.458   1.720  11.855  0.0203 -0.3882  0.5070
  192MPD1    H6 2984   3.497   1.813  11.869 -0.8647  0.3530 -1.9250
  192MPD1    H7 2985   3.363   1.729  11.820  1.3192 -0.0485 -2.9112
  193MPD1     C 2986   3.528   1.816  16.950 -0.4902 -0.1638 -0.6176
  193MPD1    C1 2987   3.648   1.771  17.011 -0.1948  0.2347  0.1088
  193MPD1    C2 2988   3.763   1.847  17.002  0.3099 -0.7710 -1.2101
  193MPD1    C3 2989   3.756   1.980  16.955 -0.1330 -0.5889 -0.3878
  193MPD1    C4 2990   3.625   2.026  16.922  0.4341  0.3275  0.4379
  193MPD1    C5 2991   3.517   1.946  16.916 -0.4560 -0.0045 -0.4829
  193MPD1     H 2992   3.858   1.810  17.040  1.0292  1.2767 -1.0068
  193MPD1    H1 2993   3.613   2.131  16.899 -1.9694  0.3727  1.8614
  193MPD1    H2 2994   3.439   1.754  16.946 -1.5613  1.4297 -1.4919
  193MPD1    H3 2995   3.423   1.995  16.892 -1.3572 -2.2439 -1.5485
  193MPD1     N 2996   3.862   2.070  16.956 -0.2513 -0.1240  0.3679
  193MPD1    H5 2997   3.837   2.166  16.936 -0.0818  0.0099  0.8003
  193MPD1    N1 2998   3.658   1.635  17.048  0.8684  0.5046 -0.7544
  193MPD1    H6 2999   3.717   1.624  17.131 -1.3219 -1.4014  0.5683
  193MPD1    H7 3000   3.567   1.605  17.083  1.8431 -0.0237  1.3789
  194MPD1     C 3001   1.336   4.209  16.598 -0.1388  0.3584  0.4093
  194MPD1    C1 3002   1.331   4.281  16.719  0.3515 -0.6395 -0.3628
  194MPD1    C2 3003   1.396   4.231  16.829 -0.1278  0.0543 -0.3050
  194MPD1    C3 3004   1.469   4.119  16.827  0.4478  0.4677 -0.8259
  194MPD1    C4 3005   1.491   4.055  16.710 -0.0777  0.7588 -0.1768
  194MPD1    C5 3006   1.419   4.100  16.597 -0.6059 -0.7958 -0.3965
  194MPD1     H 3007   1.383   4.283  16.923  0.9064  0.2629 -0.2783
  194MPD1    H1 3008   1.537   3.958  16.692 -1.0586  0.4745 -1.1660
  194MPD1    H2 3009   1.287   4.246  16.509  1.5460  1.2150 -0.1653
  194MPD1    H3 3010   1.421   4.048  16.502 -0.6658 -1.7718  0.1437
  194MPD1     N 3011   1.517   4.052  16.942  0.0622  0.7789  0.7634
  194MPD1    H5 3012   1.569   3.966  16.935 -1.3414  0.0849 -1.2441
  194MPD1    N1 3013   1.281   4.415  16.731  0.3952  0.5263 -0.0938
  194MPD1    H6 3014   1.234   4.457  16.651  0.7562  0.6526 -0.2394
  194MPD1    H7 3015   1.251   4.447  16.823 -1.0062  2.5330 -1.2391
  195MPD1     C 3016   4.522   1.384   0.655  0.2894 -0.1623  0.5606
  195MPD1    C1 3017   4.534   1.263   0.729  0.5051 -0.0012  0.2341
  195MPD1    C2 3018   4.428   1.163   0.721 -0.6938 -0.2011  0.0950
  195MPD1    C3 3019   4.325   1.179   0.624 -0.3385 -0.0697 -0.4607
  195MPD1    C4 3020   4.329   1.298   0.549 -0.4773 -0.2764  1.1720
  195MPD1    C5 3021   4.423   1.395   0.566  0.6691 -0.3371 -0.2490
  195MPD1     H 3022   4.432   1.082   0.793 -0.1282  1.4741  1.9259
  195MPD1    H1 3023   4.272   1.307   0.457  0.7534 -3.1793  0.1178
  195MPD1    H2 3024   4.584   1.468   0.683 -1.6935  0.6998  2.3555
  195MPD1    H3 3025   4.415   1.485   0.506  2.7553 -0.4925 -0.7862
  195MPD1     N 3026   4.222   1.083   0.602 -0.0246 -0.1109 -0.4386
  195MPD1    H5 3027   4.156   1.111   0.531  1.0756  1.5229 -0.8437
  195MPD1    N1 3028   4.633   1.265   0.834  0.1792  0.1546  0.0077
  195MPD1    H6 3029   4.714   1.316   0.800  1.3069 -1.2603  0.5725
  195MPD1    H7 3030   4.661   1.173   0.868 -0.5902 -1.1108 -2.7756
  196MPD1     C 3031   2.915   0.523   0.275  0.8711 -0.0630  0.1541
  196MPD1    C1 3032   2.812   0.494   0.363  0.1405  0.3118 -0.5919
  196MPD1    C2 3033   2.846   0.456   0.493 -0.2686 -0.3521  0.1361
  196MPD1    C3 3034   2.969   0.472   0.548 -0.5799  0.4372 -0.0780
  196MPD1    C4 3035   3.071   0.515   0.461 -0.1958  0.1245 -0.3014
  196MPD1    C5 3036   3.043   0.543   0.325 -1.0041 -0.0582  0.3784
  196MPD1     H 3037   2.766   0.416   0.554 -2.1386  0.3480 -1.8358
  196MPD1    H1 3038   3.170   0.518   0.505 -0.0252  0.6453 -0.7209
  196MPD1    H2 3039   2.904   0.543   0.169 -1.0512  0.7543  0.5019
  196MPD1    H3 3040   3.118   0.580   0.257 -1.5081  0.3213  0.0246
  196MPD1     N 3041   2.999   0.447   0.680 -0.0971 -0.2574 -0.2201
  196MPD1    H5 3042   3.088   0.486   0.710 -1.8316  2.0028  2.0460
  196MPD1    N1 3043   2.682   0.469   0.309  0.2994 -0.2150  0.1829
  196MPD1    H6 3044   2.665   0.543   0.241 -1.4202  2.3909  3.4431
  196MPD1    H7 3045   2.609   0.490   0.377  0.6834 -0.0237  0.5350
  197MPD1     C 3046   2.017   3.093  16.698  0.1205 -0.4507 -0.0676
  197MPD1    C1 3047   2.141   3.034  16.711 -0.3070  0.3372 -0.1422
  197MPD1    C2 3048   2.191   2.984  16.591 -0.3790 -0.1420  0.4503
  197MPD1    C3 3049   2.135   3.003  16.459  0.0294 -0.1554 -0.3528
  197MPD1    C4 3050   2.019   3.072  16.456 -0.6995  0.1415  0.0964
  197MPD1    C5 3051   1.962   3.121  16.573 -0.4564 -0.6040  0.5184
  197MPD1     H 3052   2.293   2.950  16.601 -0.3620  0.2793  1.7063
  197MPD1    H1 3053   1.969   3.077  16.360  1.3085 -1.0018 -1.0118
  197MPD1    H2 3054   1.963   3.130  16.785 -0.7639  0.8631 -1.1721
  197MPD1    H3 3055   1.876   3.184  16.559 -0.5827 -0.3456  2.4653
  197MPD1     N 3056   2.194   2.963  16.343  0.5244  0.4591  0.2057
  197MPD1    H5 3057   2.145   2.970  16.254 -2.2976  1.9639  1.8708
  197MPD1    N1 3058   2.192   3.000  16.834 -0.0070  0.4325 -0.0943
  197MPD1    H6 3059   2.293   2.984  16.838 -0.0193  0.5100  0.5770
  197MPD1    H7 3060   2.162   3.056  16.914 -0.0715 -0.2599  0.3627
  198MPD1     C 3061   4.147   1.314  15.819 -0.7920  0.3458  0.1382
  198MPD1    C1 3062   4.272   1.267  15.778 -0.8429  0.3638  0.6941
  198MPD1    C2 3063   4.373   1.262  15.872  0.7486  1.0094 -0.3196
  198MPD1    C3 3064   4.351   1.293  16.010 -0.1148  0.8351 -0.2328
  198MPD1    C4 3065   4.223   1.321  16.051  0.3825  0.2744 -0.5503
  198MPD1    C5 3066   4.124   1.334  15.952  0.5252  0.2419  0.1508
  198MPD1     H 3067   4.476   1.248  15.840  0.2907 -0.1234 -1.3096
  198MPD1    H1 3068   4.193   1.338  16.153  0.5897 -1.0694 -0.2685
  198MPD1    H2 3069   4.061   1.324  15.753 -1.7529  0.8456  1.4762
  198MPD1    H3 3070   4.029   1.372  15.989 -0.4265 -3.3589  1.4789
  198MPD1     N 3071   4.469   1.301  16.100 -0.4774 -0.1857 -0.3663
  198MPD1    H5 3072   4.563   1.283  16.067 -0.5520  2.1293 -1.8173
  198MPD1    N1 3073   4.292   1.250  15.640 -0.3134  0.0104  0.4148
  198MPD1    H6 3074   4.294   1.340  15.593 -1.1583  1.0628  2.3934
  198MPD1    H7 3075   4.385   1.210  15.629  0.0024  0.8479  0.0163
  199MPD1     C 3076   2.223   1.285   9.900  1.2404 -0.0752 -0.2351
  199MPD1    C1 3077   2.261   1.389   9.824  0.1342 -0.2208  0.4015
  199MPD1    C2 3078   2.181   1.509   9.832  0.0346 -0.1141 -0.0671
  199MPD1    C3 3079   2.086   1.517   9.937 -0.6045 -0.1151  0.3787
  199MPD1    C4 3080   2.051   1.402  10.011 -0.1378 -0.1069  0.0552
  199MPD1    C5 3081   2.125   1.286   9.989 -0.0512  0.3297 -0.0327
  199MPD1     H 3082   2.205   1.593   9.768  0.8615  1.0184  1.7353
  199MPD1    H1 3083   1.991   1.405  10.101  0.6065  2.3871  0.4842
  199MPD1    H2 3084   2.265   1.189   9.874  0.1090 -0.4193 -0.8144
  199MPD1    H3 3085   2.093   1.188  10.025  0.0239  0.9817  1.7906
  199MPD1     N 3086   2.015   1.630   9.963 -0.0811  0.3361 -0.8816
  199MPD1    H5 3087   1.943   1.627  10.035  0.8475  0.5495  0.0486
  199MPD1    N1 3088   2.350   1.372   9.722  0.0101  0.7535 -1.1107
  199MPD1    H6 3089   2.385   1.462   9.691  3.5061  0.2810  1.4850
  199MPD1    H7 3090   2.421   1.301   9.734  0.0222  1.3270  2.2905
  200MPD1     C 3091   0.207   1.970  15.487 -0.1322 -0.5988 -0.4101
  200MPD1    C1 3092   0.307   1.878  15.477 -0.0396  0.0682  0.3404
  200MPD1    C2 3093   0.428   1.923  15.425  0.2167  0.2442  0.1094
  200MPD1    C3 3094   0.454   2.056  15.409  0.2362 -0.0099 -0.7188
  200MPD1    C4 3095   0.358   2.149  15.445 -0.3675  0.2896  0.1252
  200MPD1    C5 3096   0.232   2.104  15.471 -0.1695  0.1103  0.6158
  200MPD1     H 3097   0.509   1.855  15.401  2.0039  1.4915  2.5078
  200MPD1    H1 3098   0.364   2.256  15.434  1.2295  0.0181 -1.7739
  200MPD1    H2 3099   0.105   1.937  15.501 -0.3545 -0.3319 -1.4105
  200MPD1    H3 3100   0.146   2.169  15.480 -0.5973 -0.3537 -0.0771
  200MPD1     N 3101   0.588   2.088  15.371 -0.0849 -0.7511 -0.0346
  200MPD1    H5 3102   0.651   2.014  15.343  0.7570 -0.5548  1.3143
  200MPD1    N1 3103   0.274   1.742  15.480 -0.3644 -0.2130 -0.1290
  200MPD1    H6 3104   0.190   1.740  15.538 -1.0143  0.8518 -1.0512
  200MPD1    H7 3105   0.342   1.695  15.540  0.3866  0.2458 -0.6229
  201MPD1     C 3106   4.439   0.210  13.497 -0.3915  0.1589  0.9871
  201MPD1    C1 3107   4.308   0.168  13.507 -0.1874 -0.3506 -0.3208
  201MPD1    C2 3108   4.241   0.212  13.620  0.2834 -0.2290 -0.1174
  201MPD1    C3 3109   4.291   0.311  13.705  0.7655 -0.5149 -0.0683
  201MPD1    C4 3110   4.412   0.355  13.682 -0.2856  0.9862 -0.9353
  201MPD1    C5 3111   4.489   0.311  13.576 -0.4960  0.0868 -0.6447
  201MPD1     H 3112   4.147   0.168  13.651 -0.5490  0.2608 -1.9369
  201MPD1    H1 3113   4.458   0.429  13.747 -1.8545  1.9170 -0.8977
  201MPD1    H2 3114   4.515   0.165  13.434  0.2239  0.9081  1.1865
  201MPD1    H3 3115   4.594   0.333  13.562 -0.3618 -0.1585 -0.0187
  201MPD1     N 3116   4.217   0.331  13.823  0.1181 -0.1103 -0.5561
  201MPD1    H5 3117   4.127   0.286  13.835  1.3390 -2.9557 -2.0500
  201MPD1    N1 3118   4.270   0.055  13.435  0.2103  0.1767 -0.6685
  201MPD1    H6 3119   4.326   0.047  13.350  0.5211  1.7155 -0.6036
  201MPD1    H7 3120   4.170   0.044  13.419  0.5887 -2.0909 -1.5039
  202MPD1     C 3121   2.588   0.610   9.439  0.3909  0.8641  0.3646
  202MPD1    C1 3122   2.655   0.495   9.482 -0.5620 -0.0520 -0.0341
  202MPD1    C2 3123   2.747   0.509   9.582  0.2340  0.0416  0.5835
  202MPD1    C3 3124   2.747   0.618   9.663  0.0102 -0.7163 -0.0371
  202MPD1    C4 3125   2.672   0.731   9.623 -0.2519 -0.1103  0.0804
  202MPD1    C5 3126   2.593   0.719   9.518 -0.5821  0.6392  0.7954
  202MPD1     H 3127   2.802   0.420   9.611 -3.6054 -1.7142  2.5386
  202MPD1    H1 3128   2.675   0.819   9.685  1.1750  0.0931 -0.2673
  202MPD1    H2 3129   2.531   0.612   9.347  0.6107 -3.2754  0.1753
  202MPD1    H3 3130   2.533   0.802   9.482  0.0673 -0.5065 -2.8666
  202MPD1     N 3131   2.831   0.633   9.772 -0.0453 -0.3569  0.4752
  202MPD1    H5 3132   2.846   0.728   9.803 -0.9818  0.1760 -0.7354
  202MPD1    N1 3133   2.669   0.399   9.381 -0.1851 -0.4155 -0.0102
  202MPD1    H6 3134   2.588   0.398   9.321  0.0591 -0.8836 -0.3286
  202MPD1    H7 3135   2.695   0.308   9.419  0.3102  0.4216  1.6698
  203MPD1     C 3136   1.871   2.036  12.678 -0.1895  0.2368 -0.5141
  203MPD1    C1 3137   1.855   1.932  12.588  0.1848  0.4294 -0.2625
  203MPD1    C2 3138   1.867   1.807  12.641  0.6736  0.4040  0.2604
  203MPD1    C3 3139   1.916   1.782  12.765  0.1003 -0.4447  0.4528
  203MPD1    C4 3140   1.949   1.892  12.844  0.4925  0.1404 -0.0860
  203MPD1    C5 3141   1.918   2.014  12.805  0.0883 -0.3247 -0.1570
  203MPD1     H 3142   1.844   1.723  12.575 -0.9104  0.2881  0.9664
  203MPD1    H1 3143   1.973   1.880  12.949  0.5691 -2.6234 -0.4251
  203MPD1    H2 3144   1.855   2.141  12.658 -0.1110  0.1028 -1.3157
  203MPD1    H3 3145   1.916   2.093  12.879 -0.9862  0.6835 -1.2730
  203MPD1     N 3146   1.922   1.649  12.813  0.6318 -0.0469  0.3867
  203MPD1    H5 3147   1.876   1.579  12.755  0.8607 -0.6685  0.9614
  203MPD1    N1 3148   1.794   1.947  12.460 -0.4458  0.7598  0.1950
  203MPD1    H6 3149   1.799   1.864  12.402 -0.6581  0.4643  0.5923
  203MPD1    H7 3150   1.832   2.026  12.409  0.2705  0.8904  0.9326
  204MPD1     C 3151   1.048   2.957   0.117 -0.1212  0.0216  0.4555
  204MPD1    C1 3152   1.007   2.874   0.016  0.1891 -0.1543 -0.2095
  204MPD1    C2 3153   1.082   2.772  17.723  0.1925 -0.2217  0.4338
  204MPD1    C3 3154   1.202   2.742   0.042 -0.2563 -0.3706  0.1374
  204MPD1    C4 3155   1.250   2.823   0.152  0.3245  0.7145 -0.3921
  204MPD1    C5 3156   1.168   2.932   0.188  0.0014 -0.0198 -0.4347
  204MPD1     H 3157   1.060   2.707  17.639 -0.7555  0.9355 -0.2062
  204MPD1    H1 3158   1.349   2.813   0.195 -0.3868 -1.0638  0.8252
  204MPD1    H2 3159   0.972   3.028   0.148  0.2682  0.3197  0.7218
  204MPD1    H3 3160   1.193   2.994   0.273 -1.2186  0.5712 -0.5079
  204MPD1     N 3161   1.268   2.631  17.736  0.5131  0.0627 -0.4291
  204MPD1    H5 3162   1.238   2.589  17.649  1.4775  1.2181 -1.3280
  204MPD1    N1 3163   0.873   2.886  17.715  0.2330  0.1892 -0.1390
  204MPD1    H6 3164   0.861   2.859  17.618  1.1824  1.0333 -0.4907
  204MPD1    H7 3165   0.833   2.978  17.733 -2.1280 -1.1080  1.2862
  205MPD1     C 3166   2.174   1.115   0.765  0.3350  0.1281 -0.2353
  205MPD1    C1 3167   2.113   1.238   0.785  0.2374  0.0468  0.6004
  205MPD1    C2 3168   1.995   1.272   0.723  0.2323  0.1309 -0.6008
  205MPD1    C3 3169   1.957   1.191   0.615 -0.2237 -0.1524  0.1490
  205MPD1    C4 3170   2.016   1.066   0.598  0.1312  0.5503  0.4517
  205MPD1    C5 3171   2.117   1.026   0.680 -0.1809  0.1385 -0.6626
  205MPD1     H 3172   1.944   1.366   0.742  1.3538  0.2923  1.6536
  205MPD1    H1 3173   1.992   0.993   0.521 -0.8322 -2.2694  3.4113
  205MPD1    H2 3174   2.267   1.085   0.811  0.3232  0.6140  0.1094
  205MPD1    H3 3175   2.159   0.927   0.667  4.0948  1.8217  0.3715
  205MPD1     N 3176   1.852   1.226   0.525  0.7180 -0.4486 -0.2274
  205MPD1    H5 3177   1.831   1.156   0.455  1.9772  0.4246 -1.4891
  205MPD1    N1 3178   2.138   1.308   0.902  0.1372  0.3075 -0.3369
  205MPD1    H6 3179   2.232   1.311   0.940  0.2879  1.3986 -0.7813
  205MPD1    H7 3180   2.118   1.406   0.881 -1.7732 -0.2373 -1.0569
  206MPD1     C 3181   2.091   4.033  17.274 -0.0255  0.4002 -0.0262
  206MPD1    C1 3182   2.049   3.946  17.178 -0.1617  0.8443 -0.1241
  206MPD1    C2 3183   2.011   3.988  17.055  0.6096 -0.1412 -0.3954
  206MPD1    C3 3184   1.977   4.120  17.044 -0.8047 -0.3392 -0.2381
  206MPD1    C4 3185   2.003   4.208  17.144  0.3683 -0.1717 -0.0278
  206MPD1    C5 3186   2.058   4.163  17.261  0.0288 -0.4784  0.5491
  206MPD1     H 3187   1.986   3.920  16.974  0.5420  0.7210 -1.1091
  206MPD1    H1 3188   1.979   4.312  17.128  0.0148 -0.4552 -1.3196
  206MPD1    H2 3189   2.135   3.997  17.367 -2.3031  1.6989  1.5487
  206MPD1    H3 3190   2.072   4.230  17.345  0.7981  0.2857 -0.1944
  206MPD1     N 3191   1.923   4.175  16.932 -0.3616  0.2693 -0.0507
  206MPD1    H5 3192   1.905   4.275  16.927  1.4651  0.6504  0.8534
  206MPD1    N1 3193   2.083   3.811  17.199  0.5247 -0.2949 -0.4559
  206MPD1    H6 3194   2.008   3.756  17.158 -0.8441  1.0616  0.1810
  206MPD1    H7 3195   2.087   3.795  17.299  1.9513 -0.7862 -0.5921
  207MPD1     C 3196   3.985   2.497   9.637 -0.1781  0.2593 -0.1393
  207MPD1    C1 3197   4.027   2.623   9.665  0.0282 -0.3701  0.2973
  207MPD1    C2 3198   4.163   2.645   9.681 -0.3104 -0.4020 -0.4458
  207MPD1    C3 3199   4.255   2.537   9.665 -0.5400 -0.2434 -0.0304
  207MPD1    C4 3200   4.205   2.410   9.633  0.9542  0.5252  0.1017
  207MPD1    C5 3201   4.072   2.393   9.619 -0.1969  0.7400 -0.0827
  207MPD1     H 3202   4.194   2.741   9.722  1.5049 -1.7730  1.4296
  207MPD1    H1 3203   4.270   2.324   9.619  0.6716  0.2535  0.4607
  207MPD1    H2 3204   3.880   2.476   9.624  0.2055 -0.1967 -2.4907
  207MPD1    H3 3205   4.027   2.300   9.587  0.3537  0.6227 -0.5093
  207MPD1     N 3206   4.391   2.541   9.689 -0.3449  0.1767  0.1279
  207MPD1    H5 3207   4.438   2.452   9.681 -1.2374 -0.2652 -0.2603
  207MPD1    N1 3208   3.924   2.713   9.688  0.4855  0.0133 -0.2354
  207MPD1    H6 3209   3.833   2.682   9.655 -0.8450  2.6158  0.9764
  207MPD1    H7 3210   3.942   2.804   9.647  1.5378  0.8476  2.0831
  208MPD1     C 3211   2.130   4.250   0.330  0.7606  0.3578  0.2404
  208MPD1    C1 3212   2.052   4.299   0.426 -0.2824  0.1153  0.3023
  208MPD1    C2 3213   2.024   4.435   0.418  0.7741 -0.7138  0.3915
  208MPD1    C3 3214   2.063   4.513   0.310 -0.4996  0.7584  0.0980
  208MPD1    C4 3215   2.127   4.457   0.199  0.3993 -0.2115  0.0685
  208MPD1    C5 3216   2.167   4.322   0.209  0.0040 -0.1022 -0.2912
  208MPD1     H 3217   1.966   4.489   0.491 -0.3713 -0.9320 -0.3683
  208MPD1    H1 3218   2.175   4.513   0.119  1.0196 -0.0614  0.5496
  208MPD1    H2 3219   2.168   4.149   0.338  2.0441  0.8912  1.0098
  208MPD1    H3 3220   2.220   4.268   0.132 -1.2099 -3.2926  1.1036
  208MPD1     N 3221   2.027   4.645   0.322  1.6696  0.3222  0.6239
  208MPD1    H5 3222   1.990   4.662   0.414 -1.0195 -1.0815 -0.1955
  208MPD1    N1 3223   2.021   4.214   0.538  0.0897 -0.5201 -0.0650
  208MPD1    H6 3224   1.982   4.124   0.510  0.1331 -0.8362  0.9102
  208MPD1    H7 3225   1.939   4.249   0.587  0.4349  0.0285  0.1224
  209MPD1     C 3226   3.872   1.695  10.207 -0.5571  0.8408  0.2963
  209MPD1    C1 3227   3.956   1.772  10.130 -0.2657  0.2561 -0.6163
  209MPD1    C2 3228   4.085   1.792  10.179 -0.3303 -0.3641 -0.4762
  209MPD1    C3 3229   4.123   1.733  10.302  0.0489 -0.0875  0.5871
  209MPD1    C4 3230   4.033   1.658  10.376  0.1432  0.0850 -0.3434
  209MPD1    C5 3231   3.910   1.636  10.327  0.4376 -0.3949  0.1691
  209MPD1     H 3232   4.161   1.845  10.124  0.6285 -0.8104  0.4187
  209MPD1    H1 3233   4.045   1.609  10.472 -1.0280 -1.7967 -1.1630
  209MPD1    H2 3234   3.778   1.659  10.166  0.8952 -2.0893 -0.4380
  209MPD1    H3 3235   3.837   1.568  10.370  1.0505 -1.4388 -0.4373
  209MPD1     N 3236   4.255   1.749  10.343 -0.4754 -0.3466  0.5315
  209MPD1    H5 3237   4.312   1.799  10.276 -0.9773  0.9833  1.0968
  209MPD1    N1 3238   3.909   1.816   9.998 -0.5988 -0.7713 -0.4151
  209MPD1    H6 3239   3.807   1.820  10.004 -0.5801 -1.4407  0.4743
  209MPD1    H7 3240   3.946   1.908   9.979  1.0532 -1.0420  1.5103
  210MPD1     C 3241   0.036   1.420  11.139  0.5426 -0.5928 -0.5897
  210MPD1    C1 3242   0.040   1.560  11.134 -0.0183 -0.3736 -0.0290
  210MPD1    C2 3243   0.017   1.616  11.012 -0.8128  0.2697  0.2464
  210MPD1    C3 3244   4.714   1.543  10.902 -0.1418  0.6229  0.9996
  210MPD1    C4 3245   4.715   1.406  10.911 -0.4025 -0.1895  0.2463
  210MPD1    C5 3246   0.007   1.345  11.031 -0.0504 -0.8341  0.3605
  210MPD1     H 3247   0.036   1.722  11.004  0.1857  0.1954  1.5769
  210MPD1    H1 3248   4.689   1.342  10.828 -3.4023  0.1469  0.9239
  210MPD1    H2 3249   0.053   1.359  11.227  0.8130 -3.1320 -2.4075
  210MPD1    H3 3250   4.714   1.242  11.046  0.5158 -1.3048 -1.6952
  210MPD1     N 3251   4.683   1.596  10.779 -0.0171 -0.6737  0.4860
  210MPD1    H5 3252   4.643   1.528  10.715 -1.2302 -2.2768  2.9619
  210MPD1    N1 3253   0.102   1.630  11.237 -0.6089  0.1944  0.1207
  210MPD1    H6 3254   0.063   1.723  11.230  0.0161  0.6129  2.3347
  210MPD1    H7 3255   0.077   1.601  11.331  1.3811 -2.5208 -0.1478
  211MPD1     C 3256   2.082   1.084  15.801 -0.1571 -0.4544  0.2018
  211MPD1    C1 3257   1.980   1.169  15.777 -0.6451  0.3675 -0.0300
  211MPD1    C2 3258   1.941   1.256  15.878 -0.7265 -0.7771 -0.3932
  211MPD1    C3 3259   2.011   1.266  15.996 -0.0523  0.3721 -0.1795
  211MPD1    C4 3260   2.118   1.180  16.017 -0.0484  0.3440  0.2545
  211MPD1    C5 3261   2.142   1.082  15.924 -0.2979 -0.1325  0.2603
  211MPD1     H 3262   1.849   1.311  15.862  1.0423  2.4491  0.6209
  211MPD1    H1 3263   2.169   1.169  16.113  2.7308  1.3408 -1.1045
  211MPD1    H2 3264   2.116   1.009  15.731 -3.6359 -1.6547 -0.1834
  211MPD1    H3 3265   2.199   0.994  15.950 -0.5108 -0.9309 -1.9622
  211MPD1     N 3266   1.956   1.345  16.101  0.2741 -0.6236 -0.3862
  211MPD1    H5 3267   1.872   1.394  16.074  1.3618  1.2645 -0.3967
  211MPD1    N1 3268   1.905   1.152  15.657  0.0318 -0.2814 -0.3873
  211MPD1    H6 3269   1.853   1.231  15.621  1.4393  0.7746 -0.0923
  211MPD1    H7 3270   1.960   1.113  15.581 -1.1667 -0.8366 -0.9809
  212MPD1     C 3271   0.997   0.169  16.909 -0.3351 -0.3400 -0.1947
  212MPD1    C1 3272   1.120   0.118  16.937  0.6441  0.5017  0.2329
  212MPD1    C2 3273   1.124   4.725  16.981 -0.0156  0.4478 -1.0061
  212MPD1    C3 3274   1.010   4.661  17.024  0.1128  0.0987 -0.0229
  212MPD1    C4 3275   0.884   4.717  17.013  0.6279 -0.0823 -0.3761
  212MPD1    C5 3276   0.880   0.104  16.949 -0.0823  0.2329  0.4599
  212MPD1     H 3277   1.216   4.668  16.989 -1.2072 -1.3190 -0.1081
  212MPD1    H1 3278   0.796   4.658  17.034  0.7770  0.4463  1.7965
  212MPD1    H2 3279   0.979   0.270  16.875  0.3924 -0.8796 -2.1899
  212MPD1    H3 3280   0.783   0.147  16.930  0.3319  1.3752  0.9118
  212MPD1     N 3281   1.002   4.534  17.080  0.0023 -0.1112 -0.2555
  212MPD1    H5 3282   0.910   4.504  17.112  0.3505 -0.8520  0.0235
  212MPD1    N1 3283   1.232   0.193  16.895 -0.2457 -0.1025 -0.5702
  212MPD1    H6 3284   1.208   0.291  16.880 -0.2887  0.5117  3.6928
  212MPD1    H7 3285   1.299   0.192  16.971  1.1638 -1.1955 -1.8229
  213MPD1     C 3286   4.140   0.512  16.324  0.2686  0.7343 -0.4345
  213MPD1    C1 3287   4.083   0.382  16.315 -0.2819 -0.8777 -0.8425
  213MPD1    C2 3288   3.985   0.378  16.219  0.0198 -0.0398 -0.1497
  213MPD1    C3 3289   3.978   0.463  16.114 -0.9081  0.5849 -0.4081
  213MPD1    C4 3290   4.053   0.578  16.110 -0.8987  0.4612  0.7967
  213MPD1    C5 3291   4.131   0.604  16.220 -0.2494  0.0199  0.5925
  213MPD1     H 3292   3.913   0.298  16.227  1.0654 -1.0085 -0.3625
  213MPD1    H1 3293   4.048   0.646  16.025 -0.7985  0.0779  0.4820
  213MPD1    H2 3294   4.216   0.533  16.400 -1.0261  1.7786  0.5701
  213MPD1    H3 3295   4.189   0.695  16.227 -1.8342  1.0429  0.5747
  213MPD1     N 3296   3.892   0.419  16.007  0.4558  0.1839  0.0026
  213MPD1    H5 3297   3.854   0.325  16.013 -1.0287  0.7668 -0.1340
  213MPD1    N1 3298   4.077   0.300  16.427  0.0709 -0.6959 -0.1943
  213MPD1    H6 3299   4.050   0.203  16.412 -1.4042 -0.4601  0.8903
  213MPD1    H7 3300   4.162   0.307  16.483  0.3886  1.5073 -0.9478
  214MPD1     C 3301   3.114   4.565  15.835 -0.0700  0.1945  0.4032
  214MPD1    C1 3302   3.129   4.679  15.921  0.1130 -0.7124 -0.3266
  214MPD1    C2 3303   3.240   0.024  15.906  0.2359 -0.7051  0.8243
  214MPD1    C3 3304   3.334   4.729  15.801  0.6082  0.8797 -0.5254
  214MPD1    C4 3305   3.316   4.617  15.727  0.3968  0.6264  0.1300
  214MPD1    C5 3306   3.211   4.532  15.747  0.7265 -0.1413  0.1237
  214MPD1     H 3307   3.240   0.118  15.960 -1.9791 -0.1062 -0.2018
  214MPD1    H1 3308   3.381   4.581  15.649 -0.3199 -1.6185  0.5751
  214MPD1    H2 3309   3.031   4.497  15.834  0.0944 -0.0157  1.4296
  214MPD1    H3 3310   3.200   4.444  15.684 -0.4875  0.0078  0.1205
  214MPD1     N 3311   3.441   0.082  15.769  0.1490 -0.7896 -0.1169
  214MPD1    H5 3312   3.503   0.050  15.695  0.0984  0.1062 -0.5435
  214MPD1    N1 3313   3.018   4.702  16.004  0.5769 -0.2453 -0.1737
  214MPD1    H6 3314   3.035   0.009  16.095  1.4452  2.6144 -1.6959
  214MPD1    H7 3315   2.964   4.616  16.011 -2.0099  1.4381  0.6796
  215MPD1     C 3316   4.112   1.068  10.467 -0.1051  0.6165 -0.0521
  215MPD1    C1 3317   4.146   1.195  10.426  0.3226  0.3770  0.7255
  215MPD1    C2 3318   4.207   1.277  10.519  0.1040 -0.3201 -0.2218
  215MPD1    C3 3319   4.225   1.229  10.650 -0.4344 -0.5532 -0.3426
  215MPD1    C4 3320   4.200   1.103  10.690 -0.4490 -0.2485  0.4484
  215MPD1    C5 3321   4.151   1.017  10.590 -0.2931  0.0343 -0.3390
  215MPD1     H 3322   4.212   1.380  10.486  0.5184  0.0410  0.9539
  215MPD1    H1 3323   4.210   1.066  10.792  0.3040 -0.2912  0.3626
  215MPD1    H2 3324   4.060   0.998  10.402  3.3174 -0.4571 -1.6196
  215MPD1    H3 3325   4.130   0.915  10.620  1.3068 -0.2122 -0.0256
  215MPD1     N 3326   4.281   1.328  10.743  0.3087  0.3113 -0.0767
  215MPD1    H5 3327   4.266   1.425  10.715 -0.5330 -0.4348 -2.2712
  215MPD1    N1 3328   4.105   1.248  10.305  0.4181 -0.3301  0.8410
  215MPD1    H6 3329   4.173   1.315  10.270  1.0292 -0.6421  1.4392
  215MPD1    H7 3330   4.082   1.184  10.229 -0.4715  0.4141  0.4823
  216MPD1     C 3331   0.631   3.859   0.338  0.4371 -0.2755  0.3191
  216MPD1    C1 3332   0.716   3.915   0.239 -0.0250 -0.4001  0.6730
  216MPD1    C2 3333   0.812   3.837   0.176 -0.6122 -0.3513  0.5908
  216MPD1    C3 3334   0.828   3.707   0.209 -0.6079  0.0286  0.3253
  216MPD1    C4 3335   0.753   3.653   0.311 -0.4936  0.0544  0.0166
  216MPD1    C5 3336   0.652   3.730   0.368 -0.3637 -0.1517 -0.3044
  216MPD1     H 3337   0.861   3.877   0.088 -1.4408 -0.4810  0.0698
  216MPD1    H1 3338   0.765   3.552   0.349 -1.6521  0.0391  0.3467
  216MPD1    H2 3339   0.537   3.906   0.363 -0.1403 -1.1958 -0.0915
  216MPD1    H3 3340   0.589   3.688   0.446 -1.6461  0.3473 -1.0763
  216MPD1     N 3341   0.920   3.637   0.136  0.3508  0.2111 -1.0859
  216MPD1    H5 3342   0.969   3.690   0.063 -0.9094  2.4906 -0.2711
  216MPD1    N1 3343   0.686   4.045   0.182 -0.3201  0.3003 -0.0184
  216MPD1    H6 3344   0.639   4.114   0.240 -1.1935 -1.3064  1.1844
  216MPD1    H7 3345   0.772   4.091   0.152  0.3089 -1.1988 -0.5173
  217MPD1     C 3346   1.918   1.712   9.530  0.6417  0.3285  0.3610
  217MPD1    C1 3347   1.790   1.725   9.591  0.1448  0.2730 -0.2475
  217MPD1    C2 3348   1.737   1.621   9.661 -0.3522 -0.2956  0.2410
  217MPD1    C3 3349   1.796   1.498   9.662 -1.0134 -0.5331  0.3191
  217MPD1    C4 3350   1.925   1.487   9.603  0.6483  0.7895 -0.4037
  217MPD1    C5 3351   1.989   1.596   9.542 -0.5938 -0.0574 -0.3881
  217MPD1     H 3352   1.637   1.634   9.701  0.8225  2.2625  2.3007
  217MPD1    H1 3353   1.988   1.400   9.616  0.4116  0.4299 -1.6581
  217MPD1    H2 3354   1.960   1.790   9.468 -1.3840  2.5531  1.7501
  217MPD1    H3 3355   2.084   1.591   9.490 -0.7500  1.9201 -0.8816
  217MPD1     N 3356   1.742   1.375   9.711  0.3373  0.3017 -0.5483
  217MPD1    H5 3357   1.802   1.294   9.716 -0.0989 -0.1867 -3.7005
  217MPD1    N1 3358   1.743   1.858   9.607 -0.4625  0.3837  0.0895
  217MPD1    H6 3359   1.762   1.920   9.528  0.6102 -0.2863 -0.1833
  217MPD1    H7 3360   1.642   1.856   9.617 -0.5115  1.8052 -0.1455
  218MPD1     C 3361   2.835   0.397  14.469 -0.6986  0.0329  1.2570
  218MPD1    C1 3362   2.907   0.291  14.520  0.3954  0.4401 -0.1852
  218MPD1    C2 3363   3.016   0.244  14.445 -0.4044  0.2378 -0.2840
  218MPD1    C3 3364   3.024   0.291  14.311 -0.2732 -0.2165  0.0246
  218MPD1    C4 3365   2.949   0.397  14.260  0.1493 -1.1612 -0.1756
  218MPD1    C5 3366   2.849   0.449  14.342  0.3498 -0.1819  0.2172
  218MPD1     H 3367   3.085   0.170  14.485 -0.0060 -0.3445 -2.0154
  218MPD1    H1 3368   2.952   0.433  14.158 -1.2326 -1.1010 -0.1918
  218MPD1    H2 3369   2.759   0.448  14.527 -0.6114  0.9996  0.5212
  218MPD1    H3 3370   2.788   0.527  14.298  0.3475 -0.7656 -0.8067
  218MPD1     N 3371   3.131   0.244  14.224 -0.3865 -0.1849  0.2632
  218MPD1    H5 3372   3.177   0.156  14.250  0.1701  0.0479  0.0725
  218MPD1    N1 3373   2.913   0.271  14.662  0.8096  0.4270  0.4464
  218MPD1    H6 3374   2.821   0.285  14.703  1.1105 -1.1390  1.6629
  218MPD1    H7 3375   2.955   0.184  14.694  0.7122  0.4945  0.7584
  219MPD1     C 3376   3.307   4.312  13.512  0.3808 -0.9065 -0.4058
  219MPD1    C1 3377   3.263   4.306  13.645 -0.6420  0.5464 -0.2422
  219MPD1    C2 3378   3.302   4.411  13.732 -0.1487 -0.0412  0.3346
  219MPD1    C3 3379   3.376   4.518  13.685  0.6824 -0.0421 -1.0728
  219MPD1    C4 3380   3.437   4.503  13.558 -0.7483 -0.0508 -0.4722
  219MPD1    C5 3381   3.395   4.407  13.473  1.2443  0.4560 -0.1523
  219MPD1     H 3382   3.265   4.413  13.834  0.0207 -0.0650  0.3966
  219MPD1    H1 3383   3.509   4.573  13.518 -0.7643 -0.1164 -0.6151
  219MPD1    H2 3384   3.277   4.238  13.438 -1.9231 -0.9078  0.5428
  219MPD1    H3 3385   3.431   4.409  13.371 -1.6393  3.0704 -1.1290
  219MPD1     N 3386   3.411   4.632  13.765  0.0094 -0.0828 -0.0557
  219MPD1    H5 3387   3.471   4.703  13.724  1.8045 -0.6703  1.5390
  219MPD1    N1 3388   3.164   4.210  13.678 -0.7510  0.4323  0.2696
  219MPD1    H6 3389   3.153   4.186  13.776  0.2038  0.0117  0.2692
  219MPD1    H7 3390   3.182   4.128  13.621  0.4745  1.3265 -0.6273
  220MPD1     C 3391   3.510   2.773  10.332 -0.2933  0.5464 -0.2254
  220MPD1    C1 3392   3.621   2.744  10.403 -0.8542 -0.5384  0.8372
  220MPD1    C2 3393   3.661   2.609  10.410 -0.1915 -0.1731  0.5293
  220MPD1    C3 3394   3.617   2.526  10.311 -0.2535  0.0820 -0.2219
  220MPD1    C4 3395   3.514   2.563  10.231  0.3087  0.2388 -0.3005
  220MPD1    C5 3396   3.455   2.681  10.248 -0.2282 -0.2560 -0.2564
  220MPD1     H 3397   3.743   2.574  10.471  1.4588  0.1981 -1.5058
  220MPD1    H1 3398   3.464   2.488  10.171  1.7538 -1.5593  0.6930
  220MPD1    H2 3399   3.459   2.869  10.333 -0.0100  0.7085 -0.7801
  220MPD1    H3 3400   3.371   2.712  10.187  0.4823 -1.2590 -1.7222
  220MPD1     N 3401   3.683   2.403  10.305 -0.0868  0.2313 -0.5213
  220MPD1    H5 3402   3.747   2.381  10.381 -0.6117  0.1733 -0.0943
  220MPD1    N1 3403   3.661   2.833  10.502 -0.2857 -0.2866  0.6990
  220MPD1    H6 3404   3.658   2.929  10.471 -0.1227  0.3032  2.4774
  220MPD1    H7 3405   3.761   2.821  10.517  0.0940 -0.5270 -2.0719
  221MPD1     C 3406   1.075   0.593  16.722  0.2128 -0.1921  0.2050
  221MPD1    C1 3407   1.182   0.562  16.802 -0.0448  0.2682  0.1969
  221MPD1    C2 3408   1.299   0.527  16.740  0.3450  0.1165  0.1565
  221MPD1    C3 3409   1.327   0.560  16.604  0.4121  1.0953  0.2187
  221MPD1    C4 3410   1.219   0.599  16.527 -0.6099 -0.1123 -0.1846
  221MPD1    C5 3411   1.096   0.612  16.586 -0.0974 -0.4449  0.3989
  221MPD1     H 3412   1.375   0.477  16.800  2.7657  0.7796 -2.3319
  221MPD1    H1 3413   1.234   0.620  16.421 -1.0543  0.9016 -0.0477
  221MPD1    H2 3414   0.972   0.602  16.756 -0.0270 -1.3406 -0.2162
  221MPD1    H3 3415   1.009   0.637  16.527  0.7310 -0.5815 -0.8767
  221MPD1     N 3416   1.455   0.544  16.545 -0.2328  0.0986 -0.5247
  221MPD1    H5 3417   1.466   0.561  16.445 -1.2725 -0.9180 -0.8121
  221MPD1    N1 3418   1.164   0.517  16.933 -0.0668  0.7182  0.4067
  221MPD1    H6 3419   1.089   0.572  16.976  1.0036  2.0448  0.5620
  221MPD1    H7 3420   1.250   0.543  16.980 -0.6589  0.2312  1.7638
  222MPD1     C 3421   1.399   3.931  17.478  0.5355  0.5356 -0.8335
  222MPD1    C1 3422   1.415   3.827  17.566  0.0475  0.7476 -0.1674
  222MPD1    C2 3423   1.444   3.859  17.703  0.2197 -0.0022  0.5371
  222MPD1    C3 3424   1.447   3.989   0.003 -0.5843 -0.1913 -0.9769
  222MPD1    C4 3425   1.419   4.095  17.657 -0.0590 -0.6684  0.2968
  222MPD1    C5 3426   1.400   4.061  17.522  0.2602  0.2137  0.0939
  222MPD1     H 3427   1.474   3.780   0.030  3.6725 -0.0170 -1.0077
  222MPD1    H1 3428   1.427   4.199  17.689  0.8791 -0.5246 -0.3854
  222MPD1    H2 3429   1.390   3.914  17.371  1.1322  0.3092 -0.8482
  222MPD1    H3 3430   1.387   4.139  17.448  3.4396  0.9502  0.3191
  222MPD1     N 3431   1.469   4.023   0.137  0.6799 -0.4676 -0.4377
  222MPD1    H5 3432   1.476   4.123   0.154  0.8855 -0.4353 -0.7199
  222MPD1    N1 3433   1.432   3.697  17.523 -0.7042 -0.0167 -0.5790
  222MPD1    H6 3434   1.381   3.638  17.589  0.5376 -0.0020  0.3998
  222MPD1    H7 3435   1.381   3.692  17.435  0.7939  0.8966 -1.4820
  223MPD1     C 3436   1.437   3.869   1.228  0.3128 -0.5247  0.4538
  223MPD1    C1 3437   1.487   4.001   1.206 -0.2815  0.9445  0.6627
  223MPD1    C2 3438   1.525   4.031   1.078  0.5017  0.5046  0.2944
  223MPD1    C3 3439   1.507   3.941   0.975  0.3956 -0.0388 -0.2960
  223MPD1    C4 3440   1.470   3.814   1.010 -0.1096  0.1098  0.1694
  223MPD1    C5 3441   1.428   3.776   1.132 -0.6845  0.0558  0.6271
  223MPD1     H 3442   1.553   4.131   1.047  0.8332  1.2727  3.0951
  223MPD1    H1 3443   1.452   3.743   0.929  0.0107  1.0403 -0.6725
  223MPD1    H2 3444   1.416   3.847   1.332  2.3169 -0.1904  0.9347
  223MPD1    H3 3445   1.389   3.676   1.150 -2.0919  0.2572 -1.2054
  223MPD1     N 3446   1.544   3.989   0.844  0.9704 -0.1284  0.3196
  223MPD1    H5 3447   1.585   4.081   0.841 -0.4838  0.5635  1.6253
  223MPD1    N1 3448   1.467   4.096   1.307 -0.5317  0.1905 -0.9284
  223MPD1    H6 3449   1.507   4.186   1.281  0.7715  0.7459  2.9943
  223MPD1    H7 3450   1.493   4.064   1.401  0.6256 -0.7548 -1.5695
  224MPD1     C 3451   2.356   1.968   9.403 -1.0221 -0.5047 -0.1614
  224MPD1    C1 3452   2.462   1.877   9.406  0.2812  0.6556  0.1529
  224MPD1    C2 3453   2.491   1.820   9.529 -0.7105 -0.1642  0.3525
  224MPD1    C3 3454   2.411   1.841   9.639 -0.2577 -0.2828  0.5836
  224MPD1    C4 3455   2.314   1.938   9.635  0.0986  0.1542  0.1460
  224MPD1    C5 3456   2.284   1.998   9.518 -0.2600  0.1361  0.0259
  224MPD1     H 3457   2.569   1.745   9.535 -1.4892 -0.7982  2.4949
  224MPD1    H1 3458   2.255   1.955   9.724  3.4355  2.6354  1.8856
  224MPD1    H2 3459   2.343   2.029   9.314  2.5953 -1.0086 -1.0079
  224MPD1    H3 3460   2.208   2.075   9.514 -0.4677 -0.1802 -2.2306
  224MPD1     N 3461   2.434   1.779   9.762 -0.3156 -0.0055 -0.1380
  224MPD1    H5 3462   2.373   1.794   9.842 -0.0502  4.0588 -0.6702
  224MPD1    N1 3463   2.557   1.867   9.307 -0.2237  0.3708  0.1443
  224MPD1    H6 3464   2.594   1.772   9.297  1.3360  1.0681 -0.5752
  224MPD1    H7 3465   2.516   1.889   9.217 -2.2333 -2.5162  0.3181
  225MPD1     C 3466   3.879   2.357  12.639 -0.0179  0.5350 -0.0102
  225MPD1    C1 3467   3.845   2.296  12.517  0.4657 -0.0858 -0.5213
  225MPD1    C2 3468   3.711   2.310  12.468  0.2089 -0.1053 -0.5284
  225MPD1    C3 3469   3.622   2.387  12.546  0.5084 -0.3346  0.3158
  225MPD1    C4 3470   3.666   2.456  12.648  0.6862  0.0301  0.2956
  225MPD1    C5 3471   3.790   2.442  12.697  0.1725 -0.2437 -0.3624
  225MPD1     H 3472   3.688   2.263  12.374 -0.2391 -1.2251  0.1407
  225MPD1    H1 3473   3.600   2.520  12.706  0.6460 -2.2352  2.7620
  225MPD1    H2 3474   3.981   2.353  12.676  0.5138  2.0694 -1.3020
  225MPD1    H3 3475   3.822   2.493  12.787  2.4760  2.0618 -2.4973
  225MPD1     N 3476   3.483   2.398  12.525  0.3253  0.0319 -0.2513
  225MPD1    H5 3477   3.424   2.442  12.595 -1.9314  2.1245 -3.4345
  225MPD1    N1 3478   3.932   2.207  12.460  0.6471  0.6084  0.2420
  225MPD1    H6 3479   3.910   2.187  12.363 -1.0152  0.6396  0.6258
  225MPD1    H7 3480   4.032   2.229  12.463  0.6093  0.9302 -0.7956
  226MPD1     C 3481   2.838   3.335   9.745  0.7444 -0.0608  0.1966
  226MPD1    C1 3482   2.895   3.214   9.781 -0.5317  0.3978  0.2783
  226MPD1    C2 3483   2.815   3.104   9.781 -0.0088 -0.0211 -0.0444
  226MPD1    C3 3484   2.680   3.116   9.757 -0.3699  0.6536 -0.4168
  226MPD1    C4 3485   2.620   3.232   9.718 -0.0695 -0.0194  0.2262
  226MPD1    C5 3486   2.705   3.341   9.708 -0.3718 -1.0604  0.4166
  226MPD1     H 3487   2.856   3.006   9.803 -1.7356 -0.9464 -0.9937
  226MPD1    H1 3488   2.516   3.243   9.690  0.2933 -0.8764 -1.4898
  226MPD1    H2 3489   2.902   3.422   9.740  0.1416  0.5408  2.9308
  226MPD1    H3 3490   2.656   3.432   9.674  1.2021 -0.3520  0.0206
  226MPD1     N 3491   2.606   2.997   9.770 -0.1776  0.0747  0.3141
  226MPD1    H5 3492   2.660   2.917   9.801 -0.4434 -0.4043 -0.4542
  226MPD1    N1 3493   3.028   3.194   9.816  0.5183  0.1846  0.8647
  226MPD1    H6 3494   3.054   3.114   9.873 -1.7135 -0.5739  0.8250
  226MPD1    H7 3495   3.072   3.274   9.862  2.6943 -0.8333  0.5553
  227MPD1     C 3496   1.847   2.227   9.651 -0.4697 -0.3438 -0.5902
  227MPD1    C1 3497   1.966   2.171   9.685 -0.1805 -0.6702  0.5663
  227MPD1    C2 3498   2.073   2.262   9.699 -0.1456  0.2373  0.7384
  227MPD1    C3 3499   2.058   2.400   9.693  0.9549  0.0144 -0.3374
  227MPD1    C4 3500   1.938   2.457   9.665  0.3553  0.6293 -0.5163
  227MPD1    C5 3501   1.835   2.364   9.635 -0.2258  0.2740  0.3137
  227MPD1     H 3502   2.168   2.217   9.723  1.4037  2.9381 -0.2766
  227MPD1    H1 3503   1.917   2.562   9.678 -0.3040  0.5105 -0.6033
  227MPD1    H2 3504   1.768   2.160   9.621  1.1001 -2.1131 -0.8176
  227MPD1    H3 3505   1.738   2.409   9.617 -0.0065  1.2819  1.6790
  227MPD1     N 3506   2.165   2.477   9.737 -0.1737  0.1385 -0.0108
  227MPD1    H5 3507   2.247   2.423   9.765 -0.0155 -0.0173 -0.7587
  227MPD1    N1 3508   1.981   2.036   9.673  0.3336 -0.0570  0.0694
  227MPD1    H6 3509   1.897   1.980   9.680 -0.9647  1.7203 -1.1098
  227MPD1    H7 3510   2.055   1.993   9.728  2.0632  1.5622 -0.9830
  228MPD1     C 3511   0.847   3.845  12.823 -0.5965 -0.3298  0.8471
  228MPD1    C1 3512   0.741   3.764  12.859 -0.8417 -0.6407  0.4204
  228MPD1    C2 3513   0.615   3.783  12.799 -0.8060  0.5509  0.0170
  228MPD1    C3 3514   0.595   3.889  12.712 -0.1130 -0.8405 -0.4202
  228MPD1    C4 3515   0.703   3.965  12.677  0.0613 -0.4994 -0.1213
  228MPD1    C5 3516   0.826   3.952  12.735 -0.4317  0.3105  0.0352
  228MPD1     H 3517   0.529   3.730  12.837 -0.3034  0.5125  1.1057
  228MPD1    H1 3518   0.703   4.037  12.596 -2.5182 -0.3578  0.0033
  228MPD1    H2 3519   0.946   3.825  12.862  0.0935  0.7244 -0.3650
  228MPD1    H3 3520   0.909   4.019  12.717 -0.2491  0.4218  1.3387
  228MPD1     N 3521   0.460   3.899  12.665 -0.3434  0.2169  0.4650
  228MPD1    H5 3522   0.386   3.842  12.707 -0.4420  0.7240  0.9867
  228MPD1    N1 3523   0.760   3.638  12.916 -0.1163  0.8991 -0.0573
  228MPD1    H6 3524   0.832   3.659  12.984  0.4669  0.7031 -0.6210
  228MPD1    H7 3525   0.679   3.601  12.966  0.5485  0.6346  0.8172
  229MPD1     C 3526   0.393   3.780  14.492 -0.3483 -0.1080 -0.1137
  229MPD1    C1 3527   0.372   3.646  14.466  0.2280 -0.1462 -1.0991
  229MPD1    C2 3528   0.451   3.548  14.525 -0.3265 -0.1487  0.6282
  229MPD1    C3 3529   0.545   3.592  14.622  0.0126  0.9063 -0.3669
  229MPD1    C4 3530   0.560   3.727  14.651  0.0322 -0.2345  1.2681
  229MPD1    C5 3531   0.484   3.818  14.585  0.3902  0.3083  0.1465
  229MPD1     H 3532   0.420   3.444  14.527 -2.6896  0.5227 -0.4434
  229MPD1    H1 3533   0.623   3.763  14.733  0.2886  1.6824  0.2400
  229MPD1    H2 3534   0.322   3.849  14.448 -1.2406 -2.3273 -2.1421
  229MPD1    H3 3535   0.504   3.924  14.599 -1.1122  0.5634  0.3766
  229MPD1     N 3536   0.628   3.507  14.692  0.0527 -0.3883  0.1215
  229MPD1    H5 3537   0.699   3.547  14.752 -0.1258  0.4681 -0.2381
  229MPD1    N1 3538   0.244   3.612  14.407 -0.2339 -0.8517 -0.1636
  229MPD1    H6 3539   0.246   3.523  14.358 -1.6484 -1.3614  0.6976
  229MPD1    H7 3540   0.198   3.676  14.343 -0.7365 -0.0952  0.9579
  230MPD1     C 3541   0.550   3.682  15.528 -0.0557 -0.7140  0.1525
  230MPD1    C1 3542   0.511   3.729  15.401  0.2895 -0.1102 -0.3340
  230MPD1    C2 3543   0.549   3.651  15.293  1.1834  1.4233 -0.2140
  230MPD1    C3 3544   0.617   3.534  15.306 -0.1387 -0.9715 -0.6036
  230MPD1    C4 3545   0.649   3.489  15.430 -0.2357  0.3759 -0.4428
  230MPD1    C5 3546   0.616   3.561  15.538 -0.9316 -0.0588  0.4309
  230MPD1     H 3547   0.521   3.683  15.194  0.0487  0.9503 -0.0402
  230MPD1    H1 3548   0.706   3.397  15.443  1.4145  0.9769 -3.6956
  230MPD1    H2 3549   0.522   3.742  15.614  0.1652  2.1995 -1.8014
  230MPD1    H3 3550   0.632   3.514  15.634  2.8639  2.6683  1.1396
  230MPD1     N 3551   0.657   3.475  15.185  0.2971  0.2394  0.1226
  230MPD1    H5 3552   0.622   3.516  15.099 -1.1764  0.1356  0.6701
  230MPD1    N1 3553   0.426   3.841  15.392  0.0007  0.0662  0.1782
  230MPD1    H6 3554   0.464   3.893  15.313 -3.8315  1.5062 -0.7479
  230MPD1    H7 3555   0.441   3.899  15.474  0.2837  0.4025 -0.1134
  231MPD1     C 3556   3.278   0.499  15.765  0.1270 -0.6774  0.0178
  231MPD1    C1 3557   3.266   0.434  15.643  0.3326 -0.2385  0.1364
  231MPD1    C2 3558   3.280   0.518  15.536 -0.2198 -0.1163 -0.5250
  231MPD1    C3 3559   3.342   0.642  15.555 -0.4864 -0.1538  0.3278
  231MPD1    C4 3560   3.381   0.689  15.678  0.0783 -0.0011  0.0538
  231MPD1    C5 3561   3.337   0.618  15.783  0.2581  0.1846  0.4642
  231MPD1     H 3562   3.266   0.480  15.435 -2.4933 -0.7411  0.0500
  231MPD1    H1 3563   3.421   0.788  15.695 -0.5494  0.1323  0.7547
  231MPD1    H2 3564   3.259   0.444  15.857  0.1485  2.4320  1.8795
  231MPD1    H3 3565   3.358   0.657  15.882  4.6195 -0.8295 -0.0452
  231MPD1     N 3566   3.355   0.720  15.442 -0.1595 -0.0870 -0.3110
  231MPD1    H5 3567   3.305   0.698  15.356  0.4756 -1.1392 -0.4086
  231MPD1    N1 3568   3.202   0.310  15.629 -0.0598  0.1971  0.8180
  231MPD1    H6 3569   3.217   0.255  15.714  2.1644 -0.7156 -0.1687
  231MPD1    H7 3570   3.232   0.270  15.540 -1.0581 -0.8782  0.9672
  232MPD1     C 3571   0.242   3.463   0.829 -0.3966  0.4891 -0.2403
  232MPD1    C1 3572   0.136   3.504   0.751 -0.9591 -0.2204 -1.3589
  232MPD1    C2 3573   0.098   3.425   0.643  0.4672 -0.3411  0.2814
  232MPD1    C3 3574   0.153   3.305   0.623 -0.0238 -0.0708  0.7421
  232MPD1    C4 3575   0.255   3.262   0.712 -0.2668  0.5581  0.5292
  232MPD1    C5 3576   0.297   3.339   0.815  0.4927  0.1265  0.8775
  232MPD1     H 3577   0.022   3.463   0.575 -0.1561 -1.9053  0.1131
  232MPD1    H1 3578   0.292   3.160   0.705  1.0803  1.2897 -3.0326
  232MPD1    H2 3579   0.284   3.530   0.903  1.7775 -0.3053 -0.7543
  232MPD1    H3 3580   0.378   3.310   0.881 -1.9601 -1.6886  3.0703
  232MPD1     N 3581   0.095   3.222   0.525  0.5066  0.3727 -0.2334
  232MPD1    H5 3582   0.010   3.263   0.488 -0.2868  0.2783  1.4991
  232MPD1    N1 3583   0.082   3.637   0.762  0.5952  0.1662 -0.3098
  232MPD1    H6 3584   4.720   3.641   0.737 -0.0575 -1.2386  1.9813
  232MPD1    H7 3585   0.100   3.679   0.853 -0.7540  1.2326 -0.5573
  233MPD1     C 3586   0.855   1.988   1.446 -0.1145  0.2284 -0.2080
  233MPD1    C1 3587   0.808   1.862   1.476 -0.3437  0.4167  0.8703
  233MPD1    C2 3588   0.890   1.747   1.481 -0.2962  0.6291 -0.0169
  233MPD1    C3 3589   1.021   1.767   1.468  0.0393  0.0215 -0.4655
  233MPD1    C4 3590   1.072   1.898   1.442  0.4468  0.0053  0.6196
  233MPD1    C5 3591   0.981   2.000   1.418 -0.0732 -0.6798  0.3390
  233MPD1     H 3592   0.846   1.649   1.495  0.2387  0.7609  2.5251
  233MPD1    H1 3593   1.176   1.910   1.413  0.6117 -0.7346  0.8908
  233MPD1    H2 3594   0.787   2.072   1.436  0.9791  0.9902 -1.1133
  233MPD1    H3 3595   1.011   2.097   1.380 -1.6197 -0.7043 -0.9225
  233MPD1     N 3596   1.109   1.654   1.477  0.7919  0.1014  0.4676
  233MPD1    H5 3597   1.200   1.673   1.436  0.8058  0.6386  0.7409
  233MPD1    N1 3598   0.675   1.852   1.515  0.2448 -0.1687 -0.0859
  233MPD1    H6 3599   0.642   1.756   1.505 -1.2538  0.3162  0.2520
  233MPD1    H7 3600   0.609   1.923   1.484  1.4262  0.3684 -1.3635
  234MPD1     C 3601   2.839   4.616   9.754 -0.1958  0.1806  0.3076
  234MPD1    C1 3602   2.916   4.715   9.806  0.8226  0.4137 -0.3885
  234MPD1    C2 3603   2.848   0.097   9.833  0.5780  0.5906  0.7363
  234MPD1    C3 3604   2.707   0.110   9.836 -0.2387 -0.5813 -0.7819
  234MPD1    C4 3605   2.631   4.729   9.808  0.1090 -0.7103  0.5258
  234MPD1    C5 3606   2.700   4.628   9.756  0.3547 -0.4331  0.5164
  234MPD1     H 3607   2.900   0.185   9.869  0.3603  0.5396  1.1710
  234MPD1    H1 3608   2.523   4.729   9.798 -0.1201 -2.8331  3.1558
  234MPD1    H2 3609   2.880   4.523   9.715 -0.9853  0.6757 -1.6599
  234MPD1    H3 3610   2.652   4.536   9.723  1.7873 -0.2970 -1.9156
  234MPD1     N 3611   2.648   0.231   9.866 -0.0163 -0.8143 -0.2909
  234MPD1    H5 3612   2.711   0.299   9.908 -2.0562  0.8930 -0.0163
  234MPD1    N1 3613   3.052   4.705   9.782 -0.2551 -0.6101 -0.1820
  234MPD1    H6 3614   3.116   0.027   9.836 -0.1439  0.1214 -1.0981
  234MPD1    H7 3615   3.075   4.608   9.801 -1.7265 -1.2342 -1.5723
  235MPD1     C 3616   1.034   2.928  10.097  0.2618 -0.1638  0.0729
  235MPD1    C1 3617   1.005   3.051  10.146  0.8042 -0.3370 -0.4926
  235MPD1    C2 3618   0.872   3.087  10.166 -0.5734  0.6166 -0.7186
  235MPD1    C3 3619   0.770   3.005  10.114  0.0626 -0.3562  0.0592
  235MPD1    C4 3620   0.802   2.895  10.042 -0.4373 -0.0248  0.2134
  235MPD1    C5 3621   0.933   2.863  10.031  0.1694 -0.2384 -0.6170
  235MPD1     H 3622   0.847   3.184  10.208 -1.3520  0.2708 -0.3873
  235MPD1    H1 3623   0.733   2.824   9.999 -0.4159 -0.0260  0.1809
  235MPD1    H2 3624   1.134   2.887  10.093 -0.2399 -1.6954  3.3574
  235MPD1    H3 3625   0.954   2.759  10.007 -2.6000 -1.2282  1.2864
  235MPD1     N 3626   0.634   3.043  10.138 -0.2165  0.9694  0.1494
  235MPD1    H5 3627   0.631   3.131  10.188 -2.0504  1.3290 -0.5940
  235MPD1    N1 3628   1.106   3.129  10.203 -0.2365 -0.4547 -0.1850
  235MPD1    H6 3629   1.195   3.120  10.155  0.1432 -0.6863  0.5558
  235MPD1    H7 3630   1.087   3.228  10.211 -1.8249 -0.7490 -0.3040
  236MPD1     C 3631   3.601   3.880  10.449 -0.0406  0.0011 -0.6247
  236MPD1    C1 3632   3.708   3.941  10.503  0.5767 -0.7119 -0.3968
  236MPD1    C2 3633   3.815   3.874  10.535  0.0949  0.4376 -0.3469
  236MPD1    C3 3634   3.825   3.739  10.506 -0.3043 -0.1137  0.0232
  236MPD1    C4 3635   3.718   3.680  10.458 -0.4124 -0.8784  0.4887
  236MPD1    C5 3636   3.610   3.749  10.410 -0.1112  0.0253 -0.1510
  236MPD1     H 3637   3.892   3.930  10.586 -2.3401  0.8713  2.8557
  236MPD1    H1 3638   3.721   3.576  10.428 -2.1245 -0.6913 -0.3411
  236MPD1    H2 3639   3.503   3.924  10.438 -0.1213  0.1307  0.6676
  236MPD1    H3 3640   3.533   3.692  10.359  1.7799 -0.8137 -2.0473
  236MPD1     N 3641   3.933   3.656  10.542 -0.2390  0.4049  0.5617
  236MPD1    H5 3642   3.922   3.559  10.514 -1.3850  0.5470  0.5283
  236MPD1    N1 3643   3.696   4.072  10.544 -0.2184 -0.4520  0.5690
  236MPD1    H6 3644   3.646   4.129  10.476 -1.0271 -2.9330 -0.8963
  236MPD1    H7 3645   3.783   4.118  10.572 -1.7013  2.1614  0.8143
  237MPD1     C 3646   4.148   2.201  15.321 -0.2817 -1.1488  0.0497
  237MPD1    C1 3647   4.080   2.171  15.203 -0.1325  0.9921 -0.1308
  237MPD1    C2 3648   3.959   2.097  15.210  0.5555 -0.1245 -0.4567
  237MPD1    C3 3649   3.920   2.041  15.332 -0.1665  0.6346 -0.0683
  237MPD1    C4 3650   3.993   2.074  15.445 -0.1289  0.2327 -0.0023
  237MPD1    C5 3651   4.092   2.161  15.436  0.6046  0.3748  0.0191
  237MPD1     H 3652   3.909   2.100  15.114 -1.4349  2.6063  0.6618
  237MPD1    H1 3653   3.966   2.019  15.534  0.9578  1.0604  0.8414
  237MPD1    H2 3654   4.238   2.260  15.340 -0.5113 -1.0091  0.7133
  237MPD1    H3 3655   4.149   2.167  15.528 -1.3873  1.0569  1.2062
  237MPD1     N 3656   3.808   1.958  15.346  0.0744  0.4691  0.2081
  237MPD1    H5 3657   3.784   1.940  15.443 -0.1154  0.0710  0.0864
  237MPD1    N1 3658   4.132   2.219  15.083  0.1960  0.4242 -0.1914
  237MPD1    H6 3659   4.056   2.250  15.022  0.7656  1.4541 -0.3828
  237MPD1    H7 3660   4.200   2.294  15.093  0.0497  0.6567 -0.9172
  238MPD1     C 3661   0.242   1.222  14.897  0.2611 -0.4215  0.5539
  238MPD1    C1 3662   0.279   1.133  14.992 -0.0296  0.1408 -0.1750
  238MPD1    C2 3663   0.279   1.002  14.965  0.8305 -0.7888  0.0991
  238MPD1    C3 3664   0.271   0.951  14.830  0.0964  0.3559 -0.5067
  238MPD1    C4 3665   0.244   1.041  14.731  0.0005 -0.1263 -0.0515
  238MPD1    C5 3666   0.232   1.173  14.767  0.4415  0.1145 -0.0809
  238MPD1     H 3667   0.296   0.935  15.048  0.2259  0.6141  1.3366
  238MPD1    H1 3668   0.222   1.012  14.629  0.5729 -2.4651  0.5009
  238MPD1    H2 3669   0.239   1.330  14.908  0.9701 -0.4657  1.1995
  238MPD1    H3 3670   0.218   1.247  14.688  0.9574  1.8002  1.4130
  238MPD1     N 3671   0.290   0.809  14.800  0.0932 -0.3883  0.4976
  238MPD1    H5 3672   0.249   0.771  14.715  2.1272  0.3186 -0.8007
  238MPD1    N1 3673   0.253   1.175  15.125 -0.4270 -0.9465 -0.6749
  238MPD1    H6 3674   0.306   1.118  15.191  0.4981  1.3764  0.5750
  238MPD1    H7 3675   0.287   1.267  15.150 -1.1454 -0.9941  0.4773
  239MPD1     C 3676   0.105   0.571  14.476  0.2890  0.8705  0.8948
  239MPD1    C1 3677   0.057   0.647  14.581 -0.0561 -0.5932 -0.3115
  239MPD1    C2 3678   0.044   0.779  14.566  0.6269 -0.5380 -0.2751
  239MPD1    C3 3679   0.068   0.843  14.442 -0.3180  0.3972 -0.0258
  239MPD1    C4 3680   0.100   0.762  14.337  0.9247  0.0061  0.1253
  239MPD1    C5 3681   0.125   0.628  14.352 -0.1594 -0.2184 -0.1439
  239MPD1     H 3682   0.011   0.845  14.645  2.1589  0.7250 -0.6991
  239MPD1    H1 3683   0.104   0.800  14.235  2.5362 -0.7406 -0.0854
  239MPD1    H2 3684   0.127   0.466  14.491 -1.9490  0.4477  1.2395
  239MPD1    H3 3685   0.160   0.566  14.269 -1.1457 -1.0884  0.0852
  239MPD1     N 3686   0.037   0.981  14.410 -0.0206  0.3694  0.1612
  239MPD1    H5 3687   0.047   1.013  14.314 -0.2325  1.4552  0.5026
  239MPD1    N1 3688   0.038   0.589  14.706  0.3072 -0.2907  0.4400
  239MPD1    H6 3689   4.723   0.502  14.688  0.9541 -0.6898  0.5532
  239MPD1    H7 3690   4.717   0.648  14.766 -0.3492 -0.9281  0.4478
  240MPD1     C 3691   0.109   0.078  14.147  0.5058  0.2363 -0.5643
  240MPD1    C1 3692   0.008   0.172  14.162  0.6690  0.0265  0.7362
  240MPD1    C2 3693   4.703   0.215  14.285  0.0450  0.7744 -0.1127
  240MPD1    C3 3694   0.034   0.175  14.394 -0.0057 -0.4289  0.1177
  240MPD1    C4 3695   0.140   0.095  14.381 -0.1628 -0.4765  0.0533
  240MPD1    C5 3696   0.173   0.041  14.262 -0.1204 -1.0776 -0.3124
  240MPD1     H 3697   4.615   0.278  14.294  0.1488  1.1329 -1.5239
  240MPD1    H1 3698   0.198   0.065  14.467  0.7738  0.4006 -0.2788
  240MPD1    H2 3699   0.147   0.051  14.049  0.9646 -0.9789 -0.0491
  240MPD1    H3 3700   0.264   4.719  14.255  1.2468  0.9026  1.4631
  240MPD1     N 3701   4.721   0.229  14.517  0.3020 -0.0395  0.1445
  240MPD1    H5 3702   4.646   0.299  14.512  1.5834  1.3103 -0.2041
  240MPD1    N1 3703   4.661   0.209  14.055  0.7825  0.5859 -0.5424
  240MPD1    H6 3704   4.623   0.304  14.056  1.6121  0.9176 -0.9949
  240MPD1    H7 3705   4.692   0.196  13.959 -1.7194 -1.1658 -1.1023
  241MPD1     C 3706   0.013   0.465  15.593 -0.4581  0.1476 -0.6799
  241MPD1    C1 3707   0.087   0.369  15.527  0.4010  0.1848 -0.7373
  241MPD1    C2 3708   0.072   0.362  15.390  0.7158  0.6864  0.1782
  241MPD1    C3 3709   4.722   0.440  15.316 -0.1873 -0.0746  0.0855
  241MPD1    C4 3710   4.659   0.545  15.386 -0.7800 -0.3832  0.0624
  241MPD1    C5 3711   4.674   0.558  15.520  0.2427  1.1374 -1.0479
  241MPD1     H 3712   0.133   0.294  15.332  0.6620 -0.3628  1.3522
  241MPD1    H1 3713   4.606   0.614  15.322 -0.3133 -0.2322 -0.1655
  241MPD1    H2 3714   0.019   0.475  15.700  3.8023  0.7784 -0.9749
  241MPD1    H3 3715   4.620   0.634  15.575  0.7450  0.3775  0.5312
  241MPD1     N 3716   4.701   0.430  15.181  0.3872 -0.3699 -0.2399
  241MPD1    H5 3717   4.649   0.503  15.133  1.2181  0.3672 -0.0261
  241MPD1    N1 3718   0.163   0.280  15.599  0.4585  0.3498  0.9060
  241MPD1    H6 3719   0.240   0.236  15.548 -1.2650  1.7797 -2.9738
  241MPD1    H7 3720   0.192   0.323  15.686 -0.4558 -0.1433  1.4505
  242MPD1     C 3721   0.121   4.404  15.991  0.0229  0.1004 -0.3607
  242MPD1    C1 3722   0.026   4.325  15.933  0.2107  0.0890 -0.2130
  242MPD1    C2 3723   0.036   4.304  15.801 -0.9321 -0.2546 -0.2344
  242MPD1    C3 3724   0.147   4.332  15.726 -0.4325  0.7698 -0.1715
  242MPD1    C4 3725   0.246   4.402  15.787  0.3060 -0.2488 -0.2945
  242MPD1    C5 3726   0.230   4.441  15.918  0.0271  0.0529  0.0358
  242MPD1     H 3727   4.685   4.262  15.750 -0.7196 -0.8964 -0.0720
  242MPD1    H1 3728   0.335   4.437  15.736 -1.6568  3.3513 -1.2266
  242MPD1    H2 3729   0.115   4.437  16.094 -1.4885 -0.2725 -0.3323
  242MPD1    H3 3730   0.313   4.487  15.969 -1.2347  2.5209 -0.1369
  242MPD1     N 3731   0.169   4.297  15.594 -0.4014 -0.3339 -0.3764
  242MPD1    H5 3732   0.230   4.348  15.531  0.0233  0.7680  0.9319
  242MPD1    N1 3733   4.644   4.313  16.001 -0.4470  0.2958  0.5280
  242MPD1    H6 3734   4.668   4.294  16.099 -1.3937 -4.3915 -0.1596
  242MPD1    H7 3735   4.582   4.241  15.965 -0.0237  1.1042 -1.8268
  243MPD1     C 3736   0.290   2.871   0.099 -0.1320 -0.0031  0.5791
  243MPD1    C1 3737   0.388   2.861   0.193  0.4559 -0.6289 -0.0615
  243MPD1    C2 3738   0.505   2.793   0.162 -0.9062 -0.4460  0.2964
  243MPD1    C3 3739   0.519   2.711   0.049 -0.3141 -0.3023  0.0678
  243MPD1    C4 3740   0.406   2.705  17.713 -0.1340 -0.7058  0.7463
  243MPD1    C5 3741   0.292   2.787  17.732 -0.1550 -0.2285 -0.5592
  243MPD1     H 3742   0.583   2.798   0.237 -0.7722 -0.0557  0.1281
  243MPD1    H1 3743   0.405   2.625  17.640  0.5134 -0.0162 -0.0134
  243MPD1    H2 3744   0.200   2.930   0.116  0.0052  0.1851  0.6424
  243MPD1    H3 3745   0.215   2.792  17.655 -2.6647  0.5989  2.0293
  243MPD1     N 3746   0.632   2.632   0.032  0.0771  1.1249  0.1920
  243MPD1    H5 3747   0.715   2.646   0.088 -0.2228  0.0176  0.9197
  243MPD1    N1 3748   0.369   2.944   0.307  0.1547 -0.3998 -0.3611
  243MPD1    H6 3749   0.438   2.919   0.377  0.4481  1.6065  0.0601
  243MPD1    H7 3750   0.277   2.956   0.350 -0.2322 -1.4794 -0.8716
  244MPD1     C 3751   1.248   2.481   0.598 -0.1576 -0.5938  0.4406
  244MPD1    C1 3752   1.229   2.601   0.526  0.5674  0.4034 -1.0197
  244MPD1    C2 3753   1.143   2.599   0.422  0.3198  0.4652 -0.4079
  244MPD1    C3 3754   1.095   2.477   0.376 -0.3937  0.7903 -0.3607
  244MPD1    C4 3755   1.126   2.362   0.441  0.1902  0.6134  0.0147
  244MPD1    C5 3756   1.204   2.362   0.553 -0.3268 -0.0102  0.1128
  244MPD1     H 3757   1.114   2.693   0.375 -0.4629  0.7911  0.7370
  244MPD1    H1 3758   1.083   2.274   0.396 -0.8272  1.1039  0.0288
  244MPD1    H2 3759   1.304   2.485   0.691 -0.6428  0.0047  0.7054
  244MPD1    H3 3760   1.225   2.270   0.606  1.9901  0.0101 -0.8051
  244MPD1     N 3761   1.033   2.480   0.250  0.2720 -0.3778 -0.5409
  244MPD1    H5 3762   0.993   2.565   0.212 -0.7082  0.2137  1.8109
  244MPD1    N1 3763   1.265   2.726   0.575 -0.1927  0.0905 -0.0764
  244MPD1    H6 3764   1.296   2.793   0.505 -0.1787  0.0782 -0.0820
  244MPD1    H7 3765   1.327   2.727   0.656  1.2066 -1.2863 -1.1268
  245MPD1     C 3766   3.969   2.348  13.634  0.8366  0.2667  0.3110
  245MPD1    C1 3767   3.846   2.404  13.616  0.2331  0.6725  0.3222
  245MPD1    C2 3768   3.819   2.539  13.648  0.3632 -0.1641 -0.1303
  245MPD1    C3 3769   3.928   2.616  13.687  0.7938 -0.5581  0.4354
  245MPD1    C4 3770   4.052   2.558  13.711 -0.9937  0.9582  0.4151
  245MPD1    C5 3771   4.069   2.426  13.679  0.4298  0.2020  0.5972
  245MPD1     H 3772   3.720   2.583  13.642  0.8881  1.4956  4.0777
  245MPD1    H1 3773   4.137   2.606  13.758 -2.4068  1.6292  2.2538
  245MPD1    H2 3774   3.990   2.243  13.620 -1.0787 -0.0432 -0.1312
  245MPD1    H3 3775   4.169   2.391  13.698  0.8184  0.8894 -0.1605
  245MPD1     N 3776   3.907   2.754  13.715  0.3464 -0.2938 -0.2815
  245MPD1    H5 3777   3.812   2.788  13.727 -0.1387 -0.9887 -2.1744
  245MPD1    N1 3778   3.735   2.316  13.583  0.0561  0.2345 -0.5689
  245MPD1    H6 3779   3.664   2.359  13.524 -0.4500  0.5311  0.2510
  245MPD1    H7 3780   3.773   2.236  13.533 -0.5689  0.5170 -1.5067
  246MPD1     C 3781   2.421   2.518   9.495  0.1753  0.3495 -0.0397
  246MPD1    C1 3782   2.498   2.406   9.520 -0.9692  0.3202  0.7035
  246MPD1    C2 3783   2.618   2.421   9.592  0.2687  0.0826  0.5998
  246MPD1    C3 3784   2.661   2.549   9.622  0.1928 -0.1270 -0.0578
  246MPD1    C4 3785   2.582   2.658   9.579 -0.3150 -1.0208  0.0204
  246MPD1    C5 3786   2.463   2.640   9.521 -0.6891 -0.2655 -0.2314
  246MPD1     H 3787   2.668   2.329   9.619 -0.5173 -1.2788 -2.5254
  246MPD1    H1 3788   2.620   2.758   9.563  1.2929 -1.8557 -1.4196
  246MPD1    H2 3789   2.329   2.504   9.440  1.8059 -0.8136 -2.4280
  246MPD1    H3 3790   2.407   2.726   9.487  1.5136  1.0279 -0.5817
  246MPD1     N 3791   2.782   2.559   9.691  0.5013 -0.6474  0.1653
  246MPD1    H5 3792   2.846   2.481   9.677 -0.2170 -1.2217  0.0545
  246MPD1    N1 3793   2.451   2.274   9.504 -0.5481 -0.0034 -0.0428
  246MPD1    H6 3794   2.525   2.205   9.501 -1.0325 -0.4999 -0.5168
  246MPD1    H7 3795   2.389   2.257   9.425  0.3452 -0.3274 -0.6721
  247MPD1     C 3796   2.092   3.968  14.743 -0.0258  0.1027  0.1210
  247MPD1    C1 3797   2.133   4.099  14.732  0.3521  0.1465  0.0289
  247MPD1    C2 3798   2.252   4.130  14.797 -0.3859  0.7128 -0.0260
  247MPD1    C3 3799   2.323   4.038  14.876 -1.3056 -0.0114  0.3512
  247MPD1    C4 3800   2.273   3.909  14.885  0.1824 -0.4534  0.7915
  247MPD1    C5 3801   2.147   3.887  14.836 -0.3281 -0.1285 -0.4746
  247MPD1     H 3802   2.297   4.228  14.787 -2.0645  1.4561 -0.1640
  247MPD1    H1 3803   2.328   3.829  14.934  0.6801  0.1082  1.1489
  247MPD1    H2 3804   1.991   3.951  14.707 -1.0941 -0.3420  3.3206
  247MPD1    H3 3805   2.094   3.793  14.846 -0.1860 -0.4298 -2.5297
  247MPD1     N 3806   2.453   4.050  14.922  0.2941  0.1424 -1.2168
  247MPD1    H5 3807   2.491   3.968  14.968  0.8579  0.7216 -0.6587
  247MPD1    N1 3808   2.077   4.191  14.645  0.4279 -0.2673 -0.0771
  247MPD1    H6 3809   1.981   4.171  14.621  0.7106 -0.8820 -0.7072
  247MPD1    H7 3810   2.093   4.279  14.694  0.3836 -0.5471  0.4401
  248MPD1     C 3811   2.538   1.974   0.049 -0.5487 -0.5529  0.8347
  248MPD1    C1 3812   2.665   1.995   0.111 -1.1167  0.4544 -0.6322
  248MPD1    C2 3813   2.697   2.118   0.172  0.2158 -0.7972 -0.0538
  248MPD1    C3 3814   2.607   2.217   0.173  0.3097 -0.6233 -0.7089
  248MPD1    C4 3815   2.489   2.202   0.105 -1.0762 -0.5110 -0.3975
  248MPD1    C5 3816   2.461   2.084   0.040  0.5227  0.3130  0.0622
  248MPD1     H 3817   2.789   2.132   0.227 -1.7019  3.2090  2.1952
  248MPD1    H1 3818   2.422   2.286   0.087  1.0041  0.8510 -1.8509
  248MPD1    H2 3819   2.499   1.889  17.735 -0.4147 -0.9227  1.3026
  248MPD1    H3 3820   2.362   2.078  17.738  0.8158  2.7456 -0.9464
  248MPD1     N 3821   2.645   2.330   0.242  0.3172  0.0256  0.7118
  248MPD1    H5 3822   2.720   2.331   0.309  1.4329  1.8850 -0.5427
  248MPD1    N1 3823   2.757   1.887   0.126 -0.6109  0.4100  0.1866
  248MPD1    H6 3824   2.851   1.918   0.149  0.4956 -2.0396 -1.0396
  248MPD1    H7 3825   2.757   1.813   0.056  5.5188  1.1843 -0.5731
  249MPD1     C 3826   0.161   1.536  10.551  0.1005  0.0442  0.1544
  249MPD1    C1 3827   0.252   1.609  10.623  0.1001 -0.2209 -0.6944
  249MPD1    C2 3828   0.321   1.702  10.548  0.1872 -0.1783  0.6734
  249MPD1    C3 3829   0.299   1.733  10.416 -0.2124  0.9770  0.1716
  249MPD1    C4 3830   0.204   1.663  10.351 -0.0310 -0.2890  0.1326
  249MPD1    C5 3831   0.141   1.568  10.421  0.2991 -0.3728 -0.0587
  249MPD1     H 3832   0.398   1.765  10.592 -1.3132  0.6987  2.0447
  249MPD1    H1 3833   0.176   1.667  10.246  1.9469  1.6478 -0.3376
  249MPD1    H2 3834   0.097   1.456  10.588 -1.3295  1.5288  0.8894
  249MPD1    H3 3835   0.075   1.504  10.364  0.7498  1.3573 -2.5900
  249MPD1     N 3836   0.359   1.851  10.355 -0.2324  1.0258 -0.6385
  249MPD1    H5 3837   0.414   1.912  10.415 -0.4506  0.5314  0.0717
  249MPD1    N1 3838   0.282   1.580  10.759 -0.0685  0.3900  0.3509
  249MPD1    H6 3839   0.204   1.539  10.810 -2.5912  2.7387 -1.6649
  249MPD1    H7 3840   0.313   1.663  10.807  2.8015 -0.5898  0.1767
  250MPD2     C 3841   1.522   1.719  13.773  0.4538  0.2157  0.2351
  250MPD2    C1 3842   1.617   1.725  13.675  0.5212  0.3107 -0.4590
  250MPD2    C2 3843   1.594   1.649  13.557 -0.1579  0.7176 -0.5491
  250MPD2    C3 3844   1.472   1.578  13.532  0.7820 -0.6208  0.4674
  250MPD2    C4 3845   1.378   1.587  13.630  0.2528 -0.1747  0.5055
  250MPD2    C5 3846   1.403   1.655  13.751  0.2839 -0.2092 -0.2329
  250MPD2     H 3847   1.665   1.646  13.475  0.3339 -0.6188 -0.0784
  250MPD2    H1 3848   1.280   1.542  13.623  0.4242 -0.2735 -1.3996
  250MPD2    H2 3849   1.543   1.770  13.866  2.5385  0.4386 -0.3575
  250MPD2    H3 3850   1.323   1.673  13.822  0.2694  1.1398 -0.5833
  250MPD2     N 3851   1.440   1.517  13.413 -0.1236 -0.5429 -0.2237
  250MPD2    H5 3852   1.345   1.485  13.395 -1.3754  2.5578  1.0567
  250MPD2    N1 3853   1.733   1.802  13.699 -0.4909  0.2572  0.4565
  250MPD2    H7 3854   1.737   1.844  13.791 -1.0361 -0.2353  0.7021
  251TMC3    C1 3855   1.955   1.881  13.673  0.9721 -0.3784 -0.3161
  251TMC3    C2 3856   1.944   1.992  13.749 -0.2583  0.0066  0.1363
  251TMC3    C3 3857   2.060   2.060  13.772  0.0329  0.2672 -0.1331
  251TMC3    C4 3858   2.073   1.832  13.637 -0.1957  0.3977  0.6217
  251TMC3    C5 3859   2.190   1.905  13.668  0.5983  1.4146 -0.4961
  251TMC3    C6 3860   2.183   2.018  13.742 -0.3271 -0.8924 -0.1481
  251TMC3     C 3861   1.837   1.821  13.610  0.3768  0.0319 -0.5807
  251TMC3     O 3862   1.854   1.783  13.495 -0.2498 -0.3731 -0.4030
  251TMC3     H 3863   1.849   2.038  13.774  0.0350  0.5452  0.2601
  251TMC3    H1 3864   2.084   1.729  13.606  0.6759  0.7246 -0.1659
  251TMC3    H2 3865   2.274   2.064  13.779 -1.4049  1.5737 -0.6186
  251TMC3    C7 3866   2.319   1.820  13.679 -0.4353  0.5866  0.8370
  251TMC3    C8 3867   2.048   2.198  13.799 -0.8325 -0.7309 -0.4398
  251TMC3    O1 3868   2.301   1.697  13.680  0.4329  0.6334  0.3343
  251TMC3    O2 3869   1.969   2.238  13.882  0.0800  0.2689 -0.6037
  252TMC3    C1 3870   1.943   2.985   9.764  0.1604 -0.2263 -0.1317
  252TMC3    C2 3871   2.007   3.111   9.751  0.6753 -0.2264  1.0184
  252TMC3    C3 3872   2.090   3.151   9.852  0.7093 -0.1318  0.3421
  252TMC3    C4 3873   1.952   2.906   9.869  0.3470  0.2902 -0.2162
  252TMC3    C5 3874   2.041   2.946   9.962 -0.4827  0.2501 -0.1303
  252TMC3    C6 3875   2.105   3.072   9.960  0.2085  0.4585 -0.0487
  252TMC3     C 3876   1.865   2.953   9.642 -0.2219  0.2040 -0.3311
  252TMC3     O 3877   1.894   3.007   9.539 -1.1101  0.2487 -0.1430
  252TMC3     H 3878   2.006   3.161   9.655 -2.0544 -0.8509  0.7144
  252TMC3    H1 3879   1.916   2.804   9.862 -1.3550  0.9522 -0.9663
  252TMC3    H2 3880   2.170   3.097  10.043 -0.2241 -0.0689  0.4444
  252TMC3    C7 3881   2.114   2.837  10.035 -0.5919 -0.2613  0.1326
  252TMC3    C8 3882   2.188   3.258   9.823  0.4963 -0.6636  0.1338
  252TMC3    O1 3883   2.221   2.874  10.084  0.0830 -0.5402  0.0598
  252TMC3    O2 3884   2.195   3.302   9.709 -0.2659  0.1358  0.0012
  253MPD2     C 3885   2.980   2.115  15.776  0.5310  0.0168 -0.4469
  253MPD2    C1 3886   2.857   2.073  15.732  0.1577 -0.5744 -0.1946
  253MPD2    C2 3887   2.781   1.990  15.817  0.4603 -0.1604 -0.0468
  253MPD2    C3 3888   2.840   1.952  15.937 -0.1969  0.0724 -0.3738
  253MPD2    C4 3889   2.966   1.986  15.976  0.4661  0.3163 -0.1295
  253MPD2    C5 3890   3.040   2.069  15.891  0.4392 -0.2124 -0.1915
  253MPD2     H 3891   2.686   1.946  15.789  1.6836 -0.8258 -3.1027
  253MPD2    H1 3892   3.011   1.944  16.065  2.0943  1.4508 -0.4205
  253MPD2    H2 3893   3.037   2.188  15.719 -0.0608 -0.2744 -1.4094
  253MPD2    H3 3894   3.137   2.104  15.926  0.6002 -1.3362  0.4781
  253MPD2     N 3895   2.773   1.865  16.035 -0.2106 -0.1906  0.5237
  253MPD2    H5 3896   2.823   1.856  16.123  0.9535  2.2645  0.1241
  253MPD2    N1 3897   2.793   2.106  15.608  0.3497 -0.0470  0.0703
  253MPD2    H7 3898   2.705   2.059  15.590 -1.5058  3.2176  0.4519
  254TMC3    C1 3899   2.601   1.739  16.140 -0.1256 -0.3836  0.0434
  254TMC3    C2 3900   2.461   1.718  16.149 -0.6765 -0.0498  0.1898
  254TMC3    C3 3901   2.419   1.647  16.258  0.6921 -0.0915 -0.4743
  254TMC3    C4 3902   2.688   1.692  16.227 -0.4758 -0.0027  0.6869
  254TMC3    C5 3903   2.643   1.610  16.320  0.6585  0.8776 -0.3430
  254TMC3    C6 3904   2.510   1.587  16.342 -0.2002 -0.0944 -0.5614
  254TMC3     C 3905   2.651   1.806  16.025  0.8377  0.3399  0.2402
  254TMC3     O 3906   2.574   1.795  15.926  0.0337 -0.3662  0.1019
  254TMC3     H 3907   2.393   1.771  16.084  1.6527  0.7495 -1.6145
  254TMC3    H1 3908   2.793   1.703  16.202 -1.1394  1.2039 -1.6018
  254TMC3    H2 3909   2.473   1.538  16.430 -0.6712 -3.4526 -2.6307
  254TMC3    C7 3910   2.734   1.540  16.413  0.1375  0.2366 -0.2591
  254TMC3    C8 3911   2.286   1.672  16.315  0.9585 -0.6296 -0.2810
  254TMC3    O1 3912   2.679   1.486  16.511 -0.0090 -0.3777 -0.1837
  254TMC3    O2 3913   2.271   1.661  16.437  0.0934 -0.6994  0.2101
  255MPD2     C 3914   0.762   3.811  10.599  0.0973 -0.0477  1.0781
  255MPD2    C1 3915   0.838   3.923  10.615  0.5819  0.1600 -0.3373
  255MPD2    C2 3916   0.965   3.918  10.564 -0.1673  0.2340 -0.7448
  255MPD2    C3 3917   1.014   3.809  10.491  0.7400  0.9258  0.3896
  255MPD2    C4 3918   0.937   3.701  10.464  1.5224  0.7658 -0.1172
  255MPD2    C5 3919   0.811   3.708  10.521 -0.4431 -0.3608  0.2862
  255MPD2     H 3920   1.039   3.993  10.590  1.4260 -2.1488  1.5416
  255MPD2    H1 3921   0.965   3.615  10.405  2.4616  0.4821  0.7464
  255MPD2    H2 3922   0.658   3.817  10.629  0.4456 -0.2326  2.3575
  255MPD2    H3 3923   0.748   3.620  10.509 -0.0244 -0.7235  0.7200
  255MPD2     N 3924   1.138   3.832  10.430  0.0698  0.0846 -0.4050
  255MPD2    H5 3925   1.173   3.925  10.450 -0.1264 -0.3438  1.8540
  255MPD2    N1 3926   0.781   4.042  10.672 -0.1612  0.6711 -0.2972
  255MPD2    H7 3927   0.691   4.032  10.720  0.6299  2.1572  1.4928
  256TMC3    C1 3928   0.758   4.275  10.691 -0.4801 -0.1175  0.8005
  256TMC3    C2 3929   0.810   4.395  10.728  0.4827 -0.1256 -0.4533
  256TMC3    C3 3930   0.737   4.503  10.725  0.6396  0.3284  0.2287
  256TMC3    C4 3931   0.630   4.268  10.641 -0.3071  0.0057 -0.2248
  256TMC3    C5 3932   0.566   4.388  10.625  0.2762 -0.1303  0.1976
  256TMC3    C6 3933   0.604   4.507  10.673  0.3080 -0.2224  0.8490
  256TMC3     C 3934   0.845   4.166  10.678  0.3929  0.1169 -0.4044
  256TMC3     O 3935   0.962   4.201  10.651 -0.1102  0.1732 -0.4223
  256TMC3     H 3936   0.903   4.396  10.784  1.4841  1.0511 -2.1488
  256TMC3    H1 3937   0.587   4.174  10.609 -0.8749  0.1489  0.1217
  256TMC3    H2 3938   0.532   4.583  10.702  0.8551  0.9868 -0.8990
  256TMC3    C7 3939   0.431   4.368  10.586 -0.3364 -0.4929 -0.3128
  256TMC3    C8 3940   0.818   4.626  10.720 -0.0548  0.2052  0.5367
  256TMC3    O1 3941   0.406   4.258  10.540 -0.5097  0.4460  0.0725
  256TMC3    O2 3942   0.931   4.627  10.762  0.7058  0.3341 -0.2340
  257MPD2     C 3943   0.066   1.479  13.124  0.7624  0.1668  0.6889
  257MPD2    C1 3944   0.145   1.580  13.189 -0.1690 -0.6472 -0.6644
  257MPD2    C2 3945   0.227   1.548  13.289  0.2811  0.0552  0.2381
  257MPD2    C3 3946   0.239   1.411  13.331  0.0377 -0.1063 -0.2891
  257MPD2    C4 3947   0.155   1.316  13.271 -1.0224  0.1087 -0.0792
  257MPD2    C5 3948   0.070   1.350  13.170  0.6369 -0.2250 -0.2674
  257MPD2     H 3949   0.280   1.624  13.345 -2.1877  1.7498  0.3255
  257MPD2    H1 3950   0.145   1.210  13.291 -2.3937  0.2297 -0.1344
  257MPD2    H2 3951   0.005   1.490  13.034 -0.7503  0.2956  1.7314
  257MPD2    H3 3952   0.011   1.279  13.113 -2.9438  0.7427  2.2816
  257MPD2     N 3953   0.311   1.378  13.448  0.0438  0.2662  0.8812
  257MPD2    H5 3954   0.365   1.456  13.481  0.1748 -0.0901  1.5074
  257MPD2    N1 3955   0.144   1.709  13.129 -0.1576 -0.1916  0.1563
  257MPD2    H7 3956   0.075   1.727  13.057 -1.2445 -0.4510  1.1400
  258TMC3    C1 3957   0.396   1.268  13.639  0.6436  0.3582  0.1570
  258TMC3    C2 3958   0.518   1.339  13.640  0.2472  0.1491 -0.0379
  258TMC3    C3 3959   0.580   1.352  13.766  0.3138  1.3143 -0.3090
  258TMC3    C4 3960   0.350   1.206  13.749 -0.1227 -0.4519  0.9130
  258TMC3    C5 3961   0.423   1.207  13.871 -0.2419  0.4513 -0.0888
  258TMC3    C6 3962   0.529   1.285  13.875  0.2230  0.3678  0.4228
  258TMC3     C 3963   0.314   1.257  13.516 -0.2153  0.2607  0.3361
  258TMC3     O 3964   0.227   1.171  13.513  0.1435 -0.2926 -0.4248
  258TMC3     H 3965   0.550   1.407  13.563 -2.4693  1.5860  0.1021
  258TMC3    H1 3966   0.253   1.158  13.748 -1.4519  2.2758 -0.4810
  258TMC3    H2 3967   0.579   1.297  13.971 -1.2757 -1.2905  1.4153
  258TMC3    C7 3968   0.357   1.146  13.988  0.3359 -0.1288 -0.2167
  258TMC3    C8 3969   0.692   1.446  13.787 -0.4791  0.5629  0.8880
  258TMC3    O1 3970   0.272   1.061  13.967  0.5722  0.0959  0.2948
  258TMC3    O2 3971   0.714   1.484  13.905  0.2464  0.2417  0.0458
  259MPD2     C 3972   3.716   3.588   1.029 -0.1732 -0.1939  0.7079
  259MPD2    C1 3973   3.792   3.471   1.015  0.0907  0.2452  0.4216
  259MPD2    C2 3974   3.824   3.423   0.891 -0.1746 -0.8378 -0.3302
  259MPD2    C3 3975   3.770   3.481   0.775 -0.1406 -0.2881  0.3482
  259MPD2    C4 3976   3.676   3.584   0.797  0.3324 -0.5800 -0.4192
  259MPD2    C5 3977   3.657   3.638   0.920 -0.0397  0.4928  0.0806
  259MPD2     H 3978   3.876   3.328   0.879  0.1778 -0.5832 -0.8119
  259MPD2    H1 3979   3.614   3.622   0.716  2.7200 -1.5778 -2.7175
  259MPD2    H2 3980   3.692   3.640   1.121 -1.3434  2.5234 -1.1402
  259MPD2    H3 3981   3.588   3.721   0.931 -0.1113  0.3879  0.4167
  259MPD2     N 3982   3.789   3.414   0.650 -0.3821 -0.4161 -0.1143
  259MPD2    H5 3983   3.854   3.336   0.648  1.5023  1.1283 -0.1415
  259MPD2    N1 3984   3.824   3.403   1.135  0.5050  0.0922 -0.0648
  259MPD2    H7 3985   3.789   3.427   1.227 -1.2339  0.2057 -0.7531
  260TMC3    C1 3986   3.772   3.369   0.428 -0.3779  0.4428  0.6576
  260TMC3    C2 3987   3.784   3.433   0.305  0.1473  0.6098 -0.1634
  260TMC3    C3 3988   3.853   3.363   0.211  0.3876  0.1620  0.1321
  260TMC3    C4 3989   3.796   3.235   0.452  0.4743 -0.4644  0.4529
  260TMC3    C5 3990   3.828   3.165   0.342 -0.0693 -0.2159  0.8870
  260TMC3    C6 3991   3.864   3.227   0.227 -0.1112  0.2029  0.9214
  260TMC3     C 3992   3.724   3.454   0.538 -0.6865 -0.0331  0.7957
  260TMC3     O 3993   3.662   3.556   0.516 -0.5442  0.6089  0.5188
  260TMC3     H 3994   3.761   3.539   0.302 -1.0288  0.4124  1.7247
  260TMC3    H1 3995   3.781   3.188   0.549  1.0222 -0.4039  0.5694
  260TMC3    H2 3996   3.891   3.162   0.145 -1.7770  0.1063  0.4545
  260TMC3    C7 3997   3.888   3.037   0.345  0.1472  0.2012 -0.3691
  260TMC3    C8 3998   3.983   3.426   0.181  0.1736 -0.2499  0.0337
  260TMC3    O1 3999   3.884   2.968   0.241  0.2359 -0.6056 -0.0663
  260TMC3    O2 4000   4.002   3.540   0.218 -0.0931  0.3111 -0.3988
  261MPD2     C 4001   0.877   1.420  12.885  0.2602 -0.0799 -0.6613
  261MPD2    C1 4002   0.992   1.492  12.845  0.0591 -0.4232 -0.5156
  261MPD2    C2 4003   0.988   1.581  12.741  0.0201 -0.0031 -0.4520
  261MPD2    C3 4004   0.870   1.592  12.666 -0.1297 -0.7464  0.1351
  261MPD2    C4 4005   0.755   1.525  12.708  0.2184  0.2008 -0.2865
  261MPD2    C5 4006   0.752   1.450  12.827 -1.2617 -0.3164  0.0678
  261MPD2     H 4007   1.073   1.642  12.714  1.0047 -1.0296  0.3489
  261MPD2    H1 4008   0.664   1.531  12.650 -0.1482 -1.6666  0.1236
  261MPD2    H2 4009   0.873   1.356  12.971  0.8030  0.9390  0.1205
  261MPD2    H3 4010   0.661   1.394  12.846 -1.0503 -0.4355  0.7233
  261MPD2     N 4011   0.878   1.690  12.560  0.1449  0.0690 -0.1776
  261MPD2    H5 4012   0.966   1.735  12.540  0.6199 -0.1024  1.5147
  261MPD2    N1 4013   1.117   1.469  12.911  0.4698 -0.3060 -0.4977
  261MPD2    H7 4014   1.197   1.508  12.862  0.7788  1.5106  1.4701
  262TMC3    C1 4015   0.806   1.839  12.392  0.3064  0.2516 -0.0758
  262TMC3    C2 4016   0.702   1.904  12.338  0.8509 -0.1144 -0.1935
  262TMC3    C3 4017   0.739   1.989  12.241 -0.1448 -1.0440 -0.7343
  262TMC3    C4 4018   0.929   1.844  12.335  0.0879  0.1538  0.6398
  262TMC3    C5 4019   0.946   1.919  12.223  0.5316 -0.3596 -0.3797
  262TMC3    C6 4020   0.851   1.995  12.164 -0.1962 -0.2321 -0.4226
  262TMC3     C 4021   0.769   1.725  12.481  0.9404 -0.4864 -0.0338
  262TMC3     O 4022   0.651   1.697  12.493  1.0935  0.6864 -0.1594
  262TMC3     H 4023   0.602   1.897  12.378  1.3615  1.5531  1.3902
  262TMC3    H1 4024   1.013   1.786  12.372 -1.9921 -3.3201 -0.0691
  262TMC3    H2 4025   0.870   2.069  12.087  0.0661  0.1489  0.0077
  262TMC3    C7 4026   1.050   1.880  12.132 -0.2375 -0.0613  0.3449
  262TMC3    C8 4027   0.639   2.080  12.181 -1.0932  0.4992  0.6522
  262TMC3    O1 4028   1.138   1.810  12.183  0.0282 -0.1038  0.1343
  262TMC3    O2 4029   0.644   2.104  12.063  0.7499 -0.2036  0.3559
  263MPD2     C 4030   1.886   1.080  11.769 -1.0929  0.4090  0.3051
  263MPD2    C1 4031   2.020   1.077  11.736  0.1750 -0.8445 -0.0741
  263MPD2    C2 4032   2.052   1.093  11.598 -0.2079 -0.2906  0.1705
  263MPD2    C3 4033   1.954   1.108  11.509  0.0454  0.1134 -0.1504
  263MPD2    C4 4034   1.825   1.113  11.552 -0.3538 -0.5323 -0.8472
  263MPD2    C5 4035   1.787   1.094  11.678  0.9877  0.0611  0.5033
  263MPD2     H 4036   2.154   1.099  11.560 -0.8841  3.4481 -0.9967
  263MPD2    H1 4037   1.737   1.117  11.489  0.6434  1.4936 -2.1102
  263MPD2    H2 4038   1.846   1.069  11.869 -0.8241 -0.4186  0.3241
  263MPD2    H3 4039   1.683   1.089  11.711  0.7300  1.2239 -0.1370
  263MPD2     N 4040   1.989   1.138  11.378 -0.1129 -0.1865  0.4158
  263MPD2    H5 4041   2.089   1.139  11.359 -0.2296 -0.9059 -0.2354
  263MPD2    N1 4042   2.113   1.048  11.839  0.0256 -0.3168  0.5180
  263MPD2    H7 4043   2.072   1.042  11.932  1.1624  2.0428  1.1727
  264TMC3    C1 4044   1.947   1.212  11.141 -0.4151 -0.0481  0.7178
  264TMC3    C2 4045   1.860   1.288  11.068  0.3584 -0.4336  0.6764
  264TMC3    C3 4046   1.872   1.295  10.933  0.3833 -0.0704 -0.1552
  264TMC3    C4 4047   2.061   1.159  11.088  0.3471 -0.5907  0.5511
  264TMC3    C5 4048   2.074   1.170  10.952 -0.3061 -0.2460 -0.8037
  264TMC3    C6 4049   1.976   1.230  10.873  0.7762 -0.4546  0.8421
  264TMC3     C 4050   1.897   1.154  11.271 -0.1700  0.1452  0.3081
  264TMC3     O 4051   1.789   1.102  11.258 -0.1885  0.2389  0.2552
  264TMC3     H 4052   1.765   1.305  11.116 -0.8768  2.0998 -2.6586
  264TMC3    H1 4053   2.136   1.120  11.156  1.0141  0.4874  0.4314
  264TMC3    H2 4054   1.989   1.228  10.765 -0.9678  0.6502  0.6067
  264TMC3    C7 4055   2.204   1.223  10.914  0.1085 -0.1070 -0.1359
  264TMC3    C8 4056   1.859   1.431  10.870 -0.2698  0.6621  0.5502
  264TMC3    O1 4057   2.301   1.179  10.976 -0.4556 -0.0010  0.2956
  264TMC3    O2 4058   1.944   1.472  10.793 -0.5560 -0.1195  0.1429
  265MPD2     C 4059   3.729   1.467  15.897 -0.4013  0.3603  0.1639
  265MPD2    C1 4060   3.744   1.564  15.800  0.4580 -0.2868 -0.1181
  265MPD2    C2 4061   3.767   1.527  15.666  0.4512  0.5925 -0.1740
  265MPD2    C3 4062   3.788   1.391  15.629 -0.3170 -0.4242 -0.1277
  265MPD2    C4 4063   3.774   1.300  15.732  0.2671 -0.1194  0.2971
  265MPD2    C5 4064   3.747   1.335  15.861 -1.0099  0.3034  0.0303
  265MPD2     H 4065   3.766   1.610  15.597 -1.3063  1.8425  1.3649
  265MPD2    H1 4066   3.785   1.195  15.706 -4.7103 -0.6186  0.1931
  265MPD2    H2 4067   3.700   1.491  15.999  2.0093  2.4048  0.3374
  265MPD2    H3 4068   3.738   1.252  15.930  0.1679  0.4766  0.4032
  265MPD2     N 4069   3.836   1.352  15.501 -0.3693  0.4279 -0.2500
  265MPD2    H5 4070   3.840   1.250  15.494 -0.1431  0.4287 -0.0858
  265MPD2    N1 4071   3.748   1.705  15.827 -0.1536  0.5368 -0.0969
  265MPD2    H7 4072   3.787   1.764  15.754  0.9571 -1.9465 -1.5655
  266TMC3    C1 4073   3.750   1.911  15.935  0.0554  0.0577  0.1918
  266TMC3    C2 4074   3.773   1.987  16.042  1.0216  0.5471  0.8455
  266TMC3    C3 4075   3.787   2.117  16.017  0.5744 -0.2434  1.0465
  266TMC3    C4 4076   3.726   1.959  15.811 -0.3361 -0.4814  0.3410
  266TMC3    C5 4077   3.744   2.098  15.794 -0.6865  0.2959 -0.1628
  266TMC3    C6 4078   3.789   2.170  15.893 -0.6138  0.2510 -0.0726
  266TMC3     C 4079   3.725   1.768  15.949 -0.1062 -0.1281  0.1050
  266TMC3     O 4080   3.682   1.724  16.052 -0.2707  0.3194  0.2573
  266TMC3     H 4081   3.790   1.938  16.138  0.6329 -0.3435  0.4626
  266TMC3    H1 4082   3.682   1.901  15.731 -0.1523  0.8396 -0.7268
  266TMC3    H2 4083   3.807   2.277  15.887 -3.2823  0.8060  2.0494
  266TMC3    C7 4084   3.713   2.156  15.661  0.0538 -0.6400 -0.0659
  266TMC3    C8 4085   3.852   2.184  16.128 -0.5210  0.4628  0.5650
  266TMC3    O1 4086   3.633   2.095  15.591 -0.2070  0.3527 -0.0791
  266TMC3    O2 4087   3.893   2.111  16.219 -0.5361 -0.8271 -0.0547
  267MPD2     C 4088   1.911   3.368   0.019 -0.4432 -0.0661  0.0210
  267MPD2    C1 4089   1.826   3.382   0.127 -0.2898  0.5562 -0.7716
  267MPD2    C2 4090   1.692   3.369   0.104  0.3227  0.5021  0.0694
  267MPD2    C3 4091   1.638   3.353  17.716 -0.1231 -0.6223  0.1620
  267MPD2    C4 4092   1.722   3.345  17.606 -0.4201 -0.1799  0.0690
  267MPD2    C5 4093   1.855   3.341  17.634 -0.1321  0.2167 -0.4488
  267MPD2     H 4094   1.627   3.370   0.190  1.3879  0.2364  0.8860
  267MPD2    H1 4095   1.683   3.333  17.506 -2.8371 -0.0324  0.9806
  267MPD2    H2 4096   2.019   3.362   0.026 -0.6405 -0.0515  2.8731
  267MPD2    H3 4097   1.931   3.331  17.557  0.2458 -2.6732  0.3025
  267MPD2     N 4098   1.494   3.364  17.693 -1.0082  0.2489 -0.3896
  267MPD2    H5 4099   1.461   3.335  17.602 -1.4240 -1.3832  0.2826
  267MPD2    N1 4100   1.884   3.403   0.257  0.7163 -0.3702  0.6434
  267MPD2    H7 4101   1.983   3.423   0.262  0.6565  0.2436 -0.7124
  268TMC3    C1 4102   1.865   3.510   0.471  0.2259 -0.0627 -0.7104
  268TMC3    C2 4103   1.889   3.634   0.420  0.4865 -0.3900 -0.0180
  268TMC3    C3 4104   1.867   3.743   0.505 -1.0713 -0.0695  0.2419
  268TMC3    C4 4105   1.812   3.488   0.597 -0.5020  0.3111  0.1617
  268TMC3    C5 4106   1.811   3.601   0.679 -0.6802 -0.3252  0.0536
  268TMC3    C6 4107   1.838   3.733   0.638 -0.4202 -0.4348  0.1372
  268TMC3     C 4108   1.804   3.422   0.370 -0.4138  0.8665 -0.1914
  268TMC3     O 4109   1.698   3.376   0.399  0.3973 -0.5973 -0.2093
  268TMC3     H 4110   1.926   3.659   0.321 -3.5113  0.2684 -1.3325
  268TMC3    H1 4111   1.794   3.389   0.636 -0.0806 -0.2030 -0.9435
  268TMC3    H2 4112   1.830   3.827   0.691  2.2494 -0.2708  0.2406
  268TMC3    C7 4113   1.780   3.584   0.817 -0.4327  0.3310  0.4739
  268TMC3    C8 4114   1.856   3.877   0.437  0.0856  0.1283  0.7302
  268TMC3    O1 4115   1.750   3.684   0.880 -0.0197  0.0993 -0.6926
  268TMC3    O2 4116   1.884   3.972   0.511  0.4314  0.0355  0.0194
  269MPD2     C 4117   2.140   2.603  15.531 -0.8432 -0.3823  0.1893
  269MPD2    C1 4118   2.097   2.630  15.658 -0.1790  0.8438  0.2663
  269MPD2    C2 4119   2.084   2.761  15.707  0.2484  0.0817  0.4232
  269MPD2    C3 4120   2.093   2.861  15.614 -0.5678  0.0122 -0.2320
  269MPD2    C4 4121   2.124   2.831  15.482  0.8975  0.6417  0.0768
  269MPD2    C5 4122   2.156   2.704  15.441  0.2859  0.2964  0.4171
  269MPD2     H 4123   2.065   2.788  15.811  0.8502  0.4685  0.4287
  269MPD2    H1 4124   2.120   2.902  15.399 -1.0407  0.2471 -0.1572
  269MPD2    H2 4125   2.151   2.503  15.491 -0.3584 -0.4469  0.4938
  269MPD2    H3 4126   2.184   2.679  15.339 -2.5367  1.1444 -0.5725
  269MPD2     N 4127   2.078   2.993  15.655  0.5598  0.0282 -0.1251
  269MPD2    H5 4128   2.072   3.008  15.755  2.3836 -1.7406  0.2548
  269MPD2    N1 4129   2.090   2.514  15.736 -0.1483 -0.5963 -0.0662
  269MPD2    H7 4130   2.127   2.427  15.698  2.6458  1.1130 -1.2190
  270TMC3    C1 4131   2.050   2.377  15.923  0.7593 -0.1496  0.2022
  270TMC3    C2 4132   1.948   2.339  15.994  0.0899  0.2739 -0.2050
  270TMC3    C3 4133   1.961   2.210  16.041 -0.7931  0.0419  0.4286
  270TMC3    C4 4134   2.162   2.300  15.886 -0.2541 -0.4195 -0.1345
  270TMC3    C5 4135   2.174   2.180  15.939  0.2054  0.2167  0.0117
  270TMC3    C6 4136   2.070   2.133  16.019  0.4659  0.2587  1.0731
  270TMC3     C 4137   2.026   2.507  15.855  0.0448 -0.6433 -0.1295
  270TMC3     O 4138   1.951   2.583  15.910  0.0274 -0.8000 -0.2815
  270TMC3     H 4139   1.855   2.395  16.001  0.9844  1.5982  1.1331
  270TMC3    H1 4140   2.250   2.351  15.848 -1.4937  0.2242 -2.1265
  270TMC3    H2 4141   2.081   2.037  16.068 -2.2372 -0.9570 -0.7427
  270TMC3    C7 4142   2.236   2.083  15.856 -0.3400  1.0343  0.1784
  270TMC3    C8 4143   1.854   2.127  15.998 -0.3742 -0.4897 -0.1659
  270TMC3    O1 4144   2.358   2.092  15.826 -0.1889 -0.2872 -1.1561
  270TMC3    O2 4145   1.888   2.046  15.910 -0.3963  0.0416 -0.1112
  271MPD2     C 4146   0.330   1.612  14.899  0.8214 -0.6260  0.1586
  271MPD2    C1 4147   0.440   1.649  14.833 -0.1153  0.0666  0.5491
  271MPD2    C2 4148   0.426   1.710  14.714 -0.3380 -0.0210 -0.5097
  271MPD2    C3 4149   0.303   1.730  14.656  0.7106  0.0115 -0.6586
  271MPD2    C4 4150   0.191   1.689  14.717 -0.4195 -0.1257  0.4314
  271MPD2    C5 4151   0.206   1.626  14.840  0.0698 -0.3054 -0.1772
  271MPD2     H 4152   0.516   1.736  14.659  0.7713 -1.0358  0.8472
  271MPD2    H1 4153   0.094   1.722  14.683  0.1184  2.4732  1.4322
  271MPD2    H2 4154   0.344   1.575  15.001 -3.1882 -1.6403  0.3123
  271MPD2    H3 4155   0.119   1.599  14.899 -0.4287 -0.9291 -1.2122
  271MPD2     N 4156   0.297   1.823  14.549  1.3889 -0.4827 -0.3199
  271MPD2    H5 4157   0.205   1.863  14.536  1.0428 -1.4096 -0.7801
  271MPD2    N1 4158   0.568   1.642  14.898  0.7690 -0.2979 -0.7152
  271MPD2    H7 4159   0.558   1.611  14.994 -1.8647 -0.2677 -0.9548
  272TMC3    C1 4160   0.796   1.678  14.940  0.0856  0.4267  0.7332
  272TMC3    C2 4161   0.908   1.616  14.915  0.4683 -0.0697 -0.5616
  272TMC3    C3 4162   1.009   1.590  15.011 -0.6144 -0.0899 -0.3112
  272TMC3    C4 4163   0.780   1.722  15.071 -0.5859 -0.2241 -0.2884
  272TMC3    C5 4164   0.873   1.695  15.165  0.4096 -0.5377  0.0581
  272TMC3    C6 4165   0.994   1.633  15.141 -0.5230 -0.1637 -0.3319
  272TMC3     C 4166   0.690   1.677  14.849 -0.3406  0.2227  0.4901
  272TMC3     O 4167   0.715   1.697  14.731  0.1357  0.9633 -0.0097
  272TMC3     H 4168   0.913   1.581  14.812  0.0225  0.7960 -0.8823
  272TMC3    H1 4169   0.690   1.772  15.105 -1.4938 -1.6107 -0.6161
  272TMC3    H2 4170   1.071   1.618  15.215 -0.7601  0.4698  0.0469
  272TMC3    C7 4171   0.854   1.765  15.292  0.1213  0.2206 -0.0670
  272TMC3    C8 4172   1.141   1.580  14.950  0.3408  0.2435 -0.0137
  272TMC3    O1 4173   0.746   1.820  15.318 -0.5851  0.0855  0.0698
  272TMC3    O2 4174   1.145   1.621  14.834  0.0239  0.2194  0.7085
  273MPD2     C 4175   3.021   4.540  12.187 -0.0735 -0.3720 -0.4134
  273MPD2    C1 4176   3.101   4.638  12.242  0.1756  0.2080 -0.1655
  273MPD2    C2 4177   3.129   0.022  12.173 -0.5248  0.0985  0.0513
  273MPD2    C3 4178   3.071   0.038  12.044  0.1463 -0.4388  0.3537
  273MPD2    C4 4179   2.976   4.689  12.005 -0.5529 -0.1808 -0.0125
  273MPD2    C5 4180   2.954   4.573  12.074  0.1509 -0.3281 -0.2378
  273MPD2     H 4181   3.201   0.089  12.218 -0.8761  1.9091 -2.0885
  273MPD2    H1 4182   2.907   4.719  11.926 -0.5308  3.0470  1.1795
  273MPD2    H2 4183   2.995   4.456  12.252  0.2569  0.1249  0.3612
  273MPD2    H3 4184   2.866   4.515  12.048 -0.2194  0.9136 -1.7456
  273MPD2     N 4185   3.083   0.156  11.975 -0.1411 -0.3724  0.1558
  273MPD2    H5 4186   3.025   0.169  11.892  0.5582 -0.9440 -0.4247
  273MPD2    N1 4187   3.144   4.613  12.376  0.0682  0.3258  0.0320
  273MPD2    H7 4188   3.104   4.531  12.419  1.8726 -0.1422  0.8094
  274TMC3    C1 4189   3.148   0.370  11.907  0.7347  1.0636  0.3225
  274TMC3    C2 4190   3.107   0.352  11.777  0.0490 -0.9554  0.6670
  274TMC3    C3 4191   3.083   0.459  11.694 -0.1268  0.6191  1.0693
  274TMC3    C4 4192   3.181   0.496  11.949 -0.4347 -0.2092  0.2302
  274TMC3    C5 4193   3.155   0.597  11.859 -0.5294  0.4333 -0.0797
  274TMC3    C6 4194   3.107   0.585  11.730 -0.0200  0.4325  0.0836
  274TMC3     C 4195   3.163   0.264  12.008  0.2403  0.4019  0.6180
  274TMC3     O 4196   3.242   0.278  12.101 -0.0618 -0.0545 -0.1256
  274TMC3     H 4197   3.100   0.250  11.741  2.5304 -0.2662 -1.8203
  274TMC3    H1 4198   3.203   0.526  12.051  1.9996  2.8253 -1.1670
  274TMC3    H2 4199   3.038   0.659  11.691 -0.4548  0.6449  1.2522
  274TMC3    C7 4200   3.118   0.717  11.931  0.9742 -0.0998 -0.2736
  274TMC3    C8 4201   3.011   0.432  11.564 -0.6885  0.7509  0.5029
  274TMC3    O1 4202   3.053   0.694  12.035  0.3419  0.4976  0.5640
  274TMC3    O2 4203   2.954   0.327  11.552  0.6813 -0.1737 -0.0156
  275MPD2     C 4204   2.537   2.169  14.880  0.2695  0.0438 -0.1718
  275MPD2    C1 4205   2.487   2.285  14.824 -0.1504 -0.5076  0.4243
  275MPD2    C2 4206   2.351   2.296  14.800  0.3127 -0.2847  0.2448
  275MPD2    C3 4207   2.262   2.188  14.829  0.2290 -0.0451 -0.0625
  275MPD2    C4 4208   2.315   2.076  14.880 -0.0576 -0.0025 -0.5035
  275MPD2    C5 4209   2.450   2.067  14.902  0.6542 -0.3871  0.4755
  275MPD2     H 4210   2.317   2.396  14.773  1.7992  0.5548  1.4469
  275MPD2    H1 4211   2.254   1.991  14.911  1.5341 -0.2955  1.8353
  275MPD2    H2 4212   2.639   2.160  14.916  0.1269 -2.2439 -0.3945
  275MPD2    H3 4213   2.498   1.978  14.943  1.5856 -0.6907 -1.2725
  275MPD2     N 4214   2.126   2.191  14.808  0.4241  0.3846 -0.1222
  275MPD2    H5 4215   2.063   2.119  14.843  1.1148  0.8855  2.1652
  275MPD2    N1 4216   2.554   2.407  14.795 -0.0635 -0.0001 -0.2823
  275MPD2    H7 4217   2.505   2.488  14.758 -1.4063 -0.2025  1.0596
  276TMC3    C1 4218   2.742   2.570  14.807  0.3676  0.1931 -0.1624
  276TMC3    C2 4219   2.644   2.665  14.814  0.1685 -0.2467 -0.0908
  276TMC3    C3 4220   2.674   2.786  14.850  0.1476 -0.0222 -0.0084
  276TMC3    C4 4221   2.874   2.603  14.833 -0.4623  0.5167  0.1492
  276TMC3    C5 4222   2.895   2.730  14.875  0.7998 -0.4930  0.2550
  276TMC3    C6 4223   2.803   2.826  14.871 -0.2076 -0.2795 -0.1258
  276TMC3     C 4224   2.682   2.432  14.834 -0.5391  0.5972 -0.0261
  276TMC3     O 4225   2.768   2.350  14.863 -0.2563 -0.1351 -0.3764
  276TMC3     H 4226   2.542   2.645  14.785  0.3223 -0.2641 -0.6387
  276TMC3    H1 4227   2.948   2.524  14.843  0.1573  0.8618 -1.7647
  276TMC3    H2 4228   2.822   2.931  14.890 -2.1607 -0.0356  0.5077
  276TMC3    C7 4229   3.029   2.788  14.889  0.4545  0.6445 -0.0437
  276TMC3    C8 4230   2.574   2.888  14.839 -0.3679  0.0875  0.2987
  276TMC3    O1 4231   3.040   2.905  14.850  0.5008 -0.2701  0.0345
  276TMC3    O2 4232   2.610   2.996  14.793 -0.2830  0.7859  0.3127
  277MPD2     C 4233   4.512   1.522  13.306  0.5214 -0.4215 -0.0483
  277MPD2    C1 4234   4.382   1.570  13.288  0.3899  0.4596 -0.7821
  277MPD2    C2 4235   4.302   1.554  13.401  0.3119  0.2073 -0.3191
  277MPD2    C3 4236   4.344   1.505  13.521  0.0071 -0.4185  0.2702
  277MPD2    C4 4237   4.473   1.462  13.535 -1.0158  0.9338 -0.4598
  277MPD2    C5 4238   4.557   1.475  13.425 -0.1750 -0.0758 -0.5569
  277MPD2     H 4239   4.199   1.587  13.400 -0.1684 -1.2624  1.0858
  277MPD2    H1 4240   4.516   1.415  13.622 -0.5943 -1.5798 -2.0199
  277MPD2    H2 4241   4.575   1.503  13.220  2.9847  1.0828  1.4038
  277MPD2    H3 4242   4.659   1.441  13.435  0.0671  0.9402  0.4009
  277MPD2     N 4243   4.248   1.522  13.629  0.0018  0.2230  0.9448
  277MPD2    H5 4244   4.153   1.539  13.600  0.2356  0.6391  0.4243
  277MPD2    N1 4245   4.342   1.631  13.160  0.4208  0.1055  0.2615
  277MPD2    H7 4246   4.412   1.639  13.087  1.6641 -1.7233  1.2721
  278TMC3    C1 4247   4.174   1.528  13.859 -0.4241 -0.6470  0.3432
  278TMC3    C2 4248   4.177   1.469  13.987  0.5335  1.0377 -0.0432
  278TMC3    C3 4249   4.070   1.475  14.063 -0.2334 -0.0859  0.6619
  278TMC3    C4 4250   4.068   1.603  13.822 -0.5779  0.2714  0.1596
  278TMC3    C5 4251   3.958   1.601  13.908  0.0772  0.4484  0.2079
  278TMC3    C6 4252   3.959   1.536  14.024  0.5352  0.3221  0.8891
  278TMC3     C 4253   4.278   1.493  13.759 -0.2205  0.2149 -0.3776
  278TMC3     O 4254   4.380   1.442  13.808 -0.3914  0.0925 -0.1055
  278TMC3     H 4255   4.270   1.427  14.024  0.4310 -0.1632 -1.1585
  278TMC3    H1 4256   4.067   1.659  13.729 -0.1245  0.4041  0.2362
  278TMC3    H2 4257   3.873   1.530  14.091 -1.3652  1.6696 -1.4120
  278TMC3    C7 4258   3.827   1.596  13.839 -0.1466 -0.6654  0.1074
  278TMC3    C8 4259   4.051   1.398  14.184 -0.2003 -0.2261  0.5621
  278TMC3    O1 4260   3.839   1.582  13.717  0.1112  0.6900 -0.1235
  278TMC3    O2 4261   3.981   1.444  14.271 -0.1168 -0.1223 -0.0020
  279MPD2     C 4262   3.629   1.610   0.630 -0.3693  0.5393  0.5422
  279MPD2    C1 4263   3.522   1.559   0.550  0.4513 -0.2525 -0.0612
  279MPD2    C2 4264   3.542   1.547   0.413 -0.1576  0.2357  0.3108
  279MPD2    C3 4265   3.659   1.575   0.345  0.0367 -0.5474  0.0978
  279MPD2    C4 4266   3.761   1.619   0.421  0.6650 -0.5566 -0.3533
  279MPD2    C5 4267   3.753   1.635   0.560 -0.1620  0.7324  0.6782
  279MPD2     H 4268   3.466   1.496   0.354 -0.5888  1.2025  0.0358
  279MPD2    H1 4269   3.854   1.637   0.368  0.9387 -0.0455  0.2994
  279MPD2    H2 4270   3.614   1.630   0.735 -0.8215  2.8840  0.0472
  279MPD2    H3 4271   3.837   1.671   0.618  0.3643 -0.9170  0.9421
  279MPD2     N 4272   3.661   1.549   0.204 -0.1407  0.4630  0.1788
  279MPD2    H5 4273   3.578   1.508   0.161  0.5081 -0.2634 -0.3859
  279MPD2    N1 4274   3.405   1.532   0.612 -0.0592  0.4068 -0.0850
  279MPD2    H7 4275   3.393   1.578   0.702 -1.6599 -2.8175  1.3383
  280TMC3    C1 4276   3.172   1.504   0.601  0.4877 -0.0448  0.0471
  280TMC3    C2 4277   3.076   1.408   0.566  0.0121  0.6075 -0.0624
  280TMC3    C3 4278   2.945   1.443   0.540 -0.7863 -0.4661 -0.1373
  280TMC3    C4 4279   3.142   1.632   0.578  0.1998  0.2140 -0.1410
  280TMC3    C5 4280   3.011   1.666   0.554  0.3296  0.1525  0.7088
  280TMC3    C6 4281   2.910   1.574   0.538 -0.1444  0.6496 -0.6352
  280TMC3     C 4282   3.301   1.462   0.557 -0.2723  0.5725  0.3679
  280TMC3     O 4283   3.305   1.368   0.477 -0.3312 -0.0865 -0.0055
  280TMC3     H 4284   3.100   1.303   0.577 -2.5118  0.1857  1.3403
  280TMC3    H1 4285   3.222   1.705   0.586  1.2614 -1.1293  1.4882
  280TMC3    H2 4286   2.806   1.597   0.520 -0.2199  1.7536  1.3351
  280TMC3    C7 4287   2.978   1.796   0.603 -0.6993  0.0817  0.6481
  280TMC3    C8 4288   2.836   1.346   0.526  0.5940  0.2566  0.0401
  280TMC3    O1 4289   3.070   1.854   0.662  0.3085 -0.1492 -0.1869
  280TMC3    O2 4290   2.717   1.376   0.547 -0.0028  0.7605  0.3287
  281TMC3    C1 4291   2.350   1.596  14.071  0.5929 -0.2847  0.5796
  281TMC3    C2 4292   2.465   1.594  14.011 -0.2834  0.7091 -0.3846
  281TMC3    C3 4293   2.483   1.494  13.914 -0.7357 -0.2062 -0.3759
  281TMC3    C4 4294   2.247   1.512  14.047 -0.0877 -0.5932 -0.0842
  281TMC3    C5 4295   2.264   1.413  13.947 -0.4648 -0.1325  0.0338
  281TMC3    C6 4296   2.386   1.395  13.889  0.3498 -0.8261  0.4448
  281TMC3     C 4297   2.305   1.723  14.122 -0.6013  0.0260  0.9361
  281TMC3     O 4298   2.215   1.713  14.205 -0.3707 -0.1924  0.1239
  281TMC3     H 4299   2.546   1.659  14.040 -0.5351  2.1692 -2.9323
  281TMC3    H1 4300   2.158   1.516  14.109  1.1805 -1.7896  1.8216
  281TMC3    H2 4301   2.404   1.311  13.823  1.3003  0.6991 -1.2423
  281TMC3    C7 4302   2.159   1.310  13.928  0.2475  0.1385 -0.7080
  281TMC3    C8 4303   2.615   1.444  13.892  0.6469 -0.2661  0.4956
  281TMC3    O1 4304   2.182   1.209  13.868 -0.7233  0.0742 -0.0665
  281TMC3    O2 4305   2.637   1.322  13.894 -0.0075 -0.0028 -0.4277
  282MPD2     C 4306   4.597   3.578  15.226  0.2875  0.4014 -0.0969
  282MPD2    C1 4307   4.476   3.526  15.259  0.8822  0.1345 -0.0285
  282MPD2    C2 4308   4.389   3.503  15.160 -0.3724  0.0227 -0.0593
  282MPD2    C3 4309   4.424   3.521  15.029 -0.3235 -0.0360 -0.4034
  282MPD2    C4 4310   4.542   3.566  14.994  0.5952  1.0629 -0.0067
  282MPD2    C5 4311   4.633   3.598  15.092 -0.1136  0.1235  0.0167
  282MPD2     H 4312   4.289   3.468  15.181 -0.5257  1.3623  1.5107
  282MPD2    H1 4313   4.583   3.568  14.894  1.5694 -0.8411  0.3500
  282MPD2    H2 4314   4.672   3.590  15.303 -0.1709  2.1732  0.0712
  282MPD2    H3 4315   4.729   3.644  15.071 -0.1876  1.5679  2.7774
  282MPD2     N 4316   4.323   3.479  14.942 -0.3591 -0.1798  0.3857
  282MPD2    H5 4317   4.236   3.458  14.991 -0.0990 -0.6194  0.6614
  282MPD2    N1 4318   4.438   3.507  15.400  0.2889 -0.0277  0.0990
  282MPD2    H7 4319   4.354   3.452  15.414  0.8777 -1.8033 -3.3445
  283TMC3    C1 4320   4.420   3.548  15.633 -0.5027 -0.7685  0.4041
  283TMC3    C2 4321   4.403   3.668  15.699 -0.4889 -0.0092  1.0623
  283TMC3    C3 4322   4.290   3.685  15.773  0.4423 -0.1025 -0.1342
  283TMC3    C4 4323   4.340   3.443  15.638  0.0389  0.0398  0.4643
  283TMC3    C5 4324   4.232   3.454  15.728  0.1990  0.6471 -0.0868
  283TMC3    C6 4325   4.205   3.583  15.782 -0.7058 -0.4147  0.0913
  283TMC3     C 4326   4.497   3.561  15.508  0.5214 -0.0409  0.2698
  283TMC3     O 4327   4.582   3.652  15.516  0.7140 -0.0437  0.1856
  283TMC3     H 4328   4.482   3.742  15.690  1.8097 -2.6441 -0.3873
  283TMC3    H1 4329   4.360   3.351  15.585  0.6443  1.9061 -2.5519
  283TMC3    H2 4330   4.116   3.594  15.843 -0.6825 -0.2768  0.1018
  283TMC3    C7 4331   4.131   3.346  15.740 -0.5631 -0.5790  0.2669
  283TMC3    C8 4332   4.245   3.817  15.817  0.3484  0.4970 -0.6602
  283TMC3    O1 4333   4.030   3.377  15.800  0.0308  0.2598  0.4976
  283TMC3    O2 4334   4.173   3.829  15.913  0.0675 -0.5552  0.0672
  284MPD2     C 4335   1.695   2.587  12.053  0.4492  0.9652 -0.4708
  284MPD2    C1 4336   1.812   2.571  11.983  0.4219 -0.0243  0.4119
  284MPD2    C2 4337   1.906   2.481  12.039  0.3735  0.1601  0.0992
  284MPD2    C3 4338   1.890   2.414  12.161 -0.1250 -0.5898 -0.6350
  284MPD2    C4 4339   1.774   2.441  12.230  0.1288  0.4873 -0.1607
  284MPD2    C5 4340   1.675   2.514  12.167 -0.7249 -0.1205 -0.0404
  284MPD2     H 4341   1.999   2.458  11.988  0.2246 -1.3195  0.4859
  284MPD2    H1 4342   1.750   2.392  12.324 -1.0630  1.9676  0.3127
  284MPD2    H2 4343   1.608   2.640  12.015 -0.7121 -1.0019 -0.5862
  284MPD2    H3 4344   1.574   2.528  12.204 -0.3562 -2.9395  2.0032
  284MPD2     N 4345   2.001   2.339  12.223 -0.1661  0.7432  0.0100
  284MPD2    H5 4346   2.086   2.351  12.170  0.2555 -0.6005  0.3809
  284MPD2    N1 4347   1.845   2.628  11.863  0.0413  0.3079 -0.4127
  284MPD2    H7 4348   1.934   2.601  11.822 -0.0736 -2.8979  1.4487
  285TMC3    C1 4349   1.844   2.791  11.700 -0.5028 -0.1385  0.0817
  285TMC3    C2 4350   1.929   2.710  11.628  0.5673 -1.1419  0.2321
  285TMC3    C3 4351   2.034   2.771  11.560 -0.2081  0.3619 -0.6053
  285TMC3    C4 4352   1.873   2.920  11.716  0.0481  0.1734  0.3309
  285TMC3    C5 4353   1.989   2.970  11.656  0.4338  0.0353  0.2113
  285TMC3    C6 4354   2.073   2.900  11.580  0.0992 -0.3979  0.2080
  285TMC3     C 4355   1.780   2.735  11.816 -0.0813 -0.6753  0.2120
  285TMC3     O 4356   1.682   2.796  11.857 -0.1837 -0.2485 -0.0468
  285TMC3     H 4357   1.905   2.605  11.613  0.5604 -0.9014 -1.4497
  285TMC3    H1 4358   1.825   2.982  11.790  0.8500  2.3680 -1.0055
  285TMC3    H2 4359   2.146   2.950  11.517 -0.6368 -0.3283 -0.5790
  285TMC3    C7 4360   2.043   3.096  11.701 -0.5054 -0.6258  0.1413
  285TMC3    C8 4361   2.085   2.704  11.446 -0.4143  0.2081 -0.5255
  285TMC3    O1 4362   1.961   3.166  11.762  0.4504  0.0974 -0.4089
  285TMC3    O2 4363   2.014   2.619  11.387 -0.2886  0.1484 -0.9779
  286MPD2     C 4364   2.922   1.681   1.424 -0.1988  0.7462 -0.2482
  286MPD2    C1 4365   2.873   1.581   1.342  0.1951 -0.1080 -0.7882
  286MPD2    C2 4366   2.947   1.461   1.331  0.4727 -0.4426  0.0630
  286MPD2    C3 4367   3.066   1.442   1.408 -0.1823 -1.1024  0.1716
  286MPD2    C4 4368   3.107   1.542   1.496  0.1580  0.5476 -1.2088
  286MPD2    C5 4369   3.036   1.657   1.499  0.2414  0.1578  0.5635
  286MPD2     H 4370   2.914   1.394   1.253 -0.8637  1.1974 -0.7988
  286MPD2    H1 4371   3.195   1.544   1.559 -1.6016  0.1698  1.2799
  286MPD2    H2 4372   2.885   1.782   1.437  0.5984  0.9820  0.2208
  286MPD2    H3 4373   3.083   1.741   1.548  0.2371  2.3677 -3.1917
  286MPD2     N 4374   3.142   1.324   1.404 -0.3947  0.5794  0.0696
  286MPD2    H5 4375   3.216   1.314   1.472 -0.6030  1.3274  0.4024
  286MPD2    N1 4376   2.757   1.600   1.263  0.4163  0.1150 -0.1315
  286MPD2    H7 4377   2.719   1.514   1.226 -0.7515  0.8868 -0.7233
  287TMC3    C1 4378   3.201   1.095   1.353 -0.3552 -0.1657 -0.1151
  287TMC3    C2 4379   3.169   0.991   1.269  0.4191  0.3604 -0.0812
  287TMC3    C3 4380   3.127   0.872   1.324 -0.0220 -0.2099  0.1270
  287TMC3    C4 4381   3.199   1.079   1.493  0.5813  0.2879 -0.6479
  287TMC3    C5 4382   3.168   0.955   1.539  0.3019  0.2101  0.1778
  287TMC3    C6 4383   3.129   0.851   1.451 -0.0746 -0.1637  0.0276
  287TMC3     C 4384   3.145   1.224   1.307  0.3213  0.2328  1.1651
  287TMC3     O 4385   3.064   1.218   1.213 -0.2095 -0.0968 -0.6630
  287TMC3     H 4386   3.181   1.006   1.162 -0.0481 -0.6387 -0.2726
  287TMC3    H1 4387   3.195   1.158   1.567  0.0540  0.7765 -1.2064
  287TMC3    H2 4388   3.109   0.753   1.494 -0.0943 -0.6758 -1.1490
  287TMC3    C7 4389   3.091   0.959   1.668  0.5434  0.1793 -0.3914
  287TMC3    C8 4390   3.025   0.800   1.257 -0.5218  0.0540  0.4852
  287TMC3    O1 4391   3.125   1.048   1.744 -0.5949 -0.2489 -0.3232
  287TMC3    O2 4392   2.954   0.728   1.330  0.0586  0.0135 -0.2676
  288TMC3    C1 4393   4.238   1.229  14.530 -0.7986  0.0517  0.0339
  288TMC3    C2 4394   4.145   1.281  14.613  0.1174 -0.3954 -0.8191
  288TMC3    C3 4395   4.117   1.415  14.599 -0.1221 -0.3284 -0.1533
  288TMC3    C4 4396   4.310   1.303  14.444  0.1059 -0.5856 -0.4465
  288TMC3    C5 4397   4.273   1.435  14.434 -0.1519  0.5257 -0.0696
  288TMC3    C6 4398   4.178   1.497  14.509 -0.1030  1.0673 -0.8890
  288TMC3     C 4399   4.272   1.087  14.545 -0.1390 -0.0568  0.0130
  288TMC3     O 4400   4.226   1.038  14.646 -0.5244 -0.7504  0.1744
  288TMC3     H 4401   4.101   1.223  14.692 -1.4255 -1.3224 -2.3564
  288TMC3    H1 4402   4.401   1.269  14.398  0.3856 -0.1198 -0.2314
  288TMC3    H2 4403   4.164   1.604  14.523 -2.2700  1.0956 -3.2962
  288TMC3    C7 4404   4.339   1.500  14.323  0.7101  0.3405  0.1422
  288TMC3    C8 4405   4.014   1.478  14.687 -0.7522 -0.0060 -0.2716
  288TMC3    O1 4406   4.409   1.427  14.254 -0.6148  0.1821  0.5128
  288TMC3    O2 4407   3.988   1.598  14.675  0.0280 -0.4344  0.0198
  289MPD2     C 4408   4.227   0.671  14.888  0.4834  0.1066  0.0661
  289MPD2    C1 4409   4.227   0.542  14.854  0.1274 -0.8550 -0.0870
  289MPD2    C2 4410   4.116   0.493  14.789  0.2377 -0.0897 -0.5417
  289MPD2    C3 4411   4.014   0.573  14.740  0.7371  0.2047  0.8210
  289MPD2    C4 4412   4.019   0.707  14.781 -0.1313  0.2713  0.0683
  289MPD2    C5 4413   4.125   0.750  14.855 -0.1044  0.0715 -0.4250
  289MPD2     H 4414   4.110   0.385  14.781 -0.8383 -0.0300 -0.6071
  289MPD2    H1 4415   3.948   0.784  14.752 -2.0699 -1.4103  0.3196
  289MPD2    H2 4416   4.306   0.714  14.948  0.8481 -1.1312  0.4731
  289MPD2    H3 4417   4.127   0.851  14.894 -0.2185 -0.8567  1.9472
  289MPD2     N 4418   3.913   0.522  14.654 -0.4551 -0.1842 -0.4179
  289MPD2    H5 4419   3.834   0.582  14.629  0.4070  1.0947 -0.0666
  289MPD2    N1 4420   4.335   0.456  14.890 -0.3235 -0.3901 -0.2012
  289MPD2    H7 4421   4.409   0.496  14.946 -0.0191  0.9445 -1.5339
  290TMC3    C1 4422   3.784   0.368  14.545 -0.8072  1.0480 -0.5417
  290TMC3    C2 4423   3.712   0.465  14.483  0.6293  0.1225 -0.0740
  290TMC3    C3 4424   3.596   0.431  14.429 -0.4081  0.2218 -0.5932
  290TMC3    C4 4425   3.736   0.239  14.560  0.1067  0.6354 -0.1044
  290TMC3    C5 4426   3.622   0.212  14.497  0.1420  0.3417 -0.0489
  290TMC3    C6 4427   3.547   0.303  14.433 -0.0854  0.0858 -0.1625
  290TMC3     C 4428   3.909   0.394  14.607 -0.6629  0.0461  0.3256
  290TMC3     O 4429   3.986   0.300  14.621 -0.7033 -0.3619 -0.5700
  290TMC3     H 4430   3.746   0.567  14.471 -0.7454  0.7864  1.6441
  290TMC3    H1 4431   3.803   0.173  14.615  2.1742  2.8717  0.0619
  290TMC3    H2 4432   3.458   0.269  14.381 -1.0470  1.7453  0.3837
  290TMC3    C7 4433   3.565   0.080  14.510  0.5909  0.7486 -0.5756
  290TMC3    C8 4434   3.531   0.533  14.350 -0.0160  0.7638 -0.3119
  290TMC3    O1 4435   3.447   0.068  14.524 -0.2548  0.0022  0.2928
  290TMC3    O2 4436   3.498   0.498  14.236  0.0080  0.2995 -0.5798
  291MPD2     C 4437   4.096   0.192   1.057 -0.3292  0.0193 -0.6037
  291MPD2    C1 4438   3.991   0.195   0.973 -0.0490 -0.6110  0.0267
  291MPD2    C2 4439   3.975   0.310   0.903 -0.7235  0.0965  0.3113
  291MPD2    C3 4440   4.053   0.422   0.919 -0.8283 -0.3354  0.1924
  291MPD2    C4 4441   4.151   0.419   1.015  0.1694 -0.6802 -0.3233
  291MPD2    C5 4442   4.171   0.299   1.077 -0.3728  0.0102 -0.4067
  291MPD2     H 4443   3.899   0.301   0.826  0.5614  1.1798 -1.0949
  291MPD2    H1 4444   4.208   0.507   1.044 -0.1837  0.4055 -2.9310
  291MPD2    H2 4445   4.132   0.113   1.121 -1.2827 -0.7903 -1.0695
  291MPD2    H3 4446   4.247   0.298   1.154  0.1478 -3.5500 -0.9426
  291MPD2     N 4447   4.035   0.546   0.852 -0.2383 -0.3593  0.0922
  291MPD2    H5 4448   4.104   0.619   0.866 -1.3205  0.5608  0.5518
  291MPD2    N1 4449   3.901   0.087   0.959  0.3735 -0.1600 -0.0556
  291MPD2    H7 4450   3.826   0.103   0.893  0.0335  0.0633  0.3807
  292TMC3    C1 4451   3.767   4.630   1.014  0.4027 -0.3700 -0.3520
  292TMC3    C2 4452   3.699   4.590   1.127  0.0895  0.9050 -0.5159
  292TMC3    C3 4453   3.583   4.523   1.110 -0.0886 -1.2689 -0.5184
  292TMC3    C4 4454   3.725   4.605   0.889 -0.2761  0.3566 -0.1661
  292TMC3    C5 4455   3.618   4.519   0.880 -0.2306 -0.2665 -0.3885
  292TMC3    C6 4456   3.547   4.471   0.984  0.8707  0.2651 -0.4923
  292TMC3     C 4457   3.889   4.715   1.043  0.2171 -0.1004 -0.5547
  292TMC3     O 4458   3.965   4.684   1.137  0.0291 -1.0811  0.7210
  292TMC3     H 4459   3.738   4.612   1.226 -0.1616  2.4093 -0.7570
  292TMC3    H1 4460   3.791   4.628   0.806  0.4859 -1.0152  0.0507
  292TMC3    H2 4461   3.470   4.396   0.970  2.5970 -1.5225 -0.3683
  292TMC3    C7 4462   3.597   4.450   0.757  0.2159  1.0423  1.4902
  292TMC3    C8 4463   3.495   4.513   1.231 -0.0466 -0.4704  0.0296
  292TMC3    O1 4464   3.693   4.419   0.689 -0.1377  0.2920 -0.0964
  292TMC3    O2 4465   3.549   4.523   1.343  0.0919 -0.2142  0.1235
  293MPD2     C 4466   0.746   1.893  12.800  0.5182 -0.1287 -0.0170
  293MPD2    C1 4467   0.651   1.816  12.859 -0.4350  0.3025  0.1123
  293MPD2    C2 4468   0.655   1.804  12.994 -0.2324 -0.0962  0.0688
  293MPD2    C3 4469   0.737   1.873  13.083 -0.4520 -0.3368 -0.2935
  293MPD2    C4 4470   0.833   1.947  13.024  0.1403  0.2735 -0.0215
  293MPD2    C5 4471   0.836   1.953  12.882 -0.3915  0.2854  1.1589
  293MPD2     H 4472   0.569   1.759  13.043 -1.0979  1.8492  0.3532
  293MPD2    H1 4473   0.900   2.004  13.088  1.0962  1.0353 -1.7132
  293MPD2    H2 4474   0.748   1.906  12.692  0.8652  2.3084  0.2844
  293MPD2    H3 4475   0.909   2.025  12.848  0.1839 -0.7869  0.1486
  293MPD2     N 4476   0.709   1.858  13.220 -0.8891  0.6139 -0.2964
  293MPD2    H5 4477   0.651   1.784  13.258 -1.2482  0.1316 -1.8034
  293MPD2    N1 4478   0.555   1.761  12.772 -0.1480 -0.7021  0.2865
  293MPD2    H7 4479   0.573   1.758  12.672  1.1749 -1.5623  0.5436
  294TMC3    C1 4480   0.360   1.640  12.711 -0.6433 -0.5507 -0.2033
  294TMC3    C2 4481   0.257   1.560  12.747  0.2268 -0.4195  0.9573
  294TMC3    C3 4482   0.159   1.541  12.648 -0.2247  0.0950  0.0335
  294TMC3    C4 4483   0.366   1.710  12.591 -0.5184  0.7968  0.0532
  294TMC3    C5 4484   0.266   1.690  12.505  0.0750 -0.4163 -0.1766
  294TMC3    C6 4485   0.167   1.606  12.528 -0.0890 -0.0056  0.2100
  294TMC3     C 4486   0.444   1.683  12.815 -0.0003  0.0699  0.3279
  294TMC3     O 4487   0.414   1.656  12.932 -0.1264  0.0138  0.5024
  294TMC3     H 4488   0.246   1.505  12.839  1.1084 -0.6995  0.8912
  294TMC3    H1 4489   0.435   1.792  12.571  0.5940  0.1650  1.3161
  294TMC3    H2 4490   0.088   1.590  12.456  1.8274 -2.9057 -1.2768
  294TMC3    C7 4491   0.273   1.755  12.372 -0.0841 -0.0228 -0.0781
  294TMC3    C8 4492   0.036   1.480  12.692 -1.0815  0.5473  0.6323
  294TMC3    O1 4493   0.170   1.752  12.310 -0.0181 -0.4345 -0.3160
  294TMC3    O2 4494   4.732   1.494  12.809  0.5858  0.4059 -0.1462
  295MPD2     C 4495   1.630   0.326   1.415  0.5379  0.6222 -0.1264
  295MPD2    C1 4496   1.693   0.243   1.333  0.4415 -0.3253  0.4701
  295MPD2    C2 4497   1.751   0.132   1.391  0.3930  0.5479  0.2044
  295MPD2    C3 4498   1.713   0.086   1.516  0.3017 -0.7341 -0.3760
  295MPD2    C4 4499   1.641   0.173   1.595 -0.2303  0.3974 -0.1448
  295MPD2    C5 4500   1.597   0.294   1.545 -0.0314 -0.0352 -0.0856
  295MPD2     H 4501   1.812   0.068   1.328 -0.1010 -1.6965  2.0269
  295MPD2    H1 4502   1.608   0.150   1.696 -1.2809  2.4757 -0.0079
  295MPD2    H2 4503   1.583   0.418   1.384 -0.7049  0.2728  0.7234
  295MPD2    H3 4504   1.524   0.348   1.604 -0.9301 -0.9068 -0.3779
  295MPD2     N 4505   1.735   4.688   1.570  0.0898  0.2095  0.1649
  295MPD2    H5 4506   1.725   4.672   1.670 -0.4644 -4.0712 -0.5725
  295MPD2    N1 4507   1.709   0.264   1.194  0.0615 -0.1290  0.1383
  295MPD2    H7 4508   1.752   0.191   1.138  0.6731  0.7623 -0.5306
  296TMC3    C1 4509   1.781   4.457   1.572  0.1376 -0.5420 -0.7442
  296TMC3    C2 4510   1.806   4.466   1.706 -0.4488  0.0961  0.0574
  296TMC3    C3 4511   1.799   4.346   1.774  0.5185 -0.5371  0.4545
  296TMC3    C4 4512   1.746   4.341   1.510  0.1772  0.1258  0.3333
  296TMC3    C5 4513   1.715   4.231   1.585  0.1440 -0.0779  0.5038
  296TMC3    C6 4514   1.762   4.229   1.716 -0.0658 -0.2927  0.2522
  296TMC3     C 4515   1.773   4.582   1.497 -0.2116  0.2899  0.2586
  296TMC3     O 4516   1.798   4.569   1.377  0.1546 -0.4371  0.0114
  296TMC3     H 4517   1.834   4.562   1.747 -3.2546 -0.2889  2.9269
  296TMC3    H1 4518   1.737   4.341   1.402 -0.2889  1.4587  0.3725
  296TMC3    H2 4519   1.763   4.132   1.764  0.3352  0.0396  0.9115
  296TMC3    C7 4520   1.713   4.106   1.516 -0.3150 -0.0869  0.4228
  296TMC3    C8 4521   1.794   4.348   1.920  0.2263  0.1638  0.1713
  296TMC3    O1 4522   1.773   4.098   1.412 -0.4631  0.3731  0.1466
  296TMC3    O2 4523   1.791   4.235   1.965  0.2951  0.4197 -0.2430
  297MPD2     C 4524   2.978   2.374  16.440  0.3207 -0.2716 -0.4950
  297MPD2    C1 4525   2.915   2.437  16.336  0.0243  0.1854 -0.2954
  297MPD2    C2 4526   2.994   2.501  16.246 -0.0190  0.7302 -0.3752
  297MPD2    C3 4527   3.132   2.485  16.243  0.1004  0.2998  0.0738
  297MPD2    C4 4528   3.189   2.421  16.353  0.1865  0.2330  0.2391
  297MPD2    C5 4529   3.107   2.371  16.453  0.2330 -0.1363  1.2560
  297MPD2     H 4530   2.944   2.558  16.167 -1.8628 -0.2116  0.1110
  297MPD2    H1 4531   3.298   2.420  16.359  0.3063  2.3306 -1.3976
  297MPD2    H2 4532   2.928   2.325  16.522 -1.0590  0.5870 -0.8225
  297MPD2    H3 4533   3.144   2.335  16.548  2.1982 -1.5371 -0.0248
  297MPD2     N 4534   3.200   2.558  16.147 -0.1112  0.1005 -0.2779
  297MPD2    H5 4535   3.152   2.623  16.085 -3.7502 -0.1434  2.3026
  297MPD2    N1 4536   2.776   2.447  16.324 -0.1256 -0.1842 -0.0286
  297MPD2    H7 4537   2.751   2.483  16.232  0.2081 -1.2497 -0.5421
  298TMC3    C1 4538   2.550   2.425  16.388  0.5966 -0.2079  0.1705
  298TMC3    C2 4539   2.526   2.398  16.256 -0.7328 -0.2605 -0.2177
  298TMC3    C3 4540   2.397   2.424  16.208  0.1613 -0.3468 -0.3482
  298TMC3    C4 4541   2.457   2.471  16.476  0.5294  0.2059 -0.0276
  298TMC3    C5 4542   2.329   2.502  16.427 -0.2481 -0.3406 -0.3084
  298TMC3    C6 4543   2.302   2.482  16.294 -0.3698 -0.0770 -0.1499
  298TMC3     C 4544   2.688   2.435  16.424  0.1486 -0.8425  0.4829
  298TMC3     O 4545   2.718   2.437  16.541 -0.1499  0.0204 -0.3163
  298TMC3     H 4546   2.605   2.374  16.185  0.3501 -1.4329  1.3815
  298TMC3    H1 4547   2.482   2.492  16.579  0.7788  3.2104 -0.7192
  298TMC3    H2 4548   2.204   2.506  16.255  0.0413  1.5471 -0.1514
  298TMC3    C7 4549   2.229   2.545  16.523 -0.4918 -0.5706 -0.4705
  298TMC3    C8 4550   2.372   2.469  16.072  0.1045  0.3187 -0.7239
  298TMC3    O1 4551   2.257   2.515  16.638 -0.3532 -0.0642  0.2523
  298TMC3    O2 4552   2.276   2.546  16.054  0.3728  0.3137  0.0738
  299MPD2     C 4553   3.610   1.833  11.084 -0.0495 -0.2308 -0.3918
  299MPD2    C1 4554   3.641   1.964  11.042 -0.1415 -0.3735  0.1412
  299MPD2    C2 4555   3.593   2.015  10.923  0.5822  0.4614 -0.7302
  299MPD2    C3 4556   3.501   1.935  10.852 -0.6458  0.8208  0.0343
  299MPD2    C4 4557   3.460   1.813  10.902 -0.3840  0.5261 -0.2739
  299MPD2    C5 4558   3.524   1.758  11.006  0.0899 -0.2146  0.5904
  299MPD2     H 4559   3.616   2.114  10.884 -0.7200  1.3169  0.6827
  299MPD2    H1 4560   3.392   1.752  10.844 -2.8338  0.6201  2.4868
  299MPD2    H2 4561   3.651   1.808  11.181 -0.3911  0.1450 -0.1508
  299MPD2    H3 4562   3.510   1.654  11.032 -1.8965 -0.1867 -0.3822
  299MPD2     N 4563   3.455   1.973  10.723  0.5777 -0.2075  0.9588
  299MPD2    H5 4564   3.370   1.922  10.703  2.0196 -2.3677  0.3480
  299MPD2    N1 4565   3.713   2.027  11.138 -0.6484  0.3323  0.2007
  299MPD2    H7 4566   3.725   1.986  11.231 -0.9630 -2.1857 -0.8569
  300TMC3    C1 4567   3.403   2.098  10.532 -0.5443  0.7550 -0.5309
  300TMC3    C2 4568   3.395   2.229  10.494 -0.4254 -0.1007  0.1115
  300TMC3    C3 4569   3.291   2.279  10.420 -0.9720 -0.0450 -0.0643
  300TMC3    C4 4570   3.300   2.018  10.509 -0.3639  0.1889 -0.1485
  300TMC3    C5 4571   3.191   2.070  10.451 -0.2418 -0.1288 -0.6596
  300TMC3    C6 4572   3.184   2.199  10.393 -0.1149  0.3187 -0.4533
  300TMC3     C 4573   3.507   2.064  10.630 -0.1085 -1.1853 -0.3154
  300TMC3     O 4574   3.618   2.119  10.642 -0.0415 -0.2476  0.1088
  300TMC3     H 4575   3.472   2.295  10.532 -1.8208  0.4391  2.0353
  300TMC3    H1 4576   3.316   1.911  10.516  3.0482  0.6100 -1.6566
  300TMC3    H2 4577   3.099   2.231  10.334  0.5717 -0.4261 -1.8392
  300TMC3    C7 4578   3.090   1.987  10.402 -0.4011  0.6523  0.2343
  300TMC3    C8 4579   3.277   2.419  10.420 -1.1398  0.0300 -0.0930
  300TMC3    O1 4580   3.119   1.877  10.357  0.0725  0.0301 -0.4640
  300TMC3    O2 4581   3.342   2.471  10.507 -0.0942 -0.5187  0.2308
  301MPD2     C 4582   1.221   3.567   1.390 -0.6068  0.0276 -0.5967
  301MPD2    C1 4583   1.104   3.507   1.343  0.2618  0.2373  0.0343
  301MPD2    C2 4584   1.101   3.373   1.339 -0.2745 -0.5206  0.0460
  301MPD2    C3 4585   1.195   3.290   1.390  0.4593  0.1992 -0.3978
  301MPD2    C4 4586   1.312   3.349   1.424 -0.3528  0.0518 -0.7314
  301MPD2    C5 4587   1.325   3.485   1.426 -1.3168 -0.3259  0.3537
  301MPD2     H 4588   1.017   3.322   1.293 -0.0631 -0.6631 -0.1769
  301MPD2    H1 4589   1.393   3.284   1.457 -0.0658  0.4920 -0.5663
  301MPD2    H2 4590   1.234   3.675   1.391  1.3000 -0.2190 -0.1778
  301MPD2    H3 4591   1.419   3.536   1.443 -0.6678 -1.2070 -0.5984
  301MPD2     N 4592   1.191   3.150   1.398  0.6852  0.5954 -0.6707
  301MPD2    H5 4593   1.279   3.103   1.418 -0.1371 -0.7175 -0.1394
  301MPD2    N1 4594   0.992   3.572   1.284  0.0742  0.3868 -0.5820
  301MPD2    H7 4595   0.917   3.515   1.246  0.2441  0.1494 -0.5644
  302TMC3    C1 4596   1.109   2.944   1.331 -0.1566 -0.3226 -0.0692
  302TMC3    C2 4597   1.186   2.870   1.423 -0.0912 -0.7606  0.2786
  302TMC3    C3 4598   1.184   2.733   1.406 -0.1119  0.0682  0.9699
  302TMC3    C4 4599   1.024   2.881   1.243  0.0849 -0.0831 -0.6467
  302TMC3    C5 4600   1.012   2.743   1.241  0.2483 -0.4065 -0.3393
  302TMC3    C6 4601   1.092   2.664   1.322  0.0943 -0.8274 -0.1122
  302TMC3     C 4602   1.073   3.082   1.375 -0.2128 -0.4104 -0.4709
  302TMC3     O 4603   0.956   3.110   1.376  0.0026 -0.0460 -0.0769
  302TMC3     H 4604   1.230   2.922   1.506 -1.0522 -0.1532  0.4042
  302TMC3    H1 4605   0.976   2.942   1.167  0.6824  1.5889  0.2976
  302TMC3    H2 4606   1.076   2.558   1.312 -2.7684 -0.2838 -1.3647
  302TMC3    C7 4607   0.923   2.681   1.142  0.5809 -0.0570 -0.4702
  302TMC3    C8 4608   1.257   2.645   1.495 -0.3025 -0.0684  0.4938
  302TMC3    O1 4609   0.969   2.575   1.101  0.4438  0.2056  0.1643
  302TMC3    O2 4610   1.225   2.528   1.485  0.2192  0.8930 -0.1940
  303MPD2     C 4611   1.159   1.425  10.997  0.7164 -0.0469 -0.3051
  303MPD2    C1 4612   1.163   1.291  10.968 -0.0119 -0.1043 -0.7116
  303MPD2    C2 4613   1.165   1.244  10.843 -0.3115  0.4662 -0.1589
  303MPD2    C3 4614   1.170   1.334  10.733  0.2557 -0.1186 -0.1699
  303MPD2    C4 4615   1.172   1.468  10.761  0.2082  0.1688  0.3811
  303MPD2    C5 4616   1.161   1.507  10.889 -0.8661  0.3411 -0.0869
  303MPD2     H 4617   1.154   1.137  10.828 -1.1986  0.5612 -0.2130
  303MPD2    H1 4618   1.166   1.545  10.685 -4.8740 -1.7937 -1.2100
  303MPD2    H2 4619   1.151   1.466  11.097  2.5091  1.8328 -0.9313
  303MPD2    H3 4620   1.146   1.614  10.902  0.3968  0.6654 -1.3206
  303MPD2     N 4621   1.172   1.299  10.596  0.1108 -0.0447  0.2626
  303MPD2    H5 4622   1.164   1.375  10.529  1.4918 -0.7958 -0.7559
  303MPD2    N1 4623   1.164   1.205  11.085 -0.1162 -0.4899 -0.0401
  303MPD2    H7 4624   1.146   1.248  11.175  1.4544 -2.1418  1.0926
  304TMC3    C1 4625   1.156   1.001  11.213  1.2039  0.3780 -0.1053
  304TMC3    C2 4626   1.027   1.039  11.251 -0.0347  0.1358  0.3015
  304TMC3    C3 4627   0.941   0.938  11.291 -0.9093  0.3041  0.0824
  304TMC3    C4 4628   1.191   0.873  11.214  0.0909  0.0439 -0.2198
  304TMC3    C5 4629   1.105   0.782  11.264 -0.4339 -0.2050 -0.1559
  304TMC3    C6 4630   0.975   0.808  11.299 -1.2088  0.8147  0.1798
  304TMC3     C 4631   1.197   1.072  11.087 -0.1021  0.4164 -0.3867
  304TMC3     O 4632   1.240   0.999  11.002  0.7839  0.4206 -0.5683
  304TMC3     H 4633   1.005   1.143  11.274 -3.6022 -0.4064 -0.6892
  304TMC3    H1 4634   1.280   0.839  11.163  1.6823  1.8151  1.3861
  304TMC3    H2 4635   0.906   0.738  11.344  0.6002 -0.3037  1.2220
  304TMC3    C7 4636   1.120   0.652  11.206  0.3759  1.0713  0.0833
  304TMC3    C8 4637   0.809   0.938  11.236 -0.1196 -0.3393 -0.4535
  304TMC3    O1 4638   1.230   0.608  11.183 -0.0215 -0.2346  0.9027
  304TMC3    O2 4639   0.731   0.852  11.267  0.2147  0.0632 -0.3478
  305MPD2     C 4640   4.294   3.879  13.998 -1.3000 -0.6060  0.7256
  305MPD2    C1 4641   4.326   3.749  14.006 -0.5994  0.4065  0.6956
  305MPD2    C2 4642   4.254   3.653  13.938 -0.0237 -0.0236 -0.3501
  305MPD2    C3 4643   4.149   3.700  13.864 -0.1091 -0.3760 -0.2437
  305MPD2    C4 4644   4.120   3.835  13.844 -0.3481 -0.3728  0.2043
  305MPD2    C5 4645   4.194   3.926  13.918 -0.3829  0.3789 -0.2236
  305MPD2     H 4646   4.269   3.552  13.975  1.1391  0.9200  1.7280
  305MPD2    H1 4647   4.043   3.862  13.773 -1.7317 -4.7875  0.0401
  305MPD2    H2 4648   4.359   3.947  14.051 -0.4738 -1.0047  0.2323
  305MPD2    H3 4649   4.185   4.034  13.910 -0.8845  0.1352 -3.0921
  305MPD2     N 4650   4.056   3.616  13.805 -0.5164 -0.5023 -0.1260
  305MPD2    H5 4651   3.987   3.667  13.751 -0.6500 -1.1247 -0.5464
  305MPD2    N1 4652   4.433   3.722  14.089 -0.5463  0.4735  0.5672
  305MPD2    H7 4653   4.464   3.795  14.153 -0.6071  0.1570  0.9573
  306TMC3    C1 4654   4.564   3.593  14.242 -0.4308  0.3772  0.1467
  306TMC3    C2 4655   4.611   3.473  14.277  0.4411 -0.2209  0.3303
  306TMC3    C3 4656   4.633   3.455  14.413 -0.1193 -0.4185  0.4417
  306TMC3    C4 4657   4.534   3.687  14.345 -0.1721 -0.6854  0.5051
  306TMC3    C5 4658   4.577   3.675  14.473  0.6930  0.8178  0.1800
  306TMC3    C6 4659   4.619   3.552  14.509  0.1051 -0.0800 -0.3222
  306TMC3     C 4660   4.493   3.597  14.113  0.1180 -0.0368  0.1679
  306TMC3     O 4661   4.488   3.498  14.045  0.0648 -0.1864  0.0829
  306TMC3     H 4662   4.623   3.390  14.209 -2.1519 -0.5969  0.3405
  306TMC3    H1 4663   4.471   3.774  14.330  1.2570  0.1653 -0.5716
  306TMC3    H2 4664   4.659   3.537  14.609  0.3766 -0.7855 -0.5296
  306TMC3    C7 4665   4.493   3.735  14.567 -0.9284 -0.2619  0.0694
  306TMC3    C8 4666   4.661   3.322  14.448 -0.7596 -0.2178 -0.7332
  306TMC3    O1 4667   4.378   3.739  14.528 -0.0320  0.8553 -0.4048
  306TMC3    O2 4668   4.711   3.253  14.357 -0.0273  0.2239  0.6132
  307MPD2     C 4669   1.728   1.962   0.369 -0.3245  0.3880  0.0295
  307MPD2    C1 4670   1.706   2.085   0.425  0.0843  0.2107  0.5732
  307MPD2    C2 4671   1.703   2.101   0.560  0.0851  0.6842 -0.5787
  307MPD2    C3 4672   1.723   1.991   0.644  0.0304 -0.5407  0.0442
  307MPD2    C4 4673   1.758   1.870   0.586 -0.3973  0.5810  0.3609
  307MPD2    C5 4674   1.756   1.856   0.452  0.1036  0.0557  0.8502
  307MPD2     H 4675   1.673   2.196   0.600  1.5376  1.5155 -1.4591
  307MPD2    H1 4676   1.766   1.773   0.633  0.7963  0.0181 -0.9973
  307MPD2    H2 4677   1.737   1.943   0.262  1.3775  0.1193  0.2189
  307MPD2    H3 4678   1.771   1.757   0.411  2.2944  0.8845 -0.3190
  307MPD2     N 4679   1.698   2.009   0.779 -0.1101  0.1416  0.2486
  307MPD2    H5 4680   1.675   2.101   0.815 -0.6749  0.4499 -0.8702
  307MPD2    N1 4681   1.692   2.207   0.352 -0.1453  0.7080 -0.5305
  307MPD2    H7 4682   1.684   2.294   0.404 -0.2155  0.5883 -0.3374
  308TMC3    C1 4683   1.476   1.859   1.152 -0.0492  0.0661  0.2733
  308TMC3    C2 4684   1.452   1.989   1.188  0.4541 -0.5950  0.4509
  308TMC3    C3 4685   1.520   2.091   1.123  0.6781 -0.2283 -0.5976
  308TMC3    C4 4686   1.575   1.830   1.060 -0.1098  0.0010 -0.2188
  308TMC3    C5 4687   1.630   1.940   0.994  0.2098 -0.5810  0.9096
  308TMC3    C6 4688   1.603   2.069   1.017 -0.0190  0.4435 -0.6605
  308TMC3     C 4689   1.370   1.761   1.159  0.4886  0.5514 -0.1087
  308TMC3     O 4690   1.393   1.641   1.161 -0.3326  0.0308 -0.4456
  308TMC3     H 4691   1.387   2.014   1.271 -0.6047 -0.4206 -0.4393
  308TMC3    H1 4692   1.588   1.729   1.023  1.1542  0.4901 -1.1076
  308TMC3    H2 4693   1.645   2.152   0.962  1.7157 -2.4378 -3.6475
  308TMC3    C7 4694   1.702   1.905   0.872  0.1371 -0.1426 -0.4368
  308TMC3    C8 4695   1.515   2.221   1.191  0.6588 -0.7162 -0.0703
  308TMC3    O1 4696   1.725   1.787   0.854  0.8506 -0.0747 -0.3783
  308TMC3    O2 4697   1.486   2.223   1.310  0.5527  0.2984  0.4705
  309MPD2     C 4698   1.124   2.055  17.542 -0.2853 -0.0498 -0.0088
  309MPD2    C1 4699   1.054   2.088  17.431  0.0634  0.0600 -0.6094
  309MPD2    C2 4700   0.914   2.101  17.443 -0.0879 -0.5508  0.0682
  309MPD2    C3 4701   0.845   2.099  17.561 -0.2115 -0.4440  0.1300
  309MPD2    C4 4702   0.915   2.063  17.675 -0.5065  0.8047 -0.3786
  309MPD2    C5 4703   1.048   2.025  17.662  0.2887  0.2941  0.6006
  309MPD2     H 4704   0.862   2.135  17.354 -1.8830 -0.9494  0.9782
  309MPD2    H1 4705   0.868   2.051   0.029 -4.0254  1.7842 -2.0040
  309MPD2    H2 4706   1.227   2.020  17.542 -0.4197 -0.4548  1.0987
  309MPD2    H3 4707   1.103   1.990   0.006  0.9498  2.1195  0.9397
  309MPD2     N 4708   0.712   2.132  17.576 -0.2945 -0.5262 -0.6965
  309MPD2    H5 4709   0.671   2.118  17.668 -0.7216  0.6391 -0.7063
  309MPD2    N1 4710   1.117   2.131  17.311 -0.3259 -0.0508 -0.1718
  309MPD2    H7 4711   1.058   2.175  17.242 -1.2772 -0.7824  0.1743
  310TMC3    C1 4712   1.302   2.164  17.152  0.0237 -0.2224 -0.1842
  310TMC3    C2 4713   1.221   2.244  17.078  0.5381 -0.3514  0.0661
  310TMC3    C3 4714   1.260   2.280  16.949 -0.3205  0.6781 -0.7607
  310TMC3    C4 4715   1.428   2.128  17.102  0.6203 -0.2036  0.3907
  310TMC3    C5 4716   1.468   2.166  16.980  0.2684  0.5437 -0.3308
  310TMC3    C6 4717   1.380   2.239  16.899  0.3246 -0.5559  0.5239
  310TMC3     C 4718   1.250   2.103  17.276 -0.3982  0.3526 -0.3812
  310TMC3     O 4719   1.320   2.042  17.352 -0.2566  0.0504 -0.1567
  310TMC3     H 4720   1.121   2.266  17.115 -0.0832 -2.1846 -0.5464
  310TMC3    H1 4721   1.462   2.037  17.149  0.5947 -0.3272  0.1679
  310TMC3    H2 4722   1.422   2.272  16.805  0.3607  1.0555  1.0971
  310TMC3    C7 4723   1.583   2.095  16.914 -0.0263  0.1204 -0.0014
  310TMC3    C8 4724   1.186   2.365  16.863  1.3342 -0.1766 -0.2387
  310TMC3    O1 4725   1.576   2.089  16.791  0.3586  0.2697 -0.2189
  310TMC3    O2 4726   1.066   2.377  16.878 -0.2346 -0.5117  0.0573
  311MPD2     C 4727   2.936   3.291  12.637  0.3972  0.6025  0.6032
  311MPD2    C1 4728   2.981   3.313  12.762  0.9024 -0.5263  0.2972
  311MPD2    C2 4729   2.952   3.226  12.861  0.7310 -0.6732  0.1203
  311MPD2    C3 4730   2.883   3.107  12.834  0.4771  0.4952 -0.1482
  311MPD2    C4 4731   2.841   3.085  12.707 -0.2497 -0.1434  0.1438
  311MPD2    C5 4732   2.867   3.182  12.609 -1.1153  0.0505 -0.5816
  311MPD2     H 4733   2.992   3.253  12.958 -2.6418  1.4100  0.9409
  311MPD2    H1 4734   2.783   2.999  12.677 -0.1814 -0.1980  0.1695
  311MPD2    H2 4735   2.949   3.363  12.556  2.5667  1.1174  1.4014
  311MPD2    H3 4736   2.829   3.162  12.509  0.2193  0.9674 -1.2735
  311MPD2     N 4737   2.855   3.018  12.936 -0.0900 -0.2917  0.0707
  311MPD2    H5 4738   2.914   3.018  13.018  0.8530  1.9697 -0.6025
  311MPD2    N1 4739   3.071   3.426  12.778 -0.3586 -1.0062  0.3807
  311MPD2    H7 4740   3.086   3.466  12.870 -1.8232  1.6270 -0.5252
  312TMC3    C1 4741   2.700   2.929  13.088  0.3812 -0.1048  0.3794
  312TMC3    C2 4742   2.568   2.919  13.111 -0.1876 -0.1033  0.0674
  312TMC3    C3 4743   2.529   2.914  13.240 -0.1711 -0.0883  0.0281
  312TMC3    C4 4744   2.795   2.929  13.193  0.7268  0.5839  0.0571
  312TMC3    C5 4745   2.746   2.932  13.315  0.2321  0.4509  0.1315
  312TMC3    C6 4746   2.618   2.913  13.346 -1.0645  0.2123  0.0584
  312TMC3     C 4747   2.731   2.964  12.952  0.3364 -0.9152 -0.2957
  312TMC3     O 4748   2.646   2.956  12.871  0.6531 -0.2490  0.3873
  312TMC3     H 4749   2.493   2.920  13.034  0.5080 -0.7079 -0.6118
  312TMC3    H1 4750   2.901   2.938  13.168  0.5553 -2.8030 -1.8941
  312TMC3    H2 4751   2.580   2.928  13.446 -2.4596 -0.2939 -0.3830
  312TMC3    C7 4752   2.835   2.954  13.430 -0.1561 -0.0418  0.4344
  312TMC3    C8 4753   2.393   2.903  13.275  0.2554 -0.0907 -0.0904
  312TMC3    O1 4754   2.789   2.989  13.536 -0.1033 -0.0224  0.6562
  312TMC3    O2 4755   2.373   2.850  13.385  0.4243 -0.3606 -0.5691
  313MPD2     C 4756   1.881   2.991  11.264 -0.3961  0.3356 -0.1090
  313MPD2    C1 4757   1.971   3.086  11.225 -0.4683  1.1238  0.0875
  313MPD2    C2 4758   2.047   3.062  11.112 -0.4128  0.0638 -0.0260
  313MPD2    C3 4759   2.047   2.930  11.048 -0.3037 -0.3399 -1.2193
  313MPD2    C4 4760   1.961   2.841  11.092 -0.0506 -0.0009 -0.1862
  313MPD2    C5 4761   1.866   2.873  11.188 -0.0525 -0.5390 -0.1750
  313MPD2     H 4762   2.108   3.140  11.068  0.4421 -0.6399 -0.0973
  313MPD2    H1 4763   1.962   2.742  11.047 -0.5193 -0.6214  1.1548
  313MPD2    H2 4764   1.804   3.004  11.339 -1.0586 -2.3064 -0.3178
  313MPD2    H3 4765   1.799   2.795  11.221 -0.8966 -0.6809 -2.2562
  313MPD2     N 4766   2.120   2.892  10.942  0.2698 -0.4587  0.4411
  313MPD2    H5 4767   2.100   2.800  10.905  2.3240 -0.1961 -1.3275
  313MPD2    N1 4768   1.974   3.217  11.280 -0.4289  0.0625 -0.0931
  313MPD2    H7 4769   2.043   3.283  11.244  0.1236 -0.4111  0.0974
  314TMC3    C1 4770   1.944   3.391  11.429 -0.3618 -0.1578 -0.0944
  314TMC3    C2 4771   2.076   3.407  11.419  0.8606 -0.5136  0.1074
  314TMC3    C3 4772   2.113   3.535  11.396 -0.5697 -0.5522 -0.3048
  314TMC3    C4 4773   1.854   3.493  11.434  0.5909 -0.1477  0.7115
  314TMC3    C5 4774   1.893   3.615  11.390  0.7974 -0.0886  0.2199
  314TMC3    C6 4775   2.024   3.634  11.385 -0.2769 -0.3431  0.2995
  314TMC3     C 4776   1.899   3.257  11.391 -0.7193 -0.1454  0.6148
  314TMC3     O 4777   1.796   3.210  11.437 -0.7382  0.0159 -0.1669
  314TMC3     H 4778   2.138   3.319  11.406 -0.0764 -0.9605 -1.4159
  314TMC3    H1 4779   1.749   3.463  11.432  0.9196 -1.1687 -2.4123
  314TMC3    H2 4780   2.060   3.735  11.365 -4.9394  1.4241  0.8030
  314TMC3    C7 4781   1.824   3.633  11.262 -0.2770 -0.2617  0.1882
  314TMC3    C8 4782   2.251   3.564  11.357  0.0633 -0.3642  0.3319
  314TMC3    O1 4783   1.705   3.610  11.249 -0.2463 -0.3808 -1.0804
  314TMC3    O2 4784   2.259   3.663  11.284  0.7206  0.3131  0.0145
  315MPD2     C 4785   1.948   1.642   0.166 -0.1698 -0.4038 -0.0359
  315MPD2    C1 4786   2.042   1.652   0.263 -0.8686 -0.4021  0.0356
  315MPD2    C2 4787   2.096   1.776   0.302  0.1013  0.4856  0.0317
  315MPD2    C3 4788   2.066   1.891   0.231 -0.0352  0.7097 -0.2643
  315MPD2    C4 4789   1.976   1.870   0.127 -0.1446 -0.0491 -0.4197
  315MPD2    C5 4790   1.910   1.755   0.099 -0.5930  0.2975 -0.0924
  315MPD2     H 4791   2.176   1.775   0.376 -0.9509 -1.2268  1.1365
  315MPD2    H1 4792   1.949   1.957   0.069  0.0875 -0.0733 -0.5637
  315MPD2    H2 4793   1.899   1.548   0.145 -1.5339  0.1397  0.6909
  315MPD2    H3 4794   1.839   1.749   0.018 -0.0094 -0.0467 -0.5753
  315MPD2     N 4795   2.128   2.015   0.263  0.2697 -0.1757 -0.6581
  315MPD2    H5 4796   2.208   1.996   0.324 -0.7263 -0.5092  0.5464
  315MPD2    N1 4797   2.087   1.541   0.326 -0.2419 -0.5805 -0.6009
  315MPD2    H7 4798   2.149   1.561   0.405 -2.6870  4.1976  0.1266
  316TMC3    C1 4799   2.182   2.229   0.286 -0.1006 -0.0335 -0.4471
  316TMC3    C2 4800   2.263   2.190   0.395  0.6103 -0.1984 -0.1014
  316TMC3    C3 4801   2.310   2.295   0.468 -0.8071 -0.6083  0.5373
  316TMC3    C4 4802   2.161   2.361   0.252  0.1565 -0.4946 -0.2270
  316TMC3    C5 4803   2.212   2.455   0.332  0.1341 -0.3014  0.6277
  316TMC3    C6 4804   2.278   2.423   0.447  0.9691 -0.1922 -0.1373
  316TMC3     C 4805   2.096   2.134   0.217  0.2729 -0.2492  0.2665
  316TMC3     O 4806   2.000   2.171   0.149  0.3587 -0.2441 -0.3450
  316TMC3     H 4807   2.275   2.092   0.439 -2.7076 -1.4321 -2.0083
  316TMC3    H1 4808   2.117   2.383   0.155 -2.6216  0.7738  1.3216
  316TMC3    H2 4809   2.313   2.509   0.504  0.1374 -0.7207  1.1556
  316TMC3    C7 4810   2.179   2.593   0.307 -1.0294  0.1383 -0.1008
  316TMC3    C8 4811   2.408   2.273   0.571 -0.7607 -0.3959 -0.1428
  316TMC3    O1 4812   2.170   2.663   0.406  0.1949  0.2409 -0.8454
  316TMC3    O2 4813   2.422   2.359   0.659  0.0903  0.0957  0.0887
  317MPD2     C 4814   4.130   0.194  12.264 -0.2330 -0.1678 -0.0245
  317MPD2    C1 4815   4.246   0.121  12.248 -0.4815  0.0943 -0.6293
  317MPD2    C2 4816   4.293   0.047  12.350 -0.7646 -0.2044  0.5311
  317MPD2    C3 4817   4.232   0.042  12.471 -0.4085 -0.2742 -0.0696
  317MPD2    C4 4818   4.105   0.100  12.487  0.0302  0.0337 -0.3338
  317MPD2    C5 4819   4.056   0.176  12.382  0.5907  0.0103  0.1504
  317MPD2     H 4820   4.390   4.735  12.347 -0.6508  0.0610 -0.1440
  317MPD2    H1 4821   4.053   0.094  12.582 -0.2821 -1.4579 -0.5919
  317MPD2    H2 4822   4.085   0.254  12.185 -0.4152 -0.5972 -0.2484
  317MPD2    H3 4823   3.958   0.222  12.389  0.6313 -0.0864  1.3705
  317MPD2     N 4824   4.298   4.715  12.574 -0.3532 -0.5061  0.0775
  317MPD2    H5 4825   4.390   4.678  12.550  0.5947  1.5635  0.5123
  317MPD2    N1 4826   4.324   0.109  12.131  0.1650  0.6400  0.1778
  317MPD2    H7 4827   4.410   0.056  12.138 -0.9624 -1.2043 -0.1624
  318TMC3    C1 4828   4.343   4.625  12.786 -0.7821 -1.3141  0.4552
  318TMC3    C2 4829   4.294   4.534  12.872  0.3827 -0.2353  0.4323
  318TMC3    C3 4830   4.357   4.414  12.892 -0.5600  0.8611  0.8163
  318TMC3    C4 4831   4.473   4.608  12.738 -0.4434  0.8304  0.2314
  318TMC3    C5 4832   4.546   4.493  12.775 -0.0943  0.3682 -0.2870
  318TMC3    C6 4833   4.487   4.391  12.844  0.4026  0.3034  0.2786
  318TMC3     C 4834   4.247   4.695  12.699 -0.1651 -0.2814  0.3618
  318TMC3     O 4835   4.139   4.721  12.756  0.5031 -0.5348 -0.3844
  318TMC3     H 4836   4.194   4.550  12.911  0.2448 -1.6852  0.6963
  318TMC3    H1 4837   4.521   4.679  12.672 -0.0828 -0.1154 -0.5263
  318TMC3    H2 4838   4.549   4.314  12.889 -0.3885 -1.0473 -0.9325
  318TMC3    C7 4839   4.689   4.493  12.740  0.1251 -0.8172  0.4117
  318TMC3    C8 4840   4.302   4.312  12.974  0.3661  0.4294  0.1911
  318TMC3    O1 4841   4.724   4.577  12.662  0.0475 -0.2687 -0.2474
  318TMC3    O2 4842   4.380   4.228  13.019  0.2646  0.3298 -0.3680
  319MPD2     C 4843   0.070   1.857  17.310 -0.1757  0.0858 -0.1828
  319MPD2    C1 4844   0.105   1.734  17.272 -0.3283 -0.5159  0.6267
  319MPD2    C2 4845   0.020   1.661  17.194  0.4152  0.4533 -0.0172
  319MPD2    C3 4846   4.641   1.716  17.132 -0.8308  0.1738 -0.3492
  319MPD2    C4 4847   4.622   1.849  17.148  0.6543  0.3243 -0.0013
  319MPD2    C5 4848   4.692   1.912  17.248  0.8512 -0.3433  0.4430
  319MPD2     H 4849   0.048   1.560  17.165  0.9773  1.3308 -2.5254
  319MPD2    H1 4850   4.540   1.898  17.096 -1.6979 -0.6284  2.7900
  319MPD2    H2 4851   0.128   1.915  17.380  1.9932 -1.5411 -0.6251
  319MPD2    H3 4852   4.661   2.015  17.260 -0.1327 -0.5216 -0.4822
  319MPD2     N 4853   4.565   1.654  17.033  0.2077 -0.8212 -0.1293
  319MPD2    H5 4854   4.483   1.698  16.992 -0.3640 -2.1973 -0.4840
  319MPD2    N1 4855   0.213   1.664  17.327  0.5664  0.2479 -0.2252
  319MPD2    H7 4856   0.238   1.569  17.301 -1.8998 -0.8739  1.4852
  320TMC3    C1 4857   4.482   1.467  16.902 -0.6036  0.4278 -0.1403
  320TMC3    C2 4858   4.430   1.551  16.805 -0.4826 -0.1067 -0.2777
  320TMC3    C3 4859   4.405   1.494  16.684  0.2495  0.0979 -0.1984
  320TMC3    C4 4860   4.509   1.338  16.863  0.1409  0.2744 -0.3998
  320TMC3    C5 4861   4.481   1.286  16.744  0.4110  1.1438 -0.3242
  320TMC3    C6 4862   4.431   1.365  16.648  0.0333  0.1104  0.0403
  320TMC3     C 4863   4.566   1.518  17.010 -0.4638  0.3839  0.8540
  320TMC3     O 4864   4.641   1.433  17.060  0.1631 -0.0825 -0.4332
  320TMC3     H 4865   4.435   1.658  16.822  1.9459 -0.1302 -0.8826
  320TMC3    H1 4866   4.547   1.272  16.940  2.0574  2.3503  0.4361
  320TMC3    H2 4867   4.395   1.324  16.554 -0.4172 -0.3689  0.4192
  320TMC3    C7 4868   4.583   1.195  16.694 -0.4129  0.6658 -0.2817
  320TMC3    C8 4869   4.338   1.578  16.588  0.0494 -0.0171 -0.2214
  320TMC3    O1 4870   4.560   1.125  16.599 -0.5204  0.1974  0.1900
  320TMC3    O2 4871   4.356   1.697  16.601 -0.0267 -0.9907  0.1455
  321TMC3    C1 4872   0.427   1.631  17.433 -0.3473  1.0709 -0.2476
  321TMC3    C2 4873   0.393   1.499  17.423  0.3205  0.1850  0.1425
  321TMC3    C3 4874   0.499   1.419  17.434 -0.6677 -0.5165  0.2750
  321TMC3    C4 4875   0.557   1.678  17.447 -0.4204  0.1452  0.3446
  321TMC3    C5 4876   0.658   1.587  17.457  0.8218 -0.3030 -0.1706
  321TMC3    C6 4877   0.635   1.451  17.431  0.4870 -0.1616  0.1105
  321TMC3     C 4878   0.317   1.719  17.405 -0.7809  0.2197  0.1496
  321TMC3     O 4879   0.331   1.832  17.449 -0.1136  0.3019 -0.0577
  321TMC3     H 4880   0.295   1.455  17.438 -0.1198  1.5927  1.3603
  321TMC3    H1 4881   0.585   1.783  17.458 -1.6131  0.3755  1.1391
  321TMC3    H2 4882   0.718   1.381  17.421 -1.6787 -2.6933 -0.2723
  321TMC3    C7 4883   0.739   1.593  17.577  0.5912 -0.9625 -0.0833
  321TMC3    C8 4884   0.471   1.303  17.514 -0.5644  0.4862 -0.2743
  321TMC3    O1 4885   0.785   1.483  17.613 -0.0453 -0.0259  0.4570
  321TMC3    O2 4886   0.359   1.253  17.508 -0.2300  0.1610  0.5775
  322MPD2     C 4887   4.191   2.604  13.434  0.4527 -0.0865 -1.1000
  322MPD2    C1 4888   4.313   2.578  13.477 -0.0673  0.0101 -0.2050
  322MPD2    C2 4889   4.378   2.456  13.444 -0.3475 -0.5902 -0.7810
  322MPD2    C3 4890   4.312   2.359  13.367  0.0491  0.1902  0.1322
  322MPD2    C4 4891   4.193   2.400  13.312  0.6855 -0.3670  0.0221
  322MPD2    C5 4892   4.127   2.514  13.351 -0.1308 -0.2378 -0.8583
  322MPD2     H 4893   4.475   2.424  13.479 -0.2262  1.1616  0.4999
  322MPD2    H1 4894   4.150   2.338  13.233  2.3588  0.5692 -1.6408
  322MPD2    H2 4895   4.135   2.693  13.460 -0.3813 -0.9158 -0.0446
  322MPD2    H3 4896   4.029   2.540  13.312  0.1741  0.3692 -1.2105
  322MPD2     N 4897   4.364   2.225  13.351  0.6852 -0.0212 -0.4669
  322MPD2    H5 4898   4.450   2.203  13.401  1.2497  0.3431 -1.2780
  322MPD2    N1 4899   4.374   2.682  13.551  0.1569  0.1626 -0.2478
  322MPD2    H7 4900   4.325   2.769  13.572 -1.1628  0.5360 -4.9799
  323TMC3    C1 4901   4.535   2.786  13.698 -0.5045  0.1943 -0.0269
  323TMC3    C2 4902   4.665   2.820  13.703 -0.4674  0.1102 -0.1659
  323TMC3    C3 4903   4.707   2.894  13.809  0.7925  0.6111  0.0770
  323TMC3    C4 4904   4.445   2.813  13.796 -0.0416 -0.3240  0.4370
  323TMC3    C5 4905   4.492   2.890  13.900  0.1218 -0.1681  0.4777
  323TMC3    C6 4906   4.621   2.937  13.908 -0.6544  0.2817  0.0388
  323TMC3     C 4907   4.497   2.672  13.609  0.4469  0.2918 -0.0835
  323TMC3     O 4908   4.591   2.598  13.580 -0.0400  0.5288 -0.1676
  323TMC3     H 4909   4.732   2.800  13.620  0.6814 -0.5836  0.9235
  323TMC3    H1 4910   4.345   2.772  13.792 -0.7068  1.3428 -0.0350
  323TMC3    H2 4911   4.654   2.988  13.998  0.9993 -0.9883  0.1622
  323TMC3    C7 4912   4.436   2.856  14.023 -0.2490  0.0354  0.5030
  323TMC3    C8 4913   0.111   2.934  13.812  0.8983  0.1663  0.7818
  323TMC3    O1 4914   4.357   2.764  14.019  0.0546 -0.2686  0.2756
  323TMC3    O2 4915   0.138   3.027  13.891  0.0610  0.1150 -0.8610
  324MPD2     C 4916   1.090   3.700  14.603  0.4046  0.0613 -0.2917
  324MPD2    C1 4917   1.065   3.832  14.570  0.0131  0.4721  0.4336
  324MPD2    C2 4918   0.959   3.864  14.479 -0.1557 -0.2486 -0.0489
  324MPD2    C3 4919   0.880   3.767  14.429 -0.3207  0.1157 -0.3267
  324MPD2    C4 4920   0.908   3.636  14.464  0.3855 -0.7588 -0.0985
  324MPD2    C5 4921   1.015   3.605  14.544  0.1305 -0.5045  0.3158
  324MPD2     H 4922   0.959   3.966  14.442 -1.1811 -0.9101 -1.8958
  324MPD2    H1 4923   0.848   3.559  14.416 -1.1341 -0.6683  1.6669
  324MPD2    H2 4924   1.166   3.674  14.676 -0.1871 -2.3222 -0.5477
  324MPD2    H3 4925   1.039   3.503  14.573  1.8003  0.3041  1.7865
  324MPD2     N 4926   0.784   3.802  14.330 -0.6572  0.3678 -0.0299
  324MPD2    H5 4927   0.746   3.724  14.277 -2.3176 -0.2709  2.0745
  324MPD2    N1 4928   1.145   3.944  14.621  0.2301 -0.5228 -0.5605
  324MPD2    H7 4929   1.127   4.036  14.582 -0.4775  0.7968  2.8658
  325TMC3    C1 4930   0.613   3.916  14.222  0.4749  0.2315  0.3223
  325TMC3    C2 4931   0.547   3.797  14.220 -0.8862  0.2992  0.0869
  325TMC3    C3 4932   0.423   3.807  14.156 -0.2564 -0.1779  0.3813
  325TMC3    C4 4933   0.571   4.031  14.167 -0.1386  0.7118 -0.2100
  325TMC3    C5 4934   0.456   4.033  14.105 -0.2192  0.1995  0.5550
  325TMC3    C6 4935   0.376   3.925  14.099  0.0720  0.6492 -0.2057
  325TMC3     C 4936   0.736   3.925  14.300 -0.1126  0.1764 -0.2771
  325TMC3     O 4937   0.781   4.035  14.326  0.3860 -0.5629  0.2750
  325TMC3     H 4938   0.568   3.722  14.295 -0.4402  0.4432  0.1102
  325TMC3    H1 4939   0.619   4.128  14.172 -2.0730  1.6792 -0.5920
  325TMC3    H2 4940   0.293   3.923  14.029 -0.8838 -1.9114  1.0152
  325TMC3    C7 4941   0.416   4.157  14.045  0.5305 -0.1273  0.5204
  325TMC3    C8 4942   0.394   3.682  14.083 -0.0667 -0.4884 -0.7007
  325TMC3    O1 4943   0.488   4.205  13.958 -0.5531 -0.1256  0.1895
  325TMC3    O2 4944   0.484   3.602  14.059 -0.9526 -0.0690 -0.3263
  326MPD2     C 4945   2.130   0.626  11.384 -0.7873  0.7018 -1.2172
  326MPD2    C1 4946   2.261   0.582  11.370  0.4302  0.3528  0.4459
  326MPD2    C2 4947   2.363   0.630  11.448 -0.1058 -0.3269 -0.9532
  326MPD2    C3 4948   2.345   0.735  11.540 -0.5063  0.0132  0.0947
  326MPD2    C4 4949   2.209   0.779  11.550 -0.0050  0.4675  0.2595
  326MPD2    C5 4950   2.105   0.729  11.475  0.0515 -0.4778  0.1053
  326MPD2     H 4951   2.462   0.586  11.438  0.1595  0.1215 -0.3318
  326MPD2    H1 4952   2.189   0.866  11.611 -1.2886 -0.4606  1.1532
  326MPD2    H2 4953   2.047   0.579  11.333  0.6234 -2.0967 -0.8771
  326MPD2    H3 4954   2.006   0.766  11.498  0.8797  1.0063  1.2600
  326MPD2     N 4955   2.447   0.815  11.598 -0.3814 -0.2061 -0.1976
  326MPD2    H5 4956   2.425   0.906  11.637  0.2161 -0.4079  0.6116
  326MPD2    N1 4957   2.296   0.471  11.280  0.0831  0.3737  0.0688
  326MPD2    H7 4958   2.391   0.443  11.258 -0.7696 -1.0316 -1.8913
  327TMC3    C1 4959   2.278   0.319  11.103 -0.3564  0.4728 -0.1452
  327TMC3    C2 4960   2.225   0.314  10.978 -0.4855  0.2693  0.3433
  327TMC3    C3 4961   2.306   0.341  10.868 -0.0178  0.1669 -0.2543
  327TMC3    C4 4962   2.417   0.326  11.113  0.7378  0.2231 -0.5779
  327TMC3    C5 4963   2.494   0.351  11.003  0.1940 -0.9368 -0.0079
  327TMC3    C6 4964   2.443   0.350  10.879 -0.2268 -0.4035 -0.6884
  327TMC3     C 4965   2.204   0.408  11.192  0.5153  0.6447  0.4278
  327TMC3     O 4966   2.084   0.427  11.172  0.4985 -0.3163 -0.1007
  327TMC3     H 4967   2.119   0.333  10.964 -0.1805 -1.0159 -3.7396
  327TMC3    H1 4968   2.467   0.304  11.206  0.1928 -0.6289 -0.4822
  327TMC3    H2 4969   2.503   0.364  10.790  1.3250  0.5178  0.4974
  327TMC3    C7 4970   2.623   0.422  11.016 -0.4165 -0.2253 -0.3792
  327TMC3    C8 4971   2.243   0.376  10.744  0.6929 -0.0183  0.1009
  327TMC3    O1 4972   2.673   0.462  10.917 -0.0320 -0.0715 -0.0386
  327TMC3    O2 4973   2.294   0.456  10.665 -0.0826 -0.5185 -0.3823
  328MPD2     C 4974   4.314   0.204   0.173 -0.8804 -0.4075  0.7159
  328MPD2    C1 4975   4.286   0.143   0.054  0.0897 -1.1485  0.1363
  328MPD2    C2 4976   4.364   0.164  17.682 -0.0563 -0.1206 -0.0744
  328MPD2    C3 4977   4.471   0.246  17.696 -0.2470  0.0989  0.4703
  328MPD2    C4 4978   4.500   0.303   0.074  0.3980 -0.0498  0.4155
  328MPD2    C5 4979   4.415   0.284   0.181  0.1739  0.7316  0.2298
  328MPD2     H 4980   4.334   0.132  17.583 -1.0183  1.0672 -0.1610
  328MPD2    H1 4981   4.589   0.364   0.076  0.1422  0.3158  0.6979
  328MPD2    H2 4982   4.240   0.207   0.253 -0.1870  0.6749  1.3134
  328MPD2    H3 4983   4.446   0.326   0.276 -0.0694 -1.1246  1.1064
  328MPD2     N 4984   4.544   0.308  17.588  0.6576 -1.2881 -0.3569
  328MPD2    H5 4985   4.595   0.393  17.611  1.4760 -2.2750  1.4805
  328MPD2    N1 4986   4.166   0.078   0.044 -0.2450  0.7996  0.2455
  328MPD2    H7 4987   4.105   0.098   0.123 -0.5465  2.3643 -0.3782
  329TMC3    C1 4988   3.976   4.716  17.677 -0.6512 -0.7410 -1.1361
  329TMC3    C2 4989   3.904   0.094  17.699 -0.5003  0.2504 -0.2927
  329TMC3    C3 4990   3.775   0.096  17.656  0.9107  0.4400 -0.1980
  329TMC3    C4 4991   3.930   4.607  17.609  0.5240 -0.1756  0.1847
  329TMC3    C5 4992   3.810   4.632  17.541 -1.0877 -0.0181 -0.0119
  329TMC3    C6 4993   3.731   0.001  17.567 -0.1516  0.4507  0.0428
  329TMC3     C 4994   4.124   0.001  17.682 -0.7127 -0.1635  0.5154
  329TMC3     O 4995   4.197   4.664  17.615  0.1459  0.0072  0.5204
  329TMC3     H 4996   3.959   0.182  17.731 -2.1375  1.8465 -1.9134
  329TMC3    H1 4997   3.987   4.517  17.592  0.7062  0.3000 -1.7209
  329TMC3    H2 4998   3.634   0.010  17.520 -0.4963  0.8610  0.8224
  329TMC3    C7 4999   3.756   4.522  17.465 -0.4247  0.9227 -0.2739
  329TMC3    C8 5000   3.692   0.214  17.674 -0.1631  0.3788  0.0460
  329TMC3    O1 5001   3.835   4.438  17.419 -0.2076  0.0252 -0.1014
  329TMC3    O2 5002   3.600   0.240  17.599  0.1253  0.5230  0.0802
  330TMC3    C1 5003   2.030   0.171   9.600 -0.0182 -0.1178 -1.0085
  330TMC3    C2 5004   1.918   0.086   9.589 -0.2645 -0.1927  0.4701
  330TMC3    C3 5005   1.953   4.690   9.579  0.2839 -0.2959 -0.1502
  330TMC3    C4 5006   2.160   0.125   9.586 -0.1857 -0.3562 -0.1178
  330TMC3    C5 5007   2.184   4.727   9.579 -1.1732  1.0580 -0.3222
  330TMC3    C6 5008   2.082   4.639   9.578  0.2121 -0.4147 -0.4627
  330TMC3     C 5009   2.006   0.314   9.605 -0.3805  0.5490  0.4507
  330TMC3     O 5010   2.106   0.387   9.596  0.2487  0.7250  0.3597
  330TMC3     H 5011   1.813   0.110   9.600  0.2138  2.1480 -0.1899
  330TMC3    H1 5012   2.237   0.200   9.595  1.6349 -2.1178 -1.0475
  330TMC3    H2 5013   2.097   4.531   9.571  2.0060 -0.3298  2.2502
  330TMC3    C7 5014   2.314   4.677   9.538  0.4074  0.3448  0.3321
  330TMC3    C8 5015   1.836   4.603   9.556 -0.3159  0.0271 -0.2785
  330TMC3    O1 5016   2.310   4.563   9.496 -0.0382 -0.7827 -0.0985
  330TMC3    O2 5017   1.727   4.654   9.540  0.3330 -0.4019  0.2922
  331MPD2     C 5018   1.372   3.066  12.660  0.2903  0.2217 -0.0536
  331MPD2    C1 5019   1.243   3.116  12.644  0.1309  0.0542  0.0002
  331MPD2    C2 5020   1.146   3.067  12.725  0.4858  0.4331  0.8108
  331MPD2    C3 5021   1.177   2.962  12.807 -0.0033  0.0271  0.8160
  331MPD2    C4 5022   1.300   2.899  12.810 -0.1193 -0.2922 -0.0550
  331MPD2    C5 5023   1.402   2.963  12.741  0.1230  0.3177  0.6052
  331MPD2     H 5024   1.048   3.111  12.735  1.0076  2.5599 -3.3362
  331MPD2    H1 5025   1.327   2.825  12.885  2.0811  0.0555 -0.5115
  331MPD2    H2 5026   1.463   3.099  12.611  0.8612 -0.9049  0.2405
  331MPD2    H3 5027   1.508   2.939  12.747 -0.2269 -2.1371 -2.7800
  331MPD2     N 5028   1.063   2.916  12.881 -0.2822 -0.1971 -0.0506
  331MPD2    H5 5029   0.974   2.962  12.865  0.2777  0.1968 -2.0167
  331MPD2    N1 5030   1.225   3.192  12.533 -0.3211 -0.1207 -0.3016
  331MPD2    H7 5031   1.306   3.228  12.484  0.8394  0.2569  1.8809
  332TMC3    C1 5032   0.930   2.786  13.033  0.3893  0.0979 -0.0665
  332TMC3    C2 5033   0.826   2.799  12.950 -0.0945  0.7448  0.2139
  332TMC3    C3 5034   0.701   2.769  13.007  0.1197 -0.9919 -0.2539
  332TMC3    C4 5035   0.923   2.740  13.163  0.1913 -0.5086  0.4154
  332TMC3    C5 5036   0.796   2.723  13.213  0.5507  0.1555 -0.6824
  332TMC3    C6 5037   0.685   2.745  13.132 -0.3842 -0.2982  0.2767
  332TMC3     C 5038   1.060   2.814  12.980  0.2883  0.4646 -0.2719
  332TMC3     O 5039   1.154   2.782  13.053 -0.4806  1.1012  0.4071
  332TMC3     H 5040   0.842   2.825  12.845 -0.4152 -1.3144 -0.3377
  332TMC3    H1 5041   1.017   2.709  13.209  0.9449 -1.1038 -1.5029
  332TMC3    H2 5042   0.590   2.756  13.183 -0.8371  0.9616 -0.8420
  332TMC3    C7 5043   0.784   2.667  13.345  0.1207 -0.5791  0.3057
  332TMC3    C8 5044   0.593   2.775  12.908 -0.1288 -0.4915 -0.2255
  332TMC3    O1 5045   0.681   2.619  13.390  0.3274 -0.1576 -0.9188
  332TMC3    O2 5046   0.627   2.817  12.799  0.2239  0.6403  0.3452
  333MPD2     C 5047   0.297   3.791  11.294 -0.3771  0.2753  0.4444
  333MPD2    C1 5048   0.414   3.721  11.277  0.5799 -0.3215  1.0514
  333MPD2    C2 5049   0.440   3.616  11.361 -0.0839 -0.6586 -0.2421
  333MPD2    C3 5050   0.347   3.574  11.458  0.6294  0.0526 -0.8071
  333MPD2    C4 5051   0.231   3.651  11.478 -0.3003  0.4472  0.0171
  333MPD2    C5 5052   0.207   3.755  11.398  0.5796  0.0320 -0.0261
  333MPD2     H 5053   0.532   3.559  11.363  0.6066  0.5122  2.6032
  333MPD2    H1 5054   0.151   3.622  11.545 -0.4090 -2.5540 -1.4347
  333MPD2    H2 5055   0.269   3.876  11.234 -2.3315  0.3802  1.5158
  333MPD2    H3 5056   0.121   3.817  11.422  0.6000 -0.5553  1.5551
  333MPD2     N 5057   0.366   3.455  11.531 -0.1349 -0.3138 -0.3208
  333MPD2    H5 5058   0.446   3.403  11.497 -0.0285  0.5890 -1.4722
  333MPD2    N1 5059   0.503   3.762  11.176  0.3633  0.0662 -0.2112
  333MPD2    H7 5060   0.491   3.854  11.133  0.9407 -0.5842 -1.7852
  334TMC3    C1 5061   0.715   3.760  11.063 -0.5362  0.3561 -0.6357
  334TMC3    C2 5062   0.808   3.685  11.000  0.0470  0.3762  0.2653
  334TMC3    C3 5063   0.916   3.750  10.948 -0.4479 -0.2989 -0.3950
  334TMC3    C4 5064   0.722   3.894  11.084 -0.0625 -0.4965 -0.2145
  334TMC3    C5 5065   0.827   3.954  11.022  0.0651  0.0625 -0.6562
  334TMC3    C6 5066   0.922   3.885  10.953 -0.1335 -0.4242 -0.3662
  334TMC3     C 5067   0.620   3.692  11.144 -0.7671 -0.2277  1.0679
  334TMC3     O 5068   0.655   3.578  11.170  0.2370 -0.5040  0.3444
  334TMC3     H 5069   0.808   3.577  11.003 -0.2273  0.4360  2.2327
  334TMC3    H1 5070   0.658   3.947  11.154 -0.6077  0.2786 -1.2942
  334TMC3    H2 5071   0.999   3.938  10.899 -2.0115  1.4304 -1.2345
  334TMC3    C7 5072   0.829   4.100  11.012 -0.3272 -0.4538  0.4864
  334TMC3    C8 5073   1.011   3.667  10.873  0.4695  0.5852 -0.3029
  334TMC3    O1 5074   0.932   4.148  10.969  0.4644 -0.2879  0.0709
  334TMC3    O2 5075   0.981   3.552  10.848  0.3638  0.2879 -0.2861
  335TMC3    C1 5076   0.412   0.549   0.022  0.3126  0.2915  0.0697
  335TMC3    C2 5077   0.348   0.469  17.670  0.0128  0.5973  0.1220
  335TMC3    C3 5078   0.426   0.445  17.561 -0.7693  0.7244  0.4230
  335TMC3    C4 5079   0.544   0.590   0.011  0.1512 -0.5140  1.2026
  335TMC3    C5 5080   0.617   0.552  17.640 -0.3132  0.0913 -0.4211
  335TMC3    C6 5081   0.556   0.485  17.537 -0.1313 -0.2666  0.0924
  335TMC3     C 5082   0.340   0.590   0.144 -0.1517  0.0643 -0.0051
  335TMC3     O 5083   0.387   0.690   0.200  0.4470 -0.0841  0.4623
  335TMC3     H 5084   0.240   0.457  17.659 -0.1230  3.2613 -1.4315
  335TMC3    H1 5085   0.585   0.655   0.088 -1.7396  1.6672  0.3679
  335TMC3    H2 5086   0.606   0.470  17.442  2.5079 -2.0857  1.7816
  335TMC3    C7 5087   0.763   0.545  17.660 -0.1159  0.0713 -0.1015
  335TMC3    C8 5088   0.359   0.396  17.441  0.2692  0.4536 -0.6230
  335TMC3    O1 5089   0.840   0.514  17.571  0.6340 -0.3293  0.7156
  335TMC3    O2 5090   0.405   0.434  17.335  0.5077 -0.0372  0.3285
  336MPD2     C 5091   0.224   2.708  16.287  0.1952 -0.3019 -0.7861
  336MPD2    C1 5092   0.146   2.644  16.185 -0.1874 -1.2415 -0.0146
  336MPD2    C2 5093   0.144   2.504  16.185 -0.1473  0.1461  0.4674
  336MPD2    C3 5094   0.206   2.431  16.288 -0.0476 -0.4555 -0.3286
  336MPD2    C4 5095   0.265   2.505  16.388 -0.4909 -0.2280 -0.7009
  336MPD2    C5 5096   0.275   2.638  16.391 -0.1339 -0.3630 -0.5295
  336MPD2     H 5097   0.087   2.446  16.114  1.5123  0.1248 -0.8549
  336MPD2    H1 5098   0.321   2.447  16.461 -1.7156 -0.2094  0.2529
  336MPD2    H2 5099   0.249   2.814  16.292 -2.3622  0.4339 -3.7802
  336MPD2    H3 5100   0.330   2.687  16.471 -0.2865 -0.5122 -0.3319
  336MPD2     N 5101   0.208   2.286  16.297  0.1578 -0.4360  0.1572
  336MPD2    H5 5102   0.204   2.245  16.390 -0.4986 -1.4742 -0.3282
  336MPD2    N1 5103   0.075   2.711  16.091  0.9178 -0.5517 -0.4881
  336MPD2    H7 5104   0.008   2.658  16.037 -0.3015 -1.4406  1.9041
  337TMC3    C1 5105   4.733   2.905  15.974  0.2347 -0.4095 -0.2042
  337TMC3    C2 5106   4.716   2.827  15.868  0.0435 -0.0069 -0.1345
  337TMC3    C3 5107   4.634   2.874  15.770  0.1593  0.6830  0.3434
  337TMC3    C4 5108   4.670   3.026  15.998 -0.2326  0.8850 -0.0201
  337TMC3    C5 5109   4.576   3.067  15.907 -0.4510 -0.6362  0.5005
  337TMC3    C6 5110   4.553   2.991  15.794 -0.6891 -0.3454  0.1044
  337TMC3     C 5111   0.077   2.853  16.085 -0.1736  0.0833 -0.6349
  337TMC3     O 5112   0.124   2.940  16.159 -0.1392 -0.0390 -0.2491
  337TMC3     H 5113   0.049   2.745  15.847 -1.0159 -0.8519 -0.2943
  337TMC3    H1 5114   4.685   3.080  16.091 -1.4574 -1.1681  1.3798
  337TMC3    H2 5115   4.475   3.018  15.724 -0.8220 -0.4104  0.2252
  337TMC3    C7 5116   4.475   3.165  15.948 -0.8619 -0.6466 -0.1193
  337TMC3    C8 5117   4.584   2.768  15.693 -0.6880  0.2934 -0.1746
  337TMC3    O1 5118   4.379   3.166  15.875  1.0122 -0.1438  0.7718
  337TMC3    O2 5119   4.632   2.655  15.712 -0.5331  0.2194  0.1863
  338MPD2     C 5120   0.469   2.639   1.270  0.1430 -0.1309 -0.5712
  338MPD2    C1 5121   0.375   2.548   1.234 -0.4870 -0.5362  0.0748
  338MPD2    C2 5122   0.245   2.587   1.256  0.0454  0.7977  0.3862
  338MPD2    C3 5123   0.207   2.710   1.305 -0.0696 -0.0439  0.9239
  338MPD2    C4 5124   0.307   2.801   1.331  0.1004 -0.2298  0.3572
  338MPD2    C5 5125   0.437   2.765   1.315  0.0363 -0.2976 -0.1779
  338MPD2     H 5126   0.171   2.520   1.215 -0.2970  1.3996  0.0164
  338MPD2    H1 5127   0.277   2.900   1.363  0.1189 -0.9197  2.5248
  338MPD2    H2 5128   0.574   2.619   1.256  0.0859  0.5773 -1.9946
  338MPD2    H3 5129   0.513   2.839   1.337 -0.4378  0.0178  0.3560
  338MPD2     N 5130   0.071   2.738   1.327 -0.4030  0.3947 -0.3490
  338MPD2    H5 5131   0.013   2.657   1.306 -1.6641  1.0059  0.8255
  338MPD2    N1 5132   0.408   2.436   1.154  0.4637  0.1316  0.0457
  338MPD2    H7 5133   0.334   2.395   1.099 -1.7373  0.8202  2.4994
  339TMC3    C1 5134   4.604   2.814   1.364  0.2912  0.3467 -0.2276
  339TMC3    C2 5135   4.557   2.710   1.446 -0.1415  0.1544  0.5024
  339TMC3    C3 5136   4.474   2.612   1.394 -0.7806  0.1817  0.2136
  339TMC3    C4 5137   4.558   2.814   1.235  0.1809 -0.1011 -0.0698
  339TMC3    C5 5138   4.479   2.720   1.184 -0.6603 -0.1757  0.7994
  339TMC3    C6 5139   4.442   2.616   1.258  1.0753  0.3993  0.2310
  339TMC3     C 5140   0.003   2.847   1.379  0.1198 -0.2593  0.3239
  339TMC3     O 5141   0.040   2.956   1.410  0.1808  0.8083  0.2192
  339TMC3     H 5142   4.609   2.705   1.541  0.4230  0.1117  0.1916
  339TMC3    H1 5143   4.595   2.889   1.166  2.3001 -2.2920 -1.3051
  339TMC3    H2 5144   4.373   2.538   1.226  1.9600 -1.1068  1.9863
  339TMC3    C7 5145   4.482   2.707   1.040  0.0353  0.2507 -0.0962
  339TMC3    C8 5146   4.439   2.504   1.484 -0.6737 -0.2718  0.5380
  339TMC3    O1 5147   4.447   2.803   0.979  0.1881  0.6661 -0.1122
  339TMC3    O2 5148   4.506   2.497   1.585  0.1785 -0.6404 -0.3377
  340MPD2     C 5149   0.008   4.523  10.363  0.0597  0.5372 -0.5168
  340MPD2    C1 5150   0.073   4.406  10.342  0.1658  0.1912  0.4419
  340MPD2    C2 5151   0.187   4.393  10.421  0.0570 -0.7329 -0.1805
  340MPD2    C3 5152   0.236   4.498  10.501  0.0030 -0.2645  0.0431
  340MPD2    C4 5153   0.171   4.617  10.504 -0.0805  0.3499 -0.2705
  340MPD2    C5 5154   0.051   4.627  10.437 -0.6272 -0.7911  0.1137
  340MPD2     H 5155   0.235   4.298  10.401  0.0391 -0.5324 -1.1748
  340MPD2    H1 5156   0.199   4.700  10.568  0.3706 -0.1371  0.1683
  340MPD2    H2 5157   4.650   4.549  10.314 -0.4041 -0.1001  0.0370
  340MPD2    H3 5158   0.007   4.726  10.439  1.3468  0.1480 -2.1982
  340MPD2     N 5159   0.359   4.483  10.574  0.7819 -0.4184 -0.1568
  340MPD2    H5 5160   0.390   4.571  10.614 -0.8598 -0.3994  1.0949
  340MPD2    N1 5161   0.040   4.301  10.248  0.4071 -0.2016  0.3777
  340MPD2    H7 5162   0.099   4.219  10.256 -0.3333 -0.9853 -2.0929
  341TMC3    C1 5163   4.667   4.184  10.085  0.0092 -0.3411 -0.1674
  341TMC3    C2 5164   4.563   4.092  10.087  0.3457  0.2279 -0.4546
  341TMC3    C3 5165   4.597   3.969  10.041 -0.3010 -0.2979  0.1280
  341TMC3    C4 5166   0.053   4.150  10.031  0.3713  0.1618  0.4195
  341TMC3    C5 5167   0.072   4.025   9.981 -0.3023  0.7468 -0.0744
  341TMC3    C6 5168   4.719   3.927   9.994  0.0526  0.1697 -0.0683
  341TMC3     C 5169   4.662   4.301  10.169 -0.5534 -0.2731 -0.2760
  341TMC3     O 5170   4.567   4.379  10.161  0.0756  0.7251 -0.1227
  341TMC3     H 5171   4.462   4.105  10.122  1.0785 -0.0526  1.7247
  341TMC3    H1 5172   0.138   4.217  10.023  0.5744  0.0652  1.8519
  341TMC3    H2 5173   0.008   3.823   9.976  2.4836  0.7012  0.0958
  341TMC3    C7 5174   0.197   4.000   9.923 -0.1395 -0.2039 -0.9008
  341TMC3    C8 5175   4.489   3.884  10.005 -1.0439  0.3576  0.2329
  341TMC3    O1 5176   0.250   4.100   9.874  0.2927 -0.1132 -0.4222
  341TMC3    O2 5177   4.512   3.766  10.002 -0.0550 -0.2819 -0.0112
  342MPD2     C 5178   3.120   3.166   0.198 -1.0793  0.1042 -0.1057
  342MPD2    C1 5179   3.259   3.155   0.172  0.1768 -0.0567 -0.6153
  342MPD2    C2 5180   3.331   3.273   0.170  0.2251 -0.3946 -0.3044
  342MPD2    C3 5181   3.271   3.400   0.196 -1.3418  0.2533 -0.3996
  342MPD2    C4 5182   3.132   3.397   0.222  0.3295  0.2692  0.1913
  342MPD2    C5 5183   3.058   3.283   0.221 -0.2490  0.2784 -0.8664
  342MPD2     H 5184   3.439   3.272   0.158  0.4429  0.4088  1.7010
  342MPD2    H1 5185   3.076   3.487   0.246  0.3736 -0.1787  2.0061
  342MPD2    H2 5186   3.058   3.077   0.192 -1.7121  0.5605 -0.2989
  342MPD2    H3 5187   2.955   3.280   0.255  0.2926 -0.0612  0.7433
  342MPD2     N 5188   3.333   3.522   0.189  0.1147  0.0004 -0.1518
  342MPD2    H5 5189   3.284   3.611   0.194  1.4859  0.8309 -1.5811
  342MPD2    N1 5190   3.331   3.037   0.150 -0.4648  0.0775  0.1594
  342MPD2    H7 5191   3.426   3.035   0.113  0.8647  0.3310  3.5096
  343TMC3    C1 5192   3.314   2.827   0.030  0.0698  0.0800 -0.3591
  343TMC3    C2 5193   3.422   2.851  17.691 -0.3078 -0.5587  0.6007
  343TMC3    C3 5194   3.473   2.760  17.607 -0.2240 -0.1640  0.1115
  343TMC3    C4 5195   3.273   2.694   0.046 -0.0149  0.2022  0.2126
  343TMC3    C5 5196   3.334   2.599  17.705  0.3123  0.2390 -0.3118
  343TMC3    C6 5197   3.414   2.634  17.599  0.4436 -1.0104  0.1239
  343TMC3     C 5198   3.259   2.922   0.127 -0.2764 -0.7575 -0.1427
  343TMC3     O 5199   3.153   2.886   0.177 -0.2289 -0.9552  0.0053
  343TMC3     H 5200   3.479   2.942  17.703 -1.2566 -0.1443  1.9451
  343TMC3    H1 5201   3.213   2.664   0.132  3.3615  0.1768  2.5759
  343TMC3    H2 5202   3.424   2.567  17.515  0.5927  2.2027 -2.4420
  343TMC3    C7 5203   3.275   2.465  17.709 -0.1451  0.1074  0.0025
  343TMC3    C8 5204   3.567   2.805  17.505  0.3405 -0.5158  0.4613
  343TMC3    O1 5205   3.173   2.447   0.035  0.4970  0.6726  0.1732
  343TMC3    O2 5206   3.573   2.924  17.500 -0.1240 -0.3174 -0.1089
  344MPD2     C 5207   4.342   2.623  11.263 -0.2794 -0.0619  0.0715
  344MPD2    C1 5208   4.248   2.579  11.166  0.1358  0.2701  0.4752
  344MPD2    C2 5209   4.256   2.628  11.031 -0.1141  0.1899  0.5141
  344MPD2    C3 5210   4.342   2.731  11.003 -1.1899  0.2617 -0.3052
  344MPD2    C4 5211   4.432   2.774  11.100  0.0835 -0.2584 -0.6024
  344MPD2    C5 5212   4.419   2.731  11.226  0.2525 -0.0838 -0.9355
  344MPD2     H 5213   4.180   2.593  10.963  1.5366  1.1876 -1.8186
  344MPD2    H1 5214   4.511   2.843  11.074 -0.6068  0.3324 -1.1073
  344MPD2    H2 5215   4.355   2.583  11.363  1.2580 -0.1589 -0.1733
  344MPD2    H3 5216   4.496   2.764  11.295  0.4430 -0.4313 -0.9836
  344MPD2     N 5217   4.368   2.783  10.877  0.3101  0.6450  0.5164
  344MPD2    H5 5218   4.445   2.849  10.876 -0.0277  1.0658  1.9959
  344MPD2    N1 5219   4.152   2.484  11.184  0.1046 -0.4120  0.0925
  344MPD2    H7 5220   4.086   2.462  11.110 -1.2675  0.6194  1.0110
  345TMC3    C1 5221   4.345   2.823  10.642 -0.4498  0.3871 -0.2895
  345TMC3    C2 5222   4.482   2.845  10.637 -0.3815 -0.9797 -0.0494
  345TMC3    C3 5223   4.527   2.930  10.540  0.2133 -0.6697 -0.0914
  345TMC3    C4 5224   4.261   2.887  10.554  0.3325  0.0969  0.0506
  345TMC3    C5 5225   4.312   2.963  10.449 -0.0436  0.5581 -0.3325
  345TMC3    C6 5226   4.452   2.990  10.444  0.0689 -0.0816 -0.5323
  345TMC3     C 5227   4.293   2.764  10.760  0.1126  0.1324  0.3783
  345TMC3     O 5228   4.192   2.697  10.751 -0.3590  0.6188  0.2015
  345TMC3     H 5229   4.551   2.806  10.711  1.9286  0.7990 -1.2628
  345TMC3    H1 5230   4.154   2.879  10.567  0.1117  0.1920 -1.6061
  345TMC3    H2 5231   4.500   3.038  10.360 -0.8263  1.3046 -0.2514
  345TMC3    C7 5232   4.230   3.045  10.365 -0.1108  0.1458  0.0088
  345TMC3    C8 5233   4.668   2.958  10.537  0.0277  0.3280 -0.4873
  345TMC3    O1 5234   4.290   3.148  10.333 -0.0758 -0.5393  0.5058
  345TMC3    O2 5235   4.694   3.076  10.518  0.2754  0.1221  0.1738
  346MPD2     C 5236   3.968   4.150  13.850  0.2840  0.3358  0.3040
  346MPD2    C1 5237   4.053   4.243  13.799  0.2663  0.2765  0.5713
  346MPD2    C2 5238   4.102   4.345  13.878  0.6933  0.3185  0.1643
  346MPD2    C3 5239   4.074   4.351  14.012  0.1573  0.1562 -1.3965
  346MPD2    C4 5240   3.987   4.257  14.064 -0.3202 -0.9763  0.5400
  346MPD2    C5 5241   3.933   4.158  13.984 -0.1957 -0.5179 -0.5721
  346MPD2     H 5242   4.183   4.407  13.840 -0.5119  0.1582 -2.6158
  346MPD2    H1 5243   3.964   4.257  14.169  3.4071 -2.0970  1.3556
  346MPD2    H2 5244   3.916   4.078  13.786  0.2290  0.4079  0.2679
  346MPD2    H3 5245   3.867   4.080  14.022 -0.5573 -0.1618 -0.4695
  346MPD2     N 5246   4.150   4.445  14.093 -0.5749  0.2287 -0.0306
  346MPD2    H5 5247   4.220   4.502  14.048  0.6178 -0.6347  0.7176
  346MPD2    N1 5248   4.085   4.226  13.663 -0.3637  0.4535  0.2369
  346MPD2    H7 5249   4.046   4.142  13.622 -1.9092  1.2550  0.0669
  347TMC3    C1 5250   4.263   4.510  14.275 -0.1299  0.0382  0.4101
  347TMC3    C2 5251   4.385   4.481  14.213 -0.0920 -0.1416 -0.1555
  347TMC3    C3 5252   4.487   4.471  14.303 -1.1094 -0.0646 -0.3501
  347TMC3    C4 5253   4.248   4.555  14.402 -0.9362 -0.4418 -0.3861
  347TMC3    C5 5254   4.364   4.556  14.475  0.0353  0.3321  0.3911
  347TMC3    C6 5255   4.483   4.511  14.430  0.3293 -0.3787 -0.5556
  347TMC3     C 5256   4.148   4.443  14.229  0.4942  0.0983  0.1193
  347TMC3     O 5257   4.068   4.412  14.315 -0.4751  0.1671  0.2230
  347TMC3     H 5258   4.394   4.436  14.115 -0.1374  1.4744 -0.9042
  347TMC3    H1 5259   4.150   4.581  14.439 -1.2311  1.9219 -2.8718
  347TMC3    H2 5260   4.575   4.505  14.485 -0.0658 -1.1616  0.0229
  347TMC3    C7 5261   4.348   4.604  14.612 -0.3417  0.2715 -0.5579
  347TMC3    C8 5262   4.610   4.413  14.256  0.2879  0.5061  0.4604
  347TMC3    O1 5263   4.236   4.623  14.658  0.3368  0.7017 -0.4558
  347TMC3    O2 5264   4.692   4.382  14.342  0.2796  0.0372  0.6299
  348MPD2     C 5265   3.348   4.363  11.968 -0.3311 -0.0629 -0.7100
  348MPD2    C1 5266   3.295   4.308  11.857  0.0015  0.8508  0.5999
  348MPD2    C2 5267   3.236   4.395  11.770  0.1805 -0.2552  0.2370
  348MPD2    C3 5268   3.232   4.532  11.790  0.6636  0.1538 -0.1825
  348MPD2    C4 5269   3.296   4.588  11.902 -0.8181 -0.5015  1.2709
  348MPD2    C5 5270   3.353   4.501  11.994 -0.4795  0.4356  0.4313
  348MPD2     H 5271   3.195   4.352  11.680  1.8208 -0.3913 -0.4540
  348MPD2    H1 5272   3.307   4.695  11.916  0.8490 -0.3453 -1.2993
  348MPD2    H2 5273   3.382   4.295  12.046 -0.5415  0.1882 -0.4029
  348MPD2    H3 5274   3.408   4.548  12.075  0.3791  0.5615 -0.2301
  348MPD2     N 5275   3.184   4.607  11.677  0.1915 -0.3006 -0.5537
  348MPD2    H5 5276   3.131   4.555  11.608  0.0785 -1.4611  0.4099
  348MPD2    N1 5277   3.266   4.171  11.839  1.0287  0.1192  0.3366
  348MPD2    H7 5278   3.222   4.142  11.753 -1.6991 -0.7238  2.0160
  349TMC3    C1 5279   3.255   3.935  11.889 -0.3177 -0.3475 -0.5296
  349TMC3    C2 5280   3.295   3.829  11.964 -0.0474 -0.8725  0.4832
  349TMC3    C3 5281   3.247   3.704  11.938  0.5654 -0.1593 -0.1427
  349TMC3    C4 5282   3.166   3.911  11.789  0.2467  0.0107 -0.5286
  349TMC3    C5 5283   3.112   3.788  11.758  0.2416  0.8781  0.5203
  349TMC3    C6 5284   3.150   3.685  11.836 -0.0629 -0.3297 -0.1403
  349TMC3     C 5285   3.317   4.066  11.916 -0.4247  0.0354 -0.5624
  349TMC3     O 5286   3.394   4.068  12.008 -0.0255  0.2139  0.0764
  349TMC3     H 5287   3.377   3.844  12.034 -0.5550 -0.1660  0.9230
  349TMC3    H1 5288   3.111   3.999  11.760 -0.1513  0.0705  0.4107
  349TMC3    H2 5289   3.099   3.591  11.820  0.4401 -0.8012  1.0552
  349TMC3    C7 5290   2.984   3.787  11.687 -0.0724  0.9738  0.4599
  349TMC3    C8 5291   3.263   3.609  12.047  0.2747  0.5000 -0.7969
  349TMC3    O1 5292   2.896   3.708  11.715 -0.1207 -0.3947 -0.7116
  349TMC3    O2 5293   3.294   3.642  12.160 -0.3115  0.1480  0.5583
  350MPD2     C 5294   1.738   2.654  10.238  0.1974  0.7618 -0.1935
  350MPD2    C1 5295   1.806   2.556  10.310 -0.5456  0.9402 -0.2645
  350MPD2    C2 5296   1.926   2.593  10.367 -0.0680  0.0081  0.9201
  350MPD2    C3 5297   1.975   2.716  10.355 -0.5278 -0.0332  0.3848
  350MPD2    C4 5298   1.907   2.818  10.287  0.3825 -0.3423  0.0266
  350MPD2    C5 5299   1.792   2.780  10.236  0.8867 -0.4853  0.3434
  350MPD2     H 5300   1.974   2.521  10.432  1.6330  0.9433  0.7006
  350MPD2    H1 5301   1.946   2.919  10.282 -2.4532  0.7253 -0.5181
  350MPD2    H2 5302   1.639   2.645  10.193  0.4443  0.9598 -0.7814
  350MPD2    H3 5303   1.732   2.859  10.192 -0.3603 -2.4819 -1.5342
  350MPD2     N 5304   2.094   2.742  10.426 -0.4420  0.3269  0.1905
  350MPD2    H5 5305   2.130   2.667  10.484 -1.0074 -1.3057 -1.5506
  350MPD2    N1 5306   1.766   2.421  10.321 -0.3559  0.3602 -0.0339
  350MPD2    H7 5307   1.829   2.357  10.368  1.7609  1.4872 -1.2956
  351TMC3    C1 5308   1.638   2.220  10.302  0.5091  0.2713 -0.0947
  351TMC3    C2 5309   1.758   2.152  10.315 -0.2703 -0.0295 -0.0181
  351TMC3    C3 5310   1.745   2.019  10.338 -0.0487 -0.9854  0.6875
  351TMC3    C4 5311   1.513   2.167  10.316  0.1282  0.2528 -0.0522
  351TMC3    C5 5312   1.512   2.037  10.344  0.0384  0.9019 -1.2008
  351TMC3    C6 5313   1.625   1.964  10.362 -0.1820 -0.0618 -0.0268
  351TMC3     C 5314   1.643   2.366  10.289 -0.6784  0.3273  0.6714
  351TMC3     O 5315   1.551   2.428  10.234  0.4963 -0.0959 -0.3871
  351TMC3     H 5316   1.855   2.200  10.305 -0.7610  1.3778  1.9502
  351TMC3    H1 5317   1.424   2.225  10.296 -1.9083 -1.5504  3.6513
  351TMC3    H2 5318   1.612   1.856  10.372 -0.5625  0.0278  0.4320
  351TMC3    C7 5319   1.388   1.956  10.340 -0.3890 -0.4681 -0.4985
  351TMC3    C8 5320   1.868   1.938  10.334 -0.0771 -0.0152 -0.4647
  351TMC3    O1 5321   1.400   1.835  10.342  0.2599  0.1853 -0.2986
  351TMC3    O2 5322   1.961   1.988  10.279 -0.2843 -0.2661  0.2523
  352MPD2     C 5323   0.507   4.426   1.497 -0.3854  0.2482 -0.0477
  352MPD2    C1 5324   0.444   4.388   1.385  0.6378  0.0180 -0.8040
  352MPD2    C2 5325   0.502   4.283   1.313 -0.3043  0.2270 -0.5342
  352MPD2    C3 5326   0.623   4.223   1.353  0.0435 -0.2438  0.0992
  352MPD2    C4 5327   0.675   4.259   1.478 -0.0918  0.1538  0.7890
  352MPD2    C5 5328   0.621   4.368   1.540  0.7023 -0.6043 -0.6623
  352MPD2     H 5329   0.455   4.236   1.227 -1.6706 -1.4757  1.1347
  352MPD2    H1 5330   0.768   4.217   1.515 -0.1526  0.9020  1.7896
  352MPD2    H2 5331   0.472   4.517   1.545 -0.0685 -0.0444  0.7258
  352MPD2    H3 5332   0.670   4.406   1.629  1.8619 -1.3794 -0.9726
  352MPD2     N 5333   0.667   4.093   1.298 -0.3130 -0.4847 -0.6037
  352MPD2    H5 5334   0.749   4.050   1.342  0.6088  1.7557 -0.1322
  352MPD2    N1 5335   0.334   4.467   1.335 -0.3167  0.0555  0.3850
  352MPD2    H7 5336   0.308   4.549   1.389 -1.3130  0.5687 -0.8550
  353TMC3    C1 5337   0.683   3.909   1.150  0.0507 -0.1376  0.1056
  353TMC3    C2 5338   0.806   3.874   1.209  0.0722  0.8645 -0.0372
  353TMC3    C3 5339   0.839   3.739   1.220  0.9387 -0.2673 -0.2481
  353TMC3    C4 5340   0.605   3.814   1.090  0.2890  0.8172  0.5349
  353TMC3    C5 5341   0.643   3.686   1.107  0.2344  0.6691  0.4472
  353TMC3    C6 5342   0.766   3.640   1.155 -0.1572 -0.7497  0.6031
  353TMC3     C 5343   0.618   4.037   1.182  0.2022  0.1688  0.0535
  353TMC3     O 5344   0.528   4.066   1.111  0.2993 -0.1386 -0.2426
  353TMC3     H 5345   0.882   3.947   1.235 -0.7329  2.2723 -1.6620
  353TMC3    H1 5346   0.516   3.847   1.037  0.1430 -0.5309 -0.0762
  353TMC3    H2 5347   0.793   3.536   1.172 -0.2319 -0.7328  0.8199
  353TMC3    C7 5348   0.533   3.600   1.121 -0.6321 -0.8822  0.3947
  353TMC3    C8 5349   0.970   3.711   1.281  0.7212  0.3431 -0.0012
  353TMC3    O1 5350   0.557   3.478   1.111 -0.4275  0.1188  0.0236
  353TMC3    O2 5351   1.045   3.804   1.308  0.5943 -0.1878  0.1782
  354TMC3    C1 5352   1.778   0.648  13.721 -0.1587 -0.0144 -0.0660
  354TMC3    C2 5353   1.717   0.770  13.704  0.3942  0.3505 -0.0876
  354TMC3    C3 5354   1.687   0.802  13.578 -0.4777 -0.0434  0.5658
  354TMC3    C4 5355   1.813   0.563  13.617 -0.0114 -0.0006  0.7828
  354TMC3    C5 5356   1.785   0.602  13.493  0.6551 -0.5473 -0.2461
  354TMC3    C6 5357   1.718   0.720  13.473  0.2450 -0.3530 -0.1786
  354TMC3     C 5358   1.821   0.621  13.864 -0.2061 -0.9387 -0.9081
  354TMC3     O 5359   1.754   0.664  13.960 -0.7183 -0.7109 -0.2563
  354TMC3     H 5360   1.712   0.836  13.791 -1.9891 -2.1229  1.6593
  354TMC3    H1 5361   1.850   0.466  13.646  0.9102  0.8928  2.5965
  354TMC3    H2 5362   1.684   0.735  13.371 -0.1932  1.4338  0.2415
  354TMC3    C7 5363   1.837   0.527  13.378  0.2544 -0.4832  0.1114
  354TMC3    C8 5364   1.674   0.935  13.532 -0.2841 -0.3758 -0.1211
  354TMC3    O1 5365   1.771   0.523  13.271  0.1920 -1.0040 -0.0124
  354TMC3    O2 5366   1.681   0.944  13.410  0.1949  0.1778  0.2666
  355MPD2     C 5367   1.965   1.443  11.560 -0.1076  0.1116  0.1545
  355MPD2    C1 5368   2.081   1.445  11.489  0.0497  0.3990 -0.1964
  355MPD2    C2 5369   2.203   1.446  11.552  0.4982 -0.4068  0.4865
  355MPD2    C3 5370   2.207   1.456  11.686 -0.8905  0.1343  0.5841
  355MPD2    C4 5371   2.092   1.449  11.761 -0.1463  0.1823 -0.3776
  355MPD2    C5 5372   1.970   1.445  11.701  0.0336 -0.5836  0.4771
  355MPD2     H 5373   2.294   1.456  11.494 -1.1992  2.6222 -1.6273
  355MPD2    H1 5374   2.102   1.465  11.868 -0.1545  1.0487 -0.5033
  355MPD2    H2 5375   1.866   1.437  11.517  0.1559  0.4073 -0.4958
  355MPD2    H3 5376   1.879   1.452  11.760 -0.4006  0.0406 -0.2632
  355MPD2     N 5377   2.330   1.477  11.755 -0.5988 -0.6860  0.0669
  355MPD2    H5 5378   2.336   1.461  11.855 -0.9243  1.5571  0.4596
  355MPD2    N1 5379   2.069   1.480  11.350 -0.7492  0.4655  0.2583
  355MPD2    H7 5380   1.978   1.503  11.311 -0.1457  1.1522 -0.7188
  356TMC3    C1 5381   2.546   1.535  11.791 -0.4430 -0.4331  0.0082
  356TMC3    C2 5382   2.673   1.537  11.740  0.4218  0.4463  0.1292
  356TMC3    C3 5383   2.776   1.571  11.821  0.1716  0.5931 -0.1928
  356TMC3    C4 5384   2.523   1.585  11.916 -0.1176 -0.3287  0.3055
  356TMC3    C5 5385   2.631   1.620  11.990  1.4485 -0.2949 -1.1809
  356TMC3    C6 5386   2.761   1.610  11.946 -0.1535 -0.9262  0.4156
  356TMC3     C 5387   2.444   1.521  11.690 -0.1669  0.2483 -1.0021
  356TMC3     O 5388   2.469   1.563  11.579 -0.1352  0.5928 -0.0995
  356TMC3     H 5389   2.689   1.492  11.643 -1.3993 -2.3116  1.0985
  356TMC3    H1 5390   2.425   1.606  11.957 -0.1854 -1.8662  0.9174
  356TMC3    H2 5391   2.845   1.619  12.014  1.5916  0.2645 -1.8639
  356TMC3    C7 5392   2.604   1.668  12.121 -0.3426 -0.9014  1.0346
  356TMC3    C8 5393   2.906   1.582  11.749  0.0733  0.2788 -0.0830
  356TMC3    O1 5394   2.495   1.647  12.168 -0.0673 -0.6220  0.0059
  356TMC3    O2 5395   2.926   1.512  11.647  0.1655  0.3870 -0.4799
  357MPD2     C 5396   1.890   1.485   1.094  0.2969  0.4484  0.1720
  357MPD2    C1 5397   1.843   1.359   1.130 -0.5413 -0.1753  0.3644
  357MPD2    C2 5398   1.731   1.342   1.209 -0.6279  0.1707 -0.5683
  357MPD2    C3 5399   1.671   1.455   1.267  0.1499 -0.5728 -0.0360
  357MPD2    C4 5400   1.717   1.582   1.237  0.9217 -0.1933  0.1337
  357MPD2    C5 5401   1.821   1.594   1.141 -0.0483  0.5179  0.3744
  357MPD2     H 5402   1.690   1.242   1.217 -0.5661  0.1374 -0.6779
  357MPD2    H1 5403   1.653   1.663   1.272 -3.3398 -2.4127 -2.4335
  357MPD2    H2 5404   1.981   1.496   1.036 -0.7947 -1.8012 -1.9801
  357MPD2    H3 5405   1.862   1.691   1.117  0.3678  0.1274 -0.5007
  357MPD2     N 5406   1.563   1.444   1.361 -0.7681  0.3217  0.4390
  357MPD2    H5 5407   1.519   1.533   1.385 -0.9214  0.8557 -1.7390
  357MPD2    N1 5408   1.921   1.245   1.092 -0.7959  0.0935 -0.3964
  357MPD2    H7 5409   2.004   1.266   1.038 -0.5681  0.3030  0.0326
  358TMC3    C1 5410   1.992   1.016   1.057 -0.6301 -0.2375 -0.3491
  358TMC3    C2 5411   1.946   0.890   1.023 -0.1031  0.5292 -0.2453
  358TMC3    C3 5412   2.023   0.779   1.049 -0.0764 -0.7474 -0.1956
  358TMC3    C4 5413   2.123   1.031   1.090 -0.2182 -0.7712 -0.1958
  358TMC3    C5 5414   2.197   0.918   1.108  0.5141 -0.3159  0.5004
  358TMC3    C6 5415   2.155   0.787   1.085  0.0584 -0.7516  0.5567
  358TMC3     C 5416   1.890   1.109   1.110  1.2460 -0.2856 -0.9741
  358TMC3     O 5417   1.787   1.056   1.148  0.0163 -0.0207 -0.5405
  358TMC3     H 5418   1.843   0.876   0.992 -0.2083  2.3937 -0.7379
  358TMC3    H1 5419   2.167   1.128   1.113 -0.3306 -0.9711  0.8472
  358TMC3    H2 5420   2.223   0.703   1.075  1.5015  0.4352  0.3387
  358TMC3    C7 5421   2.336   0.938   1.138 -0.3844 -0.1605  0.6185
  358TMC3    C8 5422   1.987   0.667   0.970  0.5695  0.4304 -0.2511
  358TMC3    O1 5423   2.414   0.846   1.113 -0.7126 -0.1592 -0.1538
  358TMC3    O2 5424   1.923   0.686   0.865  0.3774  0.5111  0.6799
  359MPD2     C 5425   2.778   4.357  12.938 -0.2660 -0.1203 -0.0821
  359MPD2    C1 5426   2.833   4.332  12.809  0.6673  0.5804  0.4786
  359MPD2    C2 5427   2.754   4.258  12.720  0.0483  0.4737  0.3667
  359MPD2    C3 5428   2.623   4.223  12.760  0.0174  0.6039 -0.2413
  359MPD2    C4 5429   2.571   4.261  12.884 -0.6131  0.1976 -0.5956
  359MPD2    C5 5430   2.653   4.311  12.974 -0.0582  0.6897 -0.4683
  359MPD2     H 5431   2.790   4.252  12.618 -2.0577  1.9571 -0.4617
  359MPD2    H1 5432   2.478   4.214  12.915 -0.5022 -0.7268 -1.6623
  359MPD2    H2 5433   2.843   4.390  13.017 -1.1971 -0.0564  0.6634
  359MPD2    H3 5434   2.622   4.331  13.076  1.0769 -0.2202  0.0518
  359MPD2     N 5435   2.542   4.138  12.688 -0.5347 -0.2135 -0.0023
  359MPD2    H5 5436   2.444   4.136  12.714 -0.2482  1.0780  1.1694
  359MPD2    N1 5437   2.955   4.382  12.765 -0.3254 -0.2412  0.3486
  359MPD2    H7 5438   2.982   4.385  12.667 -0.8878 -2.7515  0.1112
  360TMC3    C1 5439   3.162   4.502  12.771  0.5285 -0.3092  0.0345
  360TMC3    C2 5440   3.280   4.512  12.832  0.1190 -0.5915  0.5995
  360TMC3    C3 5441   3.378   4.563  12.748  0.6559 -0.4790  0.3494
  360TMC3    C4 5442   3.132   4.562  12.651  0.3998 -0.6684  0.5676
  360TMC3    C5 5443   3.221   4.655  12.599 -0.2155  0.1389 -0.2535
  360TMC3    C6 5444   3.354   4.639  12.638  0.6256 -0.2392 -0.1029
  360TMC3     C 5445   3.053   4.437  12.848 -0.2311 -0.8559 -0.9069
  360TMC3     O 5446   3.057   4.430  12.970 -0.5698 -0.4070  0.1884
  360TMC3     H 5447   3.301   4.428  12.897  0.3587 -0.5664  0.5533
  360TMC3    H1 5448   3.027   4.563  12.622 -0.1924  4.0382  2.8207
  360TMC3    H2 5449   3.426   4.698  12.581 -0.3595  0.8468 -0.2294
  360TMC3    C7 5450   3.218   4.694  12.457 -0.1380  0.0827  0.7223
  360TMC3    C8 5451   3.475   4.457  12.730 -0.5112  0.5458  0.6887
  360TMC3    O1 5452   3.280   0.060  12.421  0.3307 -0.9522 -0.7581
  360TMC3    O2 5453   3.490   4.371  12.818  0.4305 -0.0700  0.8869
  361MPD2     C 5454   4.371   3.674  16.932 -0.2080 -0.2591  0.5779
  361MPD2    C1 5455   4.321   3.666  17.055 -0.4765 -0.0005 -0.1478
  361MPD2    C2 5456   4.367   3.572  17.149  0.0183 -0.4809 -0.8338
  361MPD2    C3 5457   4.454   3.474  17.111 -0.0082 -0.4081 -0.6551
  361MPD2    C4 5458   4.481   3.471  16.973 -0.5466 -0.1998  0.2696
  361MPD2    C5 5459   4.456   3.571  16.892 -0.2127  0.9887  0.2588
  361MPD2     H 5460   4.324   3.575  17.248  0.9536  1.7177 -0.5091
  361MPD2    H1 5461   4.537   3.392  16.924  0.2926  0.0239  0.8672
  361MPD2    H2 5462   4.347   3.746  16.855  0.0943 -1.7271 -0.9021
  361MPD2    H3 5463   4.502   3.580  16.794 -0.9020 -0.6382 -0.2116
  361MPD2     N 5464   4.487   3.367  17.200  0.1024  0.2558 -0.6989
  361MPD2    H5 5465   4.526   3.281  17.163  1.5908  0.1118  1.2445
  361MPD2    N1 5466   4.210   3.744  17.081  0.3211  0.0503  0.1382
  361MPD2    H7 5467   4.190   3.817  17.013  0.7020  1.5268  1.5958
  362TMC3    C1 5468   4.023   3.814  17.203 -0.0729 -0.2941 -1.1391
  362TMC3    C2 5469   3.939   3.789  17.309 -0.1535 -0.1561  0.2360
  362TMC3    C3 5470   3.849   3.889  17.344  0.5468 -1.0055  0.4000
  362TMC3    C4 5471   4.014   3.933  17.134  0.2656  0.0922 -0.9703
  362TMC3    C5 5472   3.918   4.019  17.167  0.2574 -0.0792 -0.5719
  362TMC3    C6 5473   3.828   3.998  17.266  0.4969  0.3666 -0.2342
  362TMC3     C 5474   4.121   3.717  17.176 -0.1850  0.3919  0.1051
  362TMC3     O 5475   4.107   3.614  17.240  0.7608  0.3924  0.2669
  362TMC3     H 5476   3.957   3.707  17.377  1.9781  1.3961  1.5346
  362TMC3    H1 5477   4.076   3.954  17.048  1.1064 -0.4492 -0.4875
  362TMC3    H2 5478   3.748   4.068  17.287  0.7207  0.1347  1.4065
  362TMC3    C7 5479   3.892   4.117  17.065 -0.8978 -0.3981 -0.5104
  362TMC3    C8 5480   3.725   3.842  17.402  0.5653 -0.7628 -0.2368
  362TMC3    O1 5481   3.986   4.182  17.019  0.3196  0.8942  0.0436
  362TMC3    O2 5482   3.693   3.727  17.388  0.0786  0.7045  0.1201
  363TMC3    C1 5483   2.920   1.735   9.667  0.4115  0.0717  0.5417
  363TMC3    C2 5484   2.921   1.641   9.762 -0.3717 -0.3453  0.4820
  363TMC3    C3 5485   2.872   1.670   9.886 -0.5944  0.0951 -0.1770
  363TMC3    C4 5486   2.858   1.856   9.686  0.0128  0.2243 -0.2520
  363TMC3    C5 5487   2.815   1.886   9.812 -0.2393 -0.4294 -0.0915
  363TMC3    C6 5488   2.817   1.793   9.916  0.3992  1.1288 -0.3926
  363TMC3     C 5489   2.963   1.707   9.526  0.0444  0.0102  0.2306
  363TMC3     O 5490   2.898   1.765   9.435  0.1271 -0.3963  0.6523
  363TMC3     H 5491   2.958   1.541   9.740  0.3842 -0.6945  3.3149
  363TMC3    H1 5492   2.870   1.931   9.608 -2.1473 -2.1323 -2.8727
  363TMC3    H2 5493   2.790   1.811  10.019  0.1855  0.4017 -0.3204
  363TMC3    C7 5494   2.777   2.020   9.839  0.1443 -0.2478 -0.2774
  363TMC3    C8 5495   2.888   1.575   9.999  0.8038  0.1879  0.0529
  363TMC3    O1 5496   2.718   2.092   9.758 -0.1466  0.3821  0.0107
  363TMC3    O2 5497   2.868   1.615  10.117 -0.6940  0.0625 -0.1512
  364MPD2     C 5498   1.799   0.405  10.475  0.6506 -0.0584  1.0293
  364MPD2    C1 5499   1.892   0.496  10.496 -0.1565  0.0583  0.7359
  364MPD2    C2 5500   2.010   0.475  10.567 -0.0936 -0.0934 -0.3056
  364MPD2    C3 5501   2.021   0.358  10.639 -0.4923  0.1893  0.0381
  364MPD2    C4 5502   1.917   0.271  10.630 -0.1016  0.4895  0.1583
  364MPD2    C5 5503   1.813   0.291  10.544  0.2016  0.2728  0.0651
  364MPD2     H 5504   2.078   0.559  10.557 -0.0654 -0.0889 -0.0835
  364MPD2    H1 5505   1.914   0.176  10.684  0.1542  0.4948  0.1805
  364MPD2    H2 5506   1.714   0.418  10.410  0.9498 -0.9496  0.4547
  364MPD2    H3 5507   1.729   0.223  10.547 -0.5709  1.2396  0.1318
  364MPD2     N 5508   2.125   0.319  10.729  0.3126 -0.2702 -0.4288
  364MPD2    H5 5509   2.102   0.242  10.791 -0.4066  1.3237  1.2994
  364MPD2    N1 5510   1.877   0.628  10.454  0.1755 -0.3531 -0.0393
  364MPD2    H7 5511   1.952   0.688  10.487 -0.0748  1.0119 -1.9164
  365TMC3    C1 5512   1.776   0.803  10.344  0.7297 -0.2168 -0.1774
  365TMC3    C2 5513   1.884   0.810  10.264 -0.4024  0.2310  0.3588
  365TMC3    C3 5514   1.937   0.932  10.234  0.2447 -0.1573  0.4851
  365TMC3    C4 5515   1.715   0.916  10.397  0.5630 -0.5235  0.5025
  365TMC3    C5 5516   1.767   1.036  10.360  0.3222  0.0216 -0.4126
  365TMC3    C6 5517   1.872   1.044  10.280 -0.2461 -0.2084 -0.1100
  365TMC3     C 5518   1.757   0.678  10.411 -0.0563 -0.1821  0.2163
  365TMC3     O 5519   1.645   0.628  10.401 -0.8844 -1.0028 -0.0981
  365TMC3     H 5520   1.932   0.716  10.239 -0.4661  0.5175 -0.8295
  365TMC3    H1 5521   1.647   0.898  10.479  0.6908 -0.1759  0.6810
  365TMC3    H2 5522   1.916   1.139  10.254 -0.2079 -0.3491 -0.5636
  365TMC3    C7 5523   1.709   1.156  10.414 -0.0399 -0.4722  0.1796
  365TMC3    C8 5524   2.080   0.939  10.228  0.2651 -0.6830  0.2497
  365TMC3    O1 5525   1.704   1.258  10.347  0.1238  0.6315 -0.0473
  365TMC3    O2 5526   2.141   1.034  10.274  0.4988 -0.0242 -0.1106
  366MPD2     C 5527   4.320   1.972  15.572  0.1802  0.5769  0.0110
  366MPD2    C1 5528   4.376   1.991  15.441  0.2700  0.7739 -0.2053
  366MPD2    C2 5529   4.361   1.892  15.346 -0.6163  0.4587 -0.2194
  366MPD2    C3 5530   4.309   1.770  15.385 -0.3977  0.3688  0.6001
  366MPD2    C4 5531   4.254   1.751  15.507 -0.2271 -0.3604 -1.0972
  366MPD2    C5 5532   4.251   1.856  15.595 -0.7270 -0.1581  0.0230
  366MPD2     H 5533   4.389   1.900  15.242 -0.0535 -0.3353 -0.1316
  366MPD2    H1 5534   4.214   1.657  15.541 -0.2550  0.2976  0.6929
  366MPD2    H2 5535   4.323   2.049  15.649  0.1728  0.6419 -0.0532
  366MPD2    H3 5536   4.222   1.838  15.698  0.3067  3.2897  0.9063
  366MPD2     N 5537   4.328   1.659  15.297  0.3727 -0.3014 -0.5014
  366MPD2    H5 5538   4.377   1.684  15.212 -0.0452 -2.0848 -1.2718
  366MPD2    N1 5539   4.455   2.100  15.403 -0.0956 -0.1091 -0.3600
  366MPD2    H7 5540   4.489   2.101  15.307  1.1449  2.7737  0.1080
  367TMC3    C1 5541   4.607   2.275  15.427  0.4058 -0.8201 -0.3892
  367TMC3    C2 5542   4.703   2.311  15.518 -0.1582  0.2980 -0.8414
  367TMC3    C3 5543   0.045   2.417  15.494 -0.8939 -0.2663  0.1356
  367TMC3    C4 5544   4.579   2.352  15.318  0.2945 -0.2989  0.1144
  367TMC3    C5 5545   4.646   2.469  15.310  0.4021 -0.8260 -0.6392
  367TMC3    C6 5546   0.020   2.494  15.384  0.5827 -0.4048  0.0837
  367TMC3     C 5547   4.497   2.202  15.488 -0.1475 -0.5136  1.1033
  367TMC3     O 5548   4.489   2.210  15.608 -0.3260 -0.3231  0.2526
  367TMC3     H 5549   4.716   2.251  15.607  1.3693  1.6320 -0.1500
  367TMC3    H1 5550   4.481   2.339  15.275 -0.4803 -1.4429  2.2152
  367TMC3    H2 5551   0.088   2.577  15.367  1.1714 -0.6949  1.0218
  367TMC3    C7 5552   4.612   2.557  15.197  0.7180  0.1660  0.2890
  367TMC3    C8 5553   0.141   2.447  15.601 -0.5907 -0.2038 -0.1029
  367TMC3    O1 5554   4.532   2.516  15.115 -0.1290 -0.1957  0.3842
  367TMC3    O2 5555   0.172   2.354  15.678  0.3207 -0.1158  0.3981
  368MPD2     C 5556   1.558   2.830  13.159 -0.2142 -0.1808 -0.1904
  368MPD2    C1 5557   1.550   2.954  13.101  0.5425  0.1817 -0.7537
  368MPD2    C2 5558   1.624   2.983  12.989  0.6310  0.1897 -0.2939
  368MPD2    C3 5559   1.718   2.888  12.947 -0.4767  0.3425  0.5690
  368MPD2    C4 5560   1.732   2.776  13.018  0.0586 -0.0309  0.1671
  368MPD2    C5 5561   1.652   2.735  13.121  0.1457  0.0405 -0.8681
  368MPD2     H 5562   1.611   3.081  12.943 -0.9751  0.0182 -0.1981
  368MPD2    H1 5563   1.816   2.710  13.001 -0.8642 -0.8723 -1.1215
  368MPD2    H2 5564   1.507   2.805  13.251  1.2729  0.7918  0.8939
  368MPD2    H3 5565   1.666   2.643  13.177 -0.8067  0.4437  0.0231
  368MPD2     N 5566   1.809   2.907  12.844  0.3980 -0.6529  0.3735
  368MPD2    H5 5567   1.870   2.832  12.812 -1.2451 -1.4611 -0.8539
  368MPD2    N1 5568   1.463   3.044  13.150 -0.4835  0.3970 -0.7997
  368MPD2    H7 5569   1.401   3.017  13.225 -0.0008  0.3461 -0.4206
  369TMC3    C1 5570   1.336   3.241  13.146 -0.3074  0.2133  0.1529
  369TMC3    C2 5571   1.349   3.377  13.139  0.2585  0.2873  0.1910
  369TMC3    C3 5572   1.246   3.445  13.074 -0.1575  0.1033  0.6132
  369TMC3    C4 5573   1.213   3.176  13.115  0.9512 -0.2684  0.2179
  369TMC3    C5 5574   1.118   3.252  13.061 -0.5871  0.1325 -0.2569
  369TMC3    C6 5575   1.130   3.385  13.029  0.1752 -0.3819  0.0089
  369TMC3     C 5576   1.455   3.174  13.108  0.1815  0.1632  0.6470
  369TMC3     O 5577   1.535   3.252  13.064  0.4493  0.6960  0.2834
  369TMC3     H 5578   1.432   3.426  13.188 -0.1459  0.0632  1.0967
  369TMC3    H1 5579   1.208   3.067  13.111 -0.7519 -0.1763 -0.2671
  369TMC3    H2 5580   1.053   3.444  12.980  0.2670 -0.6868 -0.5058
  369TMC3    C7 5581   0.990   3.185  13.076  0.2356 -0.1867 -0.4039
  369TMC3    C8 5582   1.249   3.586  13.048 -0.8175 -0.1806  0.4657
  369TMC3    O1 5583   0.993   3.093  13.158 -0.1320  0.0911  0.2136
  369TMC3    O2 5584   1.150   3.651  13.026 -0.5834 -0.0313  0.1413
  370TMC3    C1 5585   0.564   4.699  16.569  0.0344 -0.1677  0.0594
  370TMC3    C2 5586   0.533   4.619  16.675  0.7032 -0.3265  0.0129
  370TMC3    C3 5587   0.470   4.498  16.651 -0.1126 -0.0871  0.0371
  370TMC3    C4 5588   0.532   4.661  16.439 -0.3346 -0.9035  0.0256
  370TMC3    C5 5589   0.484   4.531  16.423 -0.0113  0.0906 -0.1099
  370TMC3    C6 5590   0.451   4.452  16.525  0.4011  0.3404 -1.1517
  370TMC3     C 5591   0.679   0.060  16.580 -0.0571 -0.7597  0.5420
  370TMC3     O 5592   0.744   0.050  16.681 -0.2080  0.4944 -0.0228
  370TMC3     H 5593   0.564   4.654  16.773  0.1694 -3.6804  1.4109
  370TMC3    H1 5594   0.551   4.710  16.345 -1.5327 -2.0303 -0.7994
  370TMC3    H2 5595   0.410   4.353  16.507  1.9989 -0.3227 -1.1686
  370TMC3    C7 5596   0.495   4.476  16.289 -0.2828  0.0979 -0.4287
  370TMC3    C8 5597   0.429   4.404  16.753 -0.7613 -0.3089  0.2785
  370TMC3    O1 5598   0.478   4.551  16.188 -0.2308 -0.4390 -0.3862
  370TMC3    O2 5599   0.419   4.288  16.723  0.0665  0.1941  0.1711
  371TMC3    C1 5600   2.016   3.221  15.640 -0.4757  0.4387  0.1404
  371TMC3    C2 5601   1.956   3.210  15.758 -0.1840 -0.5286 -0.1063
  371TMC3    C3 5602   1.887   3.317  15.808 -0.8438 -0.4818 -0.0903
  371TMC3    C4 5603   2.006   3.336  15.565  0.2697 -0.9003 -0.5987
  371TMC3    C5 5604   1.940   3.440  15.619 -0.0143  0.3320  0.1483
  371TMC3    C6 5605   1.870   3.429  15.738 -1.1822 -0.3099 -0.2080
  371TMC3     C 5606   2.058   3.100  15.571  0.1445 -0.3187  0.9077
  371TMC3     O 5607   2.083   3.110  15.451 -0.4559 -0.0817  0.3450
  371TMC3     H 5608   1.967   3.123  15.822  1.1843 -0.7618 -0.6512
  371TMC3    H1 5609   2.063   3.344  15.473 -0.3835  1.0424 -0.8361
  371TMC3    H2 5610   1.805   3.512  15.763 -1.9558 -0.7741 -0.6920
  371TMC3    C7 5611   1.947   3.576  15.565 -0.1425 -0.2315  0.4425
  371TMC3    C8 5612   1.841   3.310  15.942  0.4495  0.4674  0.5450
  371TMC3    O1 5613   1.848   3.647  15.587 -0.3782  0.2833  0.4386
  371TMC3    O2 5614   1.887   3.215  16.008 -0.2608  0.2085 -0.3797
  372MPD2     C 5615   2.011   3.964  13.111 -0.4693  0.4763  0.2975
  372MPD2    C1 5616   1.932   4.009  13.216 -0.5767  0.4915  0.5370
  372MPD2    C2 5617   1.935   3.932  13.328  0.1228 -0.4991  0.8497
  372MPD2    C3 5618   2.005   3.811  13.341 -0.0417  0.3901  0.8178
  372MPD2    C4 5619   2.053   3.757  13.227 -0.1142  0.3938  0.2767
  372MPD2    C5 5620   2.069   3.842  13.123  0.3791 -0.5824  0.6925
  372MPD2     H 5621   1.881   3.960  13.417  0.7480  1.4663  0.6151
  372MPD2    H1 5622   2.097   3.658  13.219  0.8000  0.9169 -1.2225
  372MPD2    H2 5623   2.027   4.012  13.015  1.8764 -1.1582 -0.1345
  372MPD2    H3 5624   2.124   3.799  13.040 -0.1020 -0.2259  0.1834
  372MPD2     N 5625   2.017   3.745  13.465  0.2955 -0.4568 -0.0286
  372MPD2    H5 5626   1.984   3.796  13.546 -1.4662  0.9437 -1.6497
  372MPD2    N1 5627   1.855   4.127  13.219 -0.1632 -0.4518  0.2396
  372MPD2    H7 5628   1.799   4.145  13.302 -0.4992  2.2272 -0.5629
  373TMC3    C1 5629   2.064   3.576  13.628 -0.2345 -0.3730 -0.6257
  373TMC3    C2 5630   2.060   3.667  13.724  0.1685  0.0041 -0.0414
  373TMC3    C3 5631   2.082   3.634  13.854 -0.8263  0.3775 -0.2684
  373TMC3    C4 5632   2.112   3.450  13.658  0.2561 -0.2843  0.8041
  373TMC3    C5 5633   2.131   3.414  13.791  0.0268  0.7497 -0.2275
  373TMC3    C6 5634   2.117   3.508  13.889 -0.0554 -0.3292 -0.1175
  373TMC3     C 5635   2.076   3.620  13.483  0.1172  0.2889  0.7033
  373TMC3     O 5636   2.102   3.533  13.401 -0.2725  0.2308  0.5666
  373TMC3     H 5637   2.049   3.773  13.704 -1.6959 -0.5310 -1.8751
  373TMC3    H1 5638   2.129   3.376  13.580  0.5067  2.2644 -1.5695
  373TMC3    H2 5639   2.151   3.483  13.989 -1.5219 -1.9801 -0.0373
  373TMC3    C7 5640   2.190   3.284  13.826  0.5609 -0.5426 -0.1118
  373TMC3    C8 5641   2.097   3.742  13.940  0.4177 -0.0662 -0.0130
  373TMC3    O1 5642   2.259   3.231  13.742 -0.5946 -0.2608  0.5004
  373TMC3    O2 5643   2.054   3.845  13.904  0.1209 -0.2089  0.6104
  374TMC3    C1 5644   1.737   4.255   9.899 -0.5611 -0.6647  0.4170
  374TMC3    C2 5645   1.841   4.346   9.908 -0.3488 -0.0325  0.1638
  374TMC3    C3 5646   1.802   4.476   9.905  0.5344 -0.2856 -0.1094
  374TMC3    C4 5647   1.607   4.288   9.890  0.2620  0.5535  0.6105
  374TMC3    C5 5648   1.578   4.418   9.885 -0.2123  0.1291  0.0222
  374TMC3    C6 5649   1.674   4.514   9.896  0.4099  0.1579 -0.5947
  374TMC3     C 5650   1.768   4.116   9.904 -0.4965 -0.7068 -0.0731
  374TMC3     O 5651   1.698   4.045   9.973 -0.4847 -0.2923  0.1054
  374TMC3     H 5652   1.944   4.323   9.930 -1.3039 -0.6516  3.8834
  374TMC3    H1 5653   1.532   4.211   9.877  0.2362  0.4817  1.2023
  374TMC3    H2 5654   1.658   4.618   9.921 -0.1136 -0.1254  0.2615
  374TMC3    C7 5655   1.439   4.469   9.888  0.1255  0.3664  0.1588
  374TMC3    C8 5656   1.901   4.583   9.937  0.5613  0.0232 -0.3774
  374TMC3    O1 5657   1.423   4.589   9.868  0.4437 -0.2296  0.1639
  374TMC3    O2 5658   1.877   4.689   9.883  0.0448 -0.1661 -0.0321
  375MPD2     C 5659   1.884   4.611  17.541  0.4976  0.7901  0.0592
  375MPD2    C1 5660   1.855   4.686  17.427  0.0331  0.3276 -0.0893
  375MPD2    C2 5661   1.932   4.679  17.312 -0.2874  0.2446 -0.0491
  375MPD2    C3 5662   2.037   4.591  17.317 -0.3068  0.7729  0.1412
  375MPD2    C4 5663   2.069   4.523  17.437  0.9200 -0.2718  0.3658
  375MPD2    C5 5664   1.996   4.535  17.551 -0.3752  0.6886 -0.3533
  375MPD2     H 5665   1.903   0.002  17.226 -2.3079 -1.1053 -0.2909
  375MPD2    H1 5666   2.163   4.472  17.454  1.3893 -0.5569 -3.0608
  375MPD2    H2 5667   1.821   4.604  17.628 -0.3592 -1.0738 -0.7028
  375MPD2    H3 5668   2.015   4.501  17.652 -2.6208 -0.1714 -0.2060
  375MPD2     N 5669   2.130   4.579  17.211  0.0740 -0.0393 -1.1930
  375MPD2    H5 5670   2.210   4.520  17.227 -1.9336 -2.1451  1.0273
  375MPD2    N1 5671   1.763   0.052  17.441 -0.0513 -0.6838  0.4452
  375MPD2    H7 5672   1.764   0.121  17.367  0.5759  0.0577  1.1319
  376TMC3    C1 5673   2.231   4.620  16.993 -0.2846 -0.3868 -0.0168
  376TMC3    C2 5674   2.356   4.598  17.037 -0.6956 -0.5210 -0.3634
  376TMC3    C3 5675   2.457   4.602  16.944  0.1399  0.4066 -0.7437
  376TMC3    C4 5676   2.200   4.645  16.863 -0.0587 -0.5082 -0.7101
  376TMC3    C5 5677   2.307   4.627  16.776 -0.0255 -0.4927  1.3017
  376TMC3    C6 5678   2.430   4.609  16.817 -0.2887  0.3074  0.0490
  376TMC3     C 5679   2.114   4.634  17.083  0.0264 -0.7502  0.1499
  376TMC3     O 5680   2.014   4.680  17.036  0.2046 -0.5341 -0.1178
  376TMC3     H 5681   2.374   4.589  17.143  2.3249  0.3758 -0.8012
  376TMC3    H1 5682   2.099   4.646  16.825 -0.5190  2.8906  0.6811
  376TMC3    H2 5683   2.504   4.610  16.737  1.2739 -1.9797  1.4793
  376TMC3    C7 5684   2.276   4.622  16.638  0.1900  0.8094  0.6451
  376TMC3    C8 5685   2.589   4.563  16.991 -0.0242  0.3018 -0.5083
  376TMC3    O1 5686   2.176   4.683  16.605 -0.2172 -0.4338 -0.2797
  376TMC3    O2 5687   2.600   4.482  17.083  0.0501  0.1106 -0.0330
  377MPD2     C 5688   0.344   3.416  12.686  0.1276 -0.0029  0.5483
  377MPD2    C1 5689   0.296   3.495  12.586 -0.2104 -0.1851  0.0815
  377MPD2    C2 5690   0.168   3.539  12.603  0.7831 -0.3467  0.3385
  377MPD2    C3 5691   0.093   3.511  12.715 -0.7969  0.2761  0.1027
  377MPD2    C4 5692   0.145   3.420  12.803 -0.8105  0.2817 -0.3432
  377MPD2    C5 5693   0.267   3.373  12.787  0.3831  0.2736  0.3991
  377MPD2     H 5694   0.120   3.596  12.525 -1.6389 -3.2101 -0.2763
  377MPD2    H1 5695   0.092   3.387  12.892  1.0656 -0.0982  0.6308
  377MPD2    H2 5696   0.450   3.391  12.694 -0.4354 -3.2056 -1.8312
  377MPD2    H3 5697   0.310   3.305  12.860 -0.7739 -1.0709 -0.1699
  377MPD2     N 5698   4.695   3.559  12.733 -0.4820  0.4148 -0.3788
  377MPD2    H5 5699   4.655   3.534  12.822 -2.8304  1.1604 -1.2178
  377MPD2    N1 5700   0.380   3.521  12.474  0.1165  0.0562 -0.3516
  377MPD2    H7 5701   0.473   3.480  12.484 -0.7440 -1.2751  2.3162
  378TMC3    C1 5702   0.530   3.850  12.174 -0.2871 -0.0970 -0.4681
  378TMC3    C2 5703   0.445   3.750  12.207 -1.1572  0.1624 -0.4095
  378TMC3    C3 5704   0.474   3.670  12.311 -0.1936 -0.2470  0.3762
  378TMC3    C4 5705   0.638   3.879  12.247 -0.0325 -0.2894  0.7850
  378TMC3    C5 5706   0.658   3.799  12.363  0.2399 -0.2000  0.9925
  378TMC3    C6 5707   0.578   3.697  12.393  0.3073  0.2293 -0.5334
  378TMC3     C 5708   0.455   3.959  12.113 -0.9196  0.1868 -0.4158
  378TMC3     O 5709   0.337   3.975  12.145  0.3770 -1.0229 -0.0551
  378TMC3     H 5710   0.357   3.737  12.146 -0.6464 -1.5565 -0.7922
  378TMC3    H1 5711   0.704   3.958  12.213 -1.6661  0.7454  0.0286
  378TMC3    H2 5712   0.603   3.636  12.478 -1.8177 -0.3722 -0.3219
  378TMC3    C7 5713   0.788   3.799  12.417 -0.1348 -0.3524 -0.2269
  378TMC3    C8 5714   0.354   3.620  12.384  0.1722  0.4451  0.7500
  378TMC3    O1 5715   0.822   3.713  12.496 -0.1393  0.0925 -0.0083
  378TMC3    O2 5716   0.257   3.687  12.354  0.7592 -0.0334 -0.3927
  379MPD2     C 5717   1.102   2.664  16.460 -0.8086  0.4315  0.4117
  379MPD2    C1 5718   1.032   2.555  16.507 -0.7499 -0.4407  0.1662
  379MPD2    C2 5719   1.091   2.487  16.610  0.2139 -0.1206 -0.2433
  379MPD2    C3 5720   1.213   2.516  16.671  0.3653 -0.1030 -0.3126
  379MPD2    C4 5721   1.281   2.625  16.621  0.0168  0.1129 -0.1229
  379MPD2    C5 5722   1.227   2.696  16.518 -0.1400 -0.0992  0.7745
  379MPD2     H 5723   1.047   2.393  16.641  0.4176  0.1221  0.7957
  379MPD2    H1 5724   1.381   2.655  16.650  0.3261  0.8540 -1.9822
  379MPD2    H2 5725   1.056   2.722  16.380 -1.1145 -1.7906 -1.0261
  379MPD2    H3 5726   1.282   2.780  16.477  0.5827 -0.6875  0.5515
  379MPD2     N 5727   1.265   2.439  16.778  0.2737 -0.1859 -0.0091
  379MPD2    H5 5728   1.364   2.444  16.802  0.1721  0.6433  0.2226
  379MPD2    N1 5729   0.916   2.517  16.438 -0.4544  0.4766  0.7133
  379MPD2    H7 5730   0.904   2.552  16.343  0.3957 -0.2314  0.3393
  380TMC3    C1 5731   0.728   2.384  16.380  0.2648 -0.4993 -0.0108
  380TMC3    C2 5732   0.708   2.248  16.357 -0.5919  0.1541  0.0446
  380TMC3    C3 5733   0.616   2.215  16.264 -0.0615 -0.5085  0.6066
  380TMC3    C4 5734   0.667   2.482  16.311 -0.0902  0.0433 -0.5979
  380TMC3    C5 5735   0.561   2.446  16.223 -0.3059  0.1371 -0.7573
  380TMC3    C6 5736   0.532   2.313  16.201  0.5148 -0.3001  0.1846
  380TMC3     C 5737   0.832   2.411  16.476 -0.6285  0.2210 -0.0980
  380TMC3     O 5738   0.839   2.331  16.571  0.1790 -0.3843  0.1464
  380TMC3     H 5739   0.762   2.172  16.411 -0.7045  0.4665  0.5938
  380TMC3    H1 5740   0.704   2.583  16.309  0.6028 -0.1856  0.6546
  380TMC3    H2 5741   0.455   2.279  16.133  0.0258 -1.1593  1.1620
  380TMC3    C7 5742   0.525   2.542  16.121 -0.1125 -0.9229  0.8009
  380TMC3    C8 5743   0.581   2.075  16.269  0.0910 -0.0259 -0.0478
  380TMC3    O1 5744   0.596   2.644  16.120  0.1202 -0.4446  0.0726
  380TMC3    O2 5745   0.597   2.023  16.380 -0.0832  0.6780 -0.2328
  381TMC3    C1 5746   0.529   3.702  16.488  0.0266  0.1068 -0.3210
  381TMC3    C2 5747   0.609   3.812  16.469  0.6344  0.1025  0.1444
  381TMC3    C3 5748   0.611   3.889  16.585 -0.4196 -0.1954 -0.1009
  381TMC3    C4 5749   0.481   3.659  16.607  1.3265  0.4920 -0.7298
  381TMC3    C5 5750   0.496   3.740  16.716 -0.3279 -0.0486  0.4835
  381TMC3    C6 5751   0.559   3.858  16.707 -0.2943 -0.0619  0.3831
  381TMC3     C 5752   0.530   3.598  16.381 -0.1210 -0.1988  0.3361
  381TMC3     O 5753   0.492   3.483  16.412 -0.1816  0.2336 -0.0575
  381TMC3     H 5754   0.621   3.860  16.372  2.1362 -2.0923 -0.7697
  381TMC3    H1 5755   0.421   3.569  16.613  0.4623  1.1805  1.0448
  381TMC3    H2 5756   0.536   3.940  16.775 -1.4453 -1.0606  1.1829
  381TMC3    C7 5757   0.459   3.698  16.851  0.5378 -0.1227 -0.3297
  381TMC3    C8 5758   0.699   4.004  16.553  0.4198 -0.2909 -0.7356
  381TMC3    O1 5759   0.477   3.578  16.870 -0.2645 -0.3983 -0.5019
  381TMC3    O2 5760   0.752   3.992  16.443  0.3302  0.0096 -0.0780
  382MPD2     C 5761   0.144   0.998   0.022 -0.3067  0.5532  0.0430
  382MPD2    C1 5762   0.020   1.052   0.031  0.5939 -0.6905  0.3417
  382MPD2    C2 5763   4.656   0.972   0.014  0.2122  0.1985  0.6698
  382MPD2    C3 5764   4.659   0.843   0.015  0.3063  0.6539  0.0667
  382MPD2    C4 5765   0.047   0.778   0.019  0.0110 -0.3273 -0.5205
  382MPD2    C5 5766   0.156   0.861   0.019  0.0661  0.4511 -0.3799
  382MPD2     H 5767   4.561   1.023   0.015  0.4553  0.6513  0.4597
  382MPD2    H1 5768   0.061   0.670   0.017  3.8654  0.1010  2.7462
  382MPD2    H2 5769   0.232   1.060   0.037 -0.7211  1.1836 -0.1146
  382MPD2    H3 5770   0.256   0.821   0.009 -0.1782 -0.6202  1.3913
  382MPD2     N 5771   4.532   0.780   0.014  0.1209 -0.3451 -0.0236
  382MPD2    H5 5772   4.448   0.837   0.022  1.2427  1.0361  1.9533
  382MPD2    N1 5773   0.009   1.193   0.032  0.2453 -0.4144 -0.4682
  382MPD2    H7 5774   4.652   1.228   0.011  0.9415  2.5276  1.4241
  383TMC3    C1 5775   4.384   0.604   0.004 -0.7445 -0.3238  0.0439
  383TMC3    C2 5776   4.322   0.524  17.654 -0.6077 -0.6851  0.1262
  383TMC3    C3 5777   4.188   0.507  17.677 -0.1943  0.0576  0.4894
  383TMC3    C4 5778   4.328   0.628   0.124 -0.3841 -0.3381 -0.2539
  383TMC3    C5 5779   4.201   0.582   0.150  0.1585 -0.1666  0.5447
  383TMC3    C6 5780   4.122   0.531   0.050 -0.6639 -1.4123 -0.4971
  383TMC3     C 5781   4.513   0.643  17.722 -0.2842  0.3941  0.7044
  383TMC3     O 5782   4.593   0.555  17.698 -0.6711 -0.6197 -0.0997
  383TMC3     H 5783   4.360   0.505  17.554 -0.6712  1.7737 -0.3647
  383TMC3    H1 5784   4.391   0.680   0.195 -1.5677  0.6658  0.0630
  383TMC3    H2 5785   4.027   0.488   0.077 -1.4241  0.2684 -0.5098
  383TMC3    C7 5786   4.167   0.533   0.284  0.3599 -0.2839 -0.7337
  383TMC3    C8 5787   4.103   0.454  17.574 -0.1376 -0.5563 -0.1878
  383TMC3    O1 5788   4.074   0.455   0.299 -0.1661 -0.8655 -0.1949
  383TMC3    O2 5789   3.986   0.473  17.598  0.1958  0.0014  0.1522
  384MPD2     C 5790   0.941   2.255  11.784 -0.3566  0.2111 -0.2127
  384MPD2    C1 5791   1.034   2.314  11.867  0.1321 -0.0696 -0.4119
  384MPD2    C2 5792   1.170   2.317  11.823  0.2860  0.0903  0.0635
  384MPD2    C3 5793   1.207   2.263  11.705  0.5795  0.3014 -0.1539
  384MPD2    C4 5794   1.110   2.209  11.624 -0.3644 -0.2941  0.3579
  384MPD2    C5 5795   0.977   2.205  11.669 -0.6291 -0.1358  0.1244
  384MPD2     H 5796   1.248   2.357  11.886  1.2874 -3.0698  0.8542
  384MPD2    H1 5797   1.141   2.157  11.534 -1.7669  1.1918 -0.9615
  384MPD2    H2 5798   0.835   2.264  11.807 -0.4929 -1.8113 -0.0603
  384MPD2    H3 5799   0.895   2.169  11.609  1.1123 -1.4202 -1.4753
  384MPD2     N 5800   1.348   2.262  11.676  0.2923  0.2126  0.1491
  384MPD2    H5 5801   1.406   2.300  11.750 -2.3227  0.2323  2.2042
  384MPD2    N1 5802   1.003   2.376  11.990 -0.0426 -0.5133 -0.6793
  384MPD2    H7 5803   1.084   2.416  12.037 -0.9650 -1.0617  1.4024
  385TMC3    C1 5804   1.554   2.203  11.582 -0.0506  0.0633  0.2172
  385TMC3    C2 5805   1.614   2.081  11.588 -0.2746  0.8385  0.3261
  385TMC3    C3 5806   1.721   2.074  11.681 -0.5665  0.2542 -0.4039
  385TMC3    C4 5807   1.584   2.311  11.662  0.2275 -0.0630  0.7133
  385TMC3    C5 5808   1.674   2.294  11.761  0.0941  0.5666 -0.2099
  385TMC3    C6 5809   1.745   2.174  11.768  0.4328  0.4429 -0.3481
  385TMC3     C 5810   1.409   2.210  11.566 -0.8551  0.6451 -0.0913
  385TMC3     O 5811   1.364   2.175  11.460  0.8434  0.0893  0.3323
  385TMC3     H 5812   1.575   1.998  11.531  0.9184  1.8844 -2.0088
  385TMC3    H1 5813   1.531   2.404  11.643 -0.7572 -1.1363 -1.8173
  385TMC3    H2 5814   1.824   2.166  11.841  0.0122 -0.0749  0.0560
  385TMC3    C7 5815   1.596   2.312  11.888 -0.4302 -0.5056  0.4491
  385TMC3    C8 5816   1.727   1.949  11.751  0.7007  0.0814  0.5384
  385TMC3    O1 5817   1.510   2.395  11.880 -0.3474  0.4405  0.1300
  385TMC3    O2 5818   1.736   1.947  11.874  0.3506  0.0861 -0.3813
  386TMC3    C1 5819   1.922   4.442  11.917  0.5455 -0.0604  0.1521
  386TMC3    C2 5820   1.906   4.536  11.820  0.3853  0.6037  0.1300
  386TMC3    C3 5821   1.805   4.626  11.831  0.3330  0.1568  1.0253
  386TMC3    C4 5822   1.851   4.446  12.038 -0.4915 -0.0863 -0.4464
  386TMC3    C5 5823   1.757   4.544  12.051  0.3199  0.3951  0.5516
  386TMC3    C6 5824   1.737   4.633  11.946  0.4646  0.2171 -0.6035
  386TMC3     C 5825   2.044   4.374  11.921  0.1723 -0.3859 -0.0923
  386TMC3     O 5826   2.146   4.423  11.869  0.4048 -0.5056 -0.1215
  386TMC3     H 5827   1.968   4.542  11.731  0.6290  2.1245  0.4010
  386TMC3    H1 5828   1.866   4.375  12.118 -2.3949 -0.2807 -0.2622
  386TMC3    H2 5829   1.676   4.721  11.959 -0.5580 -0.3314 -1.6613
  386TMC3    C7 5830   1.639   4.498  12.112 -0.3986 -0.1635 -0.2981
  386TMC3    C8 5831   1.718   4.646  11.718  1.0715  0.2666  0.7715
  386TMC3    O1 5832   1.650   4.425  12.210  0.1041  0.3295  0.3747
  386TMC3    O2 5833   1.605   4.662  11.755 -0.3812  0.1420  0.6440
  387MPD2     C 5834   3.784   4.493  10.052 -0.2103  0.6957  0.8673
  387MPD2    C1 5835   3.922   4.465  10.063  0.4236 -0.3490 -0.5202
  387MPD2    C2 5836   3.956   4.335  10.027  0.1366  0.5485 -0.7379
  387MPD2    C3 5837   3.865   4.237   9.999  0.5598  0.6618 -0.4381
  387MPD2    C4 5838   3.735   4.269   9.982  0.5589  0.0108 -0.2575
  387MPD2    C5 5839   3.695   4.400  10.010 -0.1135 -0.6077  0.9790
  387MPD2     H 5840   4.060   4.304  10.037  0.6212  2.6878  1.0426
  387MPD2    H1 5841   3.656   4.203   9.949  0.8118 -0.6461  0.4389
  387MPD2    H2 5842   3.737   4.588  10.076 -0.6703  1.1771 -2.0200
  387MPD2    H3 5843   3.591   4.431  10.005 -0.3228 -1.1584  1.9621
  387MPD2     N 5844   3.913   4.105   9.999  0.2924  0.3191  0.4115
  387MPD2    H5 5845   4.006   4.103  10.040  1.5454 -0.8690 -2.5356
  387MPD2    N1 5846   4.019   4.549  10.119  0.0924 -0.7889  0.3511
  387MPD2    H7 5847   4.107   4.503  10.137  0.4195 -0.8202 -1.3585
  388TMC3    C1 5848   4.130   4.705  10.257 -0.1505  0.2451 -0.5150
  388TMC3    C2 5849   4.140   0.103  10.305 -0.0102  0.1252  0.0428
  388TMC3    C3 5850   4.226   0.130  10.406 -0.6592 -0.3281  0.0568
  388TMC3    C4 5851   4.221   4.608  10.303 -0.0727  0.5476  0.0880
  388TMC3    C5 5852   4.307   4.644  10.406  0.8693 -0.0266 -0.2100
  388TMC3    C6 5853   4.313   0.036  10.453  0.1487 -0.0493  0.5699
  388TMC3     C 5854   4.015   4.676  10.172 -0.5612 -0.7132 -0.3747
  388TMC3     O 5855   3.928   0.025  10.164 -0.2209  0.1918  0.0450
  388TMC3     H 5856   4.068   0.180  10.280  0.1552  0.1362 -0.4079
  388TMC3    H1 5857   4.218   4.513  10.251 -1.2227 -1.3071  3.4932
  388TMC3    H2 5858   4.390   0.051  10.527  1.3187  0.3667 -0.7386
  388TMC3    C7 5859   4.384   4.540  10.469 -1.3801 -0.2492 -0.3269
  388TMC3    C8 5860   4.239   0.266  10.461  0.4802  0.6348 -0.2096
  388TMC3    O1 5861   4.464   4.557  10.558 -0.5162  0.2778 -0.3476
  388TMC3    O2 5862   4.263   0.263  10.585 -0.4000  0.0118 -0.1693
  389MPD2     C 5863   3.399   2.897  11.332 -0.2600  0.0394 -0.2569
  389MPD2    C1 5864   3.279   2.910  11.259 -0.2875  1.0071  0.5985
  389MPD2    C2 5865   3.166   2.856  11.308  0.5241  0.6199  0.3083
  389MPD2    C3 5866   3.158   2.778  11.423 -0.3586 -0.3338 -0.7356
  389MPD2    C4 5867   3.274   2.745  11.482  0.1660 -0.5351 -0.3778
  389MPD2    C5 5868   3.386   2.811  11.437 -0.1619  0.0399  0.3627
  389MPD2     H 5869   3.069   2.877  11.263  1.1579 -0.1616 -1.4488
  389MPD2    H1 5870   3.282   2.682  11.570  0.1810 -1.0258 -0.7300
  389MPD2    H2 5871   3.492   2.939  11.296 -0.4675 -0.3389 -1.2692
  389MPD2    H3 5872   3.471   2.794  11.502  0.7021  0.4687 -0.6615
  389MPD2     N 5873   3.032   2.725  11.469 -0.1079  0.4608 -0.0994
  389MPD2    H5 5874   3.037   2.686  11.562 -0.6907 -0.1926 -0.3412
  389MPD2    N1 5875   3.278   2.996  11.139 -0.2713 -0.7666 -0.1863
  389MPD2    H7 5876   3.368   3.033  11.109 -0.9460 -0.2314 -1.5536
  390TMC3    C1 5877   2.808   2.654  11.460 -0.1196  0.3012 -0.4583
  390TMC3    C2 5878   2.752   2.534  11.432  0.2227  0.1719 -0.2511
  390TMC3    C3 5879   2.651   2.477  11.504  0.0478  0.4101 -0.6247
  390TMC3    C4 5880   2.777   2.715  11.582  0.3962  0.4704  0.0056
  390TMC3    C5 5881   2.682   2.662  11.661 -0.5583 -0.4796  0.2718
  390TMC3    C6 5882   2.619   2.534  11.626 -0.4189 -0.8819  0.0085
  390TMC3     C 5883   2.922   2.709  11.390  0.4918 -0.4975  0.8157
  390TMC3     O 5884   2.904   2.709  11.269  0.2746 -0.2244  0.3220
  390TMC3     H 5885   2.774   2.497  11.333 -2.0955 -0.1380 -0.6416
  390TMC3    H1 5886   2.827   2.807  11.612  2.4832 -0.5591 -0.3491
  390TMC3    H2 5887   2.559   2.476  11.695  0.8960 -3.0203 -0.6686
  390TMC3    C7 5888   2.695   2.688  11.805 -0.2455  0.8945  0.8079
  390TMC3    C8 5889   2.572   2.374  11.444 -0.8164 -0.1938  0.3855
  390TMC3    O1 5890   2.760   2.785  11.841 -0.2390 -0.0040  0.4569
  390TMC3    O2 5891   2.603   2.309  11.347 -0.2767  0.5843  0.8506
  391MPD2     C 5892   2.647   4.392  11.339 -0.0932  0.5714 -1.5848
  391MPD2    C1 5893   2.746   4.444  11.252 -0.0463 -0.1705 -0.7107
  391MPD2    C2 5894   2.724   4.447  11.109  0.3249 -0.1782 -0.4819
  391MPD2    C3 5895   2.607   4.387  11.060 -0.1574 -0.5098 -0.0818
  391MPD2    C4 5896   2.508   4.335  11.147 -0.2259  0.0255 -0.7965
  391MPD2    C5 5897   2.535   4.332  11.284 -0.1562  0.0235  0.1120
  391MPD2     H 5898   2.784   4.505  11.040 -0.3568  1.4748  0.3172
  391MPD2    H1 5899   2.422   4.287  11.102  0.3276 -2.1347  0.4464
  391MPD2    H2 5900   2.655   4.396  11.447 -0.3105  1.0004 -1.5843
  391MPD2    H3 5901   2.468   4.284  11.355  0.9575  2.9337  3.1207
  391MPD2     N 5902   2.606   4.383  10.917 -0.5653  0.3189 -0.0014
  391MPD2    H5 5903   2.693   4.413  10.875 -0.6454  0.2330 -0.2262
  391MPD2    N1 5904   2.864   4.497  11.314  1.0284 -0.4926 -0.1562
  391MPD2    H7 5905   2.864   4.496  11.415  0.6680 -0.3325 -0.1560
  392TMC3    C1 5906   2.530   4.399  10.705  0.6884 -0.2582  0.1040
  392TMC3    C2 5907   2.423   4.404  10.623  0.7755 -0.4195  0.7877
  392TMC3    C3 5908   2.452   4.449  10.494 -0.1739 -0.1033 -0.3315
  392TMC3    C4 5909   2.655   4.432  10.665 -0.7810 -0.0065  0.4147
  392TMC3    C5 5910   2.687   4.455  10.536 -0.2870  0.0323 -0.3254
  392TMC3    C6 5911   2.582   4.479  10.447 -0.3228  0.7746  0.1324
  392TMC3     C 5912   2.500   4.365  10.839 -0.5619 -0.4756 -0.1049
  392TMC3     O 5913   2.390   4.338  10.883  0.5412  0.4813  0.0509
  392TMC3     H 5914   2.326   4.396  10.669  0.3990 -0.2456  0.0215
  392TMC3    H1 5915   2.741   4.417  10.729 -1.0978 -0.6936  0.6773
  392TMC3    H2 5916   2.600   4.495  10.342 -1.0772 -0.3500 -0.1597
  392TMC3    C7 5917   2.801   4.536  10.512  0.1344 -0.0934  0.2088
  392TMC3    C8 5918   2.344   4.484  10.403 -0.0911 -0.0378  0.0003
  392TMC3    O1 5919   2.858   4.577  10.605  0.4501  0.2823  0.0738
  392TMC3    O2 5920   2.247   4.411  10.412  0.9050  0.9993  0.6862
  393TMC3    C1 5921   1.464   2.361  10.882  0.5614  0.4238 -0.6347
  393TMC3    C2 5922   1.345   2.286  10.858  0.3060 -0.9686 -0.2029
  393TMC3    C3 5923   1.364   2.187  10.770 -0.1458 -0.0602  0.5047
  393TMC3    C4 5924   1.592   2.332  10.839  0.6806 -0.5606 -0.3277
  393TMC3    C5 5925   1.594   2.222  10.757 -0.2218 -0.0566 -0.7466
  393TMC3    C6 5926   1.487   2.139  10.732 -0.2848 -0.3422 -0.6425
  393TMC3     C 5927   1.435   2.488  10.941 -0.2069  0.3061 -0.1174
  393TMC3     O 5928   1.332   2.520  10.996 -0.3093  0.3793  0.7591
  393TMC3     H 5929   1.253   2.321  10.902 -0.1044 -1.2026 -0.8654
  393TMC3    H1 5930   1.677   2.379  10.887 -0.9422  1.8749  0.2324
  393TMC3    H2 5931   1.496   2.081  10.640 -1.4612 -1.5572  0.0190
  393TMC3    C7 5932   1.714   2.176  10.693  0.0209 -0.6804 -0.1629
  393TMC3    C8 5933   1.254   2.107  10.730  0.6408 -0.3104  1.2552
  393TMC3    O1 5934   1.715   2.063  10.648  0.2254  0.4291  0.2419
  393TMC3    O2 5935   1.269   2.010  10.661 -0.0543  0.2071 -0.3428
  394TMC3    C1 5936   3.217   3.081  10.932  0.4757  0.5983  0.2120
  394TMC3    C2 5937   3.127   3.071  10.831  0.0778  0.5598 -0.4828
  394TMC3    C3 5938   3.171   3.065  10.698 -0.2878 -0.7082 -0.8787
  394TMC3    C4 5939   3.352   3.085  10.906  0.3408  0.1555 -0.7507
  394TMC3    C5 5940   3.390   3.082  10.779 -0.7215  0.6859  0.1554
  394TMC3    C6 5941   3.302   3.067  10.676 -0.2092  0.3577 -0.0262
  394TMC3     C 5942   3.175   3.021  11.057 -0.0635  0.3142 -0.2634
  394TMC3     O 5943   3.058   2.988  11.055  0.6089 -0.2564  0.4910
  394TMC3     H 5944   3.021   3.064  10.853 -0.1425  1.3505 -1.3051
  394TMC3    H1 5945   3.422   3.100  10.988 -0.2230  0.2259 -0.2822
  394TMC3    H2 5946   3.334   3.079  10.573  1.1492  0.2761  0.3889
  394TMC3    C7 5947   3.535   3.095  10.754  0.4426  0.0567 -0.0495
  394TMC3    C8 5948   3.078   3.000  10.608  0.0556 -0.1924 -0.9824
  394TMC3    O1 5949   3.570   3.169  10.670 -0.2686 -0.1389  0.4590
  394TMC3    O2 5950   2.958   3.021  10.630 -0.0110  0.3966 -0.0748
  395TMC3    C1 5951   3.084   4.702  15.296  0.6040  0.2259 -0.4711
  395TMC3    C2 5952   3.147   4.600  15.234  0.1803 -0.1497 -0.3527
  395TMC3    C3 5953   3.179   4.616  15.100 -0.3706  0.5345 -0.0564
  395TMC3    C4 5954   3.044   0.078  15.224 -0.2585  0.2174  0.2273
  395TMC3    C5 5955   3.082   0.091  15.091 -0.0330  0.8142 -0.0458
  395TMC3    C6 5956   3.151   4.726  15.026  0.4639 -0.4821 -0.1278
  395TMC3     C 5957   3.005   4.678  15.419 -0.3855  0.5177 -0.0561
  395TMC3     O 5958   2.961   0.042  15.477  0.0059  0.0917 -0.1255
  395TMC3     H 5959   3.191   4.521  15.295 -0.0889  0.6003  0.8163
  395TMC3    H1 5960   2.987   0.160  15.265  0.2742  0.8694 -0.3348
  395TMC3    H2 5961   3.173   4.734  14.920  0.7356 -0.4156 -0.0654
  395TMC3    C7 5962   3.079   0.229  15.044  0.1606  0.9822  0.2512
  395TMC3    C8 5963   3.215   4.493  15.038  0.1223  0.0316 -0.2430
  395TMC3    O1 5964   3.063   0.307  15.134 -0.3270  0.4457  0.5983
  395TMC3    O2 5965   3.248   4.402  15.117 -0.1460  0.2039 -0.1244
  396MPD2     C 5966   2.475   0.485  17.310 -0.4559 -0.5221  0.5615
  396MPD2    C1 5967   2.577   0.546  17.380  0.6544 -0.0090 -0.0002
  396MPD2    C2 5968   2.663   0.646  17.324 -0.9703 -1.0492 -0.4836
  396MPD2    C3 5969   2.643   0.685  17.197  0.5591 -0.3411  0.6090
  396MPD2    C4 5970   2.535   0.637  17.128 -0.1827 -0.4180  0.3702
  396MPD2    C5 5971   2.458   0.540  17.185 -0.4775 -1.0126 -0.1171
  396MPD2     H 5972   2.757   0.670  17.373 -1.3340 -2.1923  0.7638
  396MPD2    H1 5973   2.510   0.673  17.029  0.6429  1.5276  0.8479
  396MPD2    H2 5974   2.422   0.395  17.338  0.8239 -2.4095 -3.0562
  396MPD2    H3 5975   2.370   0.515  17.127 -1.1239  2.9144 -0.8075
  396MPD2     N 5976   2.738   0.778  17.142  0.1133 -0.5493 -0.8562
  396MPD2    H5 5977   2.815   0.803  17.203  1.7669 -5.2940 -1.0279
  396MPD2    N1 5978   2.606   0.491  17.506 -0.1473 -0.0735 -0.3887
  396MPD2    H7 5979   2.566   0.401  17.530 -1.4548  0.0081 -2.2351
  397TMC3    C1 5980   2.722   0.436  17.710  0.0123  0.1259  0.2181
  397TMC3    C2 5981   2.851   0.408  17.680  0.1596 -0.3082 -0.1970
  397TMC3    C3 5982   2.885   0.282  17.647  0.0257  0.5934  0.2479
  397TMC3    C4 5983   2.636   0.329  17.732 -0.0672  0.1102 -0.1328
  397TMC3    C5 5984   2.686   0.205  17.737 -0.3531  0.3136  0.2480
  397TMC3    C6 5985   2.805   0.179  17.679  0.5016 -0.9085 -0.0767
  397TMC3     C 5986   2.695   0.538  17.609 -0.6024  0.3232 -0.3897
  397TMC3     O 5987   2.760   0.637  17.606 -0.6412  0.4891  0.0166
  397TMC3     H 5988   2.908   0.490  17.638 -0.1678  0.2153  0.3807
  397TMC3    H1 5989   2.531   0.350   0.008 -0.0628  0.9920 -1.1426
  397TMC3    H2 5990   2.830   0.082  17.638  0.8414 -1.3500  1.1792
  397TMC3    C7 5991   2.630   0.120   0.091  0.1182 -0.9608  0.1278
  397TMC3    C8 5992   2.962   0.262  17.528 -1.0253  0.1656  0.0816
  397TMC3    O1 5993   2.654   4.734   0.088  0.3543  0.2646 -0.0241
  397TMC3    O2 5994   2.905   0.194  17.444 -0.2820 -0.2814  0.2631
  398MPD2     C 5995   0.685   2.425   0.472 -0.0678  0.8395  0.2880
  398MPD2    C1 5996   0.789   2.390   0.560 -0.0902  0.1286 -0.2132
  398MPD2    C2 5997   0.862   2.491   0.621  0.2088  0.0491 -0.0318
  398MPD2    C3 5998   0.839   2.621   0.606  1.1405 -0.7196  0.3550
  398MPD2    C4 5999   0.734   2.656   0.517  0.6343  0.6379  0.1085
  398MPD2    C5 6000   0.658   2.558   0.459 -0.0316 -0.6003 -0.3124
  398MPD2     H 6001   0.947   2.466   0.684 -0.2341 -0.1655  0.4831
  398MPD2    H1 6002   0.696   2.756   0.499  1.7226  1.3536  1.7994
  398MPD2    H2 6003   0.614   2.359   0.423  0.7091 -0.3845  0.7925
  398MPD2    H3 6004   0.569   2.582   0.400 -1.1373  0.7979  1.9299
  398MPD2     N 6005   0.924   2.712   0.687  0.0914 -0.0681 -0.3668
  398MPD2    H5 6006   1.007   2.667   0.725 -0.6770 -0.0131  1.3332
  398MPD2    N1 6007   0.808   2.256   0.598  0.6418 -0.0991 -0.0026
  398MPD2    H7 6008   0.864   2.243   0.681 -0.1477  3.5028  1.0914
  399TMC3    C1 6009   0.810   2.022   0.578 -0.0990  0.6546 -0.3146
  399TMC3    C2 6010   0.925   2.020   0.653 -0.6496 -0.8298  0.2817
  399TMC3    C3 6011   0.951   1.904   0.720 -0.7565  0.3983 -0.1698
  399TMC3    C4 6012   0.730   1.913   0.559  0.4123 -0.2124 -0.8030
  399TMC3    C5 6013   0.761   1.802   0.632  0.6103  0.6282 -0.3701
  399TMC3    C6 6014   0.866   1.796   0.721  0.3633 -0.1909  0.1445
  399TMC3     C 6015   0.768   2.144   0.524 -0.0517  0.4181 -0.4084
  399TMC3     O 6016   0.686   2.139   0.431 -0.2036  0.1785 -0.5535
  399TMC3     H 6017   0.994   2.103   0.654 -2.6061  0.8233 -0.3204
  399TMC3    H1 6018   0.636   1.917   0.506 -1.7448 -1.2209  2.8992
  399TMC3    H2 6019   0.874   1.713   0.789  1.6758 -2.1932 -2.4578
  399TMC3    C7 6020   0.685   1.683   0.617  0.2044  0.3928 -0.1525
  399TMC3    C8 6021   1.094   1.877   0.755  0.2780 -0.7140  0.3917
  399TMC3    O1 6022   0.692   1.603   0.704  0.0793  0.1425  0.4547
  399TMC3    O2 6023   1.173   1.960   0.707  0.0226 -0.4929  0.3998
  400TMC3    C1 6024   4.613   0.345  17.370 -0.4983 -0.5324 -0.1836
  400TMC3    C2 6025   4.570   0.355  17.243  0.5695  1.1240  0.4275
  400TMC3    C3 6026   4.579   0.468  17.171 -0.1867  0.6985 -0.1100
  400TMC3    C4 6027   4.695   0.441  17.422  0.3277 -0.0500  0.0594
  400TMC3    C5 6028   4.723   0.553  17.345  0.4665  0.0589  0.7895
  400TMC3    C6 6029   4.653   0.572  17.225 -0.1817  0.2940  0.4154
  400TMC3     C 6030   4.533   0.267  17.458 -0.2697 -0.6886  0.1631
  400TMC3     O 6031   4.473   0.171  17.408  0.1181 -0.9848  0.1364
  400TMC3     H 6032   4.516   0.268  17.206  3.2864 -0.1632 -0.4833
  400TMC3    H1 6033   0.003   0.431  17.520  1.1432  0.0872 -0.2977
  400TMC3    H2 6034   4.675   0.665  17.174  0.8009  0.8276  1.8184
  400TMC3    C7 6035   0.029   0.682  17.409 -0.1135  0.1018  0.0978
  400TMC3    C8 6036   4.450   0.516  17.124  0.9871 -0.5599  0.1062
  400TMC3    O1 6037   0.145   0.693  17.442 -0.4587 -0.2561 -0.2935
  400TMC3    O2 6038   4.429   0.632  17.123 -0.0064  0.6183  0.0354
  401MPD2     C 6039   2.209   4.052   1.298 -0.6518  0.1448  0.5788
  401MPD2    C1 6040   2.284   3.995   1.196  0.4245  0.3450 -0.2821
  401MPD2    C2 6041   2.247   3.869   1.147 -0.2771  0.1012  0.1518
  401MPD2    C3 6042   2.134   3.805   1.196  0.2349 -0.2046  0.2129
  401MPD2    C4 6043   2.061   3.862   1.302 -0.2717 -1.1036  0.8553
  401MPD2    C5 6044   2.093   3.982   1.342 -0.2926 -0.2122  0.2700
  401MPD2     H 6045   2.304   3.825   1.066  0.3920  0.8141  0.2432
  401MPD2    H1 6046   1.984   3.815   1.362 -0.2355 -0.8775  1.0804
  401MPD2    H2 6047   2.234   4.151   1.335 -0.1557  0.0867  0.4001
  401MPD2    H3 6048   2.036   4.013   1.428  0.5754  1.6058  0.1971
  401MPD2     N 6049   2.127   3.678   1.149 -0.3505  0.6940 -0.1310
  401MPD2    H5 6050   2.192   3.653   1.076  3.6309  1.3268  3.1884
  401MPD2    N1 6051   2.391   4.059   1.137 -0.1326 -0.6224 -0.7807
  401MPD2    H7 6052   2.434   4.018   1.055  0.6359 -1.0455 -0.1617
  402TMC3    C1 6053   2.079   3.446   1.152 -0.2360 -0.2563  0.0373
  402TMC3    C2 6054   2.112   3.348   1.240 -0.1355 -0.0295  0.5277
  402TMC3    C3 6055   2.154   3.227   1.190 -0.7674 -0.1030  0.2371
  402TMC3    C4 6056   2.085   3.421   1.020  0.1911 -0.9334 -0.4461
  402TMC3    C5 6057   2.144   3.307   0.974  0.2596 -0.2045 -0.3641
  402TMC3    C6 6058   2.180   3.211   1.059 -0.1116 -0.7823  0.1178
  402TMC3     C 6059   2.053   3.580   1.204 -0.1138 -0.2910 -0.3151
  402TMC3     O 6060   1.997   3.579   1.310 -0.1394  0.6527 -0.1524
  402TMC3     H 6061   2.104   3.366   1.346 -2.8537  5.5630 -0.6561
  402TMC3    H1 6062   2.048   3.498   0.953  1.4274 -0.5202 -0.6504
  402TMC3    H2 6063   2.228   3.118   1.031  0.3902  0.3699 -2.9070
  402TMC3    C7 6064   2.123   3.271   0.834  0.7470 -0.1677 -0.3297
  402TMC3    C8 6065   2.200   3.125   1.275 -0.3794 -0.4630  0.7972
  402TMC3    O1 6066   2.029   3.323   0.771 -0.2950 -0.0227  0.2579
  402TMC3    O2 6067   2.275   3.041   1.224 -0.2276  0.0570  0.1740
  403MPD2     C 6068   0.758   1.921  14.150 -0.0108 -0.2070 -0.1643
  403MPD2    C1 6069   0.829   1.966  14.045  0.5433  0.0182  0.1109
  403MPD2    C2 6070   0.948   2.035  14.062 -0.7391  0.2619  0.2320
  403MPD2    C3 6071   0.992   2.067  14.193  0.1607  0.0647 -0.4860
  403MPD2    C4 6072   0.930   2.015  14.303  0.9036 -0.4062 -0.2681
  403MPD2    C5 6073   0.810   1.939  14.277  0.4064 -0.3320 -0.5052
  403MPD2     H 6074   1.003   2.063  13.973  0.7656 -3.8855 -0.1761
  403MPD2    H1 6075   0.959   2.018  14.408  2.2031 -1.4934 -0.5841
  403MPD2    H2 6076   0.669   1.863  14.129 -0.1571  0.6631 -1.9483
  403MPD2    H3 6077   0.755   1.904  14.363  0.1169  2.1321  0.3087
  403MPD2     N 6078   1.114   2.138  14.205 -0.2778 -0.0343  0.7778
  403MPD2    H5 6079   1.158   2.152  14.115 -1.4423  1.6944  0.4792
  403MPD2    N1 6080   0.781   1.944  13.915 -0.5369  0.4436  0.0408
  403MPD2    H7 6081   0.697   1.888  13.913  0.2290 -0.7992  2.8028
  404TMC3    C1 6082   0.743   1.931  13.684  0.0032 -0.2770 -0.0930
  404TMC3    C2 6083   0.632   1.846  13.714 -0.5177  0.5581  0.4677
  404TMC3    C3 6084   0.576   1.787  13.608  0.6115 -0.8153 -0.1735
  404TMC3    C4 6085   0.778   1.959  13.561 -0.1861  0.0025 -0.4558
  404TMC3    C5 6086   0.708   1.909  13.455 -0.1210  0.6599 -0.0687
  404TMC3    C6 6087   0.611   1.816  13.476 -0.3964 -0.1117 -0.0341
  404TMC3     C 6088   0.826   1.989  13.792  0.3650 -0.1781 -0.7084
  404TMC3     O 6089   0.921   2.064  13.766 -0.3877  0.4279  0.1780
  404TMC3     H 6090   0.593   1.817  13.811 -0.6728 -2.2789 -0.4544
  404TMC3    H1 6091   0.862   2.025  13.539 -2.4129  2.4875 -1.6001
  404TMC3    H2 6092   0.546   1.783  13.396 -0.9188 -0.4421  0.5253
  404TMC3    C7 6093   0.763   1.938  13.321 -0.3171 -0.5936  1.0662
  404TMC3    C8 6094   0.472   1.688  13.620 -0.4415  0.1183 -0.1835
  404TMC3    O1 6095   0.840   2.032  13.308 -0.0390 -0.6101  0.4269
  404TMC3    O2 6096   0.440   1.621  13.526  0.0201  0.0418  0.0812
  405MPD2     C 6097   0.978   2.755  15.452  0.0872  0.2316  0.0821
  405MPD2    C1 6098   1.037   2.667  15.367  0.3305  0.0149 -0.2735
  405MPD2    C2 6099   1.111   2.711  15.256 -0.4108  0.0997 -0.6635
  405MPD2    C3 6100   1.106   2.849  15.225  0.1686 -0.4932 -0.3483
  405MPD2    C4 6101   1.037   2.937  15.315 -0.1078 -0.5505 -0.0397
  405MPD2    C5 6102   0.981   2.894  15.430 -0.0728  0.2496  0.2361
  405MPD2     H 6103   1.160   2.642  15.189 -1.1668  0.3374 -1.4700
  405MPD2    H1 6104   1.031   3.042  15.288  2.5031 -0.6951 -1.2779
  405MPD2    H2 6105   0.929   2.711  15.538 -0.7575 -1.9276 -1.5180
  405MPD2    H3 6106   0.934   2.961  15.502 -0.5687  1.5310 -1.2905
  405MPD2     N 6107   1.170   2.890  15.103 -0.1835  0.4257 -0.0460
  405MPD2    H5 6108   1.229   2.815  15.069  0.5942 -0.0332  2.3397
  405MPD2    N1 6109   1.013   2.527  15.387  0.4815 -0.6496  0.0191
  405MPD2    H7 6110   0.964   2.489  15.468 -0.7369  1.8457  0.4449
  406TMC3    C1 6111   1.115   3.091  14.694  0.1306  0.0767 -0.9230
  406TMC3    C2 6112   1.122   2.967  14.636 -0.7248 -0.2153 -0.3921
  406TMC3    C3 6113   1.143   2.865  14.721 -0.7907 -0.2443  1.0356
  406TMC3    C4 6114   1.132   3.109  14.828  0.5544  1.0484 -0.7194
  406TMC3    C5 6115   1.177   3.009  14.905  0.6733 -0.1382 -0.0345
  406TMC3    C6 6116   1.181   2.881  14.851 -0.3027 -0.3818  0.0157
  406TMC3     C 6117   1.026   3.187  14.636  0.3623 -0.0452 -0.1190
  406TMC3     O 6118   1.011   3.302  14.676 -0.0428 -0.0237  0.3061
  406TMC3     H 6119   1.112   2.939  14.532 -1.5111 -1.5036  0.0204
  406TMC3    H1 6120   1.127   3.213  14.861 -0.8263  1.6478 -2.8148
  406TMC3    H2 6121   1.206   2.794  14.912 -0.1336 -0.7905 -0.6327
  406TMC3    C7 6122   1.155   3.018  15.045 -0.4175  0.4245  0.4550
  406TMC3    C8 6123   1.070   2.746  14.677 -0.2735  0.2624 -0.6010
  406TMC3    O1 6124   1.104   3.121  15.089 -0.0654  0.1237 -0.4167
  406TMC3    O2 6125   1.032   2.741  14.556 -0.1027 -0.3481  0.1458
  407MPD2     C 6126   3.281   3.944  10.231 -0.3647  0.2335  0.5301
  407MPD2    C1 6127   3.399   3.966  10.165  0.1410 -0.2792 -0.1976
  407MPD2    C2 6128   3.459   4.086  10.187  0.1667  0.4884 -0.1762
  407MPD2    C3 6129   3.403   4.181  10.271  0.1602  0.0768 -1.2384
  407MPD2    C4 6130   3.276   4.161  10.326  0.6182  0.4071  0.1275
  407MPD2    C5 6131   3.223   4.041  10.301 -1.1205 -0.6686 -0.0675
  407MPD2     H 6132   3.551   4.102  10.133 -0.5153 -1.7433 -1.9796
  407MPD2    H1 6133   3.228   4.243  10.378  0.9984  0.2015  0.7937
  407MPD2    H2 6134   3.230   3.848  10.224 -2.3869  1.2808  0.8329
  407MPD2    H3 6135   3.125   4.028  10.347 -0.6308 -1.4400  0.7492
  407MPD2     N 6136   3.474   4.299  10.308 -0.6405 -0.3438 -0.2601
  407MPD2    H5 6137   3.421   4.367  10.360 -2.7814 -1.7730 -0.6006
  407MPD2    N1 6138   3.463   3.880  10.071 -0.7227  0.0253 -0.1196
  407MPD2    H7 6139   3.545   3.920  10.028 -1.7178  1.5960 -0.5410
  408TMC3    C1 6140   3.484   3.697   9.919 -0.4598 -0.7494  0.3054
  408TMC3    C2 6141   3.556   3.773   9.831  0.0663  0.3455  0.7403
  408TMC3    C3 6142   3.619   3.717   9.724  0.2729  0.0375 -0.2246
  408TMC3    C4 6143   3.485   3.560   9.904  0.3155 -0.3410 -1.0229
  408TMC3    C5 6144   3.557   3.508   9.799  0.1757  0.1905  0.4380
  408TMC3    C6 6145   3.616   3.580   9.705  0.0294 -0.0814  0.0268
  408TMC3     C 6146   3.415   3.753  10.034  0.2734  0.6083  0.1378
  408TMC3     O 6147   3.325   3.690  10.086  0.1431 -0.5347 -0.2470
  408TMC3     H 6148   3.527   3.878   9.841 -0.4658  0.1055  1.7317
  408TMC3    H1 6149   3.425   3.493   9.965 -0.2230 -0.2005 -1.3986
  408TMC3    H2 6150   3.700   3.533   9.655 -3.1983 -3.2874 -2.3918
  408TMC3    C7 6151   3.581   3.362   9.785  0.3835 -0.1599 -0.1261
  408TMC3    C8 6152   3.680   3.797   9.624  0.6400 -0.4876  0.5579
  408TMC3    O1 6153   3.646   3.323   9.687 -0.1287 -0.1419  0.4636
  408TMC3    O2 6154   3.685   3.750   9.512  0.5010  0.6410  0.0430
  409MPD2     C 6155   2.883   4.496  17.481 -0.5939  0.0509  0.3216
  409MPD2    C1 6156   2.971   4.566  17.549 -0.0845  0.2709 -0.0733
  409MPD2    C2 6157   3.068   4.639  17.482 -0.0372  0.4448  0.2998
  409MPD2    C3 6158   3.068   4.653  17.345  0.8885  0.1210  0.3429
  409MPD2    C4 6159   2.973   4.579  17.276 -0.2967  0.0429  0.4041
  409MPD2    C5 6160   2.893   4.499  17.345 -1.0532 -1.1595  0.5003
  409MPD2     H 6161   3.135   4.688  17.552 -0.4787  1.1847  0.2004
  409MPD2    H1 6162   2.957   4.580  17.168 -1.9621  3.0222  0.6858
  409MPD2    H2 6163   2.813   4.429  17.530  0.3598 -1.3096 -0.1808
  409MPD2    H3 6164   2.820   4.434  17.298 -1.6618  1.0342 -1.5867
  409MPD2     N 6165   3.159   0.010  17.277  0.1543  0.3169 -0.4221
  409MPD2    H5 6166   3.139   0.017  17.178  0.6884  0.8058 -0.4892
  409MPD2    N1 6167   2.978   4.562  17.695 -0.2554  0.1393 -0.1300
  409MPD2    H7 6168   3.050   4.624  17.731 -1.4399  0.5162  1.5856
  410TMC3    C1 6169   3.348   0.145  17.246 -0.1710  0.1128 -0.1313
  410TMC3    C2 6170   3.463   0.198  17.306 -0.3025 -0.1061 -0.8435
  410TMC3    C3 6171   3.528   0.301  17.236 -0.4927 -0.0503  0.3806
  410TMC3    C4 6172   3.306   0.183  17.120 -0.2190  0.1288 -0.6898
  410TMC3    C5 6173   3.385   0.273  17.053 -0.6210 -0.0751  0.5401
  410TMC3    C6 6174   3.493   0.340  17.109 -0.1743 -0.5616 -0.9289
  410TMC3     C 6175   3.262   0.076  17.339 -0.0988 -0.2887 -0.4098
  410TMC3     O 6176   3.302   0.081  17.457  0.3484 -0.0675 -0.7121
  410TMC3     H 6177   3.499   0.149  17.395  2.1263  0.9712 -1.2393
  410TMC3    H1 6178   3.222   0.130  17.077 -0.8552  0.1893  0.4607
  410TMC3    H2 6179   3.555   0.411  17.055 -1.2983 -0.6342 -2.2942
  410TMC3    C7 6180   3.349   0.286  16.912  0.3588 -0.0149 -0.1024
  410TMC3    C8 6181   3.665   0.324  17.277  0.0049  0.2902 -0.2819
  410TMC3    O1 6182   3.241   0.249  16.879 -0.3287 -0.2567 -0.7838
  410TMC3    O2 6183   3.699   0.442  17.284  0.0425  0.1351  0.1126
  411MPD2     C 6184   3.290   1.160  14.724  0.7214 -0.2465 -0.0702
  411MPD2    C1 6185   3.242   1.177  14.850  0.5661  0.2473  0.3335
  411MPD2    C2 6186   3.141   1.090  14.895 -0.2744 -0.5838  0.5691
  411MPD2    C3 6187   3.087   0.997  14.799  0.4925  0.5828 -0.9285
  411MPD2    C4 6188   3.138   0.977  14.679  0.4833  0.6229 -0.7106
  411MPD2    C5 6189   3.239   1.064  14.634 -1.1553 -0.1266 -0.7925
  411MPD2     H 6190   3.101   1.100  14.995 -1.2092 -0.2288  0.1487
  411MPD2    H1 6191   3.084   0.916  14.607  1.1179 -0.9507  0.1382
  411MPD2    H2 6192   3.365   1.232  14.692  0.7579 -0.2126  0.0894
  411MPD2    H3 6193   3.267   1.057  14.530 -4.5473 -0.1606 -1.7064
  411MPD2     N 6194   2.974   0.925  14.821  0.9846  0.6213 -0.7689
  411MPD2    H5 6195   2.933   0.883  14.738 -1.1219  2.1185 -0.4969
  411MPD2    N1 6196   3.289   1.288  14.922  0.2725 -0.6965 -0.0355
  411MPD2    H7 6197   3.348   1.359  14.882 -1.5310  0.8192 -0.0300
  412TMC3    C1 6198   2.779   0.838  14.916  0.0405  0.4559  0.4814
  412TMC3    C2 6199   2.706   0.902  14.820 -0.2993  0.4478 -0.0552
  412TMC3    C3 6200   2.590   0.842  14.782 -0.2873  1.4525  0.1309
  412TMC3    C4 6201   2.744   0.710  14.966  0.1964  0.3628 -0.4060
  412TMC3    C5 6202   2.620   0.655  14.926 -0.2414  0.0825 -0.5010
  412TMC3    C6 6203   2.546   0.724  14.841  0.2217  0.1493  0.0319
  412TMC3     C 6204   2.914   0.893  14.938 -0.5470 -0.3991 -1.1042
  412TMC3     O 6205   2.950   0.921  15.050  0.2991  0.6986 -0.7599
  412TMC3     H 6206   2.727   1.004  14.790 -2.8201  0.6157 -1.1838
  412TMC3    H1 6207   2.821   0.655  15.019  1.3009 -0.7831 -3.2154
  412TMC3    H2 6208   2.443   0.692  14.837  0.7935 -1.5060 -1.5563
  412TMC3    C7 6209   2.613   0.518  14.894 -0.4687  0.4242 -1.2815
  412TMC3    C8 6210   2.544   0.844  14.642  0.1546  0.3393  0.0420
  412TMC3    O1 6211   2.547   0.494  14.791 -0.8106 -0.2451 -0.0286
  412TMC3    O2 6212   2.575   0.938  14.570 -0.3476 -0.5932  0.3895
  413MPD2     C 6213   0.729   4.266  15.419  0.7082 -0.1680  0.1424
  413MPD2    C1 6214   0.661   4.186  15.328  0.4049  0.0897 -0.0975
  413MPD2    C2 6215   0.726   4.071  15.286 -0.1464 -0.1519  0.0031
  413MPD2    C3 6216   0.816   4.012  15.368 -0.1093  0.8280  0.1430
  413MPD2    C4 6217   0.878   4.092  15.459  0.2816 -0.0149 -0.3579
  413MPD2    C5 6218   0.836   4.215  15.478  0.0830  0.2620 -0.2937
  413MPD2     H 6219   0.685   4.014  15.204 -0.3781 -1.1701  0.8218
  413MPD2    H1 6220   0.963   4.052  15.513 -1.7339 -0.1968  2.7227
  413MPD2    H2 6221   0.695   4.364  15.449  0.0530 -0.3088 -0.1511
  413MPD2    H3 6222   0.883   4.278  15.553 -1.5736 -1.8790  2.5612
  413MPD2     N 6223   0.844   3.871  15.346 -0.1314  1.4698  0.2040
  413MPD2    H5 6224   0.803   3.833  15.262  1.8019 -1.1197  0.4474
  413MPD2    N1 6225   0.535   4.232  15.283  0.0100 -0.1583 -0.1202
  413MPD2    H7 6226   0.490   4.317  15.315  0.2213  1.1957 -3.4408
  414TMC3    C1 6227   0.953   3.672  15.404 -0.5586 -0.5112  0.0238
  414TMC3    C2 6228   0.997   3.580  15.495 -0.7807 -0.2121 -1.3039
  414TMC3    C3 6229   1.048   3.459  15.453 -0.0988 -0.4993  0.6165
  414TMC3    C4 6230   0.957   3.651  15.266 -0.5343  0.4746 -0.0316
  414TMC3    C5 6231   1.006   3.524  15.232 -1.0469 -0.6349  0.8726
  414TMC3    C6 6232   1.055   3.437  15.318 -0.9500  0.0911  0.1057
  414TMC3     C 6233   0.889   3.795  15.452 -0.1833 -0.4044  0.6076
  414TMC3     O 6234   0.896   3.826  15.570  0.4257 -0.0296 -0.5964
  414TMC3     H 6235   1.005   3.616  15.597 -0.5486 -3.0597 -0.3182
  414TMC3    H1 6236   0.940   3.722  15.186 -1.3828 -2.0914 -2.1090
  414TMC3    H2 6237   1.095   3.344  15.280  1.4003  1.9903 -2.0096
  414TMC3    C7 6238   1.060   3.513  15.099 -0.6161  1.2457 -0.1641
  414TMC3    C8 6239   1.067   3.343  15.541  0.5095  1.0326  0.6441
  414TMC3    O1 6240   1.009   3.571  15.004  0.5378 -0.0385 -0.6908
  414TMC3    O2 6241   1.116   3.247  15.487  0.7910  0.1520  0.5424
  415TMC3    C1 6242   1.148   1.150  10.415 -0.1509 -0.1735  0.0311
  415TMC3    C2 6243   1.176   1.246  10.321  0.3214  0.5250  0.2712
  415TMC3    C3 6244   1.113   1.246  10.201  0.3461 -0.3218 -0.2066
  415TMC3    C4 6245   1.039   1.070  10.395 -0.7892  0.5127  1.1728
  415TMC3    C5 6246   0.951   1.099  10.290  0.1064  0.2419  0.0665
  415TMC3    C6 6247   0.991   1.180  10.188  0.1993  0.1545 -0.3934
  415TMC3     C 6248   1.182   1.167  10.555 -0.7095 -0.1273 -0.0100
  415TMC3     O 6249   1.206   1.060  10.612  0.3993 -0.2616  0.5106
  415TMC3     H 6250   1.268   1.298  10.344 -0.0912  0.0905  2.8626
  415TMC3    H1 6251   1.005   1.009  10.478 -0.3972  0.6369  1.4238
  415TMC3    H2 6252   0.937   1.190  10.095 -0.0472  1.3770 -0.1187
  415TMC3    C7 6253   0.814   1.090  10.302 -0.4202  0.5674 -0.2186
  415TMC3    C8 6254   1.114   1.365  10.116  0.9893  0.1315  0.5547
  415TMC3    O1 6255   0.744   1.165  10.235  0.0005  0.5698 -0.0384
  415TMC3    O2 6256   1.002   1.397  10.071 -0.1195  0.0445 -0.2284
  416MPD2     C 6257   2.874   1.163  11.871  0.5432  0.1574 -0.4429
  416MPD2    C1 6258   2.843   1.052  11.943  1.4370  0.1630  0.5491
  416MPD2    C2 6259   2.929   0.940  11.934 -0.5798  0.6069 -0.4625
  416MPD2    C3 6260   3.048   0.942  11.866 -0.1905  0.5392 -0.2441
  416MPD2    C4 6261   3.082   1.059  11.801 -0.1694 -0.3526 -0.1823
  416MPD2    C5 6262   2.991   1.163  11.806  0.5264 -0.4734  0.2892
  416MPD2     H 6263   2.887   0.847  11.969 -0.8741  0.9597  0.1407
  416MPD2    H1 6264   3.166   1.068  11.734 -0.1518 -1.7013 -0.3389
  416MPD2    H2 6265   2.805   1.246  11.864 -0.0148 -0.1782  1.0645
  416MPD2    H3 6266   3.019   1.254  11.753  0.3695 -1.1388 -0.9255
  416MPD2     N 6267   3.129   0.830  11.855 -0.1149 -0.0313  0.0165
  416MPD2    H5 6268   3.181   0.831  11.768 -0.2617  1.4699 -0.0559
  416MPD2    N1 6269   2.720   1.045  11.996  0.1835  0.4754 -0.2412
  416MPD2    H7 6270   2.661   1.128  11.992 -0.2875  0.2747  2.7342
  417TMC3    C1 6271   2.523   0.957  12.064 -0.3312 -0.0094  0.1091
  417TMC3    C2 6272   2.458   0.914  12.171 -0.4566  0.2298  0.5689
  417TMC3    C3 6273   2.321   0.938  12.180 -0.8979  0.2681 -0.7928
  417TMC3    C4 6274   2.455   1.000  11.957 -0.0893  0.0717 -0.4262
  417TMC3    C5 6275   2.321   1.011  11.960  0.4219 -0.8151 -0.3736
  417TMC3    C6 6276   2.256   0.985  12.073  0.8167 -0.5158 -0.1022
  417TMC3     C 6277   2.669   0.936  12.058  0.6289  0.2395  0.4321
  417TMC3     O 6278   2.729   0.855  12.126 -0.3335  0.0408  0.1442
  417TMC3     H 6279   2.520   0.879  12.253  0.4450  0.7237  0.0987
  417TMC3    H1 6280   2.513   1.037  11.873  0.1509 -0.9936 -0.7227
  417TMC3    H2 6281   2.150   1.007  12.086  0.7504  0.2097 -1.8776
  417TMC3    C7 6282   2.253   1.047  11.829 -0.4700  0.0993  0.0647
  417TMC3    C8 6283   2.269   0.967  12.316 -0.6345 -0.5446 -0.1509
  417TMC3    O1 6284   2.315   1.060  11.729  0.1363 -0.0371 -0.1283
  417TMC3    O2 6285   2.165   1.028  12.324  0.1723 -0.1554 -0.2249
  418TMC3    C1 6286   1.208   3.051   0.773 -0.1935 -0.1014  0.4868
  418TMC3    C2 6287   1.078   3.024   0.722  0.2223 -0.7264  0.1317
  418TMC3    C3 6288   1.018   2.909   0.769 -0.4986  0.5206  1.2783
  418TMC3    C4 6289   1.278   2.969   0.858  1.0042  0.4138  0.2819
  418TMC3    C5 6290   1.203   2.862   0.906 -0.3374  0.3398 -0.3379
  418TMC3    C6 6291   1.076   2.827   0.869 -0.1521 -0.1438  1.0420
  418TMC3     C 6292   1.296   3.118   0.672  0.2563  1.1868 -0.0088
  418TMC3     O 6293   1.244   3.215   0.628 -0.2385  0.4291 -0.0482
  418TMC3     H 6294   1.046   3.068   0.629 -1.2923 -0.1294  0.9323
  418TMC3    H1 6295   1.382   2.982   0.885  0.3949  3.0060  1.3737
  418TMC3    H2 6296   1.027   2.742   0.914 -0.6350  0.4826  1.6928
  418TMC3    C7 6297   1.281   2.758   0.966 -0.4067  0.7670  0.1740
  418TMC3    C8 6298   0.916   2.845   0.694  0.5207 -0.2335  0.1762
  418TMC3    O1 6299   1.234   2.655   0.923 -0.3878  0.7058 -0.2283
  418TMC3    O2 6300   0.851   2.916   0.624 -0.3800 -0.2447  0.8854
  419MPD2     C 6301   4.152   0.417  12.647 -0.8678 -0.0852  0.5226
  419MPD2    C1 6302   4.240   0.519  12.682 -0.3110  0.5370 -0.8072
  419MPD2    C2 6303   4.234   0.562  12.809 -0.4272 -0.8041  0.3819
  419MPD2    C3 6304   4.144   0.511  12.900 -0.1978 -0.2360  0.1442
  419MPD2    C4 6305   4.055   0.412  12.858 -0.5530 -0.1517 -0.0669
  419MPD2    C5 6306   4.066   0.358  12.735 -0.0173 -1.2249 -0.2192
  419MPD2     H 6307   4.297   0.644  12.840  0.8742 -0.0318 -4.3716
  419MPD2    H1 6308   3.981   0.367  12.924 -0.4066  0.4044  0.4774
  419MPD2    H2 6309   4.151   0.359  12.556 -0.3840 -0.6747  0.8976
  419MPD2    H3 6310   4.003   0.276  12.703  0.4372 -1.4391 -0.5579
  419MPD2     N 6311   4.142   0.566  13.033 -0.0488  0.1976 -0.3901
  419MPD2    H5 6312   4.202   0.646  13.049 -2.4062  1.3825  2.3586
  419MPD2    N1 6313   4.333   0.570  12.590  0.2034  0.0481 -0.1034
  419MPD2    H7 6314   4.381   0.656  12.617 -1.7831  1.7959 -2.1996
  420TMC3    C1 6315   4.111   0.595  13.261 -0.5651 -0.0749 -0.5261
  420TMC3    C2 6316   4.024   0.586  13.362  0.1815  0.6431  0.1280
  420TMC3    C3 6317   4.069   0.605  13.491  0.4038 -0.5925 -0.1753
  420TMC3    C4 6318   4.243   0.644  13.281  0.0407 -1.0722  0.0475
  420TMC3    C5 6319   4.276   0.680  13.409  0.1950 -0.0361  0.0295
  420TMC3    C6 6320   4.193   0.661  13.517 -0.4921 -0.0591  0.5982
  420TMC3     C 6321   4.071   0.523  13.139  0.1326 -0.9114 -0.0639
  420TMC3     O 6322   3.982   0.437  13.148  0.9117 -0.4056 -0.1748
  420TMC3     H 6323   3.927   0.540  13.347  0.0287  0.9799  0.0940
  420TMC3    H1 6324   4.314   0.643  13.199 -0.0433  4.0617 -0.0917
  420TMC3    H2 6325   4.233   0.661  13.618  3.5729 -0.5930 -1.0092
  420TMC3    C7 6326   4.423   0.667  13.439  0.6170 -0.3435  0.2182
  420TMC3    C8 6327   3.976   0.567  13.599  0.0901 -0.8694  0.1560
  420TMC3    O1 6328   4.502   0.624  13.359 -0.2560 -0.4390  0.3472
  420TMC3    O2 6329   3.903   0.469  13.581 -0.0886  0.0119 -0.2026
  421TMC3    C1 6330   1.273   2.281  14.300  0.5383 -0.0343  0.6333
  421TMC3    C2 6331   1.281   2.400  14.356 -0.2318  0.3610  0.0217
  421TMC3    C3 6332   1.401   2.456  14.378 -0.1764 -0.2739  0.4445
  421TMC3    C4 6333   1.385   2.211  14.258  0.0097 -1.3127  0.0308
  421TMC3    C5 6334   1.510   2.273  14.275  0.2786  0.0995 -0.4298
  421TMC3    C6 6335   1.518   2.393  14.334 -0.1026 -0.5323  0.2353
  421TMC3     C 6336   1.142   2.210  14.313  0.1024 -0.5427 -0.5711
  421TMC3     O 6337   1.074   2.240  14.406  0.2729  0.1397 -0.1581
  421TMC3     H 6338   1.191   2.452  14.385  0.1962  0.0746  1.8529
  421TMC3    H1 6339   1.376   2.111  14.216 -1.0645 -1.1274 -0.1777
  421TMC3    H2 6340   1.619   2.415  14.365 -0.9703  4.3443 -0.3661
  421TMC3    C7 6341   1.628   2.190  14.288  1.0549  0.5705  0.1343
  421TMC3    C8 6342   1.416   2.523  14.497  0.5976 -0.4598  0.8679
  421TMC3    O1 6343   1.735   2.238  14.246  0.3574  0.3351  0.4741
  421TMC3    O2 6344   1.482   2.623  14.492  0.1890  0.4118  0.1243
  422TMC3    C1 6345   3.432   3.688  12.685  0.4865 -0.2728  0.1791
  422TMC3    C2 6346   3.416   3.772  12.788 -0.2272 -0.6056  0.1422
  422TMC3    C3 6347   3.293   3.766  12.861 -0.6753  0.0751  0.0154
  422TMC3    C4 6348   3.334   3.598  12.634  0.2752  0.0323 -0.3031
  422TMC3    C5 6349   3.230   3.590  12.721  0.3962  0.2198  0.2012
  422TMC3    C6 6350   3.203   3.670  12.829  0.4286  0.1297  0.1843
  422TMC3     C 6351   3.565   3.675  12.618  0.5387 -0.0257  0.3882
  422TMC3     O 6352   3.625   3.779  12.586  0.2652 -0.1720  0.3486
  422TMC3     H 6353   3.498   3.837  12.817 -0.7141  0.5088 -1.0027
  422TMC3    H1 6354   3.356   3.538  12.546  1.1197 -0.3164  0.1446
  422TMC3    H2 6355   3.106   3.663  12.878  0.2923  2.4739  0.2656
  422TMC3    C7 6356   3.142   3.480  12.679 -0.0394 -0.1159 -0.1750
  422TMC3    C8 6357   3.286   3.840  12.988 -0.1228  0.0127 -0.0132
  422TMC3    O1 6358   3.161   3.436  12.562 -0.2258  0.1366  0.0389
  422TMC3    O2 6359   3.375   3.929  13.002  0.4645  0.1591  0.3720
  423MPD2     C 6360   4.570   4.564   0.612  0.0647  0.0985 -0.0630
  423MPD2    C1 6361   4.651   4.471   0.672  0.3981  0.2375  0.3507
  423MPD2    C2 6362   4.697   4.361   0.599  0.4376  0.7975 -0.4468
  423MPD2    C3 6363   4.671   4.353   0.470  0.0475 -0.1350  0.1224
  423MPD2    C4 6364   4.596   4.447   0.404 -0.0648  0.0076  0.3129
  423MPD2    C5 6365   4.548   4.550   0.479  0.2846 -0.0596 -0.1908
  423MPD2     H 6366   0.035   4.294   0.641 -1.4003 -0.6706  0.3891
  423MPD2    H1 6367   4.577   4.449   0.298 -1.5537  0.4133  0.5888
  423MPD2    H2 6368   4.531   4.647   0.669 -1.3411 -0.7602  0.2152
  423MPD2    H3 6369   4.474   4.622   0.447 -0.2937 -0.5120  0.1331
  423MPD2     N 6370   4.720   4.256   0.381  0.3225  0.0456 -0.6877
  423MPD2    H5 6371   4.697   4.271   0.283  0.0099  0.4588 -0.5511
  423MPD2    N1 6372   4.684   4.480   0.812 -0.1737  0.1636  0.1937
  423MPD2    H7 6373   0.017   4.407   0.831  1.2457  1.2340 -0.8638
  424TMC3    C1 6374   4.710   4.564   1.042 -0.0750 -0.0274  0.1585
  424TMC3    C2 6375   0.093   4.491   1.071  0.3830  0.1561  0.2828
  424TMC3    C3 6376   0.153   4.516   1.195  0.1177  0.0904 -0.3114
  424TMC3    C4 6377   4.644   4.632   1.144  0.2826  0.3096 -0.3570
  424TMC3    C5 6378   4.706   4.636   1.267 -0.3928 -0.7622  0.2378
  424TMC3    C6 6379   0.094   4.579   1.296 -0.1950  0.0566  0.8987
  424TMC3     C 6380   4.642   4.570   0.910  1.2725 -0.2781 -0.2080
  424TMC3     O 6381   4.567   4.667   0.887  0.2991  0.2633  0.0627
  424TMC3     H 6382   0.141   4.438   0.990 -1.0985 -0.8039  0.0293
  424TMC3    H1 6383   4.547   4.672   1.118  0.3682 -0.7286 -2.2788
  424TMC3    H2 6384   0.131   4.563   1.396 -1.5548  0.1088  1.4121
  424TMC3    C7 6385   4.623   4.650   1.392 -0.2109 -0.3259  0.1947
  424TMC3    C8 6386   0.275   4.441   1.217 -0.0244  0.5948  0.6152
  424TMC3    O1 6387   4.667   4.607   1.496  0.1135  0.0227 -0.2566
  424TMC3    O2 6388   0.287   4.344   1.144  0.0288 -0.3271 -0.5077
  425MPD2     C 6389   4.219   3.703  17.536  0.6397 -0.4278 -0.0539
  425MPD2    C1 6390   4.134   3.600  17.550 -0.2860 -0.1143  0.2067
  425MPD2    C2 6391   4.012   3.627  17.612  0.0782  0.5135 -0.0145
  425MPD2    C3 6392   3.986   3.752  17.649 -0.0941  0.5238 -0.4325
  425MPD2    C4 6393   4.078   3.855  17.641  0.6481 -0.0134  0.1860
  425MPD2    C5 6394   4.193   3.832  17.581 -0.1485  0.3539  0.0778
  425MPD2     H 6395   3.930   3.557  17.610  2.1513 -1.9751  2.8038
  425MPD2    H1 6396   4.051   3.955  17.670 -1.0682 -0.2143 -0.7457
  425MPD2    H2 6397   4.321   3.683  17.503  0.2052 -2.2221 -0.3396
  425MPD2    H3 6398   4.256   3.914  17.550 -0.6743  0.6773 -0.1437
  425MPD2     N 6399   3.862   3.764  17.714  0.1449 -0.2850  0.9093
  425MPD2    H5 6400   3.802   3.683  17.710  0.6320 -0.7189  2.3876
  425MPD2    N1 6401   4.168   3.468  17.497 -0.9103 -0.2052 -0.8563
  425MPD2    H7 6402   4.254   3.460  17.444  0.3162 -0.7193  1.2013
  426TMC3    C1 6403   4.134   3.245  17.418  0.3041  0.0189 -0.7572
  426TMC3    C2 6404   4.168   3.279  17.296 -0.2402  0.2029  0.1901
  426TMC3    C3 6405   4.200   3.182  17.207  0.6468 -0.3867 -1.0601
  426TMC3    C4 6406   4.105   3.118  17.456  0.4756  0.1644  0.4003
  426TMC3    C5 6407   4.143   3.019  17.367 -0.0620 -0.2807  0.7496
  426TMC3    C6 6408   4.189   3.049  17.239 -0.5176  0.0983  0.6794
  426TMC3     C 6409   4.094   3.356  17.506  0.3423  0.3229 -0.5103
  426TMC3     O 6410   4.009   3.330  17.590  0.1481  0.1381 -0.4538
  426TMC3     H 6411   4.178   3.385  17.274 -0.3725  0.3608  0.9083
  426TMC3    H1 6412   4.080   3.103  17.561 -0.0874  2.0184  0.5428
  426TMC3    H2 6413   4.216   2.973  17.166 -0.7711  0.2974  0.3771
  426TMC3    C7 6414   4.147   2.880  17.411  0.0651  0.6338  0.3097
  426TMC3    C8 6415   4.196   3.205  17.062  0.5859 -0.2306 -0.5785
  426TMC3    O1 6416   4.210   2.797  17.351 -0.6502 -0.5611  0.3370
  426TMC3    O2 6417   4.271   3.134  16.995  0.4549  0.1369 -0.0009
  427MPD2     C 6418   2.495   1.027  15.123  0.1667 -0.4126  0.5703
  427MPD2    C1 6419   2.456   1.003  15.260  0.7205 -0.3000  0.2411
  427MPD2    C2 6420   2.319   1.002  15.289  0.2025  0.2617  0.4248
  427MPD2    C3 6421   2.231   1.032  15.191 -0.2375 -0.7863 -0.2614
  427MPD2    C4 6422   2.271   1.053  15.062 -0.5904  0.1025  0.3780
  427MPD2    C5 6423   2.399   1.058  15.028 -0.4833  0.5315 -1.2190
  427MPD2     H 6424   2.290   0.977  15.391  1.5605 -1.1092  0.4744
  427MPD2    H1 6425   2.195   1.058  14.986 -0.5999 -0.2355  0.3643
  427MPD2    H2 6426   2.599   1.023  15.092  0.6501 -1.0228  2.2465
  427MPD2    H3 6427   2.428   1.082  14.926  0.6993 -2.2590 -1.5559
  427MPD2     N 6428   2.090   1.048  15.214  0.0701  0.2627 -0.7455
  427MPD2    H5 6429   2.034   1.070  15.131 -0.2078 -2.1452 -1.2147
  427MPD2    N1 6430   2.547   0.969  15.365  0.1714  0.3231 -0.0695
  427MPD2    H7 6431   2.511   0.941  15.456  0.6035  1.7996  0.5552
  428TMC3    C1 6432   2.750   0.914  15.476  0.5945 -0.3757 -0.6024
  428TMC3    C2 6433   2.680   0.846  15.569 -0.2076 -0.3787  0.5782
  428TMC3    C3 6434   2.753   0.805  15.680  0.1845 -0.6072  0.2097
  428TMC3    C4 6435   2.883   0.928  15.481  0.9149 -0.1083 -0.2300
  428TMC3    C5 6436   2.953   0.884  15.590  0.0512 -0.0549 -0.6509
  428TMC3    C6 6437   2.892   0.815  15.687  0.0858 -0.2450  0.3936
  428TMC3     C 6438   2.684   0.966  15.354 -0.6112  0.4492 -0.9843
  428TMC3     O 6439   2.754   1.004  15.256  0.2944 -0.1979  0.2966
  428TMC3     H 6440   2.576   0.821  15.558 -0.0177 -1.0029  0.2289
  428TMC3    H1 6441   2.935   0.987  15.407  0.4688  0.1473 -0.3356
  428TMC3    H2 6442   2.946   0.783  15.775  3.4765  0.9427 -1.2465
  428TMC3    C7 6443   3.079   0.946  15.633  0.0058  0.4962  0.0394
  428TMC3    C8 6444   2.681   0.729  15.780 -0.2860  0.6010 -0.0362
  428TMC3    O1 6445   3.118   0.917  15.745  0.6983 -0.0520 -0.0943
  428TMC3    O2 6446   2.616   0.631  15.741  0.0388  0.9469 -0.2539
  429MPD2     C 6447   3.492   0.926  17.579  0.1460  0.2156  0.6703
  429MPD2    C1 6448   3.561   0.969  17.696 -0.0403  0.2810 -0.2728
  429MPD2    C2 6449   3.664   1.055  17.686 -0.5148  0.0549 -0.0153
  429MPD2    C3 6450   3.713   1.093  17.557  0.2228  0.5564 -0.0756
  429MPD2    C4 6451   3.649   1.051  17.443 -0.0725 -0.3384  0.4151
  429MPD2    C5 6452   3.546   0.966  17.458 -0.1746  0.5606  0.0802
  429MPD2     H 6453   3.722   1.085   0.030  0.1207 -2.8208  0.5620
  429MPD2    H1 6454   3.686   1.068  17.342  0.2310 -0.1686  0.5521
  429MPD2    H2 6455   3.407   0.860  17.572  0.2494  0.1444  0.0884
  429MPD2    H3 6456   3.501   0.915  17.373  0.4137  0.8938 -0.4286
  429MPD2     N 6457   3.826   1.174  17.542  0.5675  0.3115 -0.6212
  429MPD2    H5 6458   3.864   1.201  17.632  1.9600 -0.0936 -1.0916
  429MPD2    N1 6459   3.527   0.922   0.082 -0.3454  0.6918  0.0604
  429MPD2    H7 6460   3.588   0.949   0.159 -0.9376 -0.5016  0.9427
  430TMC3    C1 6461   4.001   1.299  17.438  0.4516  0.0876  0.6301
  430TMC3    C2 6462   4.004   1.396  17.344 -0.3018  0.1807  0.1391
  430TMC3    C3 6463   4.128   1.421  17.295  0.4921  0.0578 -0.4682
  430TMC3    C4 6464   4.112   1.238  17.487  0.3902 -0.2136 -0.2828
  430TMC3    C5 6465   4.234   1.274  17.439 -0.4985 -0.6207  0.5387
  430TMC3    C6 6466   4.245   1.377  17.350 -0.1577  0.3222 -0.5731
  430TMC3     C 6467   3.880   1.223  17.428 -0.0073  0.3364  0.9971
  430TMC3     O 6468   3.846   1.226  17.310 -0.5124  0.2343  0.4767
  430TMC3     H 6469   3.907   1.433  17.313 -0.5195  0.9054  1.6795
  430TMC3    H1 6470   4.095   1.142  17.533 -2.3387 -0.0013 -0.8533
  430TMC3    H2 6471   4.337   1.396  17.296  0.0359 -0.3230 -0.4791
  430TMC3    C7 6472   4.333   1.168  17.461 -0.0435 -0.6388 -0.6481
  430TMC3    C8 6473   4.126   1.477  17.159  0.3366 -0.1849 -0.3215
  430TMC3    O1 6474   4.296   1.065  17.516 -0.0043 -0.3014  0.5758
  430TMC3    O2 6475   4.225   1.537  17.117  0.5346 -0.3542 -0.4367
  431MPD2     C 6476   4.518   1.327  12.714  0.2967 -0.2715 -0.4365
  431MPD2    C1 6477   4.602   1.315  12.610  0.3451 -0.5961 -0.4153
  431MPD2    C2 6478   4.577   1.209  12.522  0.2414 -0.9877  0.2790
  431MPD2    C3 6479   4.469   1.123  12.544 -0.1748 -0.7063 -0.0363
  431MPD2    C4 6480   4.379   1.149  12.644 -0.2068 -0.1409 -0.1271
  431MPD2    C5 6481   4.405   1.249  12.735  0.5333  0.2866  0.1896
  431MPD2     H 6482   4.647   1.198  12.440 -1.2755  1.1405 -1.3145
  431MPD2    H1 6483   4.301   1.077  12.665 -1.0019  0.2289 -1.8487
  431MPD2    H2 6484   4.535   1.386  12.803  0.3771 -1.1034  0.1049
  431MPD2    H3 6485   4.354   1.257  12.830 -0.7491  2.8335 -0.6805
  431MPD2     N 6486   4.444   1.011  12.468 -0.2515  0.2340  0.0523
  431MPD2    H5 6487   4.360   0.962  12.495 -0.9029  0.3675 -1.7863
  431MPD2    N1 6488   4.721   1.392  12.599  0.0087  0.8144  0.3349
  431MPD2    H7 6489   0.033   1.382  12.510  1.6477 -1.6234  1.4771
  432TMC3    C1 6490   4.485   0.821  12.323 -0.3343  0.9868 -0.3650
  432TMC3    C2 6491   4.561   0.775  12.217 -0.5798 -0.9311 -0.0368
  432TMC3    C3 6492   4.564   0.638  12.207  0.4113 -0.2385 -0.0497
  432TMC3    C4 6493   4.418   0.745  12.404 -0.3273 -0.6749  0.0017
  432TMC3    C5 6494   4.431   0.610  12.386 -0.3164  0.0344 -0.3350
  432TMC3    C6 6495   4.499   0.548  12.286  0.1290 -0.5034 -0.2277
  432TMC3     C 6496   4.533   0.951  12.376 -0.1398 -0.0147  0.3667
  432TMC3     O 6497   4.644   0.997  12.341  0.4084 -0.1424 -0.3122
  432TMC3     H 6498   4.606   0.848  12.150 -3.3328  2.7204  2.0916
  432TMC3    H1 6499   4.365   0.792  12.486 -0.1037 -0.0653 -0.2017
  432TMC3    H2 6500   4.523   0.443  12.280  2.4221  0.0127 -0.1444
  432TMC3    C7 6501   4.351   0.528  12.462 -0.3998  0.0430 -0.4932
  432TMC3    C8 6502   4.645   0.572  12.105  0.5980 -0.0815  0.6791
  432TMC3    O1 6503   4.328   0.416  12.413 -0.0312 -0.4444  0.1654
  432TMC3    O2 6504   4.617   0.465  12.062  0.0320 -0.4898 -0.4754
  433MPD2     C 6505   3.567   0.010  11.180 -0.0423 -0.7249 -0.6155
  433MPD2    C1 6506   3.525   4.614  11.180  0.1602 -0.0897  0.0998
  433MPD2    C2 6507   3.522   4.557  11.302  1.1660 -0.2472 -0.7978
  433MPD2    C3 6508   3.568   4.606  11.425  0.0431  0.2386  0.4670
  433MPD2    C4 6509   3.604   0.008  11.422  0.0295 -0.5366  0.0100
  433MPD2    C5 6510   3.610   0.066  11.299  0.1092 -0.3814  0.2512
  433MPD2     H 6511   3.489   4.454  11.306 -1.0543  0.5632  2.1606
  433MPD2    H1 6512   3.638   0.064  11.508 -1.7762  2.3777 -1.1587
  433MPD2    H2 6513   3.571   0.066  11.087 -3.0906 -0.3536 -0.5172
  433MPD2    H3 6514   3.653   0.166  11.299  0.5948 -0.5901  1.0321
  433MPD2     N 6515   3.568   4.526  11.544  0.5610  0.6583  0.4202
  433MPD2    H5 6516   3.552   4.427  11.532 -0.1969  0.8409 -0.0981
  433MPD2    N1 6517   3.490   4.553  11.054  0.4712  0.1996 -0.4099
  433MPD2    H7 6518   3.542   4.581  10.971 -0.7679  0.8676 -0.9474
  434TMC3    C1 6519   3.445   4.356  10.924  0.6179 -0.8158 -0.3062
  434TMC3    C2 6520   3.571   4.331  10.891 -0.0326 -0.2074 -0.2295
  434TMC3    C3 6521   3.592   4.218  10.815  0.1170 -0.0105  0.5045
  434TMC3    C4 6522   3.333   4.295  10.876  0.0960 -0.6722 -0.3485
  434TMC3    C5 6523   3.361   4.190  10.795  0.0664  0.1874 -0.5484
  434TMC3    C6 6524   3.487   4.148  10.764 -1.1476 -0.8001 -0.7020
  434TMC3     C 6525   3.427   4.432  11.046 -0.2617  0.0775 -0.7423
  434TMC3     O 6526   3.352   4.374  11.124  0.5194 -0.1690  0.2381
  434TMC3     H 6527   3.639   4.363  10.970  3.6767 -3.7604 -1.9643
  434TMC3    H1 6528   3.240   4.326  10.922 -0.1336 -0.4704 -0.9519
  434TMC3    H2 6529   3.508   4.060  10.704  2.1396  0.2506 -1.1248
  434TMC3    C7 6530   3.258   4.117  10.728  0.1269  0.3960  0.4199
  434TMC3    C8 6531   3.695   4.137  10.861 -0.4356 -0.1658 -0.5532
  434TMC3    O1 6532   3.153   4.176  10.713 -0.2685  0.3141  0.4021
  434TMC3    O2 6533   3.671   4.018  10.870 -0.0523 -0.1556 -0.1579
  435MPD2     C 6534   0.541   4.659  15.732 -0.4272  0.6816 -0.2716
  435MPD2    C1 6535   0.553   4.681  15.865 -0.4639 -0.0067  0.3056
  435MPD2    C2 6536   0.678   4.640  15.917  0.2340  0.2508  0.0355
  435MPD2    C3 6537   0.768   4.567  15.847 -0.1996  0.2202 -0.3706
  435MPD2    C4 6538   0.739   4.534  15.719 -0.1027  0.3304  0.0354
  435MPD2    C5 6539   0.633   4.593  15.656  0.1164  0.1694  0.3274
  435MPD2     H 6540   0.698   4.650  16.023 -0.2293 -0.1884  0.1667
  435MPD2    H1 6541   0.798   4.477  15.648  2.0404  1.5671  0.8526
  435MPD2    H2 6542   0.447   4.683  15.684 -1.1851 -0.8983  0.4283
  435MPD2    H3 6543   0.626   4.589  15.548  0.5006  1.7225  0.2392
  435MPD2     N 6544   0.874   4.514  15.918  0.1410  0.0517  0.3436
  435MPD2    H5 6545   0.894   4.544  16.013 -1.3222  0.6726  0.4608
  435MPD2    N1 6546   0.460   0.002  15.950  0.2646 -0.4230 -0.2253
  435MPD2    H7 6547   0.489   0.024  16.045  1.5122 -0.3114 -0.6364
  436TMC3    C1 6548   0.234   0.195  16.242  0.5116  0.2427  0.1439
  436TMC3    C2 6549   0.312   0.127  16.154 -0.1992  0.0714  0.0223
  436TMC3    C3 6550   0.260   0.101  16.029 -0.0030  0.3916 -0.0455
  436TMC3    C4 6551   0.109   0.235  16.220  0.2732  0.4787  0.7407
  436TMC3    C5 6552   0.057   0.211  16.097 -0.2450  0.6049 -0.0164
  436TMC3    C6 6553   0.139   0.149  15.999  0.2437 -0.0402 -0.0989
  436TMC3     C 6554   0.300   0.218  16.376 -0.0323  0.0323 -0.4364
  436TMC3     O 6555   0.423   0.200  16.374 -0.1438 -0.0861 -0.2090
  436TMC3     H 6556   0.414   0.096  16.175 -0.6217 -0.8282  0.7937
  436TMC3    H1 6557   0.048   0.270  16.303 -0.0830  1.3058  0.1339
  436TMC3    H2 6558   0.095   0.118  15.905  0.1555 -1.4551  0.3979
  436TMC3    C7 6559   4.655   0.250  16.067 -0.2856 -0.4015 -0.3569
  436TMC3    C8 6560   0.336   0.040  15.923 -0.0590  0.3986  0.0068
  436TMC3    O1 6561   4.596   0.312  16.155 -0.0868  0.2939 -0.7510
  436TMC3    O2 6562   0.280   0.038  15.814 -0.3594  0.5199 -0.2749
  437TMC3    C1 6563   4.016   1.647  12.556  0.0280 -0.9952  0.0520
  437TMC3    C2 6564   3.918   1.620  12.453  0.8309  0.4388 -0.1631
  437TMC3    C3 6565   3.916   1.709  12.347 -0.8089  0.3428  0.1400
  437TMC3    C4 6566   4.111   1.739  12.549  0.8288 -0.3711  0.0439
  437TMC3    C5 6567   4.097   1.832  12.452  0.0283 -0.4558  0.3838
  437TMC3    C6 6568   4.001   1.817  12.351 -0.3793 -0.0065 -0.1321
  437TMC3     C 6569   4.043   1.544  12.662  0.2746  0.0640  0.5741
  437TMC3     O 6570   4.113   1.568  12.762 -0.5733  0.0680 -0.0818
  437TMC3     H 6571   3.837   1.551  12.471  1.7463 -0.7537 -0.5961
  437TMC3    H1 6572   4.178   1.747  12.634  1.3609 -2.6800 -0.1588
  437TMC3    H2 6573   4.002   1.887  12.269 -0.6164  0.5244  0.3196
  437TMC3    C7 6574   4.195   1.936  12.439  0.7064 -0.2809  0.0717
  437TMC3    C8 6575   3.816   1.704  12.244 -0.5338  0.2365 -0.0446
  437TMC3    O1 6576   4.167   2.031  12.369  0.3579 -0.5372  0.9399
  437TMC3    O2 6577   3.815   1.803  12.179 -0.4281 -0.1386 -0.6695
  438MPD2     C 6578   1.535   2.562  16.909  0.5859  0.4771  0.4589
  438MPD2    C1 6579   1.622   2.481  16.979  0.5704  0.1125 -0.3191
  438MPD2    C2 6580   1.588   2.454  17.113  0.2639  0.1146 -0.5261
  438MPD2    C3 6581   1.474   2.498  17.169  0.0008  0.2222  0.2579
  438MPD2    C4 6582   1.397   2.588  17.098  0.4452  0.5597  0.4346
  438MPD2    C5 6583   1.427   2.623  16.966 -0.4167 -0.2537 -0.0530
  438MPD2     H 6584   1.662   2.391  17.162 -0.0350  0.9663  1.0223
  438MPD2    H1 6585   1.305   2.628  17.139  0.4007 -0.1259  0.9869
  438MPD2    H2 6586   1.559   2.585  16.806 -2.0798  3.9569  0.6407
  438MPD2    H3 6587   1.373   2.690  16.900  1.6687  1.4077 -0.0533
  438MPD2     N 6588   1.440   2.465  17.304 -0.1988 -0.0778  0.2449
  438MPD2    H5 6589   1.357   2.512  17.340 -1.6424  0.1670 -3.4397
  438MPD2    N1 6590   1.734   2.418  16.926 -0.2151 -0.3252 -0.5378
  438MPD2    H7 6591   1.796   2.368  16.989 -0.3874 -0.5435 -0.5407
  439TMC3    C1 6592   1.878   2.336  16.766 -0.4199 -0.3695  0.1411
  439TMC3    C2 6593   1.886   2.228  16.675  0.1820 -0.1246  0.0202
  439TMC3    C3 6594   1.998   2.150  16.683  0.0858  0.8045 -0.1268
  439TMC3    C4 6595   1.983   2.350  16.859 -0.5963 -0.2286  0.2783
  439TMC3    C5 6596   2.093   2.267  16.861  0.3247  0.3941 -0.0616
  439TMC3    C6 6597   2.099   2.156  16.778 -0.4384  0.1219 -0.0461
  439TMC3     C 6598   1.754   2.402  16.790  0.4890 -0.1947 -1.1592
  439TMC3     O 6599   1.667   2.410  16.707 -0.2798 -0.2744 -0.3287
  439TMC3     H 6600   1.808   2.218  16.600 -0.5475  1.1312  0.6049
  439TMC3    H1 6601   1.990   2.444  16.912  0.2911 -1.0280  1.5804
  439TMC3    H2 6602   2.182   2.088  16.792 -2.7530 -2.3299  1.8766
  439TMC3    C7 6603   2.169   2.258  16.987 -0.2856  0.3221  0.6943
  439TMC3    C8 6604   2.023   2.039  16.595 -0.5102 -0.0478 -0.0288
  439TMC3    O1 6605   2.212   2.153  17.028 -0.6358 -0.0225 -0.2782
  439TMC3    O2 6606   2.146   2.018  16.590 -0.1257 -0.0285 -0.0527
  440MPD2     C 6607   0.768   2.686  14.989  0.1539 -0.2770 -0.4099
  440MPD2    C1 6608   0.750   2.792  15.077  0.1123 -0.4675 -0.9093
  440MPD2    C2 6609   0.720   2.762  15.207 -0.0619  0.3143 -0.6973
  440MPD2    C3 6610   0.681   2.644  15.256  0.2316 -0.0332  0.1466
  440MPD2    C4 6611   0.689   2.538  15.167  0.0041 -0.8504  0.3595
  440MPD2    C5 6612   0.735   2.563  15.036  0.2753  0.1570 -0.4258
  440MPD2     H 6613   0.724   2.843  15.279 -0.9031 -1.3057  1.1813
  440MPD2    H1 6614   0.669   2.434  15.190 -0.0901 -1.3271 -1.9331
  440MPD2    H2 6615   0.796   2.714  14.888  2.4495  1.6727  0.7660
  440MPD2    H3 6616   0.748   2.469  14.983  3.0484 -1.3046  2.8470
  440MPD2     N 6617   0.632   2.624  15.387 -0.0229  0.6784  0.5465
  440MPD2    H5 6618   0.624   2.528  15.419 -0.3429  0.7959  0.8203
  440MPD2    N1 6619   0.759   2.927  15.037 -0.6131 -0.5484  0.0775
  440MPD2    H7 6620   0.741   2.988  15.115 -0.6798 -0.0899 -0.2944
  441TMC3    C1 6621   0.615   2.693  15.611  0.3364  0.1255 -0.1351
  441TMC3    C2 6622   0.672   2.790  15.686  0.5296 -0.2844  0.0064
  441TMC3    C3 6623   0.723   2.760  15.812  0.6070  0.3705  0.4285
  441TMC3    C4 6624   0.625   2.558  15.643 -0.4111  0.5291  0.3147
  441TMC3    C5 6625   0.682   2.535  15.771  0.3589 -0.0102 -0.2674
  441TMC3    C6 6626   0.734   2.630  15.847  0.3415  0.1556 -0.5512
  441TMC3     C 6627   0.595   2.729  15.472 -0.6856  0.4107 -0.1419
  441TMC3     O 6628   0.554   2.839  15.449 -0.0874 -0.2098 -0.1092
  441TMC3     H 6629   0.666   2.893  15.651 -3.0707  0.0945  1.6778
  441TMC3    H1 6630   0.571   2.487  15.582  1.2289 -0.8972  0.5310
  441TMC3    H2 6631   0.795   2.611  15.934  0.6908 -1.6698 -1.1840
  441TMC3    C7 6632   0.695   2.402  15.824 -0.4399  0.3871  0.1382
  441TMC3    C8 6633   0.797   2.864  15.889 -0.5344 -0.0102 -0.1776
  441TMC3    O1 6634   0.757   2.391  15.928  0.1386  0.2261  0.0421
  441TMC3    O2 6635   0.806   2.847  16.011 -0.0707 -0.2215 -0.2940
  442MPD2     C 6636   3.529   3.470  15.889 -0.2290  0.3293 -0.0045
  442MPD2    C1 6637   3.411   3.406  15.850 -0.2720 -0.1171  0.0455
  442MPD2    C2 6638   3.404   3.269  15.873 -0.3642  0.3494  0.1620
  442MPD2    C3 6639   3.513   3.198  15.912  0.2172  0.3363  0.7411
  442MPD2    C4 6640   3.632   3.265  15.937  0.1208 -0.0032  0.3148
  442MPD2    C5 6641   3.637   3.398  15.934 -0.6871 -0.5309  0.3639
  442MPD2     H 6642   3.312   3.215  15.854 -0.6822  0.3638  1.7129
  442MPD2    H1 6643   3.721   3.208  15.962  0.5927  1.8668  2.8722
  442MPD2    H2 6644   3.533   3.578  15.882 -0.2852  0.2556 -1.1230
  442MPD2    H3 6645   3.732   3.445  15.956  0.1200 -0.8900 -2.3303
  442MPD2     N 6646   3.518   3.060  15.940 -0.0579  0.2043  0.0030
  442MPD2    H5 6647   3.611   3.019  15.946 -0.1951 -0.2308 -0.7986
  442MPD2    N1 6648   3.298   3.476  15.805 -0.0343  0.0037 -0.1595
  442MPD2    H7 6649   3.218   3.418  15.780 -1.3232  0.5191  2.7172
  443TMC3    C1 6650   3.146   3.636  15.731 -0.2125 -0.3588 -0.0170
  443TMC3    C2 6651   3.139   3.721  15.621 -0.2579  0.2265  0.0537
  443TMC3    C3 6652   3.030   3.712  15.538 -0.3055 -0.4185 -0.0450
  443TMC3    C4 6653   3.038   3.559  15.762  0.4234 -0.6404 -0.1305
  443TMC3    C5 6654   2.929   3.570  15.690  1.1040 -1.0318  0.0101
  443TMC3    C6 6655   2.917   3.644  15.576  0.2654 -0.7118  0.1558
  443TMC3     C 6656   3.279   3.615  15.783  0.7898 -0.5022  0.5766
  443TMC3     O 6657   3.363   3.701  15.756 -0.4118  0.2686  0.0151
  443TMC3     H 6658   3.214   3.798  15.613  0.5553 -0.3634  1.8214
  443TMC3    H1 6659   3.033   3.504  15.855  2.4464  0.9031  0.8997
  443TMC3    H2 6660   2.825   3.645  15.518  1.0460  0.2348 -1.0423
  443TMC3    C7 6661   2.822   3.483  15.731  0.6369 -0.0678  0.2677
  443TMC3    C8 6662   3.038   3.801  15.425  0.1939 -0.5853 -0.1283
  443TMC3    O1 6663   2.849   3.396  15.812  0.2355 -0.1360 -0.3955
  443TMC3    O2 6664   3.068   3.917  15.444  0.4722 -0.5150 -0.4146
  444MPD2     C 6665   3.760   2.844  17.296 -0.0321  0.2091 -0.5628
  444MPD2    C1 6666   3.727   2.720  17.350 -0.1682 -0.7966 -0.5603
  444MPD2    C2 6667   3.793   2.611  17.298  0.8244 -0.2526  0.6453
  444MPD2    C3 6668   3.894   2.620  17.201  0.1713  0.5785  0.6807
  444MPD2    C4 6669   3.923   2.743  17.146 -1.7065 -0.0982 -0.2395
  444MPD2    C5 6670   3.848   2.855  17.188 -0.4603  0.4128  0.0579
  444MPD2     H 6671   3.780   2.517  17.350  0.3322  0.3041  1.5287
  444MPD2    H1 6672   4.002   2.751  17.073 -0.7336 -0.4113  0.7804
  444MPD2    H2 6673   3.712   2.938  17.317 -0.7254  0.0443 -1.3605
  444MPD2    H3 6674   3.864   2.955  17.149 -2.2631  1.0756  1.0377
  444MPD2     N 6675   3.970   2.501  17.180  0.2849  0.4913 -0.2232
  444MPD2    H5 6676   3.930   2.418  17.222  0.7448  0.2840 -0.1946
  444MPD2    N1 6677   3.636   2.705  17.451  0.4669  0.1233  0.2812
  444MPD2    H7 6678   3.620   2.611  17.486 -2.6534  0.7480  0.5949
  445TMC3    C1 6679   4.118   2.355  17.072 -0.3216 -0.5137  0.0271
  445TMC3    C2 6680   4.029   2.259  17.039  0.1891  0.1628  0.6339
  445TMC3    C3 6681   4.076   2.153  16.967  0.9892  0.0446 -0.0951
  445TMC3    C4 6682   4.243   2.353  17.033  0.1687  0.0579  0.2236
  445TMC3    C5 6683   4.287   2.238  16.969  1.0074  0.1943  0.1048
  445TMC3    C6 6684   4.206   2.138  16.930  0.1427 -0.6157  0.6615
  445TMC3     C 6685   4.073   2.489  17.095 -1.0868 -0.3067  0.0546
  445TMC3     O 6686   4.134   2.572  17.025 -0.5628  0.3237 -0.2227
  445TMC3     H 6687   3.930   2.257  17.082  0.6480  1.7668  1.7595
  445TMC3    H1 6688   4.308   2.429  17.075  0.4632 -1.5571  2.7087
  445TMC3    H2 6689   4.230   2.048  16.875  0.0257  0.4224 -1.0741
  445TMC3    C7 6690   4.423   2.207  16.990  0.1520 -0.7261  0.4039
  445TMC3    C8 6691   3.995   2.036  16.958  0.1056 -0.1846 -0.2359
  445TMC3    O1 6692   4.460   2.247  17.103  0.4310  0.5210 -0.2726
  445TMC3    O2 6693   4.054   1.925  16.946  0.9317 -0.1987 -0.2813
  446MPD2     C 6694   3.402   3.798  11.052  0.0697  0.0197 -0.5371
  446MPD2    C1 6695   3.350   3.927  11.085 -0.9817 -0.1859 -0.3023
  446MPD2    C2 6696   3.433   4.019  11.154  0.2660  0.1516 -0.2652
  446MPD2    C3 6697   3.557   3.973  11.196 -0.6647  0.0701  0.0374
  446MPD2    C4 6698   3.589   3.845  11.192 -0.1562  0.7607 -0.3440
  446MPD2    C5 6699   3.510   3.754  11.127  0.3217 -0.1576 -0.3680
  446MPD2     H 6700   3.398   4.122  11.156 -0.9267 -0.2645  0.2641
  446MPD2    H1 6701   3.685   3.813  11.231 -1.0623 -2.1812 -0.5150
  446MPD2    H2 6702   3.344   3.739  10.982  0.6264  0.5674 -1.4513
  446MPD2    H3 6703   3.547   3.652  11.123 -0.3546 -0.4450  0.4318
  446MPD2     N 6704   3.651   4.063  11.256 -0.0656  0.3939  0.0717
  446MPD2    H5 6705   3.611   4.156  11.254  2.4036  1.4489 -0.7397
  446MPD2    N1 6706   3.214   3.958  11.057  0.2827 -0.5323 -0.1221
  446MPD2    H7 6707   3.174   4.046  11.085 -3.9250 -1.0099 -4.6334
  447TMC3    C1 6708   3.830   4.163  11.364 -0.5088 -0.0370  1.2403
  447TMC3    C2 6709   3.798   4.281  11.305  0.5500 -0.0973 -0.5845
  447TMC3    C3 6710   3.889   4.388  11.308 -0.7730 -0.2515  0.7114
  447TMC3    C4 6711   3.950   4.147  11.424 -0.3792 -0.0306  0.2368
  447TMC3    C5 6712   4.034   4.257  11.439 -0.2058  0.1483 -0.1345
  447TMC3    C6 6713   3.999   4.382  11.391  0.0598 -0.1075  0.2096
  447TMC3     C 6714   3.770   4.035  11.318  0.9576 -0.0833  0.9621
  447TMC3     O 6715   3.831   3.930  11.327 -0.4498 -0.7460  0.1456
  447TMC3     H 6716   3.711   4.302  11.243  0.0606 -1.2689 -0.2828
  447TMC3    H1 6717   3.978   4.051  11.466 -1.0379 -0.9114 -1.3520
  447TMC3    H2 6718   4.064   4.468  11.404 -0.3657 -0.1218  2.4639
  447TMC3    C7 6719   4.176   4.231  11.426 -0.3572 -0.0858  0.5278
  447TMC3    C8 6720   3.900   4.449  11.175 -0.4571  0.3418  0.2267
  447TMC3    O1 6721   4.234   4.315  11.356 -0.5402  0.4487 -0.0970
  447TMC3    O2 6722   3.801   4.442  11.106  0.0832 -0.4321 -0.0646
  448TMC3    C1 6723   1.577   4.013  17.171 -0.1303  0.0437 -0.6212
  448TMC3    C2 6724   1.561   3.875  17.158 -0.0337 -0.4314 -0.5083
  448TMC3    C3 6725   1.630   3.791  17.241 -0.3523  0.0144 -0.4682
  448TMC3    C4 6726   1.667   4.069  17.262  0.3492 -0.6706  0.2724
  448TMC3    C5 6727   1.720   3.984  17.349  0.5148  0.1922  0.3516
  448TMC3    C6 6728   1.715   3.845  17.334 -0.4105 -0.0175  0.0275
  448TMC3     C 6729   1.510   4.096  17.073  0.1947 -0.4179  0.3352
  448TMC3     O 6730   1.511   4.211  17.106 -0.3162 -0.0333  0.1985
  448TMC3     H 6731   1.484   3.838  17.091 -0.2535 -0.1121 -0.4336
  448TMC3    H1 6732   1.686   4.175  17.274  0.6596 -0.5054 -1.6213
  448TMC3    H2 6733   1.770   3.781  17.402  3.1230  1.4712 -1.4335
  448TMC3    C7 6734   1.776   4.052  17.463 -0.1245 -0.1981 -0.6880
  448TMC3    C8 6735   1.650   3.656  17.204 -1.0639  0.2672 -0.4718
  448TMC3    O1 6736   1.810   4.170  17.454 -0.0919 -0.3696  0.1622
  448TMC3    O2 6737   1.679   3.581  17.295 -0.2593  0.0219 -0.0161
  449MPD2     C 6738   3.308   1.850  13.883  0.2872  0.8549 -0.2989
  449MPD2    C1 6739   3.229   1.950  13.832  0.4207  0.1104 -0.2379
  449MPD2    C2 6740   3.113   1.998  13.903  0.2482  0.7312  0.0612
  449MPD2    C3 6741   3.095   1.965  14.034 -0.2651 -0.1411  0.0454
  449MPD2    C4 6742   3.172   1.864  14.080  0.3626 -0.6820  0.0856
  449MPD2    C5 6743   3.282   1.810  14.016  0.5041 -0.5868 -0.2659
  449MPD2     H 6744   3.047   2.069  13.854  0.2914 -0.4530 -1.7252
  449MPD2    H1 6745   3.153   1.817  14.176 -1.0020 -0.0725  0.1045
  449MPD2    H2 6746   3.397   1.807  13.836  1.3382  1.5047  1.0915
  449MPD2    H3 6747   3.343   1.732  14.060 -2.5933 -1.2906  2.7823
  449MPD2     N 6748   3.008   2.035  14.109 -0.5328 -0.3101  0.2988
  449MPD2    H5 6749   2.958   2.111  14.065  0.4930 -0.6935 -1.5336
  449MPD2    N1 6750   3.271   2.027  13.717 -0.0671 -0.3433  0.1539
  449MPD2    H7 6751   3.205   2.100  13.692 -1.8514 -2.1788 -0.4948
  450TMC3    C1 6752   3.381   2.118  13.545 -0.2475 -0.2223 -0.4392
  450TMC3    C2 6753   3.354   2.084  13.420  0.6646  0.5822  0.5254
  450TMC3    C3 6754   3.282   2.170  13.345 -0.3226  0.3012 -0.1073
  450TMC3    C4 6755   3.333   2.235  13.592 -0.8433 -0.0463  0.2591
  450TMC3    C5 6756   3.247   2.314  13.522  0.4297 -0.6020 -1.0114
  450TMC3    C6 6757   3.202   2.274  13.397  0.3683 -0.3726  0.4182
  450TMC3     C 6758   3.380   2.008  13.642 -0.2456  0.1716  0.2185
  450TMC3     O 6759   3.461   1.919  13.630 -0.0102  0.1251  0.4087
  450TMC3     H 6760   3.401   1.989  13.396 -1.0542 -0.7298  2.4453
  450TMC3    H1 6761   3.348   2.253  13.697 -0.2512  2.1433 -0.2104
  450TMC3    H2 6762   3.140   2.333  13.330 -0.4592  0.0580  1.5471
  450TMC3    C7 6763   3.148   2.359  13.611  0.4685  0.4497 -0.9060
  450TMC3    C8 6764   3.320   2.172  13.209  0.3147  0.1531 -0.6272
  450TMC3    O1 6765   3.117   2.268  13.690 -0.3657 -0.1989  0.1171
  450TMC3    O2 6766   3.242   2.233  13.133  0.1158 -0.0964  0.2411
  451MPD2     C 6767   0.496   1.654   1.292 -0.7098 -0.1690  0.1879
  451MPD2    C1 6768   0.385   1.609   1.358  0.6649  0.4786  0.3422
  451MPD2    C2 6769   0.389   1.490   1.432 -0.1754  0.0583  0.0253
  451MPD2    C3 6770   0.505   1.419   1.445  0.2597 -0.5694  0.0095
  451MPD2    C4 6771   0.614   1.470   1.376  0.1358 -0.4076  0.1806
  451MPD2    C5 6772   0.605   1.580   1.305  0.3964 -0.1989  0.1171
  451MPD2     H 6773   0.302   1.452   1.485 -1.3596  2.2373 -0.3593
  451MPD2    H1 6774   0.703   1.408   1.372 -1.1613 -2.2133 -1.0309
  451MPD2    H2 6775   0.497   1.751   1.243 -0.3686 -0.5962 -0.6562
  451MPD2    H3 6776   0.696   1.613   1.255  0.6728 -1.7001 -0.3773
  451MPD2     N 6777   0.517   1.295   1.517 -0.1711  0.4078 -0.0504
  451MPD2    H5 6778   0.601   1.240   1.501 -2.0358 -2.5241  0.1506
  451MPD2    N1 6779   0.260   1.668   1.354 -0.6489  0.1018 -0.0169
  451MPD2    H7 6780   0.180   1.628   1.402 -0.6703  1.0739  0.7472
  452TMC3    C1 6781   0.431   1.080   1.608  0.0422 -0.9569  0.2913
  452TMC3    C2 6782   0.321   1.013   1.638 -0.0722 -0.0566 -0.4408
  452TMC3    C3 6783   0.324   0.879   1.655 -0.2184 -0.5674  0.7150
  452TMC3    C4 6784   0.547   1.020   1.575 -0.2774  0.3746  0.1394
  452TMC3    C5 6785   0.541   0.882   1.576  0.1742 -0.4822 -0.0894
  452TMC3    C6 6786   0.437   0.805   1.622  0.5953 -0.3537  0.6320
  452TMC3     C 6787   0.410   1.224   1.580 -0.7201  0.2043 -0.8889
  452TMC3     O 6788   0.302   1.277   1.592  0.2416  0.4443 -0.1699
  452TMC3     H 6789   0.232   1.063   1.675 -0.7209  1.0617 -3.5373
  452TMC3    H1 6790   0.638   1.077   1.559 -0.7871  0.3630 -2.9162
  452TMC3    H2 6791   0.432   0.697   1.626  0.5564 -0.3983 -0.5342
  452TMC3    C7 6792   0.624   0.832   1.467 -0.1276 -0.8612 -0.2649
  452TMC3    C8 6793   0.197   0.809   1.644 -0.2761 -0.4026 -0.2736
  452TMC3    O1 6794   0.695   0.910   1.404  0.2825  0.0463 -0.3301
  452TMC3    O2 6795   0.196   0.688   1.665  0.2244 -0.2879 -0.2991
  453TMC3    C1 6796   0.645   2.768  11.967  0.1562 -0.6264 -0.5791
  453TMC3    C2 6797   0.514   2.787  12.007  0.2262  0.0263 -0.1624
  453TMC3    C3 6798   0.416   2.724  11.938  0.0508 -0.2024  0.0847
  453TMC3    C4 6799   0.684   2.699  11.856  0.0744 -0.5224  0.0034
  453TMC3    C5 6800   0.582   2.650  11.783 -0.5522  0.2403  0.3733
  453TMC3    C6 6801   0.452   2.654  11.823 -0.2261 -0.8694  0.2181
  453TMC3     C 6802   0.750   2.791  12.054 -0.0341  0.3486  0.0578
  453TMC3     O 6803   0.864   2.787  12.014  0.1828 -0.1129  0.5680
  453TMC3     H 6804   0.491   2.827  12.105  1.1654  0.7071 -0.2223
  453TMC3    H1 6805   0.789   2.675  11.837  0.2236 -0.9667  1.4060
  453TMC3    H2 6806   0.375   2.606  11.764  0.7845 -1.6502 -0.4774
  453TMC3    C7 6807   0.614   2.526  11.721 -0.0547 -0.8408 -0.6212
  453TMC3    C8 6808   0.331   2.649  12.027  0.3624  0.6486  0.0076
  453TMC3    O1 6809   0.528   2.442  11.755 -0.7183 -0.2300  0.5274
  453TMC3    O2 6810   0.278   2.709  12.117 -0.3472  0.3345 -0.0691
  454MPD2     C 6811   4.606   2.384  16.348 -0.3738 -0.0435 -1.1619
  454MPD2    C1 6812   4.545   2.428  16.231  0.3294  0.0081 -0.3359
  454MPD2    C2 6813   4.511   2.567  16.223 -0.3374  0.1138 -0.5059
  454MPD2    C3 6814   4.528   2.651  16.331  0.4444  0.1136 -0.3214
  454MPD2    C4 6815   4.589   2.606  16.447  0.1713 -0.2296  0.3027
  454MPD2    C5 6816   4.623   2.472  16.455 -0.3041  0.0464  0.3579
  454MPD2     H 6817   4.466   2.592  16.128  3.1822  1.6191 -1.7938
  454MPD2    H1 6818   4.593   2.666  16.537 -1.3658  0.0760  0.1656
  454MPD2    H2 6819   4.651   2.286  16.356  0.3217  0.4181  0.5271
  454MPD2    H3 6820   4.678   2.444  16.543 -0.8660  1.2216  1.0791
  454MPD2     N 6821   4.489   2.785  16.327  1.0628 -0.3896  0.5946
  454MPD2    H5 6822   4.473   2.836  16.414 -0.8797  2.2030 -1.2867
  454MPD2    N1 6823   4.496   2.347  16.136 -0.2677  0.0474  0.3487
  454MPD2    H7 6824   4.462   2.390  16.050  0.7425 -0.3323 -0.2389
  455TMC3    C1 6825   4.342   2.938  16.253 -0.2662  0.4937 -0.2430
  455TMC3    C2 6826   4.343   2.997  16.373 -0.4766  0.5380  0.6938
  455TMC3    C3 6827   4.233   3.057  16.419  0.3091  0.0055  0.1244
  455TMC3    C4 6828   4.225   2.917  16.187 -0.8991 -0.6166 -0.0055
  455TMC3    C5 6829   4.104   2.953  16.242 -0.0265 -0.0590 -0.1223
  455TMC3    C6 6830   4.108   3.028  16.359  0.4804 -0.0153 -0.4581
  455TMC3     C 6831   4.439   2.844  16.216 -0.5793 -0.1681 -0.0410
  455TMC3     O 6832   4.449   2.819  16.096  0.0713 -0.2772  0.4698
  455TMC3     H 6833   4.439   3.023  16.416 -0.2975  1.8958 -0.5237
  455TMC3    H1 6834   4.230   2.849  16.102 -2.4852 -0.1873 -0.4412
  455TMC3    H2 6835   4.017   3.059  16.409 -0.8819 -1.2570 -2.1552
  455TMC3    C7 6836   4.019   2.832  16.246  1.0899  0.1143 -0.6464
  455TMC3    C8 6837   4.236   3.150  16.526  0.7309  0.2945 -0.7308
  455TMC3    O1 6838   3.912   2.827  16.190  0.1275  0.2384  0.3809
  455TMC3    O2 6839   4.333   3.149  16.595  0.1225  0.0163  0.3496
  456MPD2     C 6840   1.878   2.651  16.460  0.2979  0.3105 -0.1859
  456MPD2    C1 6841   1.998   2.635  16.529  0.1610  0.4711  0.1652
  456MPD2    C2 6842   1.989   2.659  16.666  0.3081  0.1547 -0.1861
  456MPD2    C3 6843   1.878   2.714  16.727  0.4166 -0.3696  0.4544
  456MPD2    C4 6844   1.769   2.732  16.656 -0.3124 -0.0786 -0.2543
  456MPD2    C5 6845   1.763   2.692  16.524 -0.6796 -0.3454  0.2764
  456MPD2     H 6846   2.086   2.655  16.715  0.5436 -0.4611 -0.6921
  456MPD2    H1 6847   1.681   2.778  16.700 -0.2772 -0.3711  0.1110
  456MPD2    H2 6848   1.869   2.618  16.357 -3.1547 -1.2015  0.5885
  456MPD2    H3 6849   1.670   2.709  16.470 -0.9954 -1.7393  0.3616
  456MPD2     N 6850   1.872   2.751  16.860  0.0431  0.4632 -0.4493
  456MPD2    H5 6851   1.793   2.805  16.892 -1.2683 -1.9713  0.4172
  456MPD2    N1 6852   2.116   2.595  16.459  0.1219 -0.0308 -0.0890
  456MPD2    H7 6853   2.113   2.610  16.359  1.1544  0.6450 -0.0175
  457TMC3    C1 6854   1.944   2.806  17.076 -0.1749  0.8755 -0.1732
  457TMC3    C2 6855   1.879   2.927  17.057  0.7775 -0.4634  0.4119
  457TMC3    C3 6856   1.859   3.005  17.163 -0.4706 -0.1614 -0.2433
  457TMC3    C4 6857   1.971   2.752  17.197 -0.0356 -0.6750 -0.1188
  457TMC3    C5 6858   1.952   2.833  17.306  0.1933 -0.5410  0.0693
  457TMC3    C6 6859   1.909   2.961  17.288 -0.1370 -0.0599  0.4915
  457TMC3     C 6860   1.970   2.731  16.954  0.2539 -0.0891 -0.9707
  457TMC3     O 6861   2.064   2.655  16.948  0.2756 -0.1322  0.3029
  457TMC3     H 6862   1.895   2.970  16.959 -2.7246  1.9816  0.9306
  457TMC3    H1 6863   2.008   2.650  17.199 -0.1819 -0.7194  0.5079
  457TMC3    H2 6864   1.898   3.042  17.359 -0.8383  0.6586 -0.4296
  457TMC3    C7 6865   2.019   2.796  17.431  0.3964 -0.0948 -0.3244
  457TMC3    C8 6866   1.802   3.137  17.157 -0.0930  0.9835 -0.2471
  457TMC3    O1 6867   2.094   2.699  17.435  0.0107  0.1824  0.2111
  457TMC3    O2 6868   1.847   3.218  17.240 -0.3280 -0.1886 -0.1721
  458MPD2     C 6869   4.656   2.139  12.469 -0.0360  0.3702 -0.2395
  458MPD2    C1 6870   4.641   2.052  12.576  0.1919 -0.4079 -0.4958
  458MPD2    C2 6871   4.528   1.971  12.587  0.3029 -0.3751 -0.7076
  458MPD2    C3 6872   4.422   1.999  12.510 -0.1993 -0.1136  0.4219
  458MPD2    C4 6873   4.437   2.087  12.403  0.3955 -0.5963  0.5737
  458MPD2    C5 6874   4.557   2.151  12.383  0.5938  0.1133 -0.1113
  458MPD2     H 6875   4.512   1.902  12.669  0.5210 -0.2823 -0.5860
  458MPD2    H1 6876   4.366   2.095  12.321 -0.5379 -1.2657  1.3158
  458MPD2    H2 6877   0.010   2.196  12.447  0.4735 -0.5663 -0.6025
  458MPD2    H3 6878   4.566   2.225  12.305 -0.0476  0.1591 -0.1445
  458MPD2     N 6879   4.306   1.916  12.519 -0.4967  0.2732  0.2307
  458MPD2    H5 6880   4.298   1.840  12.586  0.3367 -0.7096 -0.7754
  458MPD2    N1 6881   0.010   2.042  12.666 -0.1075  0.8273 -0.2464
  458MPD2    H7 6882   0.082   2.113  12.659  0.8661  0.0777  2.1618
  459TMC3    C1 6883   0.145   1.959  12.834 -0.2835  0.1928  0.2134
  459TMC3    C2 6884   0.255   2.030  12.794 -0.0127  0.2924  0.1084
  459TMC3    C3 6885   0.358   2.036  12.884 -0.0404  0.0077 -0.5453
  459TMC3    C4 6886   0.136   1.914  12.963  0.7215 -0.3624 -0.3308
  459TMC3    C5 6887   0.245   1.918  13.047  0.0013  0.0887  0.6565
  459TMC3    C6 6888   0.360   1.980  13.010 -0.2602  0.8841  0.4749
  459TMC3     C 6889   0.022   1.941  12.762 -0.1413 -0.3662 -0.0845
  459TMC3     O 6890   4.678   1.856  12.796  0.0468 -0.3546 -0.1399
  459TMC3     H 6891   0.267   2.068  12.693 -0.0134 -0.2142 -0.0828
  459TMC3    H1 6892   0.046   1.862  12.992  1.0426 -0.7812 -0.0715
  459TMC3    H2 6893   0.454   1.968  13.063 -1.4817  0.0050  2.4680
  459TMC3    C7 6894   0.248   1.806  13.143 -0.1183 -0.1832 -0.0108
  459TMC3    C8 6895   0.463   2.134  12.850 -0.1663  0.1891 -0.2749
  459TMC3    O1 6896   0.350   1.798  13.213  0.2966 -0.1094  0.1729
  459TMC3    O2 6897   0.460   2.182  12.737 -0.0508  0.8187  0.9897
  460MPD2     C 6898   4.201   4.520  10.990  0.3448  1.2119 -0.7272
  460MPD2    C1 6899   4.066   4.520  11.014 -0.6085  0.1458 -0.8363
  460MPD2    C2 6900   3.972   4.548  10.914  0.4148  0.2518  0.0296
  460MPD2    C3 6901   4.016   4.571  10.789  0.5771  0.0063 -0.1383
  460MPD2    C4 6902   4.150   4.575  10.760  0.2971  0.0411 -0.4201
  460MPD2    C5 6903   4.236   4.548  10.861 -0.0815  0.5381 -0.2295
  460MPD2     H 6904   3.865   4.557  10.929  0.0400 -1.9851 -1.2847
  460MPD2    H1 6905   4.184   4.594  10.659  0.0683 -2.8306 -1.0192
  460MPD2    H2 6906   4.277   4.488  11.060 -2.1792  1.3005  2.0449
  460MPD2    H3 6907   4.342   4.550  10.840 -0.1103 -0.8824 -0.5016
  460MPD2     N 6908   3.914   4.583  10.690  0.3577  0.0632  0.0413
  460MPD2    H5 6909   3.816   4.601  10.710 -0.0435 -2.3855  0.1744
  460MPD2    N1 6910   4.029   4.475  11.141 -0.3021  0.5043 -0.8484
  460MPD2    H7 6911   4.100   4.467  11.213  3.5440 -0.1657 -4.6922
  461TMC3    C1 6912   3.814   4.566  10.474 -0.0063 -0.1253 -0.5506
  461TMC3    C2 6913   3.782   4.450  10.407 -0.0618 -0.0349 -0.3849
  461TMC3    C3 6914   3.658   4.445  10.349 -0.9191  0.3594 -0.2015
  461TMC3    C4 6915   3.744   4.681  10.464  0.9589  0.1357  0.0284
  461TMC3    C5 6916   3.630   4.673  10.393  0.3524  0.1065 -0.0013
  461TMC3    C6 6917   3.579   4.555  10.339 -0.3414  0.5416  0.0170
  461TMC3     C 6918   3.930   4.559  10.556 -0.2067 -0.7383 -0.2287
  461TMC3     O 6919   4.018   4.490  10.501  0.2358  0.3881  0.7440
  461TMC3     H 6920   3.843   4.361  10.407 -1.0444 -0.7159  0.9044
  461TMC3    H1 6921   3.786   0.034  10.510 -0.4117 -0.4021  2.3079
  461TMC3    H2 6922   3.478   4.569  10.303 -0.7682  0.9653  1.3844
  461TMC3    C7 6923   3.571   0.047  10.318 -0.3064 -0.4231 -0.0564
  461TMC3    C8 6924   3.609   4.317  10.302  0.3968  0.6058 -0.3743
  461TMC3    O1 6925   3.448   0.048  10.293 -0.7143  0.2303 -0.4048
  461TMC3    O2 6926   3.693   4.232  10.278 -0.4804  0.6489 -0.5682
  462TMC3    C1 6927   4.078   0.896   0.635  0.3931  0.4976 -0.5931
  462TMC3    C2 6928   4.048   0.881   0.504 -0.4155 -0.1116 -0.4515
  462TMC3    C3 6929   3.966   0.777   0.467 -0.1623  0.1850  0.2762
  462TMC3    C4 6930   4.040   0.797   0.728  0.4827  0.2783 -0.3514
  462TMC3    C5 6931   3.955   0.698   0.687  0.5288 -0.5971 -0.0772
  462TMC3    C6 6932   3.912   0.689   0.559 -0.4476  0.3191 -0.1377
  462TMC3     C 6933   4.205   0.958   0.666 -0.2814  0.3086 -0.7180
  462TMC3     O 6934   4.260   0.907   0.762  0.3948  0.1356  0.3886
  462TMC3     H 6935   4.094   0.942   0.428 -0.2019 -0.8846 -0.9470
  462TMC3    H1 6936   4.063   0.801   0.834 -2.0039  2.3743  0.1105
  462TMC3    H2 6937   3.864   0.596   0.534 -0.1960  0.1056  0.1799
  462TMC3    C7 6938   3.934   0.572   0.763 -0.1035 -0.8822 -0.0608
  462TMC3    C8 6939   3.909   0.776   0.336  0.1308 -0.2022  0.1266
  462TMC3    O1 6940   3.845   0.495   0.732 -0.5869  0.1227  0.3471
  462TMC3    O2 6941   3.922   0.876   0.271  0.7153  0.0820  0.1050
  463MPD2     C 6942   0.790   2.842   1.603  0.3160  0.4484  0.0935
  463MPD2    C1 6943   0.760   2.972   1.649 -0.4483  0.4987  1.3282
  463MPD2    C2 6944   0.856   3.055   1.696 -0.0267 -0.3615  0.0536
  463MPD2    C3 6945   0.987   3.003   1.711 -0.1900  0.2117  0.3145
  463MPD2    C4 6946   1.010   2.873   1.679 -0.1329  0.8536  0.3857
  463MPD2    C5 6947   0.913   2.797   1.614 -0.8358  0.5331  0.9823
  463MPD2     H 6948   0.838   3.160   1.716 -1.5879 -0.7229  0.5237
  463MPD2    H1 6949   1.107   2.824   1.681  0.4724  2.0067 -0.5923
  463MPD2    H2 6950   0.720   2.772   1.559  0.8987  0.8424 -1.4632
  463MPD2    H3 6951   0.929   2.695   1.580 -1.9827  0.3292  1.0544
  463MPD2     N 6952   1.082   3.098   1.765 -0.5068  0.1056  0.3894
  463MPD2    H5 6953   1.053   3.191   1.794 -0.3061 -0.0985  1.2470
  463MPD2    N1 6954   0.625   3.024   1.645  0.1080  0.1262 -0.0089
  463MPD2    H7 6955   0.606   3.114   1.689 -0.9247  0.7812 -1.8162
  464TMC3    C1 6956   0.390   3.038   1.630  0.3413 -0.4671 -0.9315
  464TMC3    C2 6957   0.403   3.163   1.570  0.0976  0.3124 -0.1052
  464TMC3    C3 6958   0.295   3.250   1.577  0.4142  0.0359 -0.1258
  464TMC3    C4 6959   0.268   2.986   1.676  0.2597  0.1609 -0.7595
  464TMC3    C5 6960   0.165   3.079   1.683  0.2497  0.0411  1.0412
  464TMC3    C6 6961   0.178   3.206   1.638  0.2578 -0.1496  0.1280
  464TMC3     C 6962   0.510   2.953   1.622 -0.3988 -0.5455  0.7006
  464TMC3     O 6963   0.493   2.834   1.616 -0.1278 -0.0761  0.5274
  464TMC3     H 6964   0.486   3.196   1.509  0.7604 -0.4126  0.4220
  464TMC3    H1 6965   0.267   2.886   1.718  1.8512 -0.9020 -3.1968
  464TMC3    H2 6966   0.094   3.273   1.647 -0.8421 -1.5100 -0.0652
  464TMC3    C7 6967   0.051   3.035   1.761  0.7912 -0.1132 -0.4872
  464TMC3    C8 6968   0.311   3.395   1.573  0.8754  0.1948 -0.4963
  464TMC3    O1 6969   0.068   2.949   1.848 -0.3142 -0.3732 -0.2543
  464TMC3    O2 6970   0.230   3.455   1.641 -0.3248 -0.5761 -0.2298
  465MPD2     C 6971   1.138   2.731  17.291  0.2018  0.0332  0.2458
  465MPD2    C1 6972   1.052   2.635  17.254  0.1991 -0.8459  0.3746
  465MPD2    C2 6973   1.005   2.642  17.121 -0.8754  0.1216  0.4298
  465MPD2    C3 6974   1.040   2.746  17.037 -0.0730 -0.2378 -0.8744
  465MPD2    C4 6975   1.138   2.836  17.083  0.3710  0.2779  0.5944
  465MPD2    C5 6976   1.186   2.826  17.208 -0.2102  0.6424 -0.0053
  465MPD2     H 6977   0.932   2.572  17.083 -0.4140 -0.2944  0.3141
  465MPD2    H1 6978   1.178   2.916  17.022  0.5197 -0.8532 -0.7958
  465MPD2    H2 6979   1.180   2.732  17.391 -2.4815  1.3802  1.3495
  465MPD2    H3 6980   1.256   2.893  17.256 -0.1856  0.3935  0.3030
  465MPD2     N 6981   0.987   2.754  16.904 -0.5644  0.4820  0.7058
  465MPD2    H5 6982   0.915   2.686  16.883 -0.1073 -0.3331  1.8104
  465MPD2    N1 6983   1.017   2.525  17.334 -0.5492  0.0592  0.3419
  465MPD2    H7 6984   0.939   2.472  17.297  0.2791  0.3341 -1.7796
  466TMC3    C1 6985   0.717   2.859  16.617 -0.3147  0.0138  0.1376
  466TMC3    C2 6986   0.759   2.946  16.518  0.6891 -0.4434 -0.1190
  466TMC3    C3 6987   0.880   2.998  16.520 -0.1908  0.7830 -0.1292
  466TMC3    C4 6988   0.816   2.813  16.707 -0.1579  0.0168  0.1829
  466TMC3    C5 6989   0.937   2.875  16.706  0.4558  0.1417 -0.8003
  466TMC3    C6 6990   0.973   2.959  16.613  0.2834  0.6278  0.1671
  466TMC3     C 6991   0.594   2.876  16.673 -0.5799  0.1374 -0.1643
  466TMC3     O 6992   0.576   2.805  16.773 -0.3581 -0.0720 -0.2952
  466TMC3     H 6993   0.690   2.984  16.443  0.6279  3.0311  1.7289
  466TMC3    H1 6994   0.785   2.762  16.797  0.2546  1.5027  1.1728
  466TMC3    H2 6995   1.068   3.011  16.621  1.2927 -0.9074 -1.8017
  466TMC3    C7 6996   1.038   2.844  16.812 -0.4412  0.3384  0.6981
  466TMC3    C8 6997   0.876   3.133  16.476 -0.2985  0.0560 -0.3976
  466TMC3    O1 6998   1.135   2.916  16.816  0.3642  0.1250 -0.1773
  466TMC3    O2 6999   0.825   3.159  16.364  0.0849 -0.1791 -0.0745
  467TMC3    C1 7000   1.971   1.321  14.465  0.1015  0.4047 -0.9881
  467TMC3    C2 7001   1.905   1.426  14.405 -0.1839  0.3006 -0.1949
  467TMC3    C3 7002   1.766   1.437  14.425  0.7380 -0.1363 -0.3799
  467TMC3    C4 7003   1.896   1.234  14.547 -0.4911  0.3323  0.3818
  467TMC3    C5 7004   1.759   1.251  14.567 -0.1762  0.1760 -0.9585
  467TMC3    C6 7005   1.689   1.346  14.500  0.1562 -0.1145 -0.6534
  467TMC3     C 7006   2.083   1.255  14.395 -0.4435 -0.4774 -0.2125
  467TMC3     O 7007   2.076   1.133  14.383  0.6516  0.1503 -0.1277
  467TMC3     H 7008   1.964   1.488  14.339 -0.0922  1.2509  0.7770
  467TMC3    H1 7009   1.949   1.152  14.594  0.6589  0.8620 -0.0121
  467TMC3    H2 7010   1.586   1.375  14.514  0.1386 -1.4031  1.8865
  467TMC3    C7 7011   1.694   1.166  14.661 -0.0463  0.4076  0.6642
  467TMC3    C8 7012   1.703   1.462  14.300 -0.7348  0.0034 -0.5361
  467TMC3    O1 7013   1.764   1.106  14.744  0.3123 -1.2110  0.7537
  467TMC3    O2 7014   1.743   1.566  14.250  0.1761 -0.5510  0.5986
  468MPD2     C 7015   0.590   4.550  11.063 -1.5949 -0.5401  0.3170
  468MPD2    C1 7016   0.726   4.524  11.054 -0.7446 -0.2830 -0.2793
  468MPD2    C2 7017   0.773   4.397  11.037 -0.1772 -0.3942  0.2573
  468MPD2    C3 7018   0.677   4.293  11.032  0.3743 -0.6276  0.3249
  468MPD2    C4 7019   0.544   4.327  11.041  0.0334  0.0657  0.5811
  468MPD2    C5 7020   0.500   4.452  11.057  0.2326 -0.7239 -0.0918
  468MPD2     H 7021   0.876   4.363  11.034 -0.4133 -1.0835 -0.2091
  468MPD2    H1 7022   0.461   4.258  11.039 -2.1607  2.8551 -3.4183
  468MPD2    H2 7023   0.556   4.653  11.071 -3.9155 -1.3513  0.6463
  468MPD2    H3 7024   0.394   4.471  11.064  0.4620 -0.7989  3.4836
  468MPD2     N 7025   0.702   4.156  11.013  0.7700 -1.0269 -0.5793
  468MPD2    H5 7026   0.620   4.097  11.020 -0.2125  0.5570  1.3748
  468MPD2    N1 7027   0.833   4.620  11.071  1.2252 -0.5813  0.3660
  468MPD2    H7 7028   0.924   4.578  11.058  0.8688 -1.1827 -0.2327
  469TMC3    C1 7029   0.931   0.072  11.168  0.2012  0.9221 -0.0857
  469TMC3    C2 7030   1.054   0.010  11.158  0.3846 -0.2776 -0.1860
  469TMC3    C3 7031   1.148   0.056  11.242  0.1295 -0.5382 -0.2158
  469TMC3    C4 7032   0.900   0.155  11.270 -0.2813 -0.0251 -0.6037
  469TMC3    C5 7033   0.994   0.186  11.360  0.0645 -0.5836 -0.4814
  469TMC3    C6 7034   1.126   0.143  11.352  0.3857 -0.0576  0.0428
  469TMC3     C 7035   0.817   0.016  11.106  0.1397 -0.3056 -0.1078
  469TMC3     O 7036   0.725   0.092  11.101 -0.0423  0.4257 -0.7814
  469TMC3     H 7037   1.079   4.682  11.074 -0.9510 -0.3937 -0.5044
  469TMC3    H1 7038   0.795   0.177  11.285  0.0250  1.4947 -0.7314
  469TMC3    H2 7039   1.210   0.193  11.399  1.4978 -0.6652 -1.2917
  469TMC3    C7 7040   0.937   0.227  11.485 -0.0049 -0.1194  0.0304
  469TMC3    C8 7041   1.280   4.734  11.226 -0.4727 -0.5368  0.0073
  469TMC3    O1 7042   0.824   0.266  11.490  0.1249  0.4038 -0.0902
  469TMC3    O2 7043   1.301   4.679  11.119  0.7084 -0.0625 -0.0630
  470TMC3    C1 7044   2.958   0.429   0.916  0.6223  0.0050 -0.3013
  470TMC3    C2 7045   3.081   0.478   0.949  0.2235  0.5362 -0.3238
  470TMC3    C3 7046   3.107   0.491   1.080 -0.8412 -0.2540  0.2760
  470TMC3    C4 7047   2.868   0.375   1.008 -0.2310  0.7052 -0.1303
  470TMC3    C5 7048   2.901   0.395   1.140 -0.1821 -0.1369  0.1943
  470TMC3    C6 7049   3.022   0.452   1.177  0.3905  0.1351  0.0880
  470TMC3     C 7050   2.918   0.404   0.778 -0.6807  0.8531 -0.0093
  470TMC3     O 7051   2.805   0.351   0.761  0.2214 -0.4258 -0.1947
  470TMC3     H 7052   3.162   0.500   0.881 -0.0621 -1.5069 -1.3378
  470TMC3    H1 7053   2.769   0.340   0.982 -0.7430  1.3876  0.8889
  470TMC3    H2 7054   3.038   0.498   1.274 -3.1472  0.8635  0.3255
  470TMC3    C7 7055   2.789   0.378   1.232  0.1590  0.0613  0.0502
  470TMC3    C8 7056   3.231   0.556   1.109  0.3138 -0.7035  0.1870
  470TMC3    O1 7057   2.689   0.330   1.189  0.6917 -0.3741  0.0440
  470TMC3    O2 7058   3.279   0.627   1.021  0.5882  0.4613  0.0538
  471MPD2     C 7059   3.908   1.452  16.691 -0.4872 -0.4795 -0.1740
  471MPD2    C1 7060   3.856   1.348  16.767  0.8774 -0.0187  0.2844
  471MPD2    C2 7061   3.891   1.349  16.900  0.6210  0.2356 -0.5518
  471MPD2    C3 7062   3.988   1.435  16.954  0.6531 -0.4266 -0.2605
  471MPD2    C4 7063   4.042   1.532  16.875 -0.1373 -0.2478  0.8554
  471MPD2    C5 7064   3.999   1.534  16.745 -0.0382 -0.1486  0.5469
  471MPD2     H 7065   3.837   1.284  16.968  0.4444  0.8138 -0.1440
  471MPD2    H1 7066   4.116   1.606  16.903 -1.4145  1.0597  0.7761
  471MPD2    H2 7067   3.895   1.462  16.584  1.8531  2.7150 -0.1284
  471MPD2    H3 7068   4.035   1.614  16.682 -1.2936 -1.9890 -2.5012
  471MPD2     N 7069   4.021   1.424  17.091  0.1862 -0.3721 -0.1093
  471MPD2    H5 7070   3.967   1.354  17.140  1.3557 -1.7835 -0.8389
  471MPD2    N1 7071   3.768   1.241  16.722  0.2473  0.3537 -0.1429
  471MPD2    H7 7072   3.709   1.190  16.787  0.1965  0.7533  0.1248
  472TMC3    C1 7073   3.611   1.152  16.572  0.4490  0.1887  0.1707
  472TMC3    C2 7074   3.518   1.196  16.484 -0.0235 -0.1540  0.6037
  472TMC3    C3 7075   3.466   1.094  16.408  0.1971  0.0947  0.2644
  472TMC3    C4 7076   3.657   1.021  16.585 -0.4754 -0.5537 -0.3279
  472TMC3    C5 7077   3.597   0.928  16.503 -0.3464  0.3768  0.0523
  472TMC3    C6 7078   3.501   0.962  16.415  0.2271 -0.3528  0.0922
  472TMC3     C 7079   3.719   1.244  16.591 -0.8133  0.1571  0.0719
  472TMC3     O 7080   3.754   1.304  16.491 -0.0004  0.1975 -0.0225
  472TMC3     H 7081   3.482   1.296  16.462 -1.4528 -0.7416  0.2176
  472TMC3    H1 7082   3.732   1.000  16.661 -0.2182  2.2391  0.2083
  472TMC3    H2 7083   3.450   0.895  16.346 -0.9231  0.9308 -0.3144
  472TMC3    C7 7084   3.595   0.789  16.559  0.0016  0.2994  0.1651
  472TMC3    C8 7085   3.330   1.119  16.357 -0.0976  0.0942  0.5202
  472TMC3    O1 7086   3.649   0.772  16.665  0.3340 -0.1331 -0.1645
  472TMC3    O2 7087   3.308   1.225  16.300  0.2775 -0.3343 -0.0208
  473MPD2     C 7088   4.213   3.289  14.276 -0.3036 -0.3479  0.1041
  473MPD2    C1 7089   4.131   3.361  14.191  0.0531 -0.5884 -0.3132
  473MPD2    C2 7090   4.124   3.492  14.207  0.1748  0.3656 -0.0934
  473MPD2    C3 7091   4.183   3.556  14.315  0.4049 -0.7017  0.5583
  473MPD2    C4 7092   4.259   3.481  14.403  0.3419  0.3717  0.3211
  473MPD2    C5 7093   4.276   3.349  14.378 -0.0506  0.9249 -0.0742
  473MPD2     H 7094   4.062   3.541  14.134  0.6343  0.4912 -0.3980
  473MPD2    H1 7095   4.314   3.517  14.490 -1.0672 -1.1051  1.8395
  473MPD2    H2 7096   4.237   3.184  14.262 -0.2074 -0.1909 -0.9532
  473MPD2    H3 7097   4.334   3.288  14.447  1.7099  1.5025 -1.0516
  473MPD2     N 7098   4.179   3.698  14.344 -0.1078  0.4392 -0.3364
  473MPD2    H5 7099   4.242   3.726  14.418  0.3881  1.5670 -1.1866
  473MPD2    N1 7100   4.060   3.301  14.084  1.1908 -0.0521 -0.2114
  473MPD2    H7 7101   3.980   3.349  14.042  1.2059  1.0089  0.9802
  474TMC3    C1 7102   4.100   3.918  14.347 -0.4963 -0.1202 -0.4701
  474TMC3    C2 7103   3.990   3.987  14.368 -0.5341  0.3483  0.4025
  474TMC3    C3 7104   4.010   4.104  14.435 -0.1718  0.8842  0.3023
  474TMC3    C4 7105   4.223   3.957  14.400  0.1595 -1.1901 -0.0506
  474TMC3    C5 7106   4.240   4.073  14.468 -0.0797  0.0537  0.3691
  474TMC3    C6 7107   4.128   4.150  14.478 -0.2477  0.4484  0.0963
  474TMC3     C 7108   4.091   3.786  14.284  0.8904 -0.6550  0.2133
  474TMC3     O 7109   3.993   3.762  14.220  0.2142  0.3758 -0.2063
  474TMC3     H 7110   3.897   3.965  14.317  0.2122 -0.9423 -0.4052
  474TMC3    H1 7111   4.310   3.905  14.363 -1.4873 -2.6482 -1.8389
  474TMC3    H2 7112   4.135   4.243  14.532 -0.7313  0.5967 -0.0979
  474TMC3    C7 7113   4.375   4.116  14.496  0.0811  0.3792 -0.1979
  474TMC3    C8 7114   3.891   4.165  14.500 -0.1917 -0.7813  0.0288
  474TMC3    O1 7115   4.466   4.074  14.424  0.3270 -0.2506  0.2220
  474TMC3    O2 7116   3.803   4.087  14.521  0.0558  0.4746 -0.5999
  475MPD2     C 7117   2.195   2.261  10.538  0.3298 -0.3839 -0.1927
  475MPD2    C1 7118   2.157   2.362  10.619 -0.0076  0.5828 -0.5552
  475MPD2    C2 7119   2.038   2.358  10.687  0.0891 -0.5151 -0.2620
  475MPD2    C3 7120   1.944   2.256  10.656  0.1158 -0.4280  0.1529
  475MPD2    C4 7121   1.987   2.148  10.579 -0.3397  0.1063  0.3330
  475MPD2    C5 7122   2.110   2.153  10.521  0.1835 -0.2082  0.7974
  475MPD2     H 7123   2.005   2.441  10.748  1.2688 -0.0058 -0.3051
  475MPD2    H1 7124   1.921   2.063  10.571 -0.9283  0.4445  1.6978
  475MPD2    H2 7125   2.285   2.272  10.479  0.0505  1.5029 -0.2746
  475MPD2    H3 7126   2.147   2.068  10.465 -0.3496 -0.2290  0.4771
  475MPD2     N 7127   1.820   2.261  10.722 -0.5796 -0.6430  0.5811
  475MPD2    H5 7128   1.808   2.332  10.793  0.8316  0.0633  0.0987
  475MPD2    N1 7129   2.246   2.469  10.621  0.6034 -0.7684  0.3164
  475MPD2    H7 7130   2.331   2.472  10.567  1.1187  0.1509  1.1880
  476TMC3    C1 7131   2.327   2.678  10.687  0.3900 -0.2853 -0.1660
  476TMC3    C2 7132   2.315   2.721  10.558 -0.5127 -0.7159  0.1888
  476TMC3    C3 7133   2.276   2.844  10.534 -0.6805  0.3667  0.0086
  476TMC3    C4 7134   2.308   2.760  10.794  0.2215 -0.7601 -0.0617
  476TMC3    C5 7135   2.279   2.889  10.769  0.1601 -0.4560  0.7063
  476TMC3    C6 7136   2.257   2.930  10.642  0.0674  0.4088 -0.2657
  476TMC3     C 7137   2.228   2.579  10.707  0.0085 -0.4092 -0.4643
  476TMC3     O 7138   2.142   2.596  10.793  0.2471 -0.5447  0.1396
  476TMC3     H 7139   2.330   2.658  10.471 -1.6604 -2.8329  1.5078
  476TMC3    H1 7140   2.308   2.716  10.893  0.1081  0.1438  0.3375
  476TMC3    H2 7141   2.231   3.036  10.640  1.6836  0.8118 -0.1713
  476TMC3    C7 7142   2.215   2.966  10.875 -0.7455 -0.9458  0.6087
  476TMC3    C8 7143   2.168   2.860  10.439 -0.2433  0.2157 -0.5452
  476TMC3    O1 7144   2.251   3.081  10.882 -0.0010  0.1669  0.0713
  476TMC3    O2 7145   2.136   2.974  10.398 -0.3756  0.3542  0.1496
  477MPD2     C 7146   4.330   3.647  11.733 -0.2807 -0.4655  0.0831
  477MPD2    C1 7147   4.270   3.519  11.726  0.0511 -0.7229 -0.6064
  477MPD2    C2 7148   4.233   3.448  11.843  0.0434 -0.3655  0.3993
  477MPD2    C3 7149   4.256   3.507  11.968 -0.3431 -0.4391 -0.8363
  477MPD2    C4 7150   4.315   3.623  11.977 -1.1776 -0.7128 -0.2891
  477MPD2    C5 7151   4.344   3.694  11.864 -0.2853 -0.4096  0.0288
  477MPD2     H 7152   4.186   3.352  11.825 -0.2949  0.2187 -1.7099
  477MPD2    H1 7153   4.347   3.668  12.070  0.8385  0.3796 -1.5009
  477MPD2    H2 7154   4.364   3.705  11.649 -0.5614  0.2283  0.4517
  477MPD2    H3 7155   4.394   3.789  11.881 -2.2308  0.3932  1.2769
  477MPD2     N 7156   4.222   3.427  12.081  0.8549 -0.2413 -0.1856
  477MPD2    H5 7157   4.192   3.331  12.069 -2.2422  1.0204 -2.5723
  477MPD2    N1 7158   4.249   3.449  11.605  0.3751 -0.0411 -0.1672
  477MPD2    H7 7159   4.198   3.361  11.601  0.2446  0.1127 -1.8076
  478TMC3    C1 7160   4.191   3.503  11.381  0.3634  0.9215  0.3247
  478TMC3    C2 7161   4.061   3.472  11.416 -0.3904  0.0903  0.0553
  478TMC3    C3 7162   3.958   3.556  11.375  0.2833  0.5035 -0.7848
  478TMC3    C4 7163   4.211   3.601  11.287  0.4556  0.0037  0.1248
  478TMC3    C5 7164   4.106   3.673  11.243  0.4864  0.4990  0.3254
  478TMC3    C6 7165   3.976   3.653  11.285 -0.2738  0.3378 -0.5201
  478TMC3     C 7166   4.293   3.500  11.486  0.2869  0.3773  0.3064
  478TMC3     O 7167   4.400   3.551  11.464 -0.3620  0.5389  0.0025
  478TMC3     H 7168   4.046   3.394  11.490  0.3535 -0.7197 -0.6411
  478TMC3    H1 7169   4.314   3.621  11.261  0.3373 -0.3428 -0.5906
  478TMC3    H2 7170   3.889   3.714  11.262 -1.4879 -0.7674  1.1633
  478TMC3    C7 7171   4.139   3.786  11.164 -0.3090 -0.0431  0.2938
  478TMC3    C8 7172   3.831   3.530  11.433  0.1469  0.2411  0.2085
  478TMC3    O1 7173   4.259   3.795  11.130  0.0600 -0.2856  0.2453
  478TMC3    O2 7174   3.819   3.421  11.486  0.2295  0.2890  0.4618
  479MPD2     C 7175   3.273   1.212  15.469 -1.1060 -0.3213  0.5865
  479MPD2    C1 7176   3.242   1.125  15.567  0.1966  0.4195 -0.4564
  479MPD2    C2 7177   3.303   1.136  15.689 -0.4068 -0.6914  1.0036
  479MPD2    C3 7178   3.378   1.247  15.725  0.1842 -0.3241 -0.4592
  479MPD2    C4 7179   3.405   1.341  15.629 -0.4229  0.3760 -0.1554
  479MPD2    C5 7180   3.358   1.318  15.501 -0.1258 -0.1669  0.1640
  479MPD2     H 7181   3.288   1.046  15.747 -0.8592 -0.7545  0.7899
  479MPD2    H1 7182   3.454   1.438  15.638  0.3860 -0.0233 -0.2817
  479MPD2    H2 7183   3.233   1.202  15.369 -0.9474 -0.7644  0.5664
  479MPD2    H3 7184   3.375   1.395  15.426  0.6232 -0.5344 -0.0397
  479MPD2     N 7185   3.446   1.257  15.846  0.3443  0.2173  0.1733
  479MPD2    H5 7186   3.524   1.322  15.844  0.9006 -0.5202 -2.1018
  479MPD2    N1 7187   3.137   1.033  15.541  0.1909  0.1207 -0.3929
  479MPD2    H7 7188   3.101   1.025  15.446  0.3087 -1.2070 -0.3350
  480TMC3    C1 7189   3.207   0.916  16.065 -0.1794  0.2788 -0.2942
  480TMC3    C2 7190   3.086   0.971  16.047  0.0083  0.1035  0.1901
  480TMC3    C3 7191   3.081   1.097  16.000  0.1349 -0.1316  0.1761
  480TMC3    C4 7192   3.322   0.987  16.037  0.2627 -0.4517 -0.3336
  480TMC3    C5 7193   3.310   1.115  15.993 -0.0256  0.1594  0.6657
  480TMC3    C6 7194   3.192   1.175  15.970  0.6698  0.6210 -0.5439
  480TMC3     C 7195   3.219   0.778  16.106  0.3719  0.7994 -0.8158
  480TMC3     O 7196   3.314   0.739  16.175  0.2020  0.4730  0.0979
  480TMC3     H 7197   2.999   0.920  16.088  1.3586 -0.2290  2.6525
  480TMC3    H1 7198   3.420   0.940  16.042  0.6486  0.3253 -0.4983
  480TMC3    H2 7199   3.182   1.281  15.951  1.2669  0.5603 -1.2069
  480TMC3    C7 7200   3.438   1.176  15.956 -0.0964 -0.5164 -0.1408
  480TMC3    C8 7201   2.961   1.114  15.917  1.0500 -0.5830 -0.0860
  480TMC3    O1 7202   3.525   1.156  16.037  0.4943  0.3746  0.4702
  480TMC3    O2 7203   2.870   1.034  15.940 -0.0655 -0.5902  0.4930
  481MPD2     C 7204   0.608   0.046  14.217 -0.0612 -0.3379  0.4496
  481MPD2    C1 7205   0.511   0.147  14.199  0.0524 -0.7128 -0.0081
  481MPD2    C2 7206   0.502   0.252  14.288 -0.5648  0.4610 -0.0194
  481MPD2    C3 7207   0.577   0.247  14.400 -0.0297  0.6636  0.1295
  481MPD2    C4 7208   0.666   0.151  14.421 -0.1100 -0.3753 -0.2192
  481MPD2    C5 7209   0.686   0.052  14.328 -0.9108  0.0725  0.5266
  481MPD2     H 7210   0.432   0.333  14.270 -0.0271  0.6756 -1.1569
  481MPD2    H1 7211   0.733   0.153  14.506 -0.6759 -1.2446  0.2491
  481MPD2    H2 7212   0.621   4.696  14.152  2.7604  0.9204 -0.6515
  481MPD2    H3 7213   0.765   4.715  14.346 -0.8918 -0.1894 -0.6410
  481MPD2     N 7214   0.563   0.328  14.511  0.0489  0.2266  0.2685
  481MPD2    H5 7215   0.610   0.301  14.597  1.0919  1.6400  0.1351
  481MPD2    N1 7216   0.435   0.164  14.076 -0.3741  0.7338 -0.5031
  481MPD2    H7 7217   0.370   0.242  14.083 -0.7978  0.4109 -0.8117
  482TMC3    C1 7218   0.356   0.137  13.848  0.1450 -0.6153  0.9543
  482TMC3    C2 7219   0.317   0.054  13.749  0.4603 -0.7434 -0.5102
  482TMC3    C3 7220   0.262   0.109  13.640  0.3669 -0.0594  0.1611
  482TMC3    C4 7221   0.343   0.276  13.834  0.3155 -0.3551 -0.0338
  482TMC3    C5 7222   0.286   0.327  13.720  0.7526  0.1727 -0.1798
  482TMC3    C6 7223   0.248   0.244  13.621 -1.1570  0.1803 -0.5731
  482TMC3     C 7224   0.420   0.076  13.966 -0.1166 -0.0559  0.1629
  482TMC3     O 7225   0.459   4.701  13.938  0.3298  0.2673  0.4099
  482TMC3     H 7226   0.316   4.682  13.751 -0.1290 -0.7286 -0.0483
  482TMC3    H1 7227   0.389   0.343  13.906 -0.2917  0.0714 -0.0453
  482TMC3    H2 7228   0.188   0.293  13.545  0.9124  1.7135 -1.2419
  482TMC3    C7 7229   0.231   0.458  13.745 -0.3580  0.1581  1.0260
  482TMC3    C8 7230   0.168   0.027  13.554  0.3920  0.3602 -0.3227
  482TMC3    O1 7231   0.289   0.524  13.833  0.1535  1.0293  0.3390
  482TMC3    O2 7232   0.127   4.656  13.604  0.3647 -0.4269  0.4581
  483TMC3    C1 7233   2.549   4.232   1.098  0.1095  0.1123 -0.4651
  483TMC3    C2 7234   2.648   4.309   1.153 -0.0097 -1.1707  0.1946
  483TMC3    C3 7235   2.719   4.389   1.073  0.0134  0.4434  0.7511
  483TMC3    C4 7236   2.536   4.217   0.962 -0.2792  0.3286 -0.4595
  483TMC3    C5 7237   2.610   4.293   0.883 -0.6016  0.9593 -0.4830
  483TMC3    C6 7238   2.696   4.385   0.936 -0.0311 -0.2153  0.0035
  483TMC3     C 7239   2.454   4.176   1.188  0.0839  0.6206  0.8777
  483TMC3     O 7240   2.454   4.212   1.303 -0.4253 -0.3907 -0.2569
  483TMC3     H 7241   2.650   4.327   1.260 -1.0261 -0.7325  0.1407
  483TMC3    H1 7242   2.483   4.131   0.924  1.8446 -1.5061  0.7571
  483TMC3    H2 7243   2.762   4.437   0.868  0.5993 -0.4419  0.4427
  483TMC3    C7 7244   2.662   4.238   0.757 -0.6563 -1.1767 -0.0483
  483TMC3    C8 7245   2.856   4.419   1.107 -1.5912  0.3924 -0.0648
  483TMC3    O1 7246   2.776   4.271   0.729 -0.1335  0.2554  0.0178
  483TMC3    O2 7247   2.924   4.474   1.021  0.2197 -0.6274 -1.0349
  484MPD2     C 7248   0.738   2.301  13.014  0.6205 -0.3473 -0.0939
  484MPD2    C1 7249   0.671   2.240  12.913 -0.5563 -0.4529  0.8032
  484MPD2    C2 7250   0.723   2.249  12.783  0.5926 -0.5264  1.0326
  484MPD2    C3 7251   0.838   2.325  12.758  0.5086 -0.9791  0.9778
  484MPD2    C4 7252   0.911   2.371  12.865  0.7859 -1.1944 -0.8473
  484MPD2    C5 7253   0.857   2.357  12.988 -0.2210  0.6126 -0.2355
  484MPD2     H 7254   0.682   2.191  12.701  0.2978  1.3179 -0.1159
  484MPD2    H1 7255   1.004   2.426  12.853 -0.3596  0.2823 -3.0113
  484MPD2    H2 7256   0.715   2.295  13.120  2.6628 -0.5656  0.3355
  484MPD2    H3 7257   0.916   2.397  13.070 -0.7305 -1.6026  1.2182
  484MPD2     N 7258   0.884   2.340  12.619  0.4536  0.1387 -0.0789
  484MPD2    H5 7259   0.973   2.389  12.624  0.8397 -0.7390  1.6904
  484MPD2    N1 7260   0.553   2.168  12.948  0.2228 -0.8340  0.3466
  484MPD2    H7 7261   0.523   2.154  13.045 -2.6310  0.7308 -0.2994
  485TMC3    C1 7262   0.882   2.382  12.387  0.0903 -0.0996 -0.3122
  485TMC3    C2 7263   1.018   2.390  12.390  0.0373  0.5472 -0.8360
  485TMC3    C3 7264   1.082   2.460  12.294 -0.6277 -1.0929 -0.3222
  485TMC3    C4 7265   0.815   2.403  12.270 -0.1558 -0.6749 -0.0750
  485TMC3    C5 7266   0.880   2.461  12.172  0.3212 -0.1216  1.3386
  485TMC3    C6 7267   1.011   2.496  12.183 -0.6154  0.2462 -0.1173
  485TMC3     C 7268   0.809   2.334  12.509 -0.0402  1.0494  0.7830
  485TMC3     O 7269   0.700   2.276  12.484  0.1634  0.0413 -0.6175
  485TMC3     H 7270   1.072   2.350  12.475 -1.5987 -1.4051 -0.7341
  485TMC3    H1 7271   0.707   2.402  12.264 -0.1095  0.3216 -0.9447
  485TMC3    H2 7272   1.043   2.570  12.111 -0.6179 -0.0809 -0.4523
  485TMC3    C7 7273   0.875   2.396  12.047 -0.1265 -0.0775  0.3009
  485TMC3    C8 7274   1.221   2.438  12.265 -0.0609 -0.7670  0.3358
  485TMC3    O1 7275   0.769   2.376  11.988  0.5521 -0.7804 -0.3999
  485TMC3    O2 7276   1.261   2.505  12.169  0.1601 -0.1947 -0.0499
  486MPD2     C 7277   2.930   1.052  13.561  0.0825 -0.1912 -0.1565
  486MPD2    C1 7278   2.816   1.001  13.506  0.0092  0.3387 -1.4927
  486MPD2    C2 7279   2.715   1.091  13.476 -0.5393  0.6723  0.0041
  486MPD2    C3 7280   2.735   1.226  13.481 -0.2666 -0.4576  0.0994
  486MPD2    C4 7281   2.851   1.280  13.538  0.4291  0.1854 -0.5574
  486MPD2    C5 7282   2.942   1.188  13.576  0.3130  0.1032  0.2767
  486MPD2     H 7283   2.624   1.052  13.431 -1.1938  1.1280  0.9283
  486MPD2    H1 7284   2.875   1.385  13.552 -0.4271  0.3169 -0.0711
  486MPD2    H2 7285   3.013   0.993  13.596 -1.3122 -1.1710  1.4997
  486MPD2    H3 7286   3.033   1.218  13.628 -1.0914  0.7468  2.3790
  486MPD2     N 7287   2.635   1.311  13.423  0.2711  0.0142 -0.0121
  486MPD2    H5 7288   2.548   1.270  13.390  0.4491 -1.8709  1.8138
  486MPD2    N1 7289   2.807   0.862  13.485  0.0618  0.0574  0.3209
  486MPD2    H7 7290   2.883   0.802  13.518  1.7125  0.8096 -2.1444
  487TMC3    C1 7291   2.724   0.653  13.408 -0.5798 -0.4500 -0.8427
  487TMC3    C2 7292   2.651   0.584  13.321 -0.0535  0.1034  1.1181
  487TMC3    C3 7293   2.660   0.450  13.324 -0.1602  0.4347  0.1378
  487TMC3    C4 7294   2.775   0.596  13.519 -0.4369 -0.3438  0.6469
  487TMC3    C5 7295   2.780   0.459  13.521  0.2690  0.4882 -0.2273
  487TMC3    C6 7296   2.730   0.383  13.423 -0.0165 -0.4140 -0.5537
  487TMC3     C 7297   2.708   0.794  13.411  0.0551  0.9656 -0.1049
  487TMC3     O 7298   2.632   0.837  13.330  0.8043 -0.1673 -0.3067
  487TMC3     H 7299   2.595   0.625  13.238  0.1570  3.5283  2.6326
  487TMC3    H1 7300   2.804   0.656  13.605  3.2676 -0.9618 -0.1830
  487TMC3    H2 7301   2.706   0.279  13.437  2.3175 -0.9611 -0.5090
  487TMC3    C7 7302   2.812   0.402  13.651 -0.7648 -0.0854  0.2613
  487TMC3    C8 7303   2.547   0.385  13.269  0.5782  0.0679  0.1616
  487TMC3    O1 7304   2.827   0.471  13.751  0.7538 -0.3166 -0.0950
  487TMC3    O2 7305   2.553   0.296  13.184 -0.1663  0.3828  0.9078
  488MPD2     C 7306   3.096   2.651  15.770  0.7975  0.3590  0.4891
  488MPD2    C1 7307   3.059   2.781  15.751  0.7219  1.0930 -0.0881
  488MPD2    C2 7308   2.944   2.820  15.804 -0.2597 -0.3302  0.2085
  488MPD2    C3 7309   2.856   2.743  15.874 -0.5754  0.5738  0.1052
  488MPD2    C4 7310   2.893   2.614  15.886 -0.1878 -0.7272  0.3001
  488MPD2    C5 7311   3.011   2.564  15.835 -0.5936 -0.0033  0.3067
  488MPD2     H 7312   2.916   2.925  15.804 -1.2743 -0.5978  2.0537
  488MPD2    H1 7313   2.827   2.540  15.928  0.2550 -1.5645 -0.4760
  488MPD2    H2 7314   3.184   2.603  15.730  0.2108  0.0234 -0.3987
  488MPD2    H3 7315   3.042   2.460  15.834 -2.0740 -0.4329 -0.3378
  488MPD2     N 7316   2.744   2.801  15.930  0.1536  0.1024 -0.1431
  488MPD2    H5 7317   2.731   2.900  15.911 -2.7173 -0.3214 -0.4206
  488MPD2    N1 7318   3.143   2.878  15.691  0.2707  0.2322  0.1917
  488MPD2    H7 7319   3.099   2.968  15.680  1.7653  0.8467 -0.7607
  489TMC3    C1 7320   2.528   2.823  16.038  0.8793 -0.5259 -0.8502
  489TMC3    C2 7321   2.480   2.897  15.942  0.4543  0.5132  0.1004
  489TMC3    C3 7322   2.370   2.973  15.972  0.6914  0.7355  0.0877
  489TMC3    C4 7323   2.478   2.825  16.167 -0.0025 -0.2429 -0.0221
  489TMC3    C5 7324   2.356   2.889  16.190  0.0640 -0.9885  0.7159
  489TMC3    C6 7325   2.300   2.966  16.092 -0.1358 -0.3388 -0.3712
  489TMC3     C 7326   2.654   2.743  16.020 -0.6107 -0.0818 -0.1587
  489TMC3     O 7327   2.662   2.640  16.088 -0.6109 -0.1839 -0.2054
  489TMC3     H 7328   2.529   2.914  15.847 -0.0024 -1.6372 -0.5155
  489TMC3    H1 7329   2.530   2.771  16.245  1.4905  1.9909  0.5325
  489TMC3    H2 7330   2.217   3.033  16.112  0.9857  0.5478  1.3158
  489TMC3    C7 7331   2.313   2.899  16.325  0.0681 -0.4335 -0.3480
  489TMC3    C8 7332   2.339   3.089  15.892 -0.4937  0.4060 -0.0354
  489TMC3    O1 7333   2.397   2.858  16.409  0.0306 -0.2942 -0.1301
  489TMC3    O2 7334   2.222   3.119  15.893 -0.3501  0.0910  0.5321
  490MPD2     C 7335   4.062   1.853  17.313 -0.1380  0.2047 -0.1313
  490MPD2    C1 7336   3.991   1.898  17.423  0.1160 -0.9902 -0.6352
  490MPD2    C2 7337   4.035   1.998  17.506 -0.0965 -0.4580 -0.1925
  490MPD2    C3 7338   4.141   2.075  17.469  0.3557 -0.4532 -0.2047
  490MPD2    C4 7339   4.197   2.043  17.341  0.7310  0.4777  0.8054
  490MPD2    C5 7340   4.176   1.922  17.286 -0.2957 -0.6253 -0.0983
  490MPD2     H 7341   3.974   2.020  17.593  0.4549 -3.1949  0.8809
  490MPD2    H1 7342   4.288   2.087  17.301  0.0958 -0.1672 -1.3554
  490MPD2    H2 7343   4.044   1.757  17.266  1.1314  0.2489 -0.7136
  490MPD2    H3 7344   4.250   1.890  17.214  0.9691  1.5121  0.2743
  490MPD2     N 7345   4.199   2.191  17.534 -0.5110 -0.6113 -0.3328
  490MPD2    H5 7346   4.277   2.240  17.491  0.3264 -1.4588  0.2081
  490MPD2    N1 7347   3.878   1.830  17.477  0.0785  0.4289 -0.1757
  490MPD2    H7 7348   3.846   1.861  17.569 -1.5781  1.2300 -1.0303
  491TMC3    C1 7349   3.738   1.638  17.512 -0.8016 -0.3894  0.0430
  491TMC3    C2 7350   3.776   1.651  17.643 -0.3995 -0.1343 -0.6628
  491TMC3    C3 7351   3.735   1.546  17.724 -0.2823  0.6078 -0.5916
  491TMC3    C4 7352   3.658   1.545  17.462 -0.0105  0.6174 -0.4017
  491TMC3    C5 7353   3.606   1.447  17.546  0.1852 -0.0077  0.3490
  491TMC3    C6 7354   3.652   1.452  17.678 -0.2637 -0.1399 -0.3934
  491TMC3     C 7355   3.802   1.727  17.414 -0.5295  0.6245 -0.2749
  491TMC3     O 7356   3.793   1.692  17.296 -0.3517  0.0564 -0.6446
  491TMC3     H 7357   3.865   1.702  17.675  0.6897 -2.3089 -0.2140
  491TMC3    H1 7358   3.626   1.553  17.359  0.2155  1.4634 -0.4050
  491TMC3    H2 7359   3.628   1.371   0.004  1.4259  0.9990  1.5634
  491TMC3    C7 7360   3.494   1.356  17.497 -0.1390  0.3622  0.6667
  491TMC3    C8 7361   3.765   1.574   0.119 -0.4162 -0.6255 -0.0076
  491TMC3    O1 7362   3.480   1.355  17.375 -0.6547  0.2727 -0.1066
  491TMC3    O2 7363   3.875   1.626   0.143 -0.3370  0.0439 -0.1811
  492MPD2     C 7364   3.807   2.437  11.878 -0.4544  0.1792  0.7447
  492MPD2    C1 7365   3.781   2.319  11.817  0.0335 -0.1928  0.9470
  492MPD2    C2 7366   3.696   2.234  11.882  0.0075 -0.1377  0.3108
  492MPD2    C3 7367   3.640   2.266  12.010  0.8314 -0.6460  0.2633
  492MPD2    C4 7368   3.660   2.392  12.059  0.1634  0.7933 -0.2802
  492MPD2    C5 7369   3.749   2.475  11.997  0.1567  0.1638 -0.1181
  492MPD2     H 7370   3.678   2.141  11.831 -1.5488 -0.7599  2.0011
  492MPD2    H1 7371   3.622   2.423  12.156 -1.7046  1.3919 -1.2110
  492MPD2    H2 7372   3.876   2.510  11.838 -0.5351 -1.6866 -2.7648
  492MPD2    H3 7373   3.783   2.568  12.040 -0.8397 -0.2103  1.4673
  492MPD2     N 7374   3.566   2.181  12.087 -0.2083 -0.0193  0.0148
  492MPD2    H5 7375   3.534   2.220  12.175  1.6813 -0.5416  0.9359
  492MPD2    N1 7376   3.824   2.309  11.685  0.0581  0.2256  0.0504
  492MPD2    H7 7377   3.888   2.383  11.658  0.9986 -0.5219  0.1948
  493TMC3    C1 7378   3.841   2.247  11.456  0.2144 -0.4535  0.3861
  493TMC3    C2 7379   3.946   2.336  11.440 -0.2040 -0.3328 -0.0538
  493TMC3    C3 7380   3.988   2.364  11.314 -0.4538  0.1627 -0.5184
  493TMC3    C4 7381   3.780   2.192  11.344  0.4223 -0.2892  0.2626
  493TMC3    C5 7382   3.838   2.215  11.221 -0.2826  0.5542 -0.1481
  493TMC3    C6 7383   3.939   2.302  11.199 -0.3011 -0.9186  0.4986
  493TMC3     C 7384   3.792   2.212  11.592 -0.2074  0.9199 -0.9406
  493TMC3     O 7385   3.729   2.107  11.611  0.2572  0.2749 -0.0827
  493TMC3     H 7386   3.998   2.373  11.528 -0.8342  0.7793 -0.1446
  493TMC3    H1 7387   3.699   2.123  11.365  0.6380 -0.6338 -0.0296
  493TMC3    H2 7388   3.971   2.317  11.097 -1.0433 -0.7447  0.2930
  493TMC3    C7 7389   3.779   2.141  11.107 -0.6575 -0.3408  0.5964
  493TMC3    C8 7390   4.111   2.435  11.309  0.6408 -0.2861  0.0360
  493TMC3    O1 7391   3.812   2.186  11.000 -0.1228 -0.0559  0.1209
  493TMC3    O2 7392   4.172   2.444  11.413  0.4049 -0.4005  0.4425
  494TMC3    C1 7393   4.493   3.997   0.769 -0.3104 -0.3487 -0.6451
  494TMC3    C2 7394   4.495   3.859   0.770  0.1181  0.7993  0.2806
  494TMC3    C3 7395   4.437   3.797   0.664 -0.4827 -0.1808  0.1822
  494TMC3    C4 7396   4.434   4.064   0.668  0.0789 -0.8702 -0.2721
  494TMC3    C5 7397   4.380   3.994   0.563  0.2150 -0.0735 -0.1712
  494TMC3    C6 7398   4.374   3.857   0.559  0.5861  0.8698  0.4719
  494TMC3     C 7399   4.546   4.066   0.886  0.4150 -0.7841  0.4095
  494TMC3     O 7400   4.623   4.004   0.961 -0.5176 -0.1283  0.8599
  494TMC3     H 7401   4.563   3.815   0.841 -0.3380 -1.3813 -0.6245
  494TMC3    H1 7402   4.457   4.169   0.651 -3.4672  0.0683  0.8308
  494TMC3    H2 7403   4.345   3.802   0.470  1.0768  0.7538  0.3856
  494TMC3    C7 7404   4.356   4.055   0.434 -0.1673 -0.0423 -0.4823
  494TMC3    C8 7405   4.456   3.650   0.671 -0.1294 -0.0168 -1.4304
  494TMC3    O1 7406   4.365   3.986   0.336  0.3644  0.6054  0.1905
  494TMC3    O2 7407   4.548   3.611   0.740  0.1894  0.4885 -0.1310
  495TMC3    C1 7408   3.234   1.448  15.072  0.0338 -0.3240 -0.0007
  495TMC3    C2 7409   3.142   1.492  14.976 -0.3042  0.5039  0.1050
  495TMC3    C3 7410   3.018   1.537  15.007 -0.6506  0.0176  0.2409
  495TMC3    C4 7411   3.191   1.468  15.201 -0.5646 -0.2529  0.2418
  495TMC3    C5 7412   3.064   1.505  15.236 -0.4400 -0.4103 -0.0944
  495TMC3    C6 7413   2.970   1.529  15.139  0.2548  0.1295  0.4243
  495TMC3     C 7414   3.261   1.309  15.055 -0.7786  0.3537  0.1731
  495TMC3     O 7415   3.224   1.230  15.141 -0.5292 -0.0096  0.3144
  495TMC3     H 7416   3.178   1.512  14.876 -3.6820  1.7470 -0.8564
  495TMC3    H1 7417   3.251   1.425  15.280  0.5199 -0.2685 -0.5962
  495TMC3    H2 7418   2.873   1.567  15.167 -0.0386 -1.6095  1.7272
  495TMC3    C7 7419   3.025   1.472  15.375 -0.0122  0.1643 -0.7508
  495TMC3    C8 7420   2.922   1.486  14.912  0.1994  0.5308 -0.7894
  495TMC3    O1 7421   3.111   1.484  15.460 -0.1615  0.1408  0.2045
  495TMC3    O2 7422   2.813   1.530  14.935  0.1525  0.1414  0.6160
  496MPD2     C 7423   0.530   0.910  16.077 -0.1366 -0.4339  0.3118
  496MPD2    C1 7424   0.396   0.921  16.036  0.7206  0.3001 -0.0067
  496MPD2    C2 7425   0.305   0.985  16.116  0.3880 -0.2625  0.7072
  496MPD2    C3 7426   0.345   1.058  16.228 -0.1331 -0.0416  0.0297
  496MPD2    C4 7427   0.477   1.062  16.255  0.5480  0.4872  0.5759
  496MPD2    C5 7428   0.572   0.993  16.182  0.5582  1.0107  0.5455
  496MPD2     H 7429   0.201   0.985  16.086  0.3571  0.6164  0.8120
  496MPD2    H1 7430   0.525   1.118  16.334  0.4806 -0.2027  1.1123
  496MPD2    H2 7431   0.604   0.854  16.021 -0.2809  0.2675 -0.5694
  496MPD2    H3 7432   0.679   1.013  16.189  0.8825 -1.0221  1.1745
  496MPD2     N 7433   0.258   1.114  16.318 -0.1795  0.1657 -0.3706
  496MPD2    H5 7434   0.294   1.183  16.383 -0.7122 -0.2948  0.4185
  496MPD2    N1 7435   0.358   0.852  15.916 -0.5362  0.1023 -0.5525
  496MPD2    H7 7436   0.432   0.800  15.870 -1.7183  0.7737 -3.2401
  497TMC3    C1 7437   0.042   1.196  16.355  0.0789 -0.2287  0.4240
  497TMC3    C2 7438   4.658   1.209  16.290  0.2127 -0.0041  0.3897
  497TMC3    C3 7439   4.603   1.331  16.281  0.3434  0.4602  0.2824
  497TMC3    C4 7440   0.088   1.297  16.438 -0.1687 -0.4227 -0.5205
  497TMC3    C5 7441   0.018   1.420  16.428  0.0459 -0.6881 -0.0071
  497TMC3    C6 7442   4.650   1.442  16.346 -0.6542 -0.6650  0.4504
  497TMC3     C 7443   0.128   1.081  16.329 -0.2453  0.0317 -1.2094
  497TMC3     O 7444   0.072   0.984  16.289  0.7536 -0.4715  0.3929
  497TMC3     H 7445   4.621   1.125  16.232  2.0079 -0.5977  0.1038
  497TMC3    H1 7446   0.160   1.283  16.519 -0.5553 -1.1548 -0.3004
  497TMC3    H2 7447   4.600   1.538  16.337  0.9299  0.1840  0.8221
  497TMC3    C7 7448   0.039   1.518  16.532 -0.6866  0.2079 -0.7490
  497TMC3    C8 7449   4.470   1.346  16.227  0.1354 -0.0546  0.5932
  497TMC3    O1 7450   4.677   1.587  16.553 -0.0694 -0.0827 -0.5060
  497TMC3    O2 7451   4.393   1.420  16.284  0.1677  0.1393  0.6064
  498MPD2     C 7452   1.330   1.761   9.877  0.1333  0.0129 -0.1623
  498MPD2    C1 7453   1.431   1.706   9.960  0.7448 -0.5866  0.5303
  498MPD2    C2 7454   1.396   1.590  10.027  0.2998  0.5321  0.3472
  498MPD2    C3 7455   1.267   1.541  10.025  0.6137  0.0045 -0.4277
  498MPD2    C4 7456   1.181   1.596   9.935 -0.0614  0.7631  0.7190
  498MPD2    C5 7457   1.207   1.704   9.856  0.0593  0.8389 -0.5881
  498MPD2     H 7458   1.472   1.538  10.085  0.3027 -0.0761 -0.2074
  498MPD2    H1 7459   1.079   1.559   9.935  0.0859  0.3476  0.1131
  498MPD2    H2 7460   1.346   1.848   9.815  0.6587 -1.1841 -1.6958
  498MPD2    H3 7461   1.128   1.744   9.793  0.0762  2.5680  0.4972
  498MPD2     N 7462   1.238   1.423  10.101  0.4888 -0.2194 -0.3064
  498MPD2    H5 7463   1.312   1.380  10.155 -0.8255  0.2757  1.8683
  498MPD2    N1 7464   1.561   1.747   9.962  1.0243  0.4955  1.0887
  498MPD2    H7 7465   1.623   1.687  10.015  0.3550 -0.7648  0.4329
  499TMC3    C1 7466   1.732   1.911   9.958  0.6522  0.0180  0.1436
  499TMC3    C2 7467   1.827   1.810   9.945  0.0018  0.2098  0.6289
  499TMC3    C3 7468   1.954   1.850   9.954  0.6517 -0.0961 -0.0060
  499TMC3    C4 7469   1.756   2.042   9.986 -0.4958  0.0912  0.2315
  499TMC3    C5 7470   1.883   2.081   9.991  0.4142 -0.4910  0.1405
  499TMC3    C6 7471   1.983   1.984   9.969  0.4729 -0.5159  0.1841
  499TMC3     C 7472   1.591   1.883   9.946  0.2477 -0.3611 -0.1941
  499TMC3     O 7473   1.519   1.981   9.923  0.7341  0.7050 -0.2571
  499TMC3     H 7474   1.792   1.712   9.912  0.3693  0.0397  0.7438
  499TMC3    H1 7475   1.683   2.121   9.995 -0.7744 -0.1026 -0.3554
  499TMC3    H2 7476   2.085   2.018   9.981 -0.0240  0.4215  1.7312
  499TMC3    C7 7477   1.919   2.223  10.011 -0.1482  0.7208 -0.0538
  499TMC3    C8 7478   2.052   1.752   9.919 -0.9339  0.0557  0.2524
  499TMC3    O1 7479   1.823   2.302  10.026  0.0825 -0.2427 -0.4592
  499TMC3    O2 7480   2.165   1.789   9.883  0.4547 -0.3297 -0.1748
  500MPD2     C 7481   2.850   3.381  11.051 -0.0135  0.1552  0.7318
  500MPD2    C1 7482   2.895   3.446  10.934  0.0409  0.6437  0.0404
  500MPD2    C2 7483   2.795   3.508  10.856  0.1246 -0.3967 -0.4971
  500MPD2    C3 7484   2.662   3.506  10.893 -0.4718 -0.4761  0.7472
  500MPD2    C4 7485   2.620   3.417  10.989  0.7159 -0.0269 -0.2436
  500MPD2    C5 7486   2.717   3.362  11.074  0.3525  0.0481 -0.2273
  500MPD2     H 7487   2.827   3.569  10.772 -1.7371  0.6498 -0.4570
  500MPD2    H1 7488   2.514   3.413  11.014  1.6066 -0.6813  3.4116
  500MPD2    H2 7489   2.923   3.330  11.113  0.8253 -0.4363 -0.7447
  500MPD2    H3 7490   2.690   3.304  11.161 -1.4057  1.8692  0.4412
  500MPD2     N 7491   2.563   3.568  10.810  0.6196 -0.2531  0.4082
  500MPD2    H5 7492   2.466   3.558  10.839  1.0613 -0.8648  1.6670
  500MPD2    N1 7493   3.037   3.446  10.888 -0.3871 -0.0437  0.0621
  500MPD2    H7 7494   3.056   3.482  10.795  0.7422  0.5584  0.5284
  501TMC3    C1 7495   3.262   3.439  10.884 -0.1833  0.7995 -0.6798
  501TMC3    C2 7496   3.256   3.469  10.750  0.0647 -0.4553  0.1189
  501TMC3    C3 7497   3.374   3.489  10.685  0.0506  0.0942  0.1397
  501TMC3    C4 7498   3.373   3.440  10.955 -0.1197  0.0177 -0.4983
  501TMC3    C5 7499   3.488   3.455  10.879 -0.3395 -0.3151  0.7774
  501TMC3    C6 7500   3.495   3.487  10.746 -0.3142 -0.0360  0.4800
  501TMC3     C 7501   3.143   3.426  10.963  0.6491 -0.3978  0.0381
  501TMC3     O 7502   3.152   3.390  11.078 -0.2504 -0.4445 -0.3595
  501TMC3     H 7503   3.166   3.473  10.689  1.5201 -0.6236 -2.0434
  501TMC3    H1 7504   3.378   3.389  11.051  1.1773  0.3725 -0.3701
  501TMC3    H2 7505   3.586   3.488  10.687 -2.1546  1.1564 -2.3319
  501TMC3    C7 7506   3.611   3.450  10.956  1.0288  0.3154  0.1792
  501TMC3    C8 7507   3.373   3.499  10.538  0.0390 -0.7522 -0.1328
  501TMC3    O1 7508   3.601   3.393  11.064  0.3382 -0.6739 -0.2802
  501TMC3    O2 7509   3.472   3.466  10.477  0.6826 -0.8418 -0.4028
  502TMC3    C1 7510   2.748   2.212  15.411 -0.8355 -0.0102  0.1560
  502TMC3    C2 7511   2.717   2.334  15.366 -0.4173  0.7426  0.3408
  502TMC3    C3 7512   2.608   2.344  15.284 -0.3976 -0.0532 -0.7386
  502TMC3    C4 7513   2.688   2.100  15.363 -0.3551  0.1903 -1.0911
  502TMC3    C5 7514   2.592   2.111  15.272  0.7046 -0.2043  0.6070
  502TMC3    C6 7515   2.550   2.235  15.230  0.6251  0.6879 -0.4727
  502TMC3     C 7516   2.845   2.195  15.514  0.0320  0.6843  1.3509
  502TMC3     O 7517   2.933   2.280  15.526  0.2817 -0.3496 -0.1829
  502TMC3     H 7518   2.769   2.425  15.394 -3.2343  2.0864  1.1721
  502TMC3    H1 7519   2.720   1.998  15.383 -0.5874  0.5043  0.8836
  502TMC3    H2 7520   2.469   2.243  15.158  0.1149  0.4599  0.0750
  502TMC3    C7 7521   2.487   2.007  15.275  0.0040 -0.3872  0.4987
  502TMC3    C8 7522   2.573   2.472  15.228  0.9532 -0.3821  0.0997
  502TMC3    O1 7523   2.528   1.891  15.274 -0.3305  0.4517 -0.1354
  502TMC3    O2 7524   2.659   2.562  15.234  0.0094 -0.0549  0.5566
  503MPD2     C 7525   4.704   2.672  17.158  0.2654 -0.5131 -0.0456
  503MPD2    C1 7526   4.711   2.687  17.294  0.0875 -0.6719 -0.0897
  503MPD2    C2 7527   0.030   2.583  17.373  0.0127 -0.1194  0.3015
  503MPD2    C3 7528   0.084   2.466  17.316  0.4587  0.1172  0.2361
  503MPD2    C4 7529   0.076   2.451  17.181 -0.3813  0.0869 -0.0440
  503MPD2    C5 7530   0.016   2.551  17.110 -0.2644 -0.4173 -0.7008
  503MPD2     H 7531   0.031   2.581  17.481 -4.8259  0.7165  0.3617
  503MPD2    H1 7532   0.116   2.367  17.127 -0.2777 -0.4672  0.8988
  503MPD2    H2 7533   4.665   2.746  17.089  1.2007 -0.2291 -0.2739
  503MPD2    H3 7534   0.011   2.526  17.004 -1.1832  0.7302 -0.9294
  503MPD2     N 7535   0.140   2.372  17.407 -0.2884  0.0703  0.1053
  503MPD2    H5 7536   0.145   2.398  17.505 -2.2958  1.9176 -0.2672
  503MPD2    N1 7537   4.669   2.806  17.359 -0.1681  0.2674  0.1548
  503MPD2    H7 7538   4.656   2.803  17.459  1.5078 -1.2077  0.3174
  504TMC3    C1 7539   0.269   2.190  17.479 -0.7077  0.2629 -0.7836
  504TMC3    C2 7540   0.240   2.236  17.605 -0.2555  0.2408 -0.4926
  504TMC3    C3 7541   0.338   2.251  17.697  0.8465  0.0825  0.8314
  504TMC3    C4 7542   0.398   2.167  17.442 -0.1160 -0.3789 -0.3642
  504TMC3    C5 7543   0.492   2.184  17.536  0.8205  0.1034 -0.5400
  504TMC3    C6 7544   0.471   2.234  17.666  0.2254 -0.4629 -0.1781
  504TMC3     C 7545   0.192   2.246  17.368  0.0904 -0.1027  0.0600
  504TMC3     O 7546   0.217   2.208  17.257  0.3923 -0.3686  0.3603
  504TMC3     H 7547   0.138   2.255  17.635 -0.3892 -2.3673  0.6567
  504TMC3    H1 7548   0.410   2.115  17.348 -1.3414 -1.1815 -0.0751
  504TMC3    H2 7549   0.552   2.266  17.729 -1.7327 -0.3825  2.2949
  504TMC3    C7 7550   0.627   2.173  17.479 -0.8394  0.4000 -0.2173
  504TMC3    C8 7551   0.308   2.347   0.053  0.8522 -0.3256  0.2347
  504TMC3    O1 7552   0.638   2.210  17.359 -0.3014 -0.7257  0.1220
  504TMC3    O2 7553   0.224   2.437   0.023 -0.1947  0.9905 -0.4608
  505MPD2     C 7554   0.548   0.985  10.802  0.5437 -0.1546  0.5031
  505MPD2    C1 7555   0.537   0.896  10.907  0.2129 -0.2362 -0.3690
  505MPD2    C2 7556   0.612   0.910  11.016 -0.0042  1.3356 -0.4720
  505MPD2    C3 7557   0.708   1.013  11.025  0.2658 -0.3824 -0.4273
  505MPD2    C4 7558   0.720   1.103  10.921 -0.3678 -0.2670 -0.0251
  505MPD2    C5 7559   0.641   1.086  10.812  0.6277  0.1847  0.1901
  505MPD2     H 7560   0.587   0.849  11.102  2.0536 -1.2127 -1.6772
  505MPD2    H1 7561   0.797   1.180  10.918 -0.9213  0.2929  0.2200
  505MPD2    H2 7562   0.490   0.971  10.711  0.5401  0.1265  0.4627
  505MPD2    H3 7563   0.662   1.151  10.727  0.3477  1.4201  1.0658
  505MPD2     N 7564   0.794   1.024  11.138  0.4545 -0.1843 -0.1067
  505MPD2    H5 7565   0.871   1.090  11.131  2.1951 -2.4904 -2.4328
  505MPD2    N1 7566   0.447   0.798  10.880 -0.1478  0.3108 -0.7247
  505MPD2    H7 7567   0.405   0.802  10.787  0.1114 -0.4271 -0.8704
  506TMC3    C1 7568   0.340   0.588  10.902 -0.0558  0.1603 -0.2021
  506TMC3    C2 7569   0.307   0.608  10.769 -0.0882  0.1239 -0.6984
  506TMC3    C3 7570   0.333   0.513  10.675  0.1523  0.2601  0.2976
  506TMC3    C4 7571   0.402   0.465  10.939 -0.2754 -0.2119  0.4348
  506TMC3    C5 7572   0.444   0.389  10.833  0.2515 -0.1425  0.5719
  506TMC3    C6 7573   0.407   0.408  10.701  0.1590 -0.0925 -1.2545
  506TMC3     C 7574   0.410   0.700  10.967  0.1959  0.3166  0.0478
  506TMC3     O 7575   0.461   0.665  11.073 -0.1643  0.3149 -0.6079
  506TMC3     H 7576   0.249   0.696  10.743 -0.3152  0.4400  0.9006
  506TMC3    H1 7577   0.430   0.440  11.041 -0.7169  1.2033  0.9132
  506TMC3    H2 7578   0.455   0.343  10.629 -1.8500 -1.5761 -1.2722
  506TMC3    C7 7579   0.572   0.328  10.847 -0.7605  0.1543 -0.2705
  506TMC3    C8 7580   0.344   0.574  10.546 -0.2439  0.7622  0.1479
  506TMC3    O1 7581   0.610   0.260  10.753 -0.0708 -0.0182  0.4980
  506TMC3    O2 7582   0.237   0.577  10.484 -0.1186 -0.1003  0.1992
  507TMC3    C1 7583   0.774   2.206  15.345 -0.7371 -0.2986 -0.0330
  507TMC3    C2 7584   0.797   2.118  15.240  0.0533  0.4657  0.3022
  507TMC3    C3 7585   0.929   2.110  15.186  0.1619  0.0531 -0.8722
  507TMC3    C4 7586   0.873   2.295  15.393 -0.1072 -0.1468  0.6690
  507TMC3    C5 7587   0.992   2.297  15.328  0.5338  0.1729  0.1976
  507TMC3    C6 7588   1.025   2.198  15.233 -0.4371 -0.2769  0.2821
  507TMC3     C 7589   0.643   2.204  15.397 -0.3302 -0.3447  0.2588
  507TMC3     O 7590   0.609   2.313  15.445 -0.3630 -0.2402 -0.3527
  507TMC3     H 7591   0.724   2.066  15.178 -1.6829  3.3191 -0.0637
  507TMC3    H1 7592   0.861   2.360  15.479  2.7182 -1.6702  2.1727
  507TMC3    H2 7593   1.124   2.201  15.189  0.2826 -0.5995  1.8801
  507TMC3    C7 7594   1.049   2.427  15.297  0.1046  0.3002  0.0055
  507TMC3    C8 7595   0.918   2.114  15.044  0.3509 -0.1491 -0.5094
  507TMC3    O1 7596   1.102   2.428  15.185  0.8057  0.2328  0.1235
  507TMC3    O2 7597   0.863   2.027  14.977 -0.3160 -0.2483 -0.4415
  508MPD2     C 7598   2.444   4.475  16.350  0.5775 -0.2886  0.1704
  508MPD2    C1 7599   2.363   4.563  16.417  0.0431  0.5206  0.0060
  508MPD2    C2 7600   2.295   4.658  16.337 -0.7199 -0.4828 -0.0053
  508MPD2    C3 7601   2.299   4.659  16.197 -0.2565  0.0420 -0.4765
  508MPD2    C4 7602   2.367   4.550  16.139 -0.0465  0.4020  0.4450
  508MPD2    C5 7603   2.435   4.458  16.217 -0.1002  0.0490 -0.0903
  508MPD2     H 7604   2.213   4.709  16.386  0.3616  2.8163 -1.6563
  508MPD2    H1 7605   2.370   4.529  16.032 -0.9844  0.5795  0.3819
  508MPD2    H2 7606   2.507   4.404  16.402 -2.5642 -2.0107  1.5689
  508MPD2    H3 7607   2.490   4.377  16.171 -0.2217  0.1459 -0.4052
  508MPD2     N 7608   2.235   0.029  16.126  0.4442  0.4351  0.3344
  508MPD2    H5 7609   2.184   0.095  16.183 -1.4428 -0.7911  0.0730
  508MPD2    N1 7610   2.365   4.550  16.557 -0.1893 -0.0219  0.1263
  508MPD2    H7 7611   2.430   4.486  16.601  1.3363  1.6761  0.3333
  509TMC3    C1 7612   2.157   0.320  15.774 -0.4369  0.5941 -0.0890
  509TMC3    C2 7613   2.167   0.438  15.852  0.1125 -1.3162  0.0047
  509TMC3    C3 7614   2.196   0.414  15.985 -0.2138 -0.6907 -0.3803
  509TMC3    C4 7615   2.175   0.194  15.826 -0.2080 -0.0479 -0.4204
  509TMC3    C5 7616   2.196   0.181  15.956 -0.2092  0.4108 -0.2688
  509TMC3    C6 7617   2.207   0.288  16.042  0.5540 -0.0654  0.5530
  509TMC3     C 7618   2.135   0.326  15.628 -0.0968 -0.4039 -0.1620
  509TMC3     O 7619   2.183   0.239  15.560  0.3877 -0.4859 -0.3529
  509TMC3     H 7620   2.160   0.538  15.811 -0.9104 -1.3737  0.0213
  509TMC3    H1 7621   2.151   0.112  15.759  1.5818  0.0056 -1.1477
  509TMC3    H2 7622   2.260   0.270  16.135  2.5990 -0.8524 -0.7595
  509TMC3    C7 7623   2.252   0.056  15.994  0.1124 -0.0094 -0.5993
  509TMC3    C8 7624   2.216   0.520  16.083 -0.1839  0.4915 -0.2353
  509TMC3    O1 7625   2.308   4.721  15.909  0.4916  0.3792  0.4672
  509TMC3    O2 7626   2.205   0.489  16.203  0.1353 -0.1943  0.0292
  510MPD2     C 7627   4.228   1.681  14.853 -0.8204 -0.6873 -0.0205
  510MPD2    C1 7628   4.273   1.558  14.900 -0.1344  0.1558 -0.1674
  510MPD2    C2 7629   4.378   1.500  14.836  0.5764 -1.0648  1.0240
  510MPD2    C3 7630   4.436   1.561  14.720  0.6834 -0.1254 -0.2178
  510MPD2    C4 7631   4.399   1.689  14.687  0.1614  0.2810  0.7418
  510MPD2    C5 7632   4.298   1.747  14.761  0.5233  1.3378  0.7074
  510MPD2     H 7633   4.416   1.406  14.874  2.1233 -0.7799  0.2035
  510MPD2    H1 7634   4.447   1.743  14.607 -0.0905  0.0469  0.4299
  510MPD2    H2 7635   4.156   1.739  14.909 -0.8079  0.3969 -1.1223
  510MPD2    H3 7636   4.277   1.851  14.742 -1.0305  0.6337 -1.4036
  510MPD2     N 7637   4.545   1.493  14.649 -0.2764  0.4649 -0.3608
  510MPD2    H5 7638   4.574   1.405  14.690  0.2023  0.8845  0.2000
  510MPD2    N1 7639   4.201   1.502  15.002  0.2377  0.2442  0.3352
  510MPD2    H7 7640   4.134   1.564  15.046 -0.6283  1.1301 -2.2236
  511TMC3    C1 7641   4.117   1.319  15.126  0.1019  0.5928  0.7426
  511TMC3    C2 7642   4.050   1.402  15.213  0.2860 -0.2590  0.2488
  511TMC3    C3 7643   3.941   1.352  15.287  0.2151  0.5511 -0.2457
  511TMC3    C4 7644   4.072   1.196  15.113 -0.5924 -0.4844 -0.1377
  511TMC3    C5 7645   3.957   1.149  15.174  0.0352  0.4448  0.0700
  511TMC3    C6 7646   3.894   1.229  15.268  0.5651  0.3542 -0.2364
  511TMC3     C 7647   4.209   1.365  15.030 -0.3472 -0.2588 -0.5457
  511TMC3     O 7648   4.250   1.275  14.960 -0.1450 -0.4723  0.3944
  511TMC3     H 7649   4.087   1.504  15.223  0.4663 -0.6096  3.1877
  511TMC3    H1 7650   4.114   1.123  15.044  0.1208  1.0168 -1.2979
  511TMC3    H2 7651   3.800   1.199  15.314  0.9703 -0.5337  0.0191
  511TMC3    C7 7652   3.900   1.022  15.129  0.5590 -0.0041  0.2313
  511TMC3    C8 7653   3.903   1.436  15.409 -0.3384 -0.6775 -0.1236
  511TMC3    O1 7654   3.943   0.987  15.020 -0.1010  0.7599  0.2763
  511TMC3    O2 7655   3.930   1.555  15.407 -0.5927  1.0134  0.1174
  512TMC3    C1 7656   4.170   0.420  14.033 -0.1956  0.5318  0.4797
  512TMC3    C2 7657   4.166   0.528  14.112 -0.2388  0.3663  0.1855
  512TMC3    C3 7658   4.079   0.540  14.216  0.4243 -0.1622  0.2958
  512TMC3    C4 7659   4.085   0.313  14.045  0.2529  0.7464  0.7334
  512TMC3    C5 7660   4.000   0.321  14.153 -0.2683 -0.0590 -0.3606
  512TMC3    C6 7661   4.004   0.429  14.243  0.1140  0.0772  0.0026
  512TMC3     C 7662   4.254   0.423  13.919 -0.2136 -0.5620 -0.1749
  512TMC3     O 7663   4.345   0.504  13.915  0.4005 -0.1219 -0.1338
  512TMC3     H 7664   4.232   0.610  14.086 -0.0945  0.0980 -0.3054
  512TMC3    H1 7665   4.108   0.217  14.000  1.6574  1.0145  0.9013
  512TMC3    H2 7666   3.946   0.418  14.333 -0.1589  2.8186  0.1490
  512TMC3    C7 7667   3.892   0.225  14.171  0.2476  0.3274 -0.2716
  512TMC3    C8 7668   4.050   0.660  14.290  0.1818 -0.4281 -0.3493
  512TMC3    O1 7669   3.813   0.265  14.258  0.6853 -0.2721  0.2787
  512TMC3    O2 7670   3.980   0.647  14.391 -0.0778 -0.3737  0.3586
  513MPD2     C 7671   1.224   1.245  13.455 -0.6364  0.2286 -0.0431
  513MPD2    C1 7672   1.091   1.243  13.483  0.2267 -0.0644  0.1079
  513MPD2    C2 7673   1.053   1.234  13.616  0.1552  0.0174 -0.1120
  513MPD2    C3 7674   1.149   1.228  13.717  0.2187 -0.2336 -0.0743
  513MPD2    C4 7675   1.278   1.223  13.687  0.3580 -0.5643  0.0905
  513MPD2    C5 7676   1.319   1.233  13.550  0.0427 -0.5573 -0.1861
  513MPD2     H 7677   0.949   1.242  13.645  0.8699  0.9314  2.2253
  513MPD2    H1 7678   1.354   1.234  13.764 -0.1578 -0.6123  0.6075
  513MPD2    H2 7679   1.270   1.251  13.357  0.4299  0.2840  0.4635
  513MPD2    H3 7680   1.425   1.224  13.527 -0.4445  1.8138 -3.3015
  513MPD2     N 7681   1.094   1.191  13.842 -0.0854  0.1219 -0.2657
  513MPD2    H5 7682   0.994   1.172  13.845 -0.1222  0.2202 -0.9030
  513MPD2    N1 7683   1.004   1.243  13.373 -0.0858  1.1631  0.2468
  513MPD2    H7 7684   1.047   1.242  13.281 -0.9779 -2.0923 -0.1258
  514TMC3    C1 7685   0.810   1.224  13.237 -0.0884 -0.4404 -0.3016
  514TMC3    C2 7686   0.889   1.140  13.159  0.1440  0.2987  0.7612
  514TMC3    C3 7687   0.828   1.050  13.071  0.2798  0.2269  0.3777
  514TMC3    C4 7688   0.674   1.208  13.239 -0.7774 -0.3179  0.1741
  514TMC3    C5 7689   0.631   1.094  13.182 -0.1888  0.4854 -1.3387
  514TMC3    C6 7690   0.695   1.017  13.091  0.3213 -0.2419 -0.0092
  514TMC3     C 7691   0.866   1.252  13.375  0.3289 -0.0352 -0.1603
  514TMC3     O 7692   0.782   1.255  13.465  0.0167  0.2121 -0.0087
  514TMC3     H 7693   0.996   1.159  13.157  0.5706 -1.8164  2.9625
  514TMC3    H1 7694   0.611   1.257  13.312  0.3446 -0.7323  1.4203
  514TMC3    H2 7695   0.651   0.927  13.050  0.4602 -0.6497  0.7312
  514TMC3    C7 7696   0.551   1.012  13.272 -0.0404  0.5859 -0.2744
  514TMC3    C8 7697   0.909   0.956  13.010  0.1657 -0.4721  0.7116
  514TMC3    O1 7698   0.490   0.918  13.227  0.2793  0.1437 -0.0134
  514TMC3    O2 7699   1.017   0.940  13.062  0.2516  0.1000  0.6598
  515MPD2     C 7700   3.962   2.438  14.221  0.3300 -0.2523  0.1978
  515MPD2    C1 7701   3.879   2.401  14.321  0.3520  0.6266  0.3483
  515MPD2    C2 7702   3.899   2.478  14.437  0.2422 -0.0159  0.1496
  515MPD2    C3 7703   3.974   2.595  14.450  0.2174 -0.8050  0.1601
  515MPD2    C4 7704   4.043   2.636  14.341 -0.1384 -0.0806 -0.0098
  515MPD2    C5 7705   4.048   2.547  14.232  0.7288  0.5432  0.2470
  515MPD2     H 7706   3.838   2.442  14.520  1.3327  0.8662  1.3421
  515MPD2    H1 7707   4.111   2.720  14.344 -0.1904  0.0096 -1.2387
  515MPD2    H2 7708   3.969   2.381  14.129 -1.5349 -0.1938  0.0136
  515MPD2    H3 7709   4.111   2.566  14.146 -0.6243  0.8731 -0.6643
  515MPD2     N 7710   3.996   2.675  14.567 -0.5490  0.5168 -0.0155
  515MPD2    H5 7711   4.065   2.750  14.564  0.3921 -0.3603 -0.4864
  515MPD2    N1 7712   3.790   2.292  14.316 -0.0388 -0.0706 -0.0124
  515MPD2    H7 7713   3.739   2.264  14.399 -1.7310 -1.9427 -1.6931
  516TMC3    C1 7714   3.631   2.157  14.223 -0.0571  0.0012  0.2642
  516TMC3    C2 7715   3.539   2.204  14.137 -0.0644 -0.5072 -0.1698
  516TMC3    C3 7716   3.406   2.161  14.164 -0.3365  0.5032  0.2417
  516TMC3    C4 7717   3.606   2.070  14.328 -0.4545 -0.0609 -0.4604
  516TMC3    C5 7718   3.477   2.040  14.358 -0.1895 -0.8361  0.6285
  516TMC3    C6 7719   3.375   2.079  14.274  0.3120  0.7006 -0.5928
  516TMC3     C 7720   3.759   2.218  14.202 -0.2342  0.6748 -0.0302
  516TMC3     O 7721   3.791   2.254  14.090  0.0202 -0.2305  0.0813
  516TMC3     H 7722   3.566   2.271  14.056  2.4957  0.6591  1.6618
  516TMC3    H1 7723   3.682   2.051  14.402 -2.6055  1.6853  2.2075
  516TMC3    H2 7724   3.278   2.032  14.270  0.3672  0.3494  2.6015
  516TMC3    C7 7725   3.448   1.975  14.484  0.4715 -0.7509 -0.3492
  516TMC3    C8 7726   3.313   2.275  14.152 -0.7066 -0.1638  0.0353
  516TMC3    O1 7727   3.544   1.942  14.556  0.2083  0.0594 -0.0393
  516TMC3    O2 7728   3.241   2.301  14.250  0.0241  0.3533  0.0976
  517MPD2     C 7729   3.258   4.200   0.450  0.1063 -0.2296  0.5171
  517MPD2    C1 7730   3.395   4.192   0.443 -0.3303  0.2507  0.1153
  517MPD2    C2 7731   3.470   4.283   0.528  0.5374  0.1913 -0.4302
  517MPD2    C3 7732   3.402   4.365   0.623  0.0653  0.1990  0.7454
  517MPD2    C4 7733   3.267   4.359   0.620  0.1816  0.0690  0.4304
  517MPD2    C5 7734   3.194   4.278   0.536  0.8957 -0.3518 -0.4041
  517MPD2     H 7735   3.578   4.277   0.537  0.3449 -0.5201  1.5158
  517MPD2    H1 7736   3.216   4.404   0.704 -2.3557  1.5431 -1.8795
  517MPD2    H2 7737   3.193   4.153   0.377  0.5171  0.4871 -0.3178
  517MPD2    H3 7738   3.087   4.291   0.546  1.4914  3.0363  1.6109
  517MPD2     N 7739   3.463   4.439   0.727 -0.6874 -0.1245 -0.0494
  517MPD2    H5 7740   3.395   4.481   0.789 -1.8420 -2.5375  0.3091
  517MPD2    N1 7741   3.472   4.104   0.365  0.0211 -0.2666  0.2809
  517MPD2    H7 7742   3.573   4.113   0.374  0.1037  0.1631 -1.0410
  518TMC3    C1 7743   3.511   3.888   0.249  0.9086  0.2581 -0.0331
  518TMC3    C2 7744   3.455   3.768   0.225 -0.5945  0.8340  0.3046
  518TMC3    C3 7745   3.515   3.676   0.143  0.4287 -0.2532 -0.0534
  518TMC3    C4 7746   3.629   3.923   0.187  0.9037 -0.2841  0.1111
  518TMC3    C5 7747   3.682   3.835   0.095 -0.0453 -0.6623 -0.7251
  518TMC3    C6 7748   3.629   3.705   0.075 -0.5877  0.2664 -0.1181
  518TMC3     C 7749   3.418   3.993   0.295 -0.0047  0.0985  0.1029
  518TMC3     O 7750   3.301   3.964   0.278  0.3766  0.4461  0.5051
  518TMC3     H 7751   3.381   3.736   0.297 -1.9135  1.1136 -0.9248
  518TMC3    H1 7752   3.665   4.025   0.195  0.5063 -0.2230  1.0590
  518TMC3    H2 7753   3.657   3.634  17.739  1.6261 -0.5240  1.3704
  518TMC3    C7 7754   3.813   3.875   0.045  0.7186 -0.0384  0.3821
  518TMC3    C8 7755   3.458   3.541   0.135  0.6271 -0.4469  0.0313
  518TMC3    O1 7756   3.870   3.974   0.082  0.4743 -0.2520 -0.3381
  518TMC3    O2 7757   3.538   3.455   0.091 -0.6051  0.1150  0.3609
  519MPD2     C 7758   4.662   2.621  14.587  0.5035  0.3082  0.1273
  519MPD2    C1 7759   4.705   2.618  14.454  0.0351 -0.9846  0.2973
  519MPD2    C2 7760   0.030   2.502  14.415 -0.2950  0.3549 -0.3084
  519MPD2    C3 7761   0.048   2.392  14.497  0.1279 -0.5318 -0.4323
  519MPD2    C4 7762   0.010   2.397  14.627  0.0413  0.3307  0.3081
  519MPD2    C5 7763   4.681   2.511  14.668 -0.2038  0.3365 -0.7959
  519MPD2     H 7764   0.083   2.493  14.321 -2.4422  3.9648 -1.8708
  519MPD2    H1 7765   0.024   2.321  14.703  0.5267  2.1808  2.0763
  519MPD2    H2 7766   4.628   2.717  14.626  0.5828 -0.0245  1.0124
  519MPD2    H3 7767   4.635   2.517  14.766  1.2492 -2.6859  0.0817
  519MPD2     N 7768   0.114   2.270  14.458  0.1074 -0.4589 -0.4009
  519MPD2    H5 7769   0.127   2.201  14.531 -0.0691  0.3763  0.4150
  519MPD2    N1 7770   4.711   2.739  14.378 -0.0561  0.4256 -0.0524
  519MPD2    H7 7771   4.675   2.821  14.426  1.7158  0.8623  0.5196
  520TMC3    C1 7772   0.223   2.133  14.300  0.1012 -0.9243 -0.2365
  520TMC3    C2 7773   0.230   2.097  14.168 -0.3005  0.3470 -0.2487
  520TMC3    C3 7774   0.308   1.992  14.134  0.4601 -0.4241 -0.1424
  520TMC3    C4 7775   0.281   2.062  14.398 -0.0946 -0.0931 -0.2253
  520TMC3    C5 7776   0.357   1.952  14.357 -0.0105 -0.1562 -0.5924
  520TMC3    C6 7777   0.378   1.919  14.226  0.1052 -0.2855 -0.4798
  520TMC3     C 7778   0.125   2.239  14.326  0.2623 -0.2461 -0.2451
  520TMC3     O 7779   0.070   2.284  14.227 -0.2094  0.0263 -0.2222
  520TMC3     H 7780   0.180   2.154  14.091  0.4021 -1.6495 -2.1712
  520TMC3    H1 7781   0.288   2.090  14.502  0.0026  0.5750 -0.4089
  520TMC3    H2 7782   0.427   1.826  14.199  1.7769 -0.0182  1.6346
  520TMC3    C7 7783   0.395   1.852  14.455 -0.0586 -0.4271  0.0039
  520TMC3    C8 7784   0.353   1.988  13.996 -0.2844  0.0501 -0.2065
  520TMC3    O1 7785   0.499   1.795  14.430  0.4378 -0.3032 -0.6582
  520TMC3    O2 7786   0.470   2.011  13.972  0.0422  0.1577  0.2738
  521MPD2     C 7787   0.930   0.498   0.236 -0.2123 -0.4646 -0.0109
  521MPD2    C1 7788   0.927   0.521   0.102 -0.3566 -0.0110  0.0232
  521MPD2    C2 7789   1.042   0.507   0.021 -0.0249 -0.0412 -0.1933
  521MPD2    C3 7790   1.154   0.457   0.085 -0.0006 -0.1632  0.4549
  521MPD2    C4 7791   1.159   0.425   0.221 -0.2012  0.4950  0.2393
  521MPD2    C5 7792   1.044   0.453   0.296  0.3433 -1.0383 -0.7435
  521MPD2     H 7793   1.043   0.550  17.663 -1.9393  3.1084  1.1264
  521MPD2    H1 7794   1.250   0.401   0.275 -2.4976 -3.1877  2.4802
  521MPD2    H2 7795   0.840   0.519   0.293  0.0736  1.7887 -0.3546
  521MPD2    H3 7796   1.046   0.440   0.404 -1.0820  2.2136 -0.3375
  521MPD2     N 7797   1.263   0.433   0.004  0.0801 -0.0692 -0.4292
  521MPD2    H5 7798   1.255   0.468  17.651  0.0431  1.1656  0.0359
  521MPD2    N1 7799   0.795   0.552   0.050  0.3428 -0.0723  0.3141
  521MPD2    H7 7800   0.718   0.544   0.117 -0.4794 -0.2206 -0.6471
  522TMC3    C1 7801   1.463   0.352  17.663  0.5218 -0.6817  0.1720
  522TMC3    C2 7802   1.528   0.230  17.654 -0.2198  0.0406  0.7206
  522TMC3    C3 7803   1.599   0.196  17.541 -0.0480 -0.1909  0.5777
  522TMC3    C4 7804   1.473   0.438  17.558  0.0591  0.6606  0.1788
  522TMC3    C5 7805   1.532   0.397  17.441  0.1706 -0.2390 -0.6621
  522TMC3    C6 7806   1.613   0.285  17.440  0.2346 -0.6584  0.0463
  522TMC3     C 7807   1.379   0.372   0.039  0.4273  0.5916 -0.4977
  522TMC3     O 7808   1.414   0.312   0.143  0.1457 -0.4695 -0.0179
  522TMC3     H 7809   1.517   0.169   0.001 -3.3286  0.7237  0.8093
  522TMC3    H1 7810   1.423   0.534  17.559 -0.4299  0.4020  0.4889
  522TMC3    H2 7811   1.661   0.257  17.346  0.9337 -1.8604  0.7680
  522TMC3    C7 7812   1.564   0.497  17.337  0.0168 -0.0297 -0.3131
  522TMC3    C8 7813   1.681   0.072  17.549  0.3508  0.3364 -0.1373
  522TMC3    O1 7814   1.672   0.474  17.282 -0.0355  0.2223  0.7956
  522TMC3    O2 7815   1.640   0.008  17.641  0.4453  0.1479 -1.3057
  523MPD2     C 7816   3.768   0.310  10.166 -0.0604  0.2140  0.0788
  523MPD2    C1 7817   3.654   0.248  10.194 -0.3764  0.2361 -0.3315
  523MPD2    C2 7818   3.528   0.299  10.166 -0.0051 -0.1829  0.4912
  523MPD2    C3 7819   3.525   0.425  10.117 -0.3295  0.3040  0.0902
  523MPD2    C4 7820   3.641   0.491  10.088  0.5230 -0.6653 -1.2212
  523MPD2    C5 7821   3.757   0.435  10.115  0.2121 -0.3727  0.5165
  523MPD2     H 7822   3.438   0.256  10.206 -0.3076  1.1011  1.1998
  523MPD2    H1 7823   3.635   0.597  10.065  2.4454 -0.4216 -0.5846
  523MPD2    H2 7824   3.866   0.294  10.209  0.9429  1.1650 -1.8455
  523MPD2    H3 7825   3.843   0.501  10.111 -0.8827  1.0257 -0.1407
  523MPD2     N 7826   3.403   0.491  10.089  0.2612 -0.0594 -0.0286
  523MPD2    H5 7827   3.415   0.583  10.047  1.1764 -0.0439  0.2508
  523MPD2    N1 7828   3.672   0.124  10.263 -0.6803  0.4286  0.3102
  523MPD2    H7 7829   3.768   0.093  10.278 -0.6573  0.8159  0.9698
  524TMC3    C1 7830   3.165   0.534  10.073  0.4458 -0.9449  0.1832
  524TMC3    C2 7831   3.048   0.491  10.003  0.1994 -0.2411  0.7850
  524TMC3    C3 7832   2.963   0.583   9.955  0.4540  0.7751  0.1301
  524TMC3    C4 7833   3.180   0.664  10.112  1.4042  0.1936 -0.3543
  524TMC3    C5 7834   3.073   0.746  10.078 -0.1934 -0.0584 -0.3145
  524TMC3    C6 7835   2.962   0.710  10.001 -0.2094 -0.0771  0.2089
  524TMC3     C 7836   3.275   0.439  10.098  1.1798 -0.2323 -0.3054
  524TMC3     O 7837   3.243   0.322  10.102  0.6473  0.5796  0.2869
  524TMC3     H 7838   3.049   0.384   9.986  1.1470 -0.4518  2.0590
  524TMC3    H1 7839   3.261   0.696  10.177 -1.2230 -0.8999  3.4269
  524TMC3    H2 7840   2.877   0.770   9.973  0.6169  0.9415 -0.1006
  524TMC3    C7 7841   3.090   0.887  10.117 -0.0279  0.7570 -0.2667
  524TMC3    C8 7842   2.879   0.530   9.852  0.8852 -0.1378 -0.8310
  524TMC3    O1 7843   3.171   0.910  10.208 -0.2741 -0.7537  0.7474
  524TMC3    O2 7844   2.843   0.414   9.854 -0.1684  0.3880 -0.1429
  525MPD2     C 7845   1.255   1.858  15.097 -0.3028  0.7619 -0.2658
  525MPD2    C1 7846   1.388   1.835  15.116 -0.4211  0.4518  0.2232
  525MPD2    C2 7847   1.475   1.881  15.025  0.3056 -0.0108  0.4111
  525MPD2    C3 7848   1.439   1.965  14.922 -0.0759 -0.1035 -0.0843
  525MPD2    C4 7849   1.307   1.995  14.904  0.7834 -0.2677 -0.1971
  525MPD2    C5 7850   1.222   1.928  14.984  0.1456 -0.7230 -0.2852
  525MPD2     H 7851   1.578   1.859  15.052 -0.0929 -1.2219  0.9462
  525MPD2    H1 7852   1.270   2.063  14.828 -1.3547 -0.9749  0.2095
  525MPD2    H2 7853   1.174   1.818  15.157  1.7815 -2.3096  0.4970
  525MPD2    H3 7854   1.117   1.943  14.962 -0.1605  0.1422  1.7736
  525MPD2     N 7855   1.528   2.042  14.846  0.7114 -0.6752  0.0489
  525MPD2    H5 7856   1.485   2.106  14.780 -3.4997 -1.8860  1.6306
  525MPD2    N1 7857   1.442   1.763  15.227 -0.4198  0.6321 -0.2247
  525MPD2    H7 7858   1.542   1.746  15.237 -0.1320  2.3266 -0.1760
  526TMC3    C1 7859   1.455   1.652  15.427 -0.0985  0.1013 -1.1646
  526TMC3    C2 7860   1.430   1.692  15.558  0.1533 -0.0080 -0.5108
  526TMC3    C3 7861   1.516   1.659  15.656  0.2063 -0.8761  0.1605
  526TMC3    C4 7862   1.560   1.575  15.389 -0.1429  0.2997  0.1893
  526TMC3    C5 7863   1.638   1.527  15.501 -0.2018 -0.2759 -0.3992
  526TMC3    C6 7864   1.622   1.574  15.625 -0.1617  0.0788  0.1861
  526TMC3     C 7865   1.367   1.706  15.327 -0.3948 -0.0391 -0.3018
  526TMC3     O 7866   1.245   1.714  15.345 -0.4522 -0.1429  0.3601
  526TMC3     H 7867   1.358   1.772  15.571 -0.1600 -0.0842 -1.7377
  526TMC3    H1 7868   1.579   1.557  15.284 -0.5839  0.6164  0.0542
  526TMC3    H2 7869   1.669   1.528  15.711  1.0915 -0.3241 -0.7060
  526TMC3    C7 7870   1.768   1.469  15.486  0.4140 -0.0437  0.3074
  526TMC3    C8 7871   1.545   1.739  15.770  0.3260  0.4627  0.5265
  526TMC3    O1 7872   1.811   1.411  15.582  0.0144  0.4527  0.1505
  526TMC3    O2 7873   1.654   1.714  15.818 -0.4552 -0.7885  0.5787
  527MPD2     C 7874   4.126   4.700   1.562 -0.4384 -0.7493  0.3996
  527MPD2    C1 7875   4.141   0.044   1.457 -0.1209 -0.3419 -0.4035
  527MPD2    C2 7876   4.264   0.047   1.391  0.9312 -0.0012 -0.1323
  527MPD2    C3 7877   4.376   4.710   1.436  0.5634 -0.1851 -0.1599
  527MPD2    C4 7878   4.361   4.632   1.546 -0.1481  0.1702 -0.5221
  527MPD2    C5 7879   4.237   4.628   1.610  0.1166  0.2788  0.0163
  527MPD2     H 7880   4.286   0.103   1.301  1.1905  0.6767  0.3575
  527MPD2    H1 7881   4.436   4.559   1.576 -0.8008  0.3107  1.4757
  527MPD2    H2 7882   4.040   4.702   1.627  0.3431 -1.1224  1.4642
  527MPD2    H3 7883   4.220   4.564   1.696 -0.4123 -0.1357 -0.3928
  527MPD2     N 7884   4.501   4.706   1.358 -0.3629 -0.1052 -0.3791
  527MPD2    H5 7885   4.496   0.015   1.267  1.4875 -0.7758 -0.8018
  527MPD2    N1 7886   4.039   0.134   1.406 -0.0030 -1.0702 -0.3446
  527MPD2    H7 7887   4.070   0.203   1.339  0.1211  1.3261  2.1905
  528TMC3    C1 7888   3.813   0.213   1.370  0.0562 -0.1844  0.8336
  528TMC3    C2 7889   3.864   0.331   1.309 -0.3183 -0.1736  0.3529
  528TMC3    C3 7890   3.770   0.392   1.227 -0.8546  0.1125  0.1181
  528TMC3    C4 7891   3.690   0.163   1.336  0.7659  0.4322 -0.7682
  528TMC3    C5 7892   3.602   0.243   1.266  0.2245  0.1167 -0.4033
  528TMC3    C6 7893   3.639   0.362   1.212 -0.3910  0.6488 -0.1942
  528TMC3     C 7894   3.907   0.120   1.437 -0.8670  0.1027 -0.6290
  528TMC3     O 7895   3.857   0.032   1.511 -0.0593  0.3420 -0.7640
  528TMC3     H 7896   3.969   0.355   1.318 -0.3519 -0.5122  1.5442
  528TMC3    H1 7897   3.656   0.069   1.378 -1.0863  1.0172 -0.9668
  528TMC3    H2 7898   3.570   0.425   1.158 -0.9606  1.7058  1.7919
  528TMC3    C7 7899   3.468   0.194   1.237 -0.2834  0.5087 -0.5035
  528TMC3    C8 7900   3.810   0.532   1.202 -0.2883  0.1047  0.0759
  528TMC3    O1 7901   3.417   0.250   1.140  0.2145 -0.0314 -0.0450
  528TMC3    O2 7902   3.912   0.570   1.267  0.1237  0.0340  0.8645
  529MPD2     C 7903   1.686   3.271   1.214  0.5167  0.5025 -0.0306
  529MPD2    C1 7904   1.757   3.198   1.120 -0.0321 -0.7000  0.0379
  529MPD2    C2 7905   1.793   3.267   1.004 -0.8408  0.3608 -0.1087
  529MPD2    C3 7906   1.747   3.396   0.981  0.2175  0.0481 -0.2084
  529MPD2    C4 7907   1.683   3.460   1.076 -0.0196 -0.3978  0.3771
  529MPD2    C5 7908   1.642   3.399   1.192 -0.1110  0.1279 -0.4743
  529MPD2     H 7909   1.858   3.215   0.935 -0.2534  0.4249  0.3909
  529MPD2    H1 7910   1.645   3.559   1.056  2.4066  0.4708  0.1307
  529MPD2    H2 7911   1.658   3.232   1.311  0.6694 -0.5922 -0.4244
  529MPD2    H3 7912   1.590   3.450   1.272 -0.6120 -2.2874  0.7377
  529MPD2     N 7913   1.789   3.453   0.859  0.1807 -0.4126  0.0329
  529MPD2    H5 7914   1.833   3.383   0.800 -0.5308 -0.3326 -0.5851
  529MPD2    N1 7915   1.805   3.065   1.147 -0.1164  0.2162  0.5984
  529MPD2    H7 7916   1.863   3.029   1.072 -0.4198  0.7266  0.1120
  530TMC3    C1 7917   1.876   2.883   1.289 -0.0511 -0.2794 -0.1662
  530TMC3    C2 7918   1.944   2.879   1.414 -0.0035 -0.0858  0.0448
  530TMC3    C3 7919   2.043   2.789   1.421  0.2389 -0.1380 -0.7427
  530TMC3    C4 7920   1.902   2.786   1.192  0.3584  0.1605 -0.1733
  530TMC3    C5 7921   1.997   2.684   1.214 -0.5329 -0.1108  0.2898
  530TMC3    C6 7922   2.065   2.691   1.326  0.4343  0.5436 -0.3478
  530TMC3     C 7923   1.779   2.990   1.270 -0.5948  0.5534  0.2029
  530TMC3     O 7924   1.719   3.025   1.371  0.4327  0.3348  0.2978
  530TMC3     H 7925   1.916   2.949   1.492  1.6880 -0.3634  0.8852
  530TMC3    H1 7926   1.833   2.783   1.109  1.4818  1.6884 -1.1510
  530TMC3    H2 7927   2.149   2.621   1.328 -2.0389 -2.3233  3.0182
  530TMC3    C7 7928   1.947   2.554   1.172  0.2265 -0.4067 -0.4224
  530TMC3    C8 7929   2.106   2.767   1.548  0.2503  0.1091  0.5715
  530TMC3    O1 7930   1.916   2.538   1.055  0.2021  0.3226 -0.0155
  530TMC3    O2 7931   2.051   2.810   1.650  0.4226  0.5745  0.0849
  531MPD2     C 7932   0.467   0.869  13.762  0.6560  0.5238  0.8341
  531MPD2    C1 7933   0.586   0.938  13.753 -0.1569  0.8493 -0.1761
  531MPD2    C2 7934   0.618   0.998  13.631 -0.5911 -0.7831  0.1237
  531MPD2    C3 7935   0.539   0.968  13.518  1.0048  0.6045  0.8667
  531MPD2    C4 7936   0.422   0.899  13.526  0.0992 -0.7974  0.0927
  531MPD2    C5 7937   0.387   0.846  13.653 -0.1245  0.2170 -0.3149
  531MPD2     H 7938   0.713   1.051  13.619 -0.5704 -1.4969 -2.8410
  531MPD2    H1 7939   0.351   0.887  13.446 -1.4039  0.2327  1.2781
  531MPD2    H2 7940   0.431   0.815  13.849 -2.3852  1.0107 -0.1180
  531MPD2    H3 7941   0.288   0.807  13.671  0.4758 -1.1709 -0.0056
  531MPD2     N 7942   0.587   1.032  13.404 -0.6455  0.0010 -0.0805
  531MPD2    H5 7943   0.665   1.093  13.423 -2.2979  1.7075  1.2254
  531MPD2    N1 7944   0.664   0.950  13.868  0.4212  0.4859 -0.0305
  531MPD2    H7 7945   0.644   0.885  13.944  1.3385 -0.3406 -0.4869
  532TMC3    C1 7946   0.857   0.995  13.990 -0.7311 -0.0334  0.5640
  532TMC3    C2 7947   0.948   1.100  14.003  0.1650 -0.0490  0.4446
  532TMC3    C3 7948   1.077   1.085  14.043 -0.3752  0.9042  0.4131
  532TMC3    C4 7949   0.911   0.871  14.003  0.1226  0.3073  0.7221
  532TMC3    C5 7950   1.042   0.852  14.034  0.5305 -0.3217  0.0813
  532TMC3    C6 7951   1.131   0.957  14.062  0.3697 -0.0952  0.5403
  532TMC3     C 7952   0.776   1.030  13.874  0.1746  0.4350  0.1761
  532TMC3     O 7953   0.809   1.125  13.805 -0.2416  0.1629 -0.1598
  532TMC3     H 7954   0.909   1.201  14.010  1.5070  0.6918 -2.8353
  532TMC3    H1 7955   0.851   0.780  13.996  1.0206 -0.1203 -1.5081
  532TMC3    H2 7956   1.237   0.943  14.083  0.4071  2.1220  1.7715
  532TMC3    C7 7957   1.097   0.718  14.043 -0.4105 -0.2801  0.0252
  532TMC3    C8 7958   1.161   1.159  13.957 -0.4818  0.2727 -0.2749
  532TMC3    O1 7959   1.180   0.692  14.125 -0.3674  0.2874 -0.0774
  532TMC3    O2 7960   1.282   1.164  13.984  0.4470 -0.1763  0.0799
  533TMC3    C1 7961   1.727   2.165  14.801 -0.2629 -0.3363 -0.2399
  533TMC3    C2 7962   1.859   2.153  14.764  0.2899  0.1132  0.3169
  533TMC3    C3 7963   1.916   2.274  14.739 -0.6373  0.1030 -0.2760
  533TMC3    C4 7964   1.673   2.286  14.845  0.4042  0.0365  0.1262
  533TMC3    C5 7965   1.739   2.403  14.816  0.0656  0.3140  0.5087
  533TMC3    C6 7966   1.850   2.394  14.744  0.2243  0.6751  0.0032
  533TMC3     C 7967   1.667   2.052  14.857 -0.1744 -0.7603  0.1460
  533TMC3     O 7968   1.746   1.970  14.908 -0.0386 -0.1364  0.1367
  533TMC3     H 7969   1.904   2.056  14.752  1.9916  1.2195 -2.1881
  533TMC3    H1 7970   1.588   2.290  14.912 -0.0464 -0.1320 -0.4394
  533TMC3    H2 7971   1.905   2.482  14.711 -0.4261  0.0768 -2.6608
  533TMC3    C7 7972   1.745   2.509  14.919 -0.8485 -0.6148 -0.1271
  533TMC3    C8 7973   2.061   2.284  14.735  0.0516  0.3964 -0.5623
  533TMC3    O1 7974   1.829   2.597  14.895  0.7367 -0.3420  0.3764
  533TMC3    O2 7975   2.112   2.375  14.670 -0.1709  0.9084 -0.1226
  534MPD2     C 7976   4.517   2.995   1.886  0.7123  0.2898 -0.0418
  534MPD2    C1 7977   4.538   3.055   1.763 -0.2230 -0.0080  0.8094
  534MPD2    C2 7978   4.426   3.094   1.692 -0.8338  0.8636  0.3414
  534MPD2    C3 7979   4.300   3.059   1.729  0.3793 -0.7029  0.1087
  534MPD2    C4 7980   4.278   2.995   1.852 -0.0866  0.4286  0.3431
  534MPD2    C5 7981   4.389   2.964   1.928 -0.3133 -0.8153  0.0730
  534MPD2     H 7982   4.438   3.148   1.599  0.4894  2.3011  1.3325
  534MPD2    H1 7983   4.177   2.972   1.882  0.4167 -0.5645  1.2927
  534MPD2    H2 7984   4.595   2.976   1.959  1.1682 -3.2920 -1.4554
  534MPD2    H3 7985   4.364   2.917   2.022 -0.3565  0.5521  0.7448
  534MPD2     N 7986   4.188   3.107   1.653  0.0148  0.1667 -0.0674
  534MPD2    H5 7987   4.097   3.100   1.698  1.4477  2.7127  3.2446
  534MPD2    N1 7988   4.670   3.081   1.708  0.6914 -0.2799 -0.2629
  534MPD2    H7 7989   4.686   3.124   1.618 -3.5928  0.4205 -0.6784
  535TMC3    C1 7990   4.049   3.203   1.481 -0.0309  0.0457 -0.6442
  535TMC3    C2 7991   3.935   3.137   1.525 -0.2621  0.0489  0.1907
  535TMC3    C3 7992   3.822   3.134   1.445  0.1705  0.6622  0.2808
  535TMC3    C4 7993   4.047   3.259   1.354  0.0566 -0.3345  0.2366
  535TMC3    C5 7994   3.932   3.256   1.283 -0.0140 -0.1851  0.0796
  535TMC3    C6 7995   3.811   3.208   1.328  0.6076 -0.7305 -0.2512
  535TMC3     C 7996   4.184   3.171   1.532 -0.3256 -0.7906  0.1557
  535TMC3     O 7997   4.277   3.189   1.454  0.1647  0.3655  0.0952
  535TMC3     H 7998   3.941   3.103   1.628  0.6403  1.4108  0.5856
  535TMC3    H1 7999   4.137   3.290   1.303 -1.2380  0.0085 -1.8426
  535TMC3    H2 8000   3.725   3.216   1.264  0.7818  0.6992 -0.3151
  535TMC3    C7 8001   3.932   3.317   1.148 -0.3212  0.0928  0.0355
  535TMC3    C8 8002   3.695   3.094   1.494  0.1610  0.2879 -0.5380
  535TMC3    O1 8003   4.009   3.288   1.060 -0.1642  0.2848  0.1517
  535TMC3    O2 8004   3.599   3.154   1.454 -0.2424 -0.0693 -0.2845
  536MPD2     C 8005   3.184   1.367  16.551  0.4186 -0.8218 -0.3183
  536MPD2    C1 8006   3.058   1.339  16.605 -0.6574 -0.4596  0.6665
  536MPD2    C2 8007   2.940   1.397  16.552  0.6095  0.1865  0.3240
  536MPD2    C3 8008   2.961   1.481  16.446 -0.8180  0.6241  0.1914
  536MPD2    C4 8009   3.087   1.509  16.388  0.1108  0.1525  0.1903
  536MPD2    C5 8010   3.196   1.455  16.443  0.0557  0.1916 -0.8508
  536MPD2     H 8011   2.844   1.376  16.598 -0.3468  0.4944 -1.4963
  536MPD2    H1 8012   3.093   1.556  16.291  2.7290  1.4547  0.9946
  536MPD2    H2 8013   3.270   1.332  16.606  2.0139  3.0101 -0.3407
  536MPD2    H3 8014   3.294   1.473  16.399  0.9332 -0.5047  0.8104
  536MPD2     N 8015   2.863   1.548  16.378 -0.5940  0.3400 -0.5080
  536MPD2    H5 8016   2.889   1.604  16.298  0.1395  0.7472  0.0145
  536MPD2    N1 8017   3.048   1.236  16.706  0.2686 -0.3371  0.2716
  536MPD2    H7 8018   3.136   1.197  16.737 -0.0281 -1.0069  0.2754
  537TMC3    C1 8019   2.955   1.092  16.862 -0.1957  0.6063 -0.3655
  537TMC3    C2 8020   3.060   1.112  16.955  0.4621  0.3250  0.0438
  537TMC3    C3 8021   3.028   1.064  17.081 -0.0376 -0.3141 -0.0576
  537TMC3    C4 8022   2.859   1.001  16.882 -0.3508  0.3582  0.3115
  537TMC3    C5 8023   2.842   0.943  17.005  0.2319  0.5324  0.3666
  537TMC3    C6 8024   2.923   0.983  17.109  0.2306  0.5617  0.1856
  537TMC3     C 8025   2.934   1.182  16.756 -0.1954  0.4609 -0.0580
  537TMC3     O 8026   2.820   1.179  16.707 -0.1414 -0.0898  0.2092
  537TMC3     H 8027   3.137   1.186  16.939  0.3074  0.4595 -0.0855
  537TMC3    H1 8028   2.781   0.985  16.809  1.8323  1.2247 -2.2432
  537TMC3    H2 8029   2.893   0.960  17.211 -0.6741  0.0288 -0.2030
  537TMC3    C7 8030   2.743   0.838  17.019  0.2748  0.0038  0.3433
  537TMC3    C8 8031   3.121   1.099  17.189 -0.3768  1.1513  0.3334
  537TMC3    O1 8032   2.654   0.831  16.936  0.2234 -0.4296 -0.0157
  537TMC3    O2 8033   3.207   1.184  17.161  0.3823  0.3272  0.4665
  538TMC3    C1 8034   4.118   0.131  11.065 -0.3124  0.5081  0.5545
  538TMC3    C2 8035   4.250   0.122  11.026 -0.9505  0.2727 -0.2518
  538TMC3    C3 8036   4.296   0.211  10.934  0.4345  0.5191  0.0651
  538TMC3    C4 8037   4.032   0.223  11.006 -0.7440  0.6571  1.1124
  538TMC3    C5 8038   4.084   0.297  10.905 -0.0790  0.0484 -0.8320
  538TMC3    C6 8039   4.213   0.287  10.854 -0.1808  0.1229  0.0282
  538TMC3     C 8040   4.067   0.083  11.197 -0.3399 -0.2822 -0.7632
  538TMC3     O 8041   3.947   0.105  11.209  0.6764  0.1270  0.6074
  538TMC3     H 8042   4.322   0.053  11.070  2.5319  1.4195 -4.1396
  538TMC3    H1 8043   3.933   0.248  11.041 -1.7501 -1.6103 -0.0780
  538TMC3    H2 8044   4.255   0.371  10.799  0.6928  0.3413  1.0296
  538TMC3    C7 8045   3.982   0.347  10.827 -0.0377 -0.3539 -0.0098
  538TMC3    C8 8046   4.438   0.202  10.902  0.3282 -0.7842 -0.3790
  538TMC3    O1 8047   3.882   0.283  10.816 -0.0423  0.1532  0.1354
  538TMC3    O2 8048   4.515   0.162  10.989  0.3324 -0.2011 -0.3071
  539MPD2     C 8049   3.676   3.596  11.669 -0.3543 -0.4593 -0.2302
  539MPD2    C1 8050   3.725   3.690  11.586  0.3547  0.2716  0.6765
  539MPD2    C2 8051   3.708   3.822  11.620 -0.0742  0.1133 -0.2834
  539MPD2    C3 8052   3.656   3.860  11.743  0.9368 -0.4715  0.1584
  539MPD2    C4 8053   3.610   3.761  11.830  0.2778  0.3106 -0.4009
  539MPD2    C5 8054   3.623   3.635  11.788 -0.8408 -0.6910 -0.4030
  539MPD2     H 8055   3.760   3.892  11.556  0.8363  1.4436  1.9151
  539MPD2    H1 8056   3.558   3.777  11.924 -0.3836  2.0895 -1.0592
  539MPD2    H2 8057   3.674   3.491  11.643 -0.7552 -0.3965 -0.4554
  539MPD2    H3 8058   3.592   3.564  11.864  0.0354  0.5198  1.0976
  539MPD2     N 8059   3.670   3.990  11.796  0.2474  0.0233  0.2601
  539MPD2    H5 8060   3.678   3.998  11.897  0.0004  2.9050  0.0537
  539MPD2    N1 8061   3.781   3.654  11.461 -0.3500  0.3802  0.1734
  539MPD2    H7 8062   3.809   3.736  11.409  1.7874 -0.0463  0.6330
  540TMC3    C1 8063   3.729   4.228  11.784  0.3838  0.3166 -0.5803
  540TMC3    C2 8064   3.694   4.329  11.696 -1.2493 -0.1184  0.2523
  540TMC3    C3 8065   3.664   4.450  11.743 -0.4411  0.1253 -0.4732
  540TMC3    C4 8066   3.717   4.238  11.917 -0.2852 -0.3036  0.0447
  540TMC3    C5 8067   3.698   4.366  11.960  0.3108  1.0365  0.4649
  540TMC3    C6 8068   3.670   4.468  11.877 -0.1622  0.2034 -0.2724
  540TMC3     C 8069   3.681   4.101  11.717  0.1271  0.2123  0.3281
  540TMC3     O 8070   3.660   4.105  11.597  0.3482  0.3689 -0.3067
  540TMC3     H 8071   3.710   4.330  11.589 -0.4037  2.2846  0.3992
  540TMC3    H1 8072   3.759   4.161  11.980 -2.8615 -0.9566  0.9487
  540TMC3    H2 8073   3.645   4.565  11.917  0.8950  0.9352 -1.3786
  540TMC3    C7 8074   3.674   4.377  12.100  0.5861 -0.1476 -1.2914
  540TMC3    C8 8075   3.628   4.563  11.664 -0.6661 -0.2209  0.2353
  540TMC3    O1 8076   3.685   4.490  12.145  0.6541 -0.2703 -0.2526
  540TMC3    O2 8077   3.640   4.679  11.701 -0.1258 -0.2913 -0.6538
  541MPD2     C 8078   1.706   1.262  13.691  0.8311  0.2036  0.1609
  541MPD2    C1 8079   1.723   1.167  13.596  0.0122 -0.3407  0.6067
  541MPD2    C2 8080   1.798   1.190  13.480  0.3152  0.9136  0.3245
  541MPD2    C3 8081   1.841   1.316  13.454  0.4155  0.5055 -0.1329
  541MPD2    C4 8082   1.821   1.412  13.550 -0.4425  0.0575 -0.1684
  541MPD2    C5 8083   1.758   1.382  13.673  0.1475  0.4134  0.6463
  541MPD2     H 8084   1.814   1.113  13.405 -0.8537 -0.1693  1.1824
  541MPD2    H1 8085   1.870   1.508  13.533 -0.2341 -0.1279 -0.6010
  541MPD2    H2 8086   1.660   1.240  13.786 -0.9995 -0.5287 -0.9015
  541MPD2    H3 8087   1.747   1.451  13.756 -2.0285  0.6069  0.2017
  541MPD2     N 8088   1.908   1.350  13.338  0.2421 -0.8825  0.7251
  541MPD2    H5 8089   1.921   1.450  13.327 -1.7728 -0.8604 -1.4074
  541MPD2    N1 8090   1.677   1.040  13.621 -0.1012 -0.2945  0.8692
  541MPD2    H7 8091   1.634   1.031  13.712 -0.3703 -1.4205  0.6319
  542TMC3    C1 8092   1.990   1.315  13.119 -0.0462  0.0405  0.3094
  542TMC3    C2 8093   2.032   1.223  13.021 -0.6879 -0.4247  0.4397
  542TMC3    C3 8094   2.027   1.263  12.889  0.5327  0.3685  0.1578
  542TMC3    C4 8095   1.963   1.442  13.089 -0.0681  0.1700  0.3674
  542TMC3    C5 8096   1.952   1.474  12.955 -0.0169  0.2385 -0.0172
  542TMC3    C6 8097   1.986   1.390  12.855  0.6125  0.1294 -0.2661
  542TMC3     C 8098   1.969   1.263  13.255 -0.2105 -0.2094 -0.0456
  542TMC3     O 8099   2.012   1.153  13.291 -0.2261 -0.3470  0.9312
  542TMC3     H 8100   2.054   1.123  13.057 -0.2587  0.0648  1.5203
  542TMC3    H1 8101   1.938   1.511  13.168  2.4075  0.0441  1.2597
  542TMC3    H2 8102   1.958   1.413  12.752  1.8332 -0.0623 -0.6363
  542TMC3    C7 8103   1.975   1.611  12.929  0.0174 -0.8551 -0.8041
  542TMC3    C8 8104   2.067   1.174  12.781  0.2836 -0.7616  0.5667
  542TMC3    O1 8105   2.011   1.679  13.021 -0.3234  0.0909 -0.3077
  542TMC3    O2 8106   2.060   1.215  12.666  1.1044  0.1584 -0.0052
  543TMC3    C1 8107   1.439   2.346  17.510 -0.4203 -0.5318  0.0296
  543TMC3    C2 8108   1.440   2.224  17.566 -0.0221 -0.3852  0.8330
  543TMC3    C3 8109   1.416   2.218  17.697 -0.0306  0.5081 -0.1332
  543TMC3    C4 8110   1.425   2.464  17.590 -0.1536  0.0775 -0.3182
  543TMC3    C5 8111   1.412   2.450  17.723 -0.3556  0.1800  0.4060
  543TMC3    C6 8112   1.411   2.329   0.035 -0.0702  0.4674  0.6103
  543TMC3     C 8113   1.499   2.362  17.383 -0.3384 -0.0901  0.6017
  543TMC3     O 8114   1.569   2.272  17.344  0.1967  0.0207  0.2739
  543TMC3     H 8115   1.453   2.132  17.511 -2.2332 -0.6321  0.7094
  543TMC3    H1 8116   1.424   2.562  17.544  1.2500 -0.6512 -1.9271
  543TMC3    H2 8117   1.389   2.327   0.142 -3.1854  0.2700 -0.0221
  543TMC3    C7 8118   1.371   2.567   0.058 -0.3500  0.1715 -0.3853
  543TMC3    C8 8119   1.406   2.081   0.023  0.2029 -0.1135  0.2235
  543TMC3    O1 8120   1.407   2.581   0.176  0.3757 -0.1628 -0.2068
  543TMC3    O2 8121   1.451   1.981  17.700  0.1008  0.3458  0.6004
  544MPD2     C 8122   1.287   1.763   0.398 -0.2256 -0.2061 -0.0360
  544MPD2    C1 8123   1.390   1.749   0.309  0.5576 -0.3219  0.1605
  544MPD2    C2 8124   1.398   1.852   0.211  0.5766 -0.2475 -0.2905
  544MPD2    C3 8125   1.316   1.963   0.217  0.2458 -0.6122 -0.1570
  544MPD2    C4 8126   1.214   1.971   0.307 -0.3765  0.3088  0.4416
  544MPD2    C5 8127   1.204   1.874   0.398  0.2200  0.5632  0.1594
  544MPD2     H 8128   1.482   1.852   0.142 -1.1222 -0.9334 -2.3487
  544MPD2    H1 8129   1.139   2.048   0.321  0.4835  1.2329 -0.0509
  544MPD2    H2 8130   1.274   1.688   0.475 -0.7255  1.1221  1.1515
  544MPD2    H3 8131   1.119   1.869   0.465 -1.7383  1.2790 -2.2331
  544MPD2     N 8132   1.337   2.076   0.146 -0.1169  0.5016  0.1539
  544MPD2    H5 8133   1.293   2.159   0.184  0.0614  0.4392  0.5012
  544MPD2    N1 8134   1.466   1.627   0.312 -0.5395  0.3252  0.2284
  544MPD2    H7 8135   1.445   1.561   0.387 -1.1417 -0.4576 -0.6163
  545TMC3    C1 8136   1.622   1.459   0.253  0.2172  0.1111 -0.8509
  545TMC3    C2 8137   1.625   1.441   0.388 -0.1881  0.2202 -0.2728
  545TMC3    C3 8138   1.671   1.317   0.424  0.0519 -0.3916  0.4231
  545TMC3    C4 8139   1.635   1.363   0.159 -0.4678  0.1499  0.0857
  545TMC3    C5 8140   1.655   1.234   0.195 -0.2046  0.6853  0.1704
  545TMC3    C6 8141   1.681   1.210   0.327 -0.7587 -0.2269 -0.0816
  545TMC3     C 8142   1.546   1.577   0.210 -0.5563  0.1614  0.2615
  545TMC3     O 8143   1.565   1.614   0.098  0.1773 -0.7137 -0.3190
  545TMC3     H 8144   1.636   1.527   0.451  0.9748  1.5388 -2.2712
  545TMC3    H1 8145   1.601   1.388   0.059 -2.9004  0.1217  0.8838
  545TMC3    H2 8146   1.717   1.113   0.359  0.6056  1.2429  2.8882
  545TMC3    C7 8147   1.657   1.136   0.087  0.6379  0.7309  0.2781
  545TMC3    C8 8148   1.771   1.328   0.530  0.2917 -0.4877 -0.6081
  545TMC3    O1 8149   1.597   1.158  17.724  0.2854 -0.5884 -0.1132
  545TMC3    O2 8150   1.757   1.423   0.603 -0.6705  0.1227  0.5406
  546MPD2     C 8151   3.282   1.979  17.526 -0.0133 -0.2970 -0.7422
  546MPD2    C1 8152   3.178   2.069  17.562 -0.2110  0.6424  0.9180
  546MPD2    C2 8153   3.204   2.194  17.607 -0.3679  0.7901 -0.4548
  546MPD2    C3 8154   3.336   2.242  17.617 -0.2264  0.4444 -0.3849
  546MPD2    C4 8155   3.435   2.151  17.588 -0.7567 -0.7416  0.2235
  546MPD2    C5 8156   3.407   2.026  17.538 -0.6818  0.3184 -0.1883
  546MPD2     H 8157   3.124   2.259  17.641 -0.1087  1.1065 -0.4561
  546MPD2    H1 8158   3.537   2.181  17.612 -2.1698  3.5209  0.7979
  546MPD2    H2 8159   3.260   1.881  17.486 -1.2625 -0.0203 -0.7293
  546MPD2    H3 8160   3.486   1.954  17.522 -1.2083  0.0237 -1.4288
  546MPD2     N 8161   3.363   2.370  17.661 -0.0947  0.1115 -0.5919
  546MPD2    H5 8162   3.458   2.406  17.650  0.8613 -1.9203  1.0212
  546MPD2    N1 8163   3.047   2.022  17.549  0.6878 -0.1276 -0.0189
  546MPD2    H7 8164   3.043   1.934  17.498 -2.6171  0.1104 -0.2093
  547TMC3    C1 8165   2.809   2.017  17.524 -0.4377 -0.3090  0.1630
  547TMC3    C2 8166   2.705   2.088  17.473 -0.0928  0.2680  0.5466
  547TMC3    C3 8167   2.587   2.027  17.457  0.2553  0.4697 -1.1036
  547TMC3    C4 8168   2.804   1.881  17.527 -0.1555  0.2336 -0.6550
  547TMC3    C5 8169   2.688   1.820  17.495 -0.5955  0.1770 -0.4750
  547TMC3    C6 8170   2.578   1.890  17.453 -0.0130  0.7269 -0.5232
  547TMC3     C 8171   2.930   2.092  17.567 -0.0464 -0.0498  0.4401
  547TMC3     O 8172   2.906   2.201  17.610 -0.1436  0.8648 -0.3926
  547TMC3     H 8173   2.727   2.192  17.455 -1.0740  0.5976  1.2818
  547TMC3    H1 8174   2.886   1.824  17.570 -1.2210 -1.9531 -1.5099
  547TMC3    H2 8175   2.485   1.837  17.436 -0.1783  0.9928 -0.4430
  547TMC3    C7 8176   2.671   1.681  17.545  0.4434  0.4097  0.7744
  547TMC3    C8 8177   2.473   2.106  17.405  0.2394  0.4642 -0.3074
  547TMC3    O1 8178   2.724   1.656  17.646  0.2075 -0.9186  0.5457
  547TMC3    O2 8179   2.382   2.037  17.361  0.1088 -0.9318 -0.2814
  548MPD2     C 8180   2.855   2.524  13.189  0.5423 -0.8237  1.1932
  548MPD2    C1 8181   2.768   2.513  13.088  0.3792 -0.5341 -0.0266
  548MPD2    C2 8182   2.816   2.480  12.964 -0.5230 -0.4247 -0.4771
  548MPD2    C3 8183   2.942   2.452  12.938  0.0981  0.1675  0.3549
  548MPD2    C4 8184   3.037   2.470  13.039  0.5075 -0.3366  0.3806
  548MPD2    C5 8185   2.989   2.509  13.158 -0.1772  0.0444 -0.3510
  548MPD2     H 8186   2.754   2.479  12.874 -1.2308  1.4227 -0.0262
  548MPD2    H1 8187   3.144   2.473  13.023  0.0448  0.5453 -2.5081
  548MPD2    H2 8188   2.818   2.562  13.284 -2.0198  0.3248 -0.2858
  548MPD2    H3 8189   3.061   2.532  13.236 -1.5726 -1.3852  1.3537
  548MPD2     N 8190   2.980   2.426  12.811 -0.3992 -1.0158  0.5022
  548MPD2    H5 8191   2.907   2.428  12.741  0.0294 -0.1787  0.0730
  548MPD2    N1 8192   2.637   2.560  13.108 -0.0000 -0.4490 -0.2221
  548MPD2    H7 8193   2.608   2.562  13.205 -2.7098 -1.9252 -0.9908
  549TMC3    C1 8194   2.417   2.631  13.039  0.2080 -0.4648  0.0583
  549TMC3    C2 8195   2.345   2.692  12.941  0.2594  1.0127 -0.0570
  549TMC3    C3 8196   2.206   2.677  12.951 -0.2135 -0.2258  0.3749
  549TMC3    C4 8197   2.356   2.572  13.146  0.3853 -0.6799  1.0561
  549TMC3    C5 8198   2.224   2.570  13.151  0.0432  0.0194  0.5204
  549TMC3    C6 8199   2.144   2.622  13.056 -0.3367 -0.1464  0.4341
  549TMC3     C 8200   2.561   2.608  13.007  0.1797  0.7426 -0.2824
  549TMC3     O 8201   2.591   2.625  12.887 -0.0318  0.4908  0.0486
  549TMC3     H 8202   2.401   2.730  12.857 -0.0470 -2.1124 -1.6597
  549TMC3    H1 8203   2.413   2.526  13.227  2.2048  1.3980  0.9569
  549TMC3    H2 8204   2.036   2.618  13.063 -0.4669  0.2127 -1.5367
  549TMC3    C7 8205   2.159   2.475  13.236  0.1428 -0.0667 -0.1375
  549TMC3    C8 8206   2.131   2.686  12.824  0.3067  0.2280 -0.8156
  549TMC3    O1 8207   2.048   2.507  13.276 -0.4957  0.1401 -0.0303
  549TMC3    O2 8208   2.012   2.710  12.834  0.0213  0.0109  0.2087
  550TMC3    C1 8209   1.981   0.473  12.418 -0.8250  0.6447  0.1395
  550TMC3    C2 8210   1.996   0.553  12.524  0.3309  0.4345  0.3503
  550TMC3    C3 8211   1.891   0.632  12.563 -0.4062 -0.3452 -0.5535
  550TMC3    C4 8212   1.856   0.470  12.348  0.0371 -0.0472  0.3282
  550TMC3    C5 8213   1.745   0.538  12.400  0.5039 -0.1542  0.5513
  550TMC3    C6 8214   1.766   0.627  12.505  0.5494 -0.1269  0.3083
  550TMC3     C 8215   2.100   0.408  12.367 -0.1609  0.6629  0.3115
  550TMC3     O 8216   2.210   0.441  12.405  0.0068  0.6011 -0.6099
  550TMC3     H 8217   2.094   0.575  12.566  0.3462  0.7776  0.1354
  550TMC3    H1 8218   1.844   0.413  12.256  1.2482  0.9431 -0.4430
  550TMC3    H2 8219   1.689   0.695  12.539 -0.8420 -0.3585 -2.4347
  550TMC3    C7 8220   1.614   0.546  12.329 -0.7350 -0.2731 -0.3641
  550TMC3    C8 8221   1.901   0.688  12.697 -0.7361  0.0569 -0.2119
  550TMC3    O1 8222   1.544   0.618  12.394 -0.2564  0.2882  0.1561
  550TMC3    O2 8223   1.994   0.644  12.763  0.6537 -0.3301 -0.0283
  551TMC3    C1 8224   3.780   3.426  13.577 -0.0731  0.2879 -0.1814
  551TMC3    C2 8225   3.819   3.325  13.498  0.7350  0.0485 -0.4264
  551TMC3    C3 8226   3.936   3.262  13.534  0.1375 -0.1190  0.1501
  551TMC3    C4 8227   3.859   3.481  13.674  0.2720  0.4640  0.0907
  551TMC3    C5 8228   3.978   3.416  13.702  0.5129 -0.2740 -0.2919
  551TMC3    C6 8229   4.013   3.298  13.636  0.4276  0.3152  0.0768
  551TMC3     C 8230   3.678   3.510  13.513 -0.4794 -0.6673  0.0124
  551TMC3     O 8231   3.682   3.631  13.539  0.0230 -0.5556 -0.2942
  551TMC3     H 8232   3.775   3.293  13.404 -0.6155  1.8473 -0.4190
  551TMC3    H1 8233   3.816   3.561  13.733  2.4093 -0.7638  3.2747
  551TMC3    H2 8234   4.110   3.252  13.652 -0.3970 -1.8417 -1.1936
  551TMC3    C7 8235   4.084   3.481  13.777  0.1086  0.0387 -0.6420
  551TMC3    C8 8236   4.017   3.197  13.431  0.4694 -0.2318 -0.0459
  551TMC3    O1 8237   4.179   3.406  13.803 -0.2565 -0.4298 -0.2327
  551TMC3    O2 8238   4.035   3.074  13.438 -0.0994  0.5193 -0.7681
  552MPD2     C 8239   0.934   0.774  14.409  0.5819 -1.3567  0.6292
  552MPD2    C1 8240   0.951   0.638  14.451  0.8013 -0.1043  0.5808
  552MPD2    C2 8241   1.025   0.616  14.565 -0.3342  0.7008 -0.4723
  552MPD2    C3 8242   1.068   0.722  14.644  0.0771 -0.0105  0.1869
  552MPD2    C4 8243   1.028   0.854  14.615 -0.0016 -0.6210  0.1867
  552MPD2    C5 8244   0.965   0.876  14.493 -0.3628 -0.5113 -0.1739
  552MPD2     H 8245   1.047   0.515  14.599  1.9375  1.5878  0.6743
  552MPD2    H1 8246   1.055   0.936  14.680 -1.2010  0.1049 -0.2187
  552MPD2    H2 8247   0.879   0.796  14.318  1.3826 -0.6217  0.3085
  552MPD2    H3 8248   0.938   0.978  14.468  1.5654 -0.2403 -1.1687
  552MPD2     N 8249   1.140   0.705  14.768  0.0591  0.0755  0.2800
  552MPD2    H5 8250   1.145   0.783  14.832 -1.0147  0.5193 -0.1696
  552MPD2    N1 8251   0.910   0.525  14.375  0.1554 -0.1274 -0.2475
  552MPD2    H7 8252   0.947   0.438  14.412  1.3446  0.3883 -0.2115
  553TMC3    C1 8253   0.846   0.404  14.185 -0.5460  0.3967  0.0187
  553TMC3    C2 8254   0.771   0.405  14.074 -0.2922  0.4585  0.0182
  553TMC3    C3 8255   0.774   0.293  13.998 -0.5890  0.2392 -0.4495
  553TMC3    C4 8256   0.934   0.303  14.226 -0.6965 -0.1175 -0.2519
  553TMC3    C5 8257   0.930   0.190  14.145  0.5140  0.1516  0.1580
  553TMC3    C6 8258   0.853   0.181  14.031 -0.8124 -0.2003 -0.0113
  553TMC3     C 8259   0.848   0.528  14.256  0.3567 -0.6592 -0.2126
  553TMC3     O 8260   0.787   0.625  14.216  0.4099 -0.3657  0.4132
  553TMC3     H 8261   0.722   0.498  14.050 -0.6393  0.0811 -0.7513
  553TMC3    H1 8262   0.977   0.296  14.325 -0.1653  0.7434 -0.4242
  553TMC3    H2 8263   0.863   0.097  13.963  1.2208  0.3926 -0.4509
  553TMC3    C7 8264   1.025   0.082  14.172  0.0442 -0.0938  0.3096
  553TMC3    C8 8265   0.758   0.312  13.851 -0.1787  0.1145 -0.4448
  553TMC3    O1 8266   0.983   4.712  14.120 -0.8371  0.0052  0.3248
  553TMC3    O2 8267   0.799   0.219  13.782 -0.1682  0.4060  0.5331
  554TMC3    C1 8268   3.146   0.017  11.507  0.0598 -0.0407  0.3217
  554TMC3    C2 8269   3.064   4.657  11.457 -0.7122 -0.9283  0.1955
  554TMC3    C3 8270   3.081   4.617  11.329  0.8864  1.0535 -0.0901
  554TMC3    C4 8271   3.237   0.081  11.426  0.2038  0.5005 -0.4165
  554TMC3    C5 8272   3.247   0.037  11.296  0.4553 -0.7948  0.3933
  554TMC3    C6 8273   3.184   4.660  11.255 -0.5365  0.7297 -0.4901
  554TMC3     C 8274   3.193   0.003  11.643  0.2806  0.0845 -0.0311
  554TMC3     O 8275   3.265   0.084  11.690 -0.0593  0.7829 -0.0289
  554TMC3     H 8276   2.981   4.623  11.517 -1.4539  1.3811  0.4988
  554TMC3    H1 8277   3.299   0.161  11.464 -1.1601  1.0160  0.7295
  554TMC3    H2 8278   3.200   4.622  11.155  1.9630  1.3116 -0.3173
  554TMC3    C7 8279   3.268   0.136  11.188 -0.2933 -0.0160 -0.3576
  554TMC3    C8 8280   2.983   4.540  11.255  0.5582  0.6780  0.5219
  554TMC3    O1 8281   3.249   0.094  11.075 -0.1108  0.2080  0.3916
  554TMC3    O2 8282   3.000   4.522  11.136  0.4399  0.4351 -0.3792
  555TMC3    C1 8283   1.772   4.401  15.665  1.1781  0.5007 -0.1329
  555TMC3    C2 8284   1.803   4.447  15.788  0.1357 -0.5069  0.2839
  555TMC3    C3 8285   1.879   4.360  15.869  0.4108  0.3189 -0.3762
  555TMC3    C4 8286   1.835   4.291  15.612 -0.2222  0.2834  0.1231
  555TMC3    C5 8287   1.913   4.209  15.693  0.3190 -0.6946  0.0974
  555TMC3    C6 8288   1.939   4.244  15.822 -0.4766  0.0619 -0.5845
  555TMC3     C 8289   1.675   4.477  15.585 -0.0696 -0.4910 -0.0909
  555TMC3     O 8290   1.627   4.579  15.634 -0.4563  0.0881  0.5895
  555TMC3     H 8291   1.737   4.519  15.834 -1.3573 -1.2576 -0.6831
  555TMC3    H1 8292   1.814   4.251  15.513  0.6288 -0.9385  0.4456
  555TMC3    H2 8293   2.007   4.187  15.884 -0.3208  1.0490  0.1438
  555TMC3    C7 8294   1.974   4.090  15.641  0.0375  0.3124  0.0733
  555TMC3    C8 8295   1.875   4.394  16.007  0.2910  0.1980  0.3987
  555TMC3    O1 8296   2.006   4.012  15.727 -0.4472  0.1813  0.2308
  555TMC3    O2 8297   1.790   4.472  16.048  0.0366 -0.3480 -0.1093
  556MPD2     C 8298   0.216   1.200  10.604  0.2410 -0.2053  0.3552
  556MPD2    C1 8299   0.185   1.083  10.678 -0.3397  0.3180  0.0144
  556MPD2    C2 8300   0.120   0.984  10.610  0.3636 -0.3977  0.1954
  556MPD2    C3 8301   0.094   0.993  10.471 -0.4240 -1.2482  0.3376
  556MPD2    C4 8302   0.140   1.098  10.400 -0.3668 -0.1621 -0.0558
  556MPD2    C5 8303   0.187   1.201  10.466  0.4521  0.0195 -0.2087
  556MPD2     H 8304   0.083   0.898  10.664  0.0171 -1.3558 -1.5753
  556MPD2    H1 8305   0.125   1.110  10.294 -1.2495  0.1908  0.1047
  556MPD2    H2 8306   0.249   1.292  10.649 -0.3821 -0.0147  0.4305
  556MPD2    H3 8307   0.223   1.285  10.407 -2.7897  1.9790  0.6157
  556MPD2     N 8308   0.022   0.885  10.409  0.5172 -0.0565 -0.5731
  556MPD2    H5 8309   0.012   0.799  10.462 -1.2931  0.5063  0.0157
  556MPD2    N1 8310   0.205   1.073  10.817 -0.1516  0.2262 -0.3412
  556MPD2    H7 8311   0.176   0.992  10.871 -1.2673  1.5508  1.0278
  557TMC3    C1 8312   4.676   0.754  10.238 -0.8546 -0.2953 -0.0559
  557TMC3    C2 8313   4.582   0.769  10.140  0.6749  0.6287  0.0568
  557TMC3    C3 8314   4.523   0.657  10.084  0.5159 -0.6895  0.5894
  557TMC3    C4 8315   4.712   0.633  10.289 -0.3780 -0.1545 -0.5299
  557TMC3    C5 8316   4.638   0.526  10.246  0.9627  0.1245 -0.5943
  557TMC3    C6 8317   4.544   0.533  10.141  0.3268  0.6729 -1.1171
  557TMC3     C 8318   4.715   0.882  10.287  0.9416 -0.2095 -0.5113
  557TMC3     O 8319   4.707   0.977  10.215  0.2808 -0.0607  0.2059
  557TMC3     H 8320   4.540   0.865  10.111 -2.4379 -1.3069 -1.8485
  557TMC3    H1 8321   0.055   0.630  10.364 -2.0887  1.2852  1.3214
  557TMC3    H2 8322   4.498   0.443  10.100 -0.3029  1.0601 -1.2487
  557TMC3    C7 8323   4.630   0.406  10.321  1.1602 -0.6458 -0.0208
  557TMC3    C8 8324   4.413   0.681   9.991  0.5133 -0.2405  0.3774
  557TMC3    O1 8325   4.529   0.337  10.300 -0.2469 -0.4784  0.1631
  557TMC3    O2 8326   4.388   0.795   9.958 -0.0284 -0.3522  0.5110
  558TMC3    C1 8327   2.486   3.680  10.610  0.7178  0.1754  0.3551
  558TMC3    C2 8328   2.362   3.700  10.657 -0.3093 -0.3885  0.3695
  558TMC3    C3 8329   2.268   3.749  10.564 -0.8354 -0.0040  1.0547
  558TMC3    C4 8330   2.526   3.722  10.493  0.6181 -0.1812  0.4542
  558TMC3    C5 8331   2.433   3.768  10.408 -0.5164 -0.2546  0.4928
  558TMC3    C6 8332   2.302   3.772  10.441  0.1291 -0.8315  0.2345
  558TMC3     C 8333   2.593   3.650  10.705  0.1605  0.9420 -0.0100
  558TMC3     O 8334   2.696   3.709  10.673  0.3068 -0.7426 -0.0196
  558TMC3     H 8335   2.341   3.675  10.760 -0.5721 -1.1700  0.1247
  558TMC3    H1 8336   2.629   3.715  10.462  1.3934  1.0472  2.7691
  558TMC3    H2 8337   2.230   3.802  10.366  0.7032  0.7755  0.3028
  558TMC3    C7 8338   2.458   3.730  10.277 -0.2732  0.3805  0.4432
  558TMC3    C8 8339   2.128   3.737  10.597 -0.4727  0.2030 -0.7693
  558TMC3    O1 8340   2.552   3.793  10.230 -0.1069 -0.7065 -0.2418
  558TMC3    O2 8341   2.043   3.758  10.510 -0.9969  0.1183  0.7476
  559MPD2     C 8342   2.343   4.105  10.460  0.2511 -0.4217  0.1413
  559MPD2    C1 8343   2.296   4.066  10.580 -0.1553  0.0439 -0.5668
  559MPD2    C2 8344   2.389   4.047  10.675  0.0054 -0.4836 -0.3902
  559MPD2    C3 8345   2.527   4.065  10.662  0.3672 -0.1556  0.3634
  559MPD2    C4 8346   2.574   4.113  10.544  0.3330  0.1433 -0.5583
  559MPD2    C5 8347   2.475   4.119  10.440 -0.3169  0.2799  0.1291
  559MPD2     H 8348   2.361   4.023  10.777  0.4624 -2.3241 -0.6865
  559MPD2    H1 8349   2.678   4.132  10.518  0.4292  2.2549  1.3898
  559MPD2    H2 8350   2.285   4.139  10.375 -0.5373 -2.1617 -0.0108
  559MPD2    H3 8351   2.509   4.153  10.343 -0.1038  0.3367  0.2217
  559MPD2     N 8352   2.612   4.036  10.773 -0.0666 -0.1766  0.6880
  559MPD2    H5 8353   2.565   3.982  10.844  0.3062 -2.8702 -1.1316
  559MPD2    N1 8354   2.160   4.073  10.615  0.2439  0.7429 -0.1190
  559MPD2    H7 8355   2.147   4.058  10.715 -0.3916  0.1630 -0.2880
  560TMC3    C1 8356   2.807   3.969  10.885 -0.3229  0.6236  0.2590
  560TMC3    C2 8357   2.733   3.871  10.946  0.1151 -0.8349 -1.2181
  560TMC3    C3 8358   2.783   3.821  11.062 -0.1554 -0.6521  0.6985
  560TMC3    C4 8359   2.940   3.991  10.920 -0.2654  0.3828  0.3935
  560TMC3    C5 8360   2.982   3.933  11.038  0.4392  0.0073  0.1199
  560TMC3    C6 8361   2.905   3.844  11.108 -0.3518 -0.1161 -0.0665
  560TMC3     C 8362   2.752   4.046  10.780 -1.2429 -0.3281 -0.2108
  560TMC3     O 8363   2.825   4.107  10.704 -0.0130 -0.0468 -0.3979
  560TMC3     H 8364   2.635   3.839  10.912 -0.0170  0.1620 -1.7548
  560TMC3    H1 8365   3.005   4.053  10.861 -0.5230  0.5877  0.3219
  560TMC3    H2 8366   2.942   3.805  11.202  1.4401  0.7973 -0.3834
  560TMC3    C7 8367   3.112   3.868  11.029  0.1210  0.3224 -0.0892
  560TMC3    C8 8368   2.689   3.741  11.143 -0.2910  0.0320 -0.0189
  560TMC3    O1 8369   3.114   3.747  11.014 -0.7172 -0.2881 -0.4840
  560TMC3    O2 8370   2.571   3.757  11.124 -0.0561 -0.1518  0.2360
  561TMC3    C1 8371   0.424   3.050  11.561 -0.5125  0.8223  0.5473
  561TMC3    C2 8372   0.351   2.973  11.654  0.0213 -0.9057  0.1952
  561TMC3    C3 8373   0.259   3.041  11.727 -0.2307 -0.3499  0.1564
  561TMC3    C4 8374   0.418   3.189  11.551 -0.6210 -0.1370 -0.6079
  561TMC3    C5 8375   0.320   3.247  11.625 -0.0227  0.1636 -0.5385
  561TMC3    C6 8376   0.245   3.176  11.715  0.6648  0.1539  0.0395
  561TMC3     C 8377   0.503   2.979  11.466  0.3420 -0.1459  0.1343
  561TMC3     O 8378   0.604   3.041  11.429 -0.2116  0.3193 -0.3203
  561TMC3     H 8379   0.376   2.869  11.674  0.1528 -0.5967  1.6219
  561TMC3    H1 8380   0.480   3.242  11.479  0.3707 -2.0615 -1.1754
  561TMC3    H2 8381   0.179   3.225  11.786 -0.3772  0.2922 -1.0306
  561TMC3    C7 8382   0.287   3.388  11.613 -0.5920 -0.0731  0.6657
  561TMC3    C8 8383   0.166   2.968  11.807  0.7303 -0.3465 -0.3345
  561TMC3    O1 8384   0.197   3.426  11.681  0.3674  0.1214 -0.3433
  561TMC3    O2 8385   0.165   2.848  11.779 -0.0249  0.4810 -0.1345
  562TMC3    C1 8386   1.814   4.185  16.720  0.3014  0.0721  0.0252
  562TMC3    C2 8387   1.772   4.318  16.738  0.5082  0.2069  0.1165
  562TMC3    C3 8388   1.709   4.380  16.634 -0.2701 -0.5343  0.1843
  562TMC3    C4 8389   1.785   4.128  16.603  0.1080  0.1804 -0.4334
  562TMC3    C5 8390   1.723   4.195  16.501 -0.1855  0.0009 -0.1478
  562TMC3    C6 8391   1.675   4.318  16.523  0.2737 -0.1302 -0.1896
  562TMC3     C 8392   1.881   4.107  16.821  0.1919 -0.6643  0.6032
  562TMC3     O 8393   1.896   3.988  16.792  0.0592  0.3576 -0.1863
  562TMC3     H 8394   1.810   4.373  16.824 -1.7457  1.7045  0.1590
  562TMC3    H1 8395   1.805   4.023  16.586  0.1831  0.4384 -1.9816
  562TMC3    H2 8396   1.609   4.367  16.454  1.5893  0.0161 -1.3396
  562TMC3    C7 8397   1.719   4.150  16.367  0.4469 -0.4438  0.0631
  562TMC3    C8 8398   1.666   4.516  16.663  0.0896 -0.4647 -0.2160
  562TMC3    O1 8399   1.651   4.218  16.291  0.2914  0.0478 -0.2120
  562TMC3    O2 8400   1.657   4.548  16.779  0.1914 -0.6100 -0.3513
  563MPD2     C 8401   4.394   0.737  15.946 -0.2382  0.2938 -0.9478
  563MPD2    C1 8402   4.426   0.820  16.053 -1.0857 -0.8599 -0.0041
  563MPD2    C2 8403   4.549   0.804  16.110 -0.9068 -1.3158 -0.0927
  563MPD2    C3 8404   4.643   0.719  16.064 -0.2673 -0.0567 -0.1596
  563MPD2    C4 8405   4.619   0.649  15.950 -0.4925 -0.1938 -0.0335
  563MPD2    C5 8406   4.498   0.664  15.894  0.1402 -0.3522 -0.0548
  563MPD2     H 8407   4.583   0.865  16.194  1.4966 -1.1091 -1.2436
  563MPD2    H1 8408   4.700   0.616  15.887  0.8368  1.0272  1.0380
  563MPD2    H2 8409   4.296   0.736  15.900 -0.1707  2.1403 -1.1318
  563MPD2    H3 8410   4.486   0.632  15.791 -0.1151  1.4997 -0.5978
  563MPD2     N 8411   0.034   0.713  16.136 -0.1680 -0.1527  0.5359
  563MPD2    H5 8412   0.030   0.763  16.224  0.0393  1.0075 -0.1154
  563MPD2    N1 8413   4.319   0.902  16.102  0.1329 -0.1757  1.2541
  563MPD2    H7 8414   4.227   0.889  16.060 -0.9208  0.0202  3.5147
  564TMC3    C1 8415   4.179   1.049  16.226  0.3625  0.1837 -0.5912
  564TMC3    C2 8416   4.075   0.971  16.181 -1.1236 -0.2874  0.1151
  564TMC3    C3 8417   3.956   0.992  16.244 -0.1567 -0.6325  1.1442
  564TMC3    C4 8418   4.167   1.139  16.325  0.0344  0.4327  0.1363
  564TMC3    C5 8419   4.057   1.136  16.404 -0.4086 -0.2398  0.3708
  564TMC3    C6 8420   3.945   1.072  16.358 -0.4668 -0.0920  0.2374
  564TMC3     C 8421   4.315   0.994  16.207  0.3996  0.0513  0.0273
  564TMC3     O 8422   4.413   1.029  16.272  0.4172 -0.2154  0.1305
  564TMC3     H 8423   4.081   0.899  16.100  0.7737  0.5097 -0.4580
  564TMC3    H1 8424   4.255   1.172  16.378 -1.6571  2.3438  1.7464
  564TMC3    H2 8425   3.861   1.082  16.425  0.0456  0.4630  0.7943
  564TMC3    C7 8426   4.098   1.106  16.541 -0.5019 -0.4839  0.2535
  564TMC3    C8 8427   3.876   0.875  16.276 -0.9910 -0.0374 -1.3601
  564TMC3    O1 8428   4.176   1.179  16.599  0.0568  0.0403  0.1088
  564TMC3    O2 8429   3.865   0.855  16.394 -0.2523 -0.4389 -0.2019
  565TMC3    C1 8430   0.066   2.733   9.804  0.4397  0.0510  0.1406
  565TMC3    C2 8431   0.085   2.625   9.885 -0.4133  1.0535 -0.4795
  565TMC3    C3 8432   4.721   2.536   9.909  0.0444 -0.6275  0.2335
  565TMC3    C4 8433   4.677   2.743   9.741  0.2834 -0.0291  0.0976
  565TMC3    C5 8434   4.584   2.648   9.763  0.5132  0.2530 -0.7585
  565TMC3    C6 8435   4.605   2.540   9.844  0.2578  0.5254 -0.4853
  565TMC3     C 8436   0.162   2.839   9.812 -0.3835  0.1149  0.5985
  565TMC3     O 8437   0.275   2.804   9.835 -0.3223 -0.5120  0.0242
  565TMC3     H 8438   0.182   2.627   9.934  0.0911 -1.1324 -1.3987
  565TMC3    H1 8439   4.667   2.824   9.670  0.0487 -0.3358 -0.2125
  565TMC3    H2 8440   4.523   2.475   9.872  0.6705  0.0421 -0.4057
  565TMC3    C7 8441   4.455   2.661   9.715  0.4218  0.4252  0.3440
  565TMC3    C8 8442   4.718   2.470  10.038  0.7785  0.5364 -0.3549
  565TMC3    O1 8443   4.417   2.775   9.697  0.1170  0.0127 -0.8266
  565TMC3    O2 8444   4.611   2.422  10.074  0.3970  0.3299 -0.0714
  566MPD2     C 8445   2.209   3.918  14.418  0.5321  0.3659  0.1146
  566MPD2    C1 8446   2.169   3.991  14.306 -0.5515 -0.5532  0.3898
  566MPD2    C2 8447   2.154   3.926  14.183  0.4647  0.1754 -0.4917
  566MPD2    C3 8448   2.190   3.790  14.167 -0.6368  0.1625  0.8329
  566MPD2    C4 8449   2.253   3.732  14.275 -0.0294 -0.0345 -0.4615
  566MPD2    C5 8450   2.255   3.792  14.394 -0.3751  0.1613 -0.3721
  566MPD2     H 8451   2.122   3.981  14.096 -0.6307  0.2706 -0.0314
  566MPD2    H1 8452   2.269   3.625  14.281 -0.3122  0.0102  1.1699
  566MPD2    H2 8453   2.230   3.962  14.514 -1.9447 -2.7043  2.0615
  566MPD2    H3 8454   2.305   3.751  14.481 -0.1305 -0.0559 -0.6172
  566MPD2     N 8455   2.162   3.703  14.059 -0.2884  0.4674  0.1797
  566MPD2    H5 8456   2.198   3.608  14.061 -1.3667  0.0069 -1.6353
  566MPD2    N1 8457   2.154   4.130  14.318 -0.1383  0.2371  0.1168
  566MPD2    H7 8458   2.136   4.168  14.410 -0.4432  1.6660 -0.5275
  567TMC3    C1 8459   2.077   4.331  14.223 -0.2162  0.4244 -0.7872
  567TMC3    C2 8460   2.037   4.380  14.106 -0.6264  0.6188  0.1475
  567TMC3    C3 8461   1.925   4.449  14.098  0.1820 -0.3313  0.6604
  567TMC3    C4 8462   2.009   4.356  14.337 -0.1535  0.3525 -0.3841
  567TMC3    C5 8463   1.891   4.427  14.330 -0.0160  0.3325 -0.9167
  567TMC3    C6 8464   1.845   4.473  14.207  0.7670 -0.8997 -0.1799
  567TMC3     C 8465   2.148   4.209  14.208 -0.6841 -0.2175 -0.8456
  567TMC3     O 8466   2.195   4.190  14.100 -0.4055  0.0733 -0.3676
  567TMC3     H 8467   2.097   4.358  14.018 -0.3084 -1.0440  0.7733
  567TMC3    H1 8468   2.056   4.331  14.431 -0.5509  1.2978  0.0666
  567TMC3    H2 8469   1.750   4.524  14.198  0.8504 -0.8706 -0.8738
  567TMC3    C7 8470   1.822   4.476  14.454 -0.0230 -0.3247 -0.4368
  567TMC3    C8 8471   1.864   4.460  13.965 -0.0898 -0.0026 -0.0486
  567TMC3    O1 8472   1.754   4.578  14.449  0.5526  0.6539  0.6395
  567TMC3    O2 8473   1.931   4.407  13.876  0.7519 -0.4311  0.9484
  568MPD2     C 8474   3.564   4.192  16.928 -0.4312 -0.1111 -0.0989
  568MPD2    C1 8475   3.700   4.210  16.942  0.3186  0.0747  0.4346
  568MPD2    C2 8476   3.755   4.335  16.908 -0.2182  0.3448 -0.2704
  568MPD2    C3 8477   3.676   4.426  16.839 -0.7769 -0.7588 -0.3990
  568MPD2    C4 8478   3.547   4.394  16.800  0.2467 -0.5955 -0.3647
  568MPD2    C5 8479   3.498   4.277  16.854 -0.3979  0.3759  0.0270
  568MPD2     H 8480   3.855   4.370  16.931  0.3659 -0.7704 -1.1105
  568MPD2    H1 8481   3.478   4.448  16.736  0.5299  0.4979  0.2531
  568MPD2    H2 8482   3.513   4.104  16.966 -0.5711 -0.4634 -1.1108
  568MPD2    H3 8483   3.397   4.255  16.823  0.7346  1.3457 -4.4419
  568MPD2     N 8484   3.743   4.549  16.786  0.0216 -0.3666  0.2448
  568MPD2    H5 8485   3.829   4.572  16.834  0.1774 -0.3184 -0.0543
  568MPD2    N1 8486   3.762   4.117  17.028  0.2787 -0.2710  1.1507
  568MPD2    H7 8487   3.704   4.040  17.061  0.2445 -1.0437 -0.7385
  569TMC3    C1 8488   3.740   0.015  16.649 -1.0198  0.0363 -0.8044
  569TMC3    C2 8489   3.794   0.082  16.755 -0.2548  0.6251  0.0187
  569TMC3    C3 8490   3.785   0.220  16.751  0.4238 -0.2763 -0.8612
  569TMC3    C4 8491   3.713   0.071  16.527 -0.3368  0.4779  0.2848
  569TMC3    C5 8492   3.704   0.208  16.529  0.4349 -0.4961 -0.6957
  569TMC3    C6 8493   3.741   0.281  16.639 -0.2277  0.5748 -0.2684
  569TMC3     C 8494   3.686   4.622  16.680 -0.2539  0.7585 -0.4013
  569TMC3     O 8495   3.603   4.578  16.599  0.1218 -0.6041  0.8061
  569TMC3     H 8496   3.817   0.037  16.851  1.3468  1.0627 -0.1603
  569TMC3    H1 8497   3.669   0.011  16.448 -2.0572  0.3936  1.3080
  569TMC3    H2 8498   3.730   0.388  16.652 -1.8037  0.5858 -1.6491
  569TMC3    C7 8499   3.651   0.273  16.415  0.9637 -0.6189 -0.0940
  569TMC3    C8 8500   3.820   0.313  16.863 -0.0626  0.1000 -0.9491
  569TMC3    O1 8501   3.575   0.206  16.341 -0.1632  0.3417 -0.2754
  569TMC3    O2 8502   3.749   0.409  16.885  0.4482 -0.1613 -0.4863
  570TMC3    C1 8503   3.321   2.981  15.579 -0.3847  0.0998  0.5327
  570TMC3    C2 8504   3.451   2.997  15.601 -0.0596  0.3464 -0.3717
  570TMC3    C3 8505   3.501   3.120  15.571  0.2133 -0.5273  0.0355
  570TMC3    C4 8506   3.237   3.070  15.507  0.3014 -0.1349  0.0577
  570TMC3    C5 8507   3.296   3.194  15.492 -0.3239  0.2689  0.0958
  570TMC3    C6 8508   3.422   3.219  15.528  0.3400 -0.4437  0.6922
  570TMC3     C 8509   3.269   2.860  15.637  0.4676 -0.2358 -0.4546
  570TMC3     O 8510   3.347   2.767  15.660  0.5226  0.4175 -0.0746
  570TMC3     H 8511   3.508   2.927  15.661 -0.3501  0.0809 -0.4012
  570TMC3    H1 8512   3.130   3.058  15.517  0.4361 -1.2399  0.1889
  570TMC3    H2 8513   3.464   3.318  15.517  0.6107 -0.6363 -0.0261
  570TMC3    C7 8514   3.214   3.304  15.470  0.3355 -1.0126  0.3778
  570TMC3    C8 8515   3.644   3.148  15.587 -0.5904  0.2925  0.6558
  570TMC3    O1 8516   3.262   3.409  15.513 -0.9111 -0.1302  0.3386
  570TMC3    O2 8517   3.689   3.260  15.561 -0.0339 -0.5430  0.5032
  571MPD2     C 8518   1.624   4.593   0.263 -0.8309  0.6643 -0.1481
  571MPD2    C1 8519   1.623   4.554   0.388 -0.1246 -0.1417 -0.2981
  571MPD2    C2 8520   1.623   4.647   0.492 -0.5542  0.0886 -0.1892
  571MPD2    C3 8521   1.624   0.051   0.461 -0.5441 -0.1800 -0.2936
  571MPD2    C4 8522   1.630   0.084   0.330 -0.3691 -0.1227  0.2164
  571MPD2    C5 8523   1.642   4.726   0.232  0.6212  0.0900 -0.0755
  571MPD2     H 8524   1.626   4.605   0.592  0.2547  0.1762 -0.1734
  571MPD2    H1 8525   1.642   0.183   0.287  0.6139  0.3596  1.5651
  571MPD2    H2 8526   1.649   4.526   0.182  1.1259 -0.4758  1.3995
  571MPD2    H3 8527   1.663   0.015   0.129  1.3120 -0.1674  0.0048
  571MPD2     N 8528   1.630   0.157   0.557  0.1001 -0.7704  0.7084
  571MPD2    H5 8529   1.627   0.249   0.514  1.8341 -1.4982 -1.0042
  571MPD2    N1 8530   1.601   4.414   0.401  0.8020 -0.6375 -0.1374
  571MPD2    H7 8531   1.573   4.370   0.313  0.9377  0.3126 -0.6527
  572TMC3    C1 8532   1.616   0.266   0.772  0.3023  0.8251  0.4236
  572TMC3    C2 8533   1.649   0.253   0.906  0.2140 -0.5032 -0.0113
  572TMC3    C3 8534   1.665   0.370   0.981  0.1591  0.0644 -1.1446
  572TMC3    C4 8535   1.596   0.388   0.713  0.8675  0.0670 -0.3728
  572TMC3    C5 8536   1.625   0.497   0.791 -0.2776  0.3446 -0.2050
  572TMC3    C6 8537   1.662   0.495   0.926  0.3646 -0.2069 -0.2594
  572TMC3     C 8538   1.634   0.147   0.699  0.1080  0.1342 -0.8072
  572TMC3     O 8539   1.675   0.052   0.765  1.0916  0.2752 -0.2001
  572TMC3     H 8540   1.638   0.162   0.964 -1.4036 -1.3611 -1.6688
  572TMC3    H1 8541   1.572   0.404   0.608 -0.1660 -0.8531 -0.2800
  572TMC3    H2 8542   1.683   0.581   0.990  1.0828  0.9986 -2.1312
  572TMC3    C7 8543   1.567   0.620   0.736  0.3641  0.5848  0.1312
  572TMC3    C8 8544   1.671   0.377   1.127 -0.0594 -0.0994 -0.0587
  572TMC3    O1 8545   1.499   0.608   0.637  0.1338 -0.6479 -0.1521
  572TMC3    O2 8546   1.634   0.483   1.180  0.3510  0.1557  0.5272
  573MPD2     C 8547   1.994   0.307   1.063 -0.5229  0.0314  0.1585
  573MPD2    C1 8548   2.001   0.419   0.984 -0.1541  0.2495 -0.2442
  573MPD2    C2 8549   2.001   0.398   0.846  0.5488  0.0184  0.2576
  573MPD2    C3 8550   1.987   0.277   0.789 -0.2966  0.1024 -0.3523
  573MPD2    C4 8551   1.979   0.166   0.870  0.1180 -0.5619 -0.0256
  573MPD2    C5 8552   1.979   0.180   1.009  0.0609 -0.5215  0.9011
  573MPD2     H 8553   2.008   0.485   0.782 -1.6822 -0.0323 -0.0610
  573MPD2    H1 8554   1.959   0.066   0.832 -0.6513 -0.6210  0.5335
  573MPD2    H2 8555   1.989   0.322   1.170  0.1406 -2.5599  0.5665
  573MPD2    H3 8556   1.966   0.092   1.072 -1.9983 -0.6235  0.3305
  573MPD2     N 8557   1.991   0.259   0.648 -0.5077 -0.0607  0.7460
  573MPD2    H5 8558   1.967   0.166   0.617 -0.0322  0.0678 -0.0236
  573MPD2    N1 8559   2.013   0.545   1.038  0.4577  0.6519 -0.0228
  573MPD2    H7 8560   2.032   0.560   1.137 -0.6974  0.6372  0.1993
  574TMC3    C1 8561   2.021   0.313   0.419 -0.1027 -0.4225  0.3917
  574TMC3    C2 8562   1.961   0.400   0.329 -0.7838  0.3261 -0.5590
  574TMC3    C3 8563   1.902   0.342   0.222  0.0723  0.6078  0.1389
  574TMC3    C4 8564   2.026   0.178   0.398  0.2472 -0.6857 -0.3125
  574TMC3    C5 8565   1.982   0.134   0.272 -0.2048  0.2365  0.1142
  574TMC3    C6 8566   1.919   0.216   0.182 -0.2004 -0.0796 -0.4469
  574TMC3     C 8567   2.037   0.356   0.552 -0.0612 -0.0978  0.0433
  574TMC3     O 8568   2.072   0.469   0.571 -0.1465  0.6336 -0.6267
  574TMC3     H 8569   1.961   0.507   0.349 -0.7658  0.0512  0.8801
  574TMC3    H1 8570   2.096   0.117   0.453  1.2620  0.5981 -0.1733
  574TMC3    H2 8571   1.881   0.175   0.089 -3.3683  1.8687 -0.0076
  574TMC3    C7 8572   2.021   0.006   0.223 -0.0391  0.7698 -0.8237
  574TMC3    C8 8573   1.846   0.432   0.123  0.0908  0.4424  0.1691
  574TMC3    O1 8574   2.041   4.736   0.104 -0.2432  0.4546 -0.0121
  574TMC3    O2 8575   1.802   0.380   0.019 -0.2326 -0.5355 -0.4687
  575TMC3    C1 8576   4.639   1.758  10.620  0.8030 -0.3955  0.0473
  575TMC3    C2 8577   4.516   1.693  10.590  0.2546  0.4176  0.3137
  575TMC3    C3 8578   4.440   1.757  10.492  0.7544  0.2161 -0.3583
  575TMC3    C4 8579   4.690   1.865  10.562  0.2810  0.1503 -0.3012
  575TMC3    C5 8580   4.614   1.920  10.456  0.4379 -0.4238  0.0156
  575TMC3    C6 8581   4.486   1.869  10.426 -0.2263  0.7600 -0.2664
  575TMC3     C 8582   4.685   1.732  10.749 -0.3181 -0.4534 -0.5034
  575TMC3     O 8583   4.722   1.832  10.810  0.1847 -0.1403 -0.5017
  575TMC3     H 8584   4.464   1.624  10.656  0.5097  0.2526  0.3392
  575TMC3    H1 8585   0.059   1.884  10.578  0.4346 -1.1819  0.2966
  575TMC3    H2 8586   4.446   1.900  10.330 -1.2526  0.5655  0.0982
  575TMC3    C7 8587   4.652   2.048  10.395 -0.0854 -0.7582 -0.4332
  575TMC3    C8 8588   4.311   1.701  10.463  0.3189 -0.0892 -0.2409
  575TMC3    O1 8589   4.585   2.090  10.301 -0.2257 -0.1164  0.2321
  575TMC3    O2 8590   4.269   1.620  10.545  0.0227  0.5061  0.2755
  576MPD2     C 8591   3.904   3.356  12.835 -0.3636  0.7522  0.0036
  576MPD2    C1 8592   3.969   3.442  12.748 -0.0749 -0.0243 -0.0565
  576MPD2    C2 8593   3.959   3.581  12.760 -0.4354  0.4278 -0.4126
  576MPD2    C3 8594   3.892   3.640  12.866  0.1149 -0.8971 -0.9194
  576MPD2    C4 8595   3.825   3.556  12.952 -0.4383  0.5372 -0.1205
  576MPD2    C5 8596   3.831   3.422  12.935 -0.4648 -0.2318  0.1477
  576MPD2     H 8597   4.014   3.639  12.686 -1.7111  0.5151 -1.2831
  576MPD2    H1 8598   3.758   3.592  13.030 -0.1656  2.4761 -0.7953
  576MPD2    H2 8599   3.904   3.248  12.843  1.1359  0.6083 -1.8480
  576MPD2    H3 8600   3.770   3.363  13.003 -1.0075 -4.2631 -3.7800
  576MPD2     N 8601   3.876   3.787  12.877 -0.3190 -0.7552 -0.3722
  576MPD2    H5 8602   3.900   3.848  12.800  0.6678  0.1289  0.6439
  576MPD2    N1 8603   4.052   3.398  12.645 -0.6034  1.0961 -0.3591
  576MPD2    H7 8604   4.101   3.469  12.591  1.7548 -1.1597 -1.2023
  577TMC3    C1 8605   4.159   3.260  12.495  0.4562  0.8487  0.1843
  577TMC3    C2 8606   4.255   3.169  12.480 -0.1404 -0.0947 -0.0648
  577TMC3    C3 8607   4.342   3.175  12.372 -0.3580 -0.7134  0.3073
  577TMC3    C4 8608   4.144   3.358  12.401 -0.0738 -0.2154  0.6239
  577TMC3    C5 8609   4.226   3.356  12.296 -0.4773  0.2993  0.0700
  577TMC3    C6 8610   4.326   3.272  12.276  0.1521 -0.3633 -0.7928
  577TMC3     C 8611   4.080   3.266  12.618  0.4691 -0.1562  0.3972
  577TMC3     O 8612   4.067   3.164  12.685  1.0716  0.3730 -0.4610
  577TMC3     H 8613   4.264   3.098  12.561 -1.9931 -2.5492 -2.0261
  577TMC3    H1 8614   4.069   3.437  12.407 -1.4931 -1.5882  1.0289
  577TMC3    H2 8615   4.388   3.302  12.192  0.4871  1.1056 -0.0118
  577TMC3    C7 8616   4.231   3.471  12.212 -0.3155  0.0199 -1.1933
  577TMC3    C8 8617   4.420   3.056  12.347 -0.8214  0.3612  0.0427
  577TMC3    O1 8618   4.247   3.581  12.263  0.1878  0.6047  0.9138
  577TMC3    O2 8619   4.394   2.954  12.409  0.5570 -0.2362  0.2904
  578MPD2     C 8620   2.164   3.126   1.648 -0.0431 -0.1038  0.4317
  578MPD2    C1 8621   2.218   3.110   1.522 -1.2608  0.6787 -0.4935
  578MPD2    C2 8622   2.350   3.069   1.521  0.5273 -0.8945 -0.6691
  578MPD2    C3 8623   2.424   3.043   1.636 -0.4342 -0.6658  0.2891
  578MPD2    C4 8624   2.354   3.043   1.761  0.0749  0.2470 -0.4760
  578MPD2    C5 8625   2.223   3.087   1.764 -0.2032  0.3107  0.3351
  578MPD2     H 8626   2.404   3.044   1.430  2.1144  0.8931 -0.1967
  578MPD2    H1 8627   2.400   3.005   1.851 -1.5447  0.1592  0.3052
  578MPD2    H2 8628   2.059   3.152   1.646 -0.0536 -0.4157 -3.3292
  578MPD2    H3 8629   2.176   3.082   1.861  0.1532  1.3778  0.5598
  578MPD2     N 8630   2.554   2.992   1.616  0.3946 -0.1412 -0.1727
  578MPD2    H5 8631   2.585   2.988   1.519 -1.7442  1.8582 -0.9648
  578MPD2    N1 8632   2.154   3.144   1.400  0.0642 -0.1051 -0.4983
  578MPD2    H7 8633   2.065   3.194   1.408  1.2762  1.8169  1.0049
  579TMC3    C1 8634   2.775   2.905   1.656  0.0271 -0.9210  0.3432
  579TMC3    C2 8635   2.888   2.921   1.724  0.1765  0.3140  0.7061
  579TMC3    C3 8636   3.006   2.901   1.660 -0.4644 -0.4601  0.7164
  579TMC3    C4 8637   2.782   2.852   1.527 -0.3737  0.7181  0.0663
  579TMC3    C5 8638   2.907   2.815   1.476  0.0683  0.2481  0.6056
  579TMC3    C6 8639   3.025   2.858   1.536  0.0307 -0.1626  0.2133
  579TMC3     C 8640   2.648   2.962   1.713 -0.4170  0.5259 -0.0187
  579TMC3     O 8641   2.655   2.979   1.833  0.2697  0.2620  0.2837
  579TMC3     H 8642   2.887   2.965   1.824  0.3829  0.1620  0.7756
  579TMC3    H1 8643   2.691   2.817   1.481  0.7532 -1.8282 -0.1895
  579TMC3    H2 8644   3.123   2.827   1.503 -0.0504  1.1944 -1.3337
  579TMC3    C7 8645   2.913   2.756   1.339 -0.9259  0.5129 -0.9489
  579TMC3    C8 8646   3.120   2.900   1.746  0.2610 -0.5279 -0.0150
  579TMC3    O1 8647   3.022   2.716   1.304  0.3200  0.2758  0.0952
  579TMC3    O2 8648   3.094   2.852   1.856  0.2676 -0.2264 -0.1526
  580TMC3    C1 8649   2.132   2.219  12.374 -0.3767  0.1949  0.2392
  580TMC3    C2 8650   2.218   2.330  12.377 -0.4665  0.1558  0.4991
  580TMC3    C3 8651   2.331   2.308  12.448 -0.0815 -0.0783  0.2471
  580TMC3    C4 8652   2.149   2.103  12.436  0.5355 -0.1016  0.3102
  580TMC3    C5 8653   2.264   2.081  12.497  0.2165  0.0995  0.1630
  580TMC3    C6 8654   2.357   2.185  12.505  0.2103  0.2336 -0.4237
  580TMC3     C 8655   1.993   2.256  12.333 -0.0834  0.3070  0.1879
  580TMC3     O 8656   1.892   2.206  12.381 -0.3126 -0.4541 -0.7099
  580TMC3     H 8657   2.199   2.434  12.351  2.3368  0.1911 -1.3706
  580TMC3    H1 8658   2.066   2.033  12.434  0.7432 -0.3013 -1.2674
  580TMC3    H2 8659   2.456   2.165  12.544  0.0089  0.7429  0.3601
  580TMC3    C7 8660   2.283   1.979  12.595 -0.2417 -0.3419 -0.0261
  580TMC3    C8 8661   2.443   2.385  12.417 -0.0009 -0.1077  0.0677
  580TMC3    O1 8662   2.364   2.008  12.682 -0.7114 -0.8758 -0.5835
  580TMC3    O2 8663   2.542   2.398  12.495 -0.2238 -0.2946 -0.2218
  581MPD2     C 8664   0.111   2.051  15.123  0.3301 -0.2011  0.1005
  581MPD2    C1 8665   4.731   1.979  15.089 -0.1512 -0.0803 -0.4037
  581MPD2    C2 8666   4.622   2.044  15.029  0.2807  0.3954  1.1103
  581MPD2    C3 8667   4.631   2.178  14.999  0.1975  0.2246  0.1686
  581MPD2    C4 8668   0.005   2.250  15.039  0.0583  0.1674  0.5645
  581MPD2    C5 8669   0.110   2.182  15.103  0.6678  0.1208  1.0660
  581MPD2     H 8670   4.540   1.979  15.001 -0.3269  1.1266  1.1969
  581MPD2    H1 8671   0.013   2.356  15.021  0.8274 -0.1099 -0.7535
  581MPD2    H2 8672   0.197   2.008  15.174 -0.4628 -1.0113  0.7353
  581MPD2    H3 8673   0.195   2.241  15.136  0.5004 -0.2438  2.1430
  581MPD2     N 8674   4.537   2.238  14.911 -0.0841 -0.5941  0.0441
  581MPD2    H5 8675   4.550   2.338  14.895 -0.0047 -0.4864  0.7639
  581MPD2    N1 8676   4.729   1.844  15.115  0.4673 -0.2611  0.2592
  581MPD2    H7 8677   0.067   1.806  15.174  1.2905  1.7284  0.5042
  582TMC3    C1 8678   4.617   1.665  15.208 -0.2823  0.6575 -0.5429
  582TMC3    C2 8679   4.693   1.666  15.316 -0.1249 -0.4059  0.4799
  582TMC3    C3 8680   4.656   1.583  15.422  0.2696  0.7911 -0.3801
  582TMC3    C4 8681   4.512   1.568  15.193  0.4350  0.3508 -0.2658
  582TMC3    C5 8682   4.486   1.488  15.297 -0.0349 -0.0699 -0.1237
  582TMC3    C6 8683   4.566   1.487  15.410  0.0069  0.2007  0.0980
  582TMC3     C 8684   4.616   1.763  15.107  0.1178  0.1731 -0.3347
  582TMC3     O 8685   4.502   1.787  15.072  0.1090  0.1827  0.1023
  582TMC3     H 8686   0.011   1.757  15.342 -0.3567  0.3210 -1.6094
  582TMC3    H1 8687   4.453   1.566  15.103  2.3396  1.6629 -1.5524
  582TMC3    H2 8688   4.549   1.420  15.493 -1.7258 -1.8780 -1.9294
  582TMC3    C7 8689   4.358   1.531  15.337  0.1543 -0.3321 -0.8008
  582TMC3    C8 8690   4.654   1.649  15.550  0.5992 -0.3212  0.0652
  582TMC3    O1 8691   4.315   1.470  15.436 -0.0964 -0.1931 -0.1736
  582TMC3    O2 8692   0.016   1.709  15.582  0.6396 -0.7472 -0.3462
  583MPD2     C 8693   0.382   3.674  17.130  0.6121 -0.1933  0.5047
  583MPD2    C1 8694   0.361   3.785  17.057 -0.6545  0.7203 -0.3490
  583MPD2    C2 8695   0.310   3.900  17.119 -0.2804 -0.2057 -1.2386
  583MPD2    C3 8696   0.265   3.903  17.250 -0.6532  0.4035  0.7532
  583MPD2    C4 8697   0.283   3.788  17.323  0.1206  0.3978 -0.1753
  583MPD2    C5 8698   0.332   3.670  17.258 -0.1168  0.3853  0.1339
  583MPD2     H 8699   0.294   3.985  17.055  1.4107  0.8746 -0.2571
  583MPD2    H1 8700   0.250   3.777  17.425 -2.2890 -0.0656 -1.0046
  583MPD2    H2 8701   0.422   3.580  17.092  0.4031  0.7767 -2.0701
  583MPD2    H3 8702   0.349   3.580  17.315  1.1740  0.6123  0.0995
  583MPD2     N 8703   0.188   4.012  17.290  0.7020  0.0903  0.5353
  583MPD2    H5 8704   0.179   4.090  17.226  0.6335  1.1103  1.7961
  583MPD2    N1 8705   0.400   3.801  16.925 -0.5205  0.1341 -0.3996
  583MPD2    H7 8706   0.376   3.886  16.875  0.1791  0.2277 -0.5729
  584TMC3    C1 8707   0.028   4.128  17.423 -0.0889 -0.0317  0.6054
  584TMC3    C2 8708   0.065   4.247  17.364  0.6924 -0.1007  0.7426
  584TMC3    C3 8709   0.012   4.363  17.409  0.1439  0.4874 -0.1961
  584TMC3    C4 8710   4.693   4.125  17.537  0.2638  0.0637 -0.2222
  584TMC3    C5 8711   4.645   4.247  17.587  0.1492 -0.9976 -0.1352
  584TMC3    C6 8712   4.672   4.363  17.531  0.0495 -0.6955  0.6424
  584TMC3     C 8713   0.107   4.010  17.399 -0.1619  0.2206  0.5853
  584TMC3     O 8714   0.102   3.927  17.489  0.0284 -0.6324 -0.0691
  584TMC3     H 8715   0.110   4.243  17.266 -1.6066  0.0540 -0.3075
  584TMC3    H1 8716   4.670   4.031  17.587  2.4378 -0.2658  0.1647
  584TMC3    H2 8717   4.638   4.454  17.577  2.2093  0.3534  0.1614
  584TMC3    C7 8718   4.569   4.236  17.711  0.0066 -0.3927  0.7210
  584TMC3    C8 8719   0.037   4.478  17.331 -0.8699  0.1383  0.1216
  584TMC3    O1 8720   4.601   4.141   0.035 -0.2671 -0.2798  0.3209
  584TMC3    O2 8721   0.037   4.472  17.210  0.0220  0.4581  0.5782
  585MPD2     C 8722   4.163   2.959   0.577 -0.2533 -0.6220  0.3903
  585MPD2    C1 8723   4.082   2.940   0.471  0.2767 -0.2524  0.6137
  585MPD2    C2 8724   4.121   2.839   0.393 -0.3807 -0.2529  0.5360
  585MPD2    C3 8725   4.215   2.741   0.421  0.2002  0.1336 -0.5299
  585MPD2    C4 8726   4.292   2.757   0.528  0.5148 -0.5439 -0.2667
  585MPD2    C5 8727   4.268   2.872   0.600 -0.0269  0.2602  0.5897
  585MPD2     H 8728   4.062   2.808   0.308  1.0850 -0.3396 -0.4589
  585MPD2    H1 8729   4.367   2.686   0.561 -0.2869 -2.2023 -2.0284
  585MPD2    H2 8730   4.164   3.042   0.646  2.8027 -1.8078  1.7786
  585MPD2    H3 8731   4.332   2.895   0.684  1.4183  2.8502 -1.1946
  585MPD2     N 8732   4.243   2.628   0.338 -0.6840 -0.1570 -0.5066
  585MPD2    H5 8733   4.306   2.567   0.388 -0.1336 -1.5744 -2.9560
  585MPD2    N1 8734   3.972   3.028   0.454 -0.6110 -0.0236  0.1504
  585MPD2    H7 8735   3.974   3.104   0.522  2.0810  1.2356 -1.3593
  586TMC3    C1 8736   4.249   2.470   0.156 -0.2207  0.3945 -0.2571
  586TMC3    C2 8737   4.384   2.456   0.148 -1.0631 -0.4563 -0.2601
  586TMC3    C3 8738   4.444   2.389   0.043 -0.0299  0.1756 -0.1898
  586TMC3    C4 8739   4.172   2.425   0.052  0.8978 -0.0307  0.7496
  586TMC3    C5 8740   4.230   2.339  17.705  0.1337  0.2402 -0.3308
  586TMC3    C6 8741   4.366   2.328  17.692  0.7652 -0.5086 -0.8016
  586TMC3     C 8742   4.196   2.595   0.211  0.0801  0.8999  0.1603
  586TMC3     O 8743   4.109   2.654   0.145 -0.3473 -0.3171  0.3249
  586TMC3     H 8744   4.442   2.516   0.218 -3.1978  1.9815 -0.5533
  586TMC3    H1 8745   4.064   2.430   0.065  0.7372 -1.3497 -0.1847
  586TMC3    H2 8746   4.406   2.248  17.631  1.9298  1.7013 -2.9351
  586TMC3    C7 8747   4.141   2.245  17.648 -0.0850 -0.5014  0.1346
  586TMC3    C8 8748   4.574   2.325   0.047  0.1244  0.1769 -0.0499
  586TMC3    O1 8749   4.033   2.219  17.703  0.4731 -0.2086  0.1908
  586TMC3    O2 8750   4.617   2.276  17.684 -0.3936 -0.0406 -0.2161
  587TMC3    C1 8751   1.702   1.536  16.356 -0.0183  0.2683  0.2521
  587TMC3    C2 8752   1.748   1.589  16.469  0.1800  0.0202  0.3435
  587TMC3    C3 8753   1.880   1.562  16.504 -0.6941  0.0555  0.4147
  587TMC3    C4 8754   1.782   1.456  16.279 -0.7859 -0.5129  0.3731
  587TMC3    C5 8755   1.913   1.433  16.310 -0.6381  0.2804 -0.0612
  587TMC3    C6 8756   1.964   1.485  16.425  0.1155  0.1287 -0.4871
  587TMC3     C 8757   1.566   1.546  16.315 -0.0884 -0.4980  0.2972
  587TMC3     O 8758   1.530   1.459  16.231  0.3819 -0.0079 -0.3431
  587TMC3     H 8759   1.692   1.672  16.511 -1.0125 -0.4288 -0.3321
  587TMC3    H1 8760   1.748   1.417  16.184  0.5911  1.3115 -0.8699
  587TMC3    H2 8761   2.066   1.460  16.452  0.1275 -0.3755 -1.0087
  587TMC3    C7 8762   2.003   1.358  16.226 -0.7188  0.0564  0.1236
  587TMC3    C8 8763   1.933   1.619  16.626 -0.0117  0.3534  0.0245
  587TMC3    O1 8764   2.111   1.325  16.269 -0.7232  0.6855  0.4289
  587TMC3    O2 8765   2.039   1.582  16.669 -0.3160  0.2645 -0.0212
  588TMC3    C1 8766   3.912   3.883  10.059  0.1412  0.5574  0.2698
  588TMC3    C2 8767   3.852   3.759  10.068 -0.1824 -0.1778  0.1773
  588TMC3    C3 8768   3.919   3.657  10.133 -0.8736 -0.2417  0.1311
  588TMC3    C4 8769   4.023   3.917  10.137  0.0585  0.0565 -0.1744
  588TMC3    C5 8770   4.082   3.816  10.207  0.3688  0.7103 -0.2515
  588TMC3    C6 8771   4.036   3.687  10.199 -0.2408 -0.3220 -1.0052
  588TMC3     C 8772   3.837   3.987   9.997 -0.1747 -0.1357  1.0451
  588TMC3     O 8773   3.724   3.959   9.959 -0.2801 -0.0726  0.3502
  588TMC3     H 8774   3.762   3.733  10.014 -0.8805  1.3214  0.6090
  588TMC3    H1 8775   4.073   4.013  10.130 -1.4022  0.6578 -2.4255
  588TMC3    H2 8776   4.087   3.617  10.263 -1.1255  1.3422  1.5039
  588TMC3    C7 8777   4.195   3.851  10.284  0.1940  0.1490 -0.0671
  588TMC3    C8 8778   3.873   3.519  10.111  0.2865  0.2618 -0.1670
  588TMC3    O1 8779   4.278   3.762  10.297 -0.2910 -0.1586  0.0910
  588TMC3    O2 8780   3.751   3.514  10.103  0.1303 -0.1621 -0.0245
  589TMC3    C1 8781   3.595   1.320   1.241 -0.5429  0.1968 -0.3953
  589TMC3    C2 8782   3.727   1.332   1.282  0.0037  0.1607  1.1162
  589TMC3    C3 8783   3.795   1.213   1.288 -0.6074 -0.1892 -0.0728
  589TMC3    C4 8784   3.528   1.204   1.218  0.2040  0.4679 -0.3689
  589TMC3    C5 8785   3.603   1.094   1.239  0.5767 -0.0383 -0.6991
  589TMC3    C6 8786   3.738   1.091   1.266 -0.1128  0.9597 -0.2409
  589TMC3     C 8787   3.503   1.432   1.245 -0.8733 -0.0749 -0.7348
  589TMC3     O 8788   3.384   1.414   1.253 -0.4026 -0.3063 -0.2481
  589TMC3     H 8789   3.768   1.427   1.314  0.8100  0.1785  0.0480
  589TMC3    H1 8790   3.426   1.203   1.182  0.4339  2.4636 -1.0970
  589TMC3    H2 8791   3.789   0.996   1.263 -2.0919 -0.0961 -0.1201
  589TMC3    C7 8792   3.544   0.961   1.220  0.0704 -0.4197  0.1652
  589TMC3    C8 8793   3.927   1.202   1.350  0.5351  0.7163 -0.3497
  589TMC3    O1 8794   3.440   0.953   1.151  0.0096 -0.1056 -0.2892
  589TMC3    O2 8795   3.961   1.092   1.392  0.7253 -0.6516 -0.1414
  590MPD2     C 8796   2.853   4.431  16.950 -0.9048 -0.5812 -0.1420
  590MPD2    C1 8797   2.807   4.539  16.877  0.4429  0.3714  0.0773
  590MPD2    C2 8798   2.881   4.591  16.773  0.7897 -0.0776  0.0178
  590MPD2    C3 8799   3.012   4.534  16.743  0.3614 -0.1555 -0.1716
  590MPD2    C4 8800   3.053   4.422  16.812 -0.3387 -0.0840  0.5990
  590MPD2    C5 8801   2.978   4.374  16.917  1.0191  0.3277 -0.2105
  590MPD2     H 8802   2.863   4.685  16.722 -2.9422 -0.7219  0.1441
  590MPD2    H1 8803   3.149   4.374  16.796  0.5618  1.1085  2.3482
  590MPD2    H2 8804   2.800   4.399  17.039 -1.0848  1.0320  0.3151
  590MPD2    H3 8805   3.016   4.294  16.980 -0.4479  0.3232  0.6760
  590MPD2     N 8806   3.095   4.599  16.643  0.2661  0.1113 -0.0761
  590MPD2    H5 8807   3.072   4.695  16.619  1.3331  0.0696 -1.3019
  590MPD2    N1 8808   2.679   4.596  16.897 -0.2842 -0.5786  0.2492
  590MPD2    H7 8809   2.650   4.668  16.832 -1.5465  1.1134  2.6367
  591TMC3    C1 8810   3.265   4.625  16.475  0.4014  0.2447  0.5160
  591TMC3    C2 8811   3.354   4.555  16.393  0.6360 -0.6282 -0.5997
  591TMC3    C3 8812   3.409   4.629  16.295  0.7378 -0.7354 -0.1456
  591TMC3    C4 8813   3.199   0.002  16.439 -0.8290 -0.2696 -0.2824
  591TMC3    C5 8814   3.252   0.071  16.330 -0.0499 -0.0215  0.0488
  591TMC3    C6 8815   3.351   0.016  16.257 -0.1370 -0.0584 -0.6361
  591TMC3     C 8816   3.210   4.544  16.582  0.2338  0.3429  0.3576
  591TMC3     O 8817   3.257   4.433  16.598 -0.5256  0.4332  0.2925
  591TMC3     H 8818   3.375   4.450  16.410 -2.0875 -0.8261  1.4489
  591TMC3    H1 8819   3.110   0.037  16.491  0.7390 -0.0567  2.2469
  591TMC3    H2 8820   3.365   0.076  16.168  1.3635  1.0774  0.3518
  591TMC3    C7 8821   3.155   0.144  16.257 -0.1250  0.2927 -0.4037
  591TMC3    C8 8822   3.517   4.587  16.215 -0.1412  0.4431  0.4037
  591TMC3    O1 8823   3.037   0.104  16.269  0.1115  0.9761  0.5042
  591TMC3    O2 8824   3.554   4.473  16.208  0.1134 -0.1927  0.4821
  592MPD2     C 8825   3.308   1.865  11.608  0.3883  0.2314  0.3093
  592MPD2    C1 8826   3.243   1.928  11.711 -0.7369  0.2429  0.0753
  592MPD2    C2 8827   3.142   1.857  11.770 -0.4528  0.0143  0.0610
  592MPD2    C3 8828   3.096   1.738  11.724  0.0659  0.1669  0.1015
  592MPD2    C4 8829   3.161   1.677  11.610 -0.0904 -0.3877 -0.1265
  592MPD2    C5 8830   3.276   1.737  11.566  0.6392  0.1960  0.2905
  592MPD2     H 8831   3.084   1.907  11.847 -1.4524 -2.4541  0.9227
  592MPD2    H1 8832   3.138   1.580  11.569 -0.3092 -0.0037 -0.9203
  592MPD2    H2 8833   3.400   1.911  11.575  0.1659  0.8678  0.5659
  592MPD2    H3 8834   3.338   1.694  11.488  1.3408 -2.6980  2.4326
  592MPD2     N 8835   2.984   1.683  11.791  0.0684  0.7187 -0.0036
  592MPD2    H5 8836   2.950   1.733  11.873  0.2324  0.2148  0.3688
  592MPD2    N1 8837   3.283   2.060  11.741  0.0091  0.2333 -0.4399
  592MPD2    H7 8838   3.352   2.105  11.681  2.1884 -1.0392  1.1168
  593TMC3    C1 8839   3.301   2.265  11.842  0.3667 -0.8419  0.0370
  593TMC3    C2 8840   3.242   2.354  11.928  0.3352  0.3675  0.2413
  593TMC3    C3 8841   3.300   2.473  11.936 -0.8638  0.7798  0.8887
  593TMC3    C4 8842   3.398   2.309  11.751  0.0245 -0.3525 -0.1017
  593TMC3    C5 8843   3.437   2.444  11.758  0.3006  0.0394  0.2916
  593TMC3    C6 8844   3.407   2.519  11.863  0.5831 -0.1870 -0.5210
  593TMC3     C 8845   3.228   2.142  11.835  0.3881 -0.8252  0.0730
  593TMC3     O 8846   3.129   2.129  11.907  0.1701 -0.5879 -0.5797
  593TMC3     H 8847   3.159   2.322  11.990  0.2479  0.4396  0.1635
  593TMC3    H1 8848   3.420   2.251  11.663  0.1840 -1.0002  0.3659
  593TMC3    H2 8849   3.425   2.626  11.862 -0.6932  0.0264 -0.3705
  593TMC3    C7 8850   3.530   2.497  11.662  0.5911 -0.0758  0.6402
  593TMC3    C8 8851   3.276   2.549  12.059  0.1593  0.6174 -0.1674
  593TMC3    O1 8852   3.589   2.603  11.691  0.2215  0.1469  0.2062
  593TMC3    O2 8853   3.179   2.518  12.124 -0.6143  0.2254 -0.2392
  594MPD2     C 8854   1.762   0.612  14.587  0.6866 -0.3354 -0.1952
  594MPD2    C1 8855   1.747   0.685  14.698  0.7337  0.4274 -0.1414
  594MPD2    C2 8856   1.833   0.784  14.721  0.0231  1.0133 -0.4707
  594MPD2    C3 8857   1.940   0.797  14.645 -0.3257 -0.1793 -0.1006
  594MPD2    C4 8858   1.963   0.715  14.537  0.0161  0.5899  0.1036
  594MPD2    C5 8859   1.872   0.628  14.505 -0.2420 -0.0203  0.0804
  594MPD2     H 8860   1.814   0.856  14.800  1.6381  1.6517 -0.6680
  594MPD2    H1 8861   2.053   0.726  14.478  0.3226 -1.9756  0.1026
  594MPD2    H2 8862   1.685   0.549  14.543  1.4122 -1.2976 -0.0964
  594MPD2    H3 8863   1.879   0.586  14.405  2.5929  0.2974  0.1420
  594MPD2     N 8864   2.017   0.909  14.678  0.4842  0.9496  0.3010
  594MPD2    H5 8865   1.977   0.960  14.756 -1.3104  1.8597 -1.2113
  594MPD2    N1 8866   1.623   0.673  14.773  0.3305 -0.1994 -0.0431
  594MPD2    H7 8867   1.543   0.624  14.734  1.9704 -2.9713  0.1341
  595TMC3    C1 8868   2.326   1.252  14.683  0.1643  0.2031 -0.0544
  595TMC3    C2 8869   2.297   1.130  14.642  0.2556  0.2419  0.0223
  595TMC3    C3 8870   2.181   1.074  14.690  0.2421  0.4040  0.3802
  595TMC3    C4 8871   2.238   1.325  14.757 -0.6915  0.1242  1.0255
  595TMC3    C5 8872   2.130   1.268  14.809  0.5570  0.1018  0.2486
  595TMC3    C6 8873   2.097   1.139  14.778 -1.2531 -0.2995  0.2570
  595TMC3     C 8874   2.467   1.294  14.690 -0.3631 -0.2759 -0.3507
  595TMC3     O 8875   2.483   1.409  14.730  0.2823  0.1326 -0.4926
  595TMC3     H 8876   2.349   1.075  14.565  1.9269  1.5064  0.2343
  595TMC3    H1 8877   2.269   1.423  14.791  0.7681  0.1754 -0.4179
  595TMC3    H2 8878   2.022   1.087  14.837 -0.9901 -0.4989  0.4181
  595TMC3    C7 8879   2.054   1.340  14.910 -0.2646 -0.2739 -0.8596
  595TMC3    C8 8880   2.144   0.948  14.624 -0.1214 -1.0839 -0.4437
  595TMC3    O1 8881   1.939   1.309  14.926  0.0439  0.1579  0.3600
  595TMC3    O2 8882   2.203   0.894  14.531  0.4454  0.8837 -0.0278
  596MPD2     C 8883   1.256   3.731  16.988  0.7671 -1.0169  0.2322
  596MPD2    C1 8884   1.225   3.853  16.934  0.3942  0.1282  0.1125
  596MPD2    C2 8885   1.217   3.872  16.799  0.2520 -0.1241  0.5907
  596MPD2    C3 8886   1.239   3.768  16.707  0.0780 -0.3389  0.5680
  596MPD2    C4 8887   1.275   3.648  16.764 -0.1977 -0.2130  0.0606
  596MPD2    C5 8888   1.280   3.627  16.899  0.2925  0.5742 -0.3397
  596MPD2     H 8889   1.194   3.972  16.765  1.3642  0.8186  2.5824
  596MPD2    H1 8890   1.290   3.557  16.708 -3.9955  0.3568 -1.8419
  596MPD2    H2 8891   1.259   3.707  17.093 -1.8189  1.8791  0.9725
  596MPD2    H3 8892   1.296   3.525  16.932 -1.2287  0.5764  0.4215
  596MPD2     N 8893   1.207   3.771  16.571 -0.2209  0.0547  0.4743
  596MPD2    H5 8894   1.224   3.688  16.517 -0.9686 -0.2434  0.6945
  596MPD2    N1 8895   1.188   3.968  17.014  0.8078 -0.2888  0.4701
  596MPD2    H7 8896   1.156   4.053  16.971  0.6476 -1.7104 -2.2127
  597TMC3    C1 8897   1.144   4.099  17.197 -0.4500  0.6094 -0.6579
  597TMC3    C2 8898   1.151   4.207  17.114 -0.8081 -0.1651  0.0354
  597TMC3    C3 8899   1.076   4.311  17.142  0.5674 -0.6835 -0.2914
  597TMC3    C4 8900   1.078   4.099  17.315 -0.0416  0.1284  0.3277
  597TMC3    C5 8901   0.987   4.204  17.332 -0.3304 -0.0801 -0.2861
  597TMC3    C6 8902   0.987   4.310  17.245  0.2463  0.0559  0.5587
  597TMC3     C 8903   1.185   3.975  17.149  0.9827 -0.2346  0.3530
  597TMC3     O 8904   1.214   3.890  17.229 -0.2985  0.3678  0.3971
  597TMC3     H 8905   1.242   4.224  17.058  0.5455  0.3446  2.4254
  597TMC3    H1 8906   1.066   4.012  17.379  1.2619  0.9453  1.6871
  597TMC3    H2 8907   0.907   4.383  17.252  1.0324  1.0753 -1.2873
  597TMC3    C7 8908   0.878   4.192  17.428 -0.1696  0.5777 -0.6731
  597TMC3    C8 8909   1.108   4.443  17.077 -0.2077 -0.0786 -0.1438
  597TMC3    O1 8910   0.867   4.078  17.476  0.0774 -0.2039 -0.3767
  597TMC3    O2 8911   1.216   4.440  17.011 -0.7438 -0.3269  0.0053
  598TMC3    C1 8912   3.755   0.421  15.819  0.1119  0.9697 -0.3102
  598TMC3    C2 8913   3.673   0.326  15.872 -0.5774 -0.4969 -0.2079
  598TMC3    C3 8914   3.587   0.261  15.787  0.3638  0.1393  0.0052
  598TMC3    C4 8915   3.761   0.445  15.686 -0.3554 -0.0966 -0.3484
  598TMC3    C5 8916   3.671   0.378  15.604 -0.3722  0.2204 -0.9523
  598TMC3    C6 8917   3.588   0.281  15.650  0.0354 -0.4431 -0.1513
  598TMC3     C 8918   3.856   0.488  15.899 -0.3401 -0.3704 -0.3140
  598TMC3     O 8919   3.882   0.604  15.872 -0.3748 -0.4748  0.5408
  598TMC3     H 8920   3.660   0.314  15.979 -0.9653 -2.4359 -0.4632
  598TMC3    H1 8921   3.835   0.511  15.641  1.1016 -1.5671 -0.1164
  598TMC3    H2 8922   3.523   0.230  15.580  0.5652 -0.9549 -0.2762
  598TMC3    C7 8923   3.640   0.427  15.465  0.5020  0.2171  0.3221
  598TMC3    C8 8924   3.480   0.188  15.845 -0.7856  0.1600 -0.1038
  598TMC3    O1 8925   3.594   0.348  15.386 -0.2611 -0.6158  0.3877
  598TMC3    O2 8926   3.445   0.230  15.954  0.2165 -0.2088 -0.2093
  599MPD2     C 8927   4.228   2.674  15.863  0.7512 -0.0702  1.2114
  599MPD2    C1 8928   4.151   2.555  15.862 -0.0204  0.2006 -0.0528
  599MPD2    C2 8929   4.011   2.570  15.860  0.2946  0.0133  0.0333
  599MPD2    C3 8930   3.950   2.697  15.868  0.0965  0.3562  0.4923
  599MPD2    C4 8931   4.030   2.813  15.871 -0.0259 -0.5280 -0.0977
  599MPD2    C5 8932   4.169   2.798  15.860  0.9507 -0.4600  0.3172
  599MPD2     H 8933   3.944   2.485  15.861 -0.2569  0.4351 -0.8310
  599MPD2    H1 8934   3.995   2.915  15.886 -0.5660 -0.6132 -0.8153
  599MPD2    H2 8935   4.336   2.671  15.872  1.0728 -1.8742 -3.1091
  599MPD2    H3 8936   4.232   2.882  15.883  0.2802  0.1538 -0.0883
  599MPD2     N 8937   3.813   2.707  15.867  0.0246  0.0222 -0.0845
  599MPD2    H5 8938   3.782   2.802  15.888 -0.8861 -0.3848  0.3774
  599MPD2    N1 8939   4.214   2.430  15.866  0.5102  0.9936  0.3112
  599MPD2    H7 8940   4.313   2.427  15.890 -0.2091 -1.2276  3.0036
  600TMC3    C1 8941   3.591   2.668  15.920 -0.9330  0.0948  1.5851
  600TMC3    C2 8942   3.504   2.584  15.976 -0.9245  0.1233  0.3693
  600TMC3    C3 8943   3.382   2.623  16.019 -0.6749 -0.7790 -0.2808
  600TMC3    C4 8944   3.564   2.803  15.911 -0.0173  0.2015 -0.3145
  600TMC3    C5 8945   3.443   2.839  15.959  0.1978  0.5255 -0.0634
  600TMC3    C6 8946   3.355   2.756  16.020  0.0193  0.2298  0.1152
  600TMC3     C 8947   3.718   2.609  15.879 -0.5822  0.4664  0.6602
  600TMC3     O 8948   3.729   2.486  15.874  0.9138  0.4489 -0.2592
  600TMC3     H 8949   3.529   2.480  15.994 -0.9965 -0.1431 -1.0204
  600TMC3    H1 8950   3.629   2.870  15.856  0.8257 -0.1974  0.2092
  600TMC3    H2 8951   3.267   2.803  16.062 -1.4896 -1.0508 -1.6043
  600TMC3    C7 8952   3.407   2.975  15.955 -0.5372 -0.1542  0.5971
  600TMC3    C8 8953   3.334   2.539  16.129 -0.3967  0.2568  0.0744
  600TMC3    O1 8954   3.290   3.005  15.958 -0.4994 -0.2296 -0.7049
  600TMC3    O2 8955   3.406   2.451  16.176  0.0511  0.0632  0.1109
  601MPD2     C 8956   1.531   1.122   0.670 -0.7114 -0.0530 -0.1377
  601MPD2    C1 8957   1.431   1.028   0.667 -0.1112  0.3029  0.0652
  601MPD2    C2 8958   1.458   0.897   0.703  0.1506 -0.0939 -0.3318
  601MPD2    C3 8959   1.582   0.863   0.755 -0.8526  0.2028 -0.3018
  601MPD2    C4 8960   1.681   0.960   0.760  1.2505  0.2504  0.1062
  601MPD2    C5 8961   1.650   1.090   0.741  0.8050 -0.3732 -0.0690
  601MPD2     H 8962   1.392   0.811   0.697 -1.2031  0.9007  0.3229
  601MPD2    H1 8963   1.785   0.942   0.786  1.4511  1.1066 -0.1230
  601MPD2    H2 8964   1.525   1.229   0.649 -0.0054  0.1784  0.8558
  601MPD2    H3 8965   1.719   1.173   0.754 -1.6959  1.6112  0.6174
  601MPD2     N 8966   1.621   0.733   0.791 -0.0172  0.2803  0.1673
  601MPD2    H5 8967   1.706   0.726   0.845 -1.0347  0.7339  1.8309
  601MPD2    N1 8968   1.303   1.060   0.619  0.4848  0.4063 -0.7775
  601MPD2    H7 8969   1.223   1.008   0.653  0.4897 -1.6414 -3.9036
  602TMC3    C1 8970   1.152   1.202   0.525  0.4591 -0.8215  0.2387
  602TMC3    C2 8971   1.121   1.337   0.525  0.2412 -0.6260 -0.9228
  602TMC3    C3 8972   1.010   1.376   0.455  0.5661 -0.2708 -0.4782
  602TMC3    C4 8973   1.070   1.108   0.473  0.4512  0.2411 -0.6731
  602TMC3    C5 8974   0.962   1.153   0.406  0.0868 -0.3543  0.6698
  602TMC3    C6 8975   0.935   1.284   0.386 -0.4134  0.4169 -0.1687
  602TMC3     C 8976   1.289   1.169   0.537  0.0116 -0.2267 -0.7324
  602TMC3     O 8977   1.369   1.251   0.493  0.1617  0.0378 -0.1386
  602TMC3     H 8978   1.190   1.412   0.562 -0.7511 -1.5695  2.7955
  602TMC3    H1 8979   1.085   1.001   0.482 -0.7209  0.1255 -0.1534
  602TMC3    H2 8980   0.844   1.310   0.333 -0.0037  1.4040 -0.3993
  602TMC3    C7 8981   0.894   1.062   0.318  0.2500 -0.2366 -0.3342
  602TMC3    C8 8982   0.995   1.518   0.422  0.5419  0.0990 -0.3335
  602TMC3    O1 8983   0.889   0.946   0.351 -1.0123  0.6219 -0.2131
  602TMC3    O2 8984   0.996   1.596   0.514  0.3060  0.1919  0.0650
  603TMC3    C1 8985   4.348   1.424  10.957  0.0542 -0.0870  0.2887
  603TMC3    C2 8986   4.366   1.394  11.087  0.0191 -0.4975 -0.2809
  603TMC3    C3 8987   4.394   1.497  11.171  0.3637 -0.4084  0.1327
  603TMC3    C4 8988   4.354   1.551  10.907 -0.5829 -0.2565 -0.1578
  603TMC3    C5 8989   4.382   1.653  10.994  0.2759  0.0637 -0.2964
  603TMC3    C6 8990   4.407   1.633  11.125 -0.0866 -0.6002  0.2176
  603TMC3     C 8991   4.319   1.311  10.874  0.1137  0.0353 -0.2838
  603TMC3     O 8992   4.326   1.209  10.935 -0.5259 -0.1950  0.2523
  603TMC3     H 8993   4.356   1.295  11.128 -0.4362 -0.3087  0.0652
  603TMC3    H1 8994   4.339   1.576  10.803  0.6483  2.4573  0.3094
  603TMC3    H2 8995   4.441   1.712  11.190 -2.4431  1.0902 -0.6075
  603TMC3    C7 8996   4.381   1.788  10.942  0.6072  0.2898  0.2233
  603TMC3    C8 8997   4.416   1.469  11.317  0.0546 -0.1220  0.1844
  603TMC3    O1 8998   4.452   1.871  11.001  0.0810  0.0094 -0.2965
  603TMC3    O2 8999   4.461   1.358  11.340 -0.1157 -0.3346  0.2204
  604MPD2     C 9000   0.370   0.409  16.846 -0.3140 -0.5035 -0.2386
  604MPD2    C1 9001   0.244   0.442  16.800 -0.3071 -0.5546 -0.5466
  604MPD2    C2 9002   0.192   0.398  16.675  0.6762 -0.2279 -0.3949
  604MPD2    C3 9003   0.273   0.317  16.603  0.2894 -0.4431  0.6841
  604MPD2    C4 9004   0.397   0.280  16.650 -0.3512 -0.5355  0.1120
  604MPD2    C5 9005   0.443   0.329  16.768 -0.8295 -0.0233  0.2344
  604MPD2     H 9006   0.095   0.432  16.640  0.2331  1.1705  2.1860
  604MPD2    H1 9007   0.465   0.215  16.597 -1.5575 -0.6933 -1.2637
  604MPD2    H2 9008   0.414   0.457  16.933  0.8452  0.0851 -1.1417
  604MPD2    H3 9009   0.540   0.305  16.810 -0.4809 -0.9089 -1.0654
  604MPD2     N 9010   0.222   0.269  16.478  0.0449  0.1266  0.5181
  604MPD2    H5 9011   0.121   0.273  16.464  0.1337 -0.8360 -0.3724
  604MPD2    N1 9012   0.167   0.518  16.892  0.3435  0.0238 -0.2088
  604MPD2    H7 9013   0.218   0.554  16.972 -2.5807  0.4520  1.4595
  605TMC3    C1 9014   0.012   0.698  16.925 -1.3379 -0.0202  0.5050
  605TMC3    C2 9015   0.105   0.770  16.995 -0.0478 -0.4680  0.0731
  605TMC3    C3 9016   0.075   0.891  17.052  0.1498  0.0634 -0.0500
  605TMC3    C4 9017   4.619   0.745  16.903 -0.6929  0.3186  0.9886
  605TMC3    C5 9018   4.597   0.872  16.950  0.8895 -0.3753 -0.2735
  605TMC3    C6 9019   4.685   0.945  17.028 -0.3009 -0.4692  0.3444
  605TMC3     C 9020   0.040   0.566  16.861 -0.2142  0.3982  0.1132
  605TMC3     O 9021   4.685   0.514  16.796 -0.3102  0.2660 -0.7431
  605TMC3     H 9022   0.205   0.730  17.011  0.6164  0.5036 -1.6414
  605TMC3    H1 9023   4.551   0.681  16.848  0.4291 -0.0630  0.0463
  605TMC3    H2 9024   4.657   1.041  17.070  1.1792  0.0799  0.0882
  605TMC3    C7 9025   4.470   0.933  16.914  0.2085 -0.3946  0.1135
  605TMC3    C8 9026   0.189   0.976  17.085 -0.1703  0.2855  0.3816
  605TMC3    O1 9027   4.468   1.052  16.945 -0.0913  0.2597  0.3485
  605TMC3    O2 9028   0.286   0.910  17.119 -0.3657 -0.2729 -0.0710
  606TMC3    C1 9029   1.044   3.467   0.033 -0.1504 -0.2193  0.1663
  606TMC3    C2 9030   1.177   3.497   0.060 -0.4908 -0.0422 -0.3135
  606TMC3    C3 9031   1.268   3.412   0.004 -0.3504  0.5339 -0.5022
  606TMC3    C4 9032   1.007   3.364  17.692  0.1725 -0.2807 -0.5729
  606TMC3    C5 9033   1.105   3.281  17.641 -1.1980 -0.5469  0.4893
  606TMC3    C6 9034   1.238   3.310  17.661  0.6079  0.6041  0.4184
  606TMC3     C 9035   0.946   3.502   0.131  0.2080  0.3206 -0.0049
  606TMC3     O 9036   0.887   3.407   0.181 -0.1186  0.3365 -0.0642
  606TMC3     H 9037   1.209   3.584   0.116 -0.5235 -0.0290 -0.3152
  606TMC3    H1 9038   0.900   3.348  17.690  0.3706 -1.8387  1.1700
  606TMC3    H2 9039   1.304   3.245  17.604  0.1971  0.2605  0.3360
  606TMC3    C7 9040   1.061   3.184  17.538  0.8912  0.7584 -0.6257
  606TMC3    C8 9041   1.408   3.416   0.042  0.1946  0.4247  0.3062
  606TMC3    O1 9042   1.149   3.126  17.472  0.3976  0.5693  0.1836
  606TMC3    O2 9043   1.443   3.487   0.136  0.9993  0.2080  0.1191
  607MPD2     C 9044   3.057   1.508  12.125  0.9918 -0.1254 -0.8411
  607MPD2    C1 9045   3.133   1.534  12.233  0.1193  0.0414  0.2965
  607MPD2    C2 9046   3.164   1.436  12.324 -1.0215 -0.6755  0.8954
  607MPD2    C3 9047   3.148   1.305  12.295  0.5277 -0.5192  0.1217
  607MPD2    C4 9048   3.071   1.277  12.185 -0.0946  0.1150 -0.2138
  607MPD2    C5 9049   3.025   1.379  12.104  0.2641  0.1357  0.4645
  607MPD2     H 9050   3.216   1.462  12.415 -0.0133  0.3248  0.0444
  607MPD2    H1 9051   3.052   1.173  12.159 -1.7684  0.0680  1.1761
  607MPD2    H2 9052   3.033   1.580  12.048  1.2037  0.8859  0.0374
  607MPD2    H3 9053   2.979   1.349  12.011  1.3582 -0.9026  0.2515
  607MPD2     N 9054   3.203   1.210  12.383  0.3048 -0.0736 -0.4634
  607MPD2    H5 9055   3.257   1.254  12.456  1.1503  0.9503 -1.6996
  607MPD2    N1 9056   3.174   1.661  12.268  0.0543 -0.2391  0.2490
  607MPD2    H7 9057   3.212   1.668  12.362  2.2291 -1.6041 -0.5458
  608TMC3    C1 9058   3.299   1.869  12.231 -0.5607 -0.1275 -0.4695
  608TMC3    C2 9059   3.357   1.857  12.352  0.3338  0.1530 -0.6853
  608TMC3    C3 9060   3.478   1.923  12.376  0.4500  0.0564 -0.3111
  608TMC3    C4 9061   3.352   1.936  12.128 -0.4642 -0.3629 -0.2590
  608TMC3    C5 9062   3.480   1.972  12.150 -0.3478 -0.0518  0.0435
  608TMC3    C6 9063   3.535   1.987  12.273 -0.6089 -0.2073  0.1296
  608TMC3     C 9064   3.214   1.759  12.182 -0.0435  0.1645  0.5302
  608TMC3     O 9065   3.189   1.762  12.064 -0.3324 -0.8106 -0.7996
  608TMC3     H 9066   3.307   1.811  12.436  1.6395  1.8347  1.0265
  608TMC3    H1 9067   3.304   1.943  12.031  0.4508  3.0685 -0.4853
  608TMC3    H2 9068   3.636   2.026  12.281 -0.2097 -1.2274  0.0534
  608TMC3    C7 9069   3.532   2.052  12.044  1.6212  0.2204  0.3104
  608TMC3    C8 9070   3.562   1.889  12.482 -0.0209  0.3941 -0.0502
  608TMC3    O1 9071   3.538   1.996  11.934  0.0984 -0.4504  0.7221
  608TMC3    O2 9072   3.662   1.956  12.506 -0.2524 -0.4484 -0.3610
  609TMC3    C1 9073   1.429   1.077   9.877 -0.0955  0.4428 -0.2406
  609TMC3    C2 9074   1.451   1.207   9.837 -0.3825  0.0998  0.2928
  609TMC3    C3 9075   1.585   1.228   9.807 -0.3092 -0.5302  0.0031
  609TMC3    C4 9076   1.528   0.984   9.911  0.3668 -0.3773 -0.1427
  609TMC3    C5 9077   1.658   1.025   9.900  0.4170 -1.0356 -0.1036
  609TMC3    C6 9078   1.689   1.145   9.848  0.0457 -0.1165  0.1766
  609TMC3     C 9079   1.297   1.034   9.911 -0.6867  0.1907  0.2328
  609TMC3     O 9080   1.283   0.954   9.999 -0.1265  0.2015 -0.0541
  609TMC3     H 9081   1.376   1.283   9.817  0.4200  0.3100 -1.9064
  609TMC3    H1 9082   1.494   0.888   9.947 -0.0105  0.0333  0.5942
  609TMC3    H2 9083   1.791   1.181   9.843  0.3590 -0.9249  0.9029
  609TMC3    C7 9084   1.765   0.936   9.930 -0.1899  0.5876 -0.5921
  609TMC3    C8 9085   1.609   1.359   9.753 -0.0021 -0.9747 -0.3556
  609TMC3    O1 9086   1.880   0.973   9.909  0.6028 -0.4104  0.3170
  609TMC3    O2 9087   1.519   1.443   9.749  0.1235  0.4546 -0.0224
  610TMC3    C1 9088   3.296   0.237  14.058 -0.2607  0.3046 -0.3870
  610TMC3    C2 9089   3.282   0.104  14.018 -0.5753  0.7185  0.1095
  610TMC3    C3 9090   3.382   0.050  13.940  0.3551  0.2261  0.9190
  610TMC3    C4 9091   3.404   0.313  14.018 -0.4123  0.1803  0.2258
  610TMC3    C5 9092   3.508   0.247  13.960 -1.0060  0.5724  0.6207
  610TMC3    C6 9093   3.496   0.116  13.916  0.5116  0.5310  0.2294
  610TMC3     C 9094   3.181   0.306  14.109 -0.0012  0.1971 -0.0526
  610TMC3     O 9095   3.160   0.413  14.052  0.1388 -0.5515  1.3097
  610TMC3     H 9096   3.191   0.052  14.046  0.2158 -1.3002 -1.0182
  610TMC3    H1 9097   3.400   0.417  14.047 -1.0665  0.1080  0.4137
  610TMC3    H2 9098   3.579   0.058  13.877  0.0028  1.7323 -2.5803
  610TMC3    C7 9099   3.625   0.328  13.921  0.0248 -0.1582  0.2893
  610TMC3    C8 9100   3.368   4.651  13.894 -0.4482  0.4077 -1.2948
  610TMC3    O1 9101   3.678   0.289  13.819  0.6581 -0.1035 -0.1626
  610TMC3    O2 9102   3.303   4.582  13.969  0.4023  0.3755 -0.3228
  611MPD2     C 9103   3.580   1.509  10.743  0.0768 -0.1727 -0.1211
  611MPD2    C1 9104   3.487   1.554  10.652 -0.4565  0.7128 -0.2395
  611MPD2    C2 9105   3.520   1.656  10.564  0.1748  0.0564  0.4582
  611MPD2    C3 9106   3.644   1.725  10.578 -0.7313 -0.0603 -0.1140
  611MPD2    C4 9107   3.731   1.683  10.684 -0.1605  0.4728  0.4072
  611MPD2    C5 9108   3.699   1.570  10.755  0.0224  0.5334  0.0249
  611MPD2     H 9109   3.444   1.696  10.498  1.2897  1.3864 -0.0306
  611MPD2    H1 9110   3.822   1.737  10.708 -0.1517  0.1501  1.0845
  611MPD2    H2 9111   3.555   1.424  10.807 -0.9091  0.5451  0.4514
  611MPD2    H3 9112   3.765   1.533  10.833 -0.6953 -0.4708  0.1497
  611MPD2     N 9113   3.702   1.828  10.495 -0.5026  0.4407  0.9088
  611MPD2    H5 9114   3.774   1.885  10.537  0.4072 -0.9712  1.2547
  611MPD2    N1 9115   3.367   1.487  10.670 -0.2416 -0.0582  0.0451
  611MPD2    H7 9116   3.364   1.427  10.752 -0.2345 -0.0849  0.0261
  612TMC3    C1 9117   3.728   1.988  10.332 -0.0683 -0.2490  0.3145
  612TMC3    C2 9118   3.854   2.002  10.382 -0.1642 -0.2989  0.3123
  612TMC3    C3 9119   3.919   2.114  10.351 -0.1044  0.1636 -0.0839
  612TMC3    C4 9120   3.663   2.077  10.259  0.0833 -0.0098 -0.3635
  612TMC3    C5 9121   3.730   2.194  10.242 -0.7266 -0.2816 -0.4724
  612TMC3    C6 9122   3.862   2.215  10.280 -0.1582  0.2943 -0.7150
  612TMC3     C 9123   3.649   1.878  10.380 -0.9065 -0.3006 -0.9018
  612TMC3     O 9124   3.534   1.866  10.336  0.0397  0.4264 -0.1766
  612TMC3     H 9125   3.900   1.911  10.419  0.4950 -0.1594 -0.1697
  612TMC3    H1 9126   3.562   2.070  10.220  0.0591 -0.0083 -0.3021
  612TMC3    H2 9127   3.923   2.302  10.260 -0.5252  0.7334  0.0778
  612TMC3    C7 9128   3.653   2.305  10.220  0.2959 -0.2437 -0.2458
  612TMC3    C8 9129   4.053   2.134  10.394 -0.4105 -0.8271  0.7737
  612TMC3    O1 9130   3.559   2.296  10.139 -0.2502  0.3658 -0.5432
  612TMC3    O2 9131   4.126   2.210  10.330 -0.0295 -0.3087  0.4890
  613MPD2     C 9132   2.461   3.436  16.843  0.0493  0.7927  0.0777
  613MPD2    C1 9133   2.392   3.534  16.774  0.7824  0.5100 -0.1955
  613MPD2    C2 9134   2.326   3.492  16.659  0.1450  0.0682 -0.3053
  613MPD2    C3 9135   2.328   3.363  16.618  0.2388  0.4838 -0.0462
  613MPD2    C4 9136   2.393   3.268  16.693 -0.5269  0.6406 -0.3315
  613MPD2    C5 9137   2.462   3.299  16.811  0.0325 -0.4105 -0.1241
  613MPD2     H 9138   2.273   3.567  16.601 -0.8919 -0.8228 -0.5087
  613MPD2    H1 9139   2.396   3.166  16.656 -0.3702  0.5382 -0.0391
  613MPD2    H2 9140   2.503   3.466  16.938  1.7864  2.4582 -1.2339
  613MPD2    H3 9141   2.525   3.232  16.869  2.2245  0.2051 -1.7688
  613MPD2     N 9142   2.265   3.325  16.505  0.1319 -0.2927  0.0120
  613MPD2    H5 9143   2.278   3.233  16.465 -0.2616 -0.1476 -0.4484
  613MPD2    N1 9144   2.399   3.671  16.816 -0.3987 -0.1631 -0.2062
  613MPD2    H7 9145   2.477   3.709  16.869  0.5224 -1.9388 -0.2725
  614TMC3    C1 9146   2.385   3.889  16.760 -0.5930  0.0912  0.4237
  614TMC3    C2 9147   2.501   3.876  16.685 -0.2666 -0.8874  0.3204
  614TMC3    C3 9148   2.519   3.953  16.576  0.4324  0.5268 -0.2116
  614TMC3    C4 9149   2.301   3.996  16.741  0.7173 -0.4853 -0.4127
  614TMC3    C5 9150   2.318   4.082  16.633  0.8879 -0.5943 -0.4318
  614TMC3    C6 9151   2.430   4.056  16.553  0.5176  0.2332  0.2758
  614TMC3     C 9152   2.314   3.761  16.775 -0.2949  0.5643 -0.9374
  614TMC3     O 9153   2.200   3.742  16.734  0.1444 -0.2883  0.4676
  614TMC3     H 9154   2.574   3.798  16.705 -1.6591 -2.2351  0.1698
  614TMC3    H1 9155   2.211   4.003  16.801  0.4801  2.4441 -1.0882
  614TMC3    H2 9156   2.447   4.127  16.473 -1.3271 -0.0612 -0.3672
  614TMC3    C7 9157   2.224   4.189  16.606 -0.1013  0.4818  0.4049
  614TMC3    C8 9158   2.551   3.871  16.459 -0.1186  0.4587 -0.0354
  614TMC3    O1 9159   2.170   4.250  16.699 -0.1087 -0.4200 -0.0013
  614TMC3    O2 9160   2.570   3.753  16.486  0.0041 -0.0425  0.6069
  615MPD2     C 9161   1.800   0.376  15.929 -0.0883  0.1858 -0.2309
  615MPD2    C1 9162   1.705   0.464  15.986 -0.2235 -0.6249  0.0720
  615MPD2    C2 9163   1.618   0.527  15.900  0.6164  0.0125  0.8623
  615MPD2    C3 9164   1.623   0.514  15.765  0.1881 -0.1329  0.8853
  615MPD2    C4 9165   1.719   0.433  15.713 -0.1872  0.1698 -0.7498
  615MPD2    C5 9166   1.809   0.367  15.792  0.2984  0.6269  0.5665
  615MPD2     H 9167   1.551   0.601  15.943 -0.1404 -0.3321  0.2699
  615MPD2    H1 9168   1.719   0.419  15.605  0.6127  0.5131 -0.8021
  615MPD2    H2 9169   1.865   0.310  15.985  0.0389  1.7479  1.4392
  615MPD2    H3 9170   1.876   0.295  15.747 -0.0422  2.0637 -2.2274
  615MPD2     N 9171   1.525   0.561  15.678  0.4606 -0.4959  0.0462
  615MPD2    H5 9172   1.547   0.549  15.580 -1.2864 -1.0188 -0.2841
  615MPD2    N1 9173   1.703   0.497  16.128 -0.2989  0.5938 -0.9365
  615MPD2    H7 9174   1.630   0.555  16.167 -1.4532 -0.8575 -0.8952
  616TMC3    C1 9175   1.802   0.513  16.344  0.0678 -0.0591  0.0621
  616TMC3    C2 9176   1.916   0.494  16.414  0.1064 -0.3583  0.5381
  616TMC3    C3 9177   1.918   0.489  16.549  0.4729  0.7279 -0.8994
  616TMC3    C4 9178   1.684   0.534  16.406 -0.3650  0.1463  0.1090
  616TMC3    C5 9179   1.685   0.531  16.543 -0.2723 -0.3856  0.5210
  616TMC3    C6 9180   1.802   0.509  16.616  0.6866  0.1582  0.0070
  616TMC3     C 9181   1.803   0.451  16.216  0.3602  0.3760  0.4869
  616TMC3     O 9182   1.879   0.354  16.198  0.3657 -0.6963  0.1346
  616TMC3     H 9183   2.006   0.467  16.359  0.5911  0.9349  0.6850
  616TMC3    H1 9184   1.597   0.530  16.342 -1.2138 -0.2353  1.2800
  616TMC3    H2 9185   1.803   0.523  16.723  1.3579  0.1581  0.0030
  616TMC3    C7 9186   1.565   0.536  16.621 -0.2003 -0.6381  0.3965
  616TMC3    C8 9187   2.040   0.505  16.614  0.0540 -0.2426 -0.0307
  616TMC3    O1 9188   1.582   0.557  16.742 -0.6896  0.2329  0.2726
  616TMC3    O2 9189   2.135   0.554  16.557 -0.4914  0.1388  0.0214
  617MPD2     C 9190   0.617   2.837  13.739  0.0624 -0.0017 -0.1056
  617MPD2    C1 9191   0.549   2.946  13.791  0.5850  0.5585 -0.3990
  617MPD2    C2 9192   0.412   2.953  13.796 -0.2040 -0.1905  0.1815
  617MPD2    C3 9193   0.336   2.851  13.731 -0.3582 -0.0818 -0.0849
  617MPD2    C4 9194   0.405   2.753  13.665 -0.8052 -0.7475 -0.1452
  617MPD2    C5 9195   0.539   2.747  13.677 -0.5244 -0.1405  1.1704
  617MPD2     H 9196   0.356   3.021  13.860 -1.5497  0.4863 -1.7185
  617MPD2    H1 9197   0.363   2.664  13.619 -0.8434  0.2204 -2.0015
  617MPD2    H2 9198   0.725   2.828  13.740  0.1490  1.1756  1.3922
  617MPD2    H3 9199   0.587   2.659  13.634 -0.7053  0.3004  0.0610
  617MPD2     N 9200   0.191   2.851  13.744  0.2138 -0.4429 -0.4044
  617MPD2    H5 9201   0.144   2.766  13.713 -0.8702  0.4842 -1.3425
  617MPD2    N1 9202   0.626   3.043  13.862 -0.0955 -0.0374 -0.3118
  617MPD2    H7 9203   0.725   3.024  13.874 -0.0087  1.1613  0.9007
  618TMC3    C1 9204   0.698   3.245  13.954 -0.4465  0.2248 -0.0837
  618TMC3    C2 9205   0.780   3.171  14.034 -0.1530 -0.1803  0.3979
  618TMC3    C3 9206   0.912   3.203  14.034 -0.1131 -0.5423  0.2311
  618TMC3    C4 9207   0.738   3.340  13.865 -0.6511 -0.4294  0.0929
  618TMC3    C5 9208   0.874   3.362  13.867 -0.3615  0.1006 -0.6891
  618TMC3    C6 9209   0.961   3.301  13.957  0.2971 -1.0140 -0.6902
  618TMC3     C 9210   0.582   3.169  13.899  0.3519 -0.4544 -0.0381
  618TMC3     O 9211   0.476   3.224  13.873  0.4036  0.5035  0.4577
  618TMC3     H 9212   0.742   3.077  14.073 -1.7503  0.5614  0.6149
  618TMC3    H1 9213   0.675   3.385  13.789 -1.9559  1.5484  2.3313
  618TMC3    H2 9214   1.066   3.322  13.938 -0.8591  2.5668 -2.9512
  618TMC3    C7 9215   0.907   3.481  13.800  0.1424 -0.0395  0.4613
  618TMC3    C8 9216   0.992   3.114  14.116  1.0568  0.4502  0.8501
  618TMC3    O1 9217   0.836   3.583  13.813 -0.6156  0.0095 -0.1697
  618TMC3    O2 9218   0.939   3.013  14.146  0.0661 -0.0224  0.3058
  619MPD2     C 9219   1.336   4.356  13.200  0.0918 -0.5284 -0.0930
  619MPD2    C1 9220   1.215   4.429  13.219  0.3326  0.1708  0.5371
  619MPD2    C2 9221   1.098   4.365  13.216 -0.5017 -0.4968 -0.8611
  619MPD2    C3 9222   1.096   4.231  13.180 -0.1073 -0.3180 -0.5037
  619MPD2    C4 9223   1.213   4.164  13.170  0.3359  0.2258 -0.4662
  619MPD2    C5 9224   1.331   4.224  13.173  1.1046 -0.3499  0.9378
  619MPD2     H 9225   1.000   4.409  13.232 -1.1077 -0.8371 -3.6782
  619MPD2    H1 9226   1.216   4.061  13.134 -0.0116 -0.5001  1.5647
  619MPD2    H2 9227   1.436   4.397  13.191  0.3795 -1.3360 -0.6322
  619MPD2    H3 9228   1.420   4.164  13.164  0.5185 -1.4732  2.5901
  619MPD2     N 9229   0.969   4.160  13.176 -0.3268 -0.1127  0.2912
  619MPD2    H5 9230   0.975   4.059  13.166  1.4656 -0.1819  2.1168
  619MPD2    N1 9231   1.219   4.569  13.245 -0.4961 -0.5117  0.5121
  619MPD2    H7 9232   1.308   4.614  13.265 -2.9098  4.5979 -0.1882
  620TMC3    C1 9233   1.128   0.059  13.266 -0.7234  0.7211 -0.5002
  620TMC3    C2 9234   1.027   0.135  13.230 -0.7628  0.0741 -0.1008
  620TMC3    C3 9235   1.012   0.263  13.279  0.1422 -0.2586 -0.5453
  620TMC3    C4 9236   1.209   0.083  13.372 -0.2681  0.0830  0.3799
  620TMC3    C5 9237   1.183   0.208  13.425 -0.4130  0.3781 -0.7154
  620TMC3    C6 9238   1.098   0.304  13.373  0.6648 -0.1044  0.1128
  620TMC3     C 9239   1.112   4.653  13.245  0.8935 -0.5812  0.7229
  620TMC3     O 9240   0.997   4.629  13.205 -0.3893  0.1933  0.3408
  620TMC3     H 9241   0.976   0.106  13.139 -0.3100  0.1584 -0.3840
  620TMC3    H1 9242   1.284   0.018  13.415  1.1619  1.4138 -0.1014
  620TMC3    H2 9243   1.096   0.403  13.417 -0.1570  0.4114 -1.1053
  620TMC3    C7 9244   1.181   0.194  13.573 -0.1367 -0.4670  0.7774
  620TMC3    C8 9245   0.878   0.272  13.340  0.0847  0.2905 -0.3465
  620TMC3    O1 9246   1.254   0.112  13.622  0.4702  0.5267 -0.0727
  620TMC3    O2 9247   0.835   0.173  13.399  0.5514  0.2791  0.1896
  621MPD2     C 9248   1.470   4.405  10.242  0.1932 -0.2129  0.0864
  621MPD2    C1 9249   1.586   4.334  10.262 -0.7156  0.9196 -0.8329
  621MPD2    C2 9250   1.700   4.393  10.292 -0.3773 -0.1952 -0.5678
  621MPD2    C3 9251   1.717   4.536  10.280 -0.8728  0.0684 -0.1533
  621MPD2    C4 9252   1.605   4.607  10.236  0.0543  0.2343 -0.5778
  621MPD2    C5 9253   1.489   4.536  10.220 -0.7630  1.1016  0.2315
  621MPD2     H 9254   1.784   4.341  10.335  0.3736  0.5250 -1.1619
  621MPD2    H1 9255   1.601   4.715  10.226  1.8063  0.3960  0.4559
  621MPD2    H2 9256   1.374   4.365  10.214  1.2272 -2.5854 -0.1039
  621MPD2    H3 9257   1.399   4.593  10.200 -1.4068  0.8230  2.3491
  621MPD2     N 9258   1.837   4.600  10.334  0.3694  0.6667 -0.4052
  621MPD2    H5 9259   1.910   4.542  10.374 -1.2259 -0.3405  1.0546
  621MPD2    N1 9260   1.584   4.197  10.268 -0.1042 -0.3490  0.0416
  621MPD2    H7 9261   1.665   4.147  10.303 -0.1651 -0.3765  0.1452
  622TMC3    C1 9262   1.494   3.983  10.260  0.2442  0.3310  0.7819
  622TMC3    C2 9263   1.377   3.937  10.319  0.4689 -0.1227  0.3132
  622TMC3    C3 9264   1.346   3.802  10.308  0.3992  0.1358  0.0755
  622TMC3    C4 9265   1.584   3.895  10.202 -0.0168 -0.0191 -0.7068
  622TMC3    C5 9266   1.546   3.764  10.196 -0.2414  0.1216 -0.4867
  622TMC3    C6 9267   1.429   3.716  10.248 -0.6937 -0.9341  0.5254
  622TMC3     C 9268   1.486   4.119  10.212 -0.7385 -0.0980  0.7472
  622TMC3     O 9269   1.385   4.142  10.147 -0.5471  0.3583 -0.1812
  622TMC3     H 9270   1.293   4.000  10.348  1.3578  1.3435 -0.2740
  622TMC3    H1 9271   1.680   3.923  10.158  0.9586 -2.0431  0.1424
  622TMC3    H2 9272   1.400   3.613  10.227  1.3909 -1.5862  0.8291
  622TMC3    C7 9273   1.584   3.694  10.075  0.4566  0.1225  0.3588
  622TMC3    C8 9274   1.213   3.744  10.351  0.2544  0.0791 -0.4051
  622TMC3    O1 9275   1.545   3.581  10.058  0.4615  1.0940 -0.0104
  622TMC3    O2 9276   1.190   3.630  10.318  0.1948  0.0687  0.2296
  623MPD2     C 9277   0.850   0.781  16.289 -0.1705 -0.3655 -0.3855
  623MPD2    C1 9278   0.748   0.787  16.381  0.1839  0.5404 -0.3818
  623MPD2    C2 9279   0.768   0.862  16.493 -0.2399 -0.2531 -0.8790
  623MPD2    C3 9280   0.881   0.936  16.524  0.4331 -0.7245  0.1369
  623MPD2    C4 9281   0.980   0.934  16.421 -0.2447 -0.2096 -0.1418
  623MPD2    C5 9282   0.962   0.856  16.310 -0.4104  0.2416 -0.3301
  623MPD2     H 9283   0.684   0.868  16.562  0.9698  4.0920  0.2349
  623MPD2    H1 9284   1.071   0.989  16.442 -1.6498  2.3045 -0.5149
  623MPD2    H2 9285   0.844   0.719  16.200  1.9165  0.3463 -1.0400
  623MPD2    H3 9286   1.044   0.851  16.240 -0.5054 -1.3694 -0.3225
  623MPD2     N 9287   0.885   1.009  16.644 -0.3768  0.6285 -0.0704
  623MPD2    H5 9288   0.807   0.993  16.707  0.0078  1.5120  0.6436
  623MPD2    N1 9289   0.627   0.712  16.370 -0.2547  0.0853 -0.0617
  623MPD2    H7 9290   0.558   0.743  16.439  1.2584  0.5978  1.2088
  624TMC3    C1 9291   1.057   1.042  17.067 -0.0233  0.6226  0.1769
  624TMC3    C2 9292   0.932   1.071  17.118  0.7544 -0.7716  0.4207
  624TMC3    C3 9293   0.839   1.122  17.031  0.2404 -0.2764  0.0869
  624TMC3    C4 9294   1.097   1.061  16.928  0.1948  0.3289 -0.6667
  624TMC3    C5 9295   0.993   1.089  16.842  0.2730  1.5945 -0.4696
  624TMC3    C6 9296   0.872   1.130  16.895 -0.1271 -0.2825  0.3288
  624TMC3     C 9297   1.152   0.978  17.159 -0.3501  0.6104  0.4346
  624TMC3     O 9298   1.109   0.924  17.260 -0.3917  0.4789 -0.2257
  624TMC3     H 9299   0.914   1.062  17.224 -1.0257 -1.8167  0.0220
  624TMC3    H1 9300   1.188   1.017  16.890  1.1415  1.4772  0.3017
  624TMC3    H2 9301   0.785   1.155  16.836  1.4331  2.2784 -0.9363
  624TMC3    C7 9302   1.004   1.055  16.701 -0.3724 -0.8786 -0.2159
  624TMC3    C8 9303   0.708   1.116  17.074  0.2713  0.0370  0.4289
  624TMC3    O1 9304   1.117   1.055  16.645  0.4481  0.1530 -0.8067
  624TMC3    O2 9305   0.668   0.999  17.098  0.5392  0.8745 -0.1721
  625MPD2     C 9306   0.865   1.723   1.069  0.2208  0.3643  0.3661
  625MPD2    C1 9307   0.897   1.858   1.072 -0.2334 -0.6809 -0.5551
  625MPD2    C2 9308   1.032   1.884   1.101 -0.2705  0.1108 -0.3813
  625MPD2    C3 9309   1.131   1.786   1.121  0.3364 -0.3319 -0.3498
  625MPD2    C4 9310   1.092   1.655   1.120  0.2220  0.1074  0.6155
  625MPD2    C5 9311   0.959   1.628   1.108 -0.0010 -0.3292  0.0909
  625MPD2     H 9312   1.065   1.987   1.107  0.6951 -0.3922  3.1925
  625MPD2    H1 9313   1.158   1.572   1.143  1.3230 -0.1347 -3.3824
  625MPD2    H2 9314   0.762   1.693   1.052  0.4779  0.8575 -2.0423
  625MPD2    H3 9315   0.924   1.526   1.115 -2.5554  0.4785 -1.1438
  625MPD2     N 9316   1.257   1.838   1.145  0.8155  0.5610  0.6207
  625MPD2    H5 9317   1.260   1.939   1.136  2.7393  0.4109 -0.4329
  625MPD2    N1 9318   0.806   1.966   1.051 -0.3517  0.2983  0.3379
  625MPD2    H7 9319   0.837   2.055   1.088 -1.0171  1.1164 -1.0553
  626TMC3    C1 9320   0.609   2.082   0.974 -0.3183  0.4673 -0.3141
  626TMC3    C2 9321   0.529   2.089   0.860 -0.7599 -0.0609 -0.0921
  626TMC3    C3 9322   0.477   2.207   0.827  0.8253 -0.2497 -0.2359
  626TMC3    C4 9323   0.614   2.178   1.071  0.3320 -0.4156 -0.3938
  626TMC3    C5 9324   0.542   2.289   1.041  0.2343  0.4719  0.9318
  626TMC3    C6 9325   0.470   2.308   0.924  0.0801  0.4617  0.1441
  626TMC3     C 9326   0.684   1.955   0.987 -0.0507  0.2205  0.2641
  626TMC3     O 9327   0.630   1.854   0.946  0.1751 -0.0173 -0.3067
  626TMC3     H 9328   0.527   2.003   0.793 -3.3358 -1.6794  2.1027
  626TMC3    H1 9329   0.655   2.169   1.171  1.2008  0.9039 -0.6358
  626TMC3    H2 9330   0.431   2.407   0.904  0.3471  0.5621  0.1155
  626TMC3    C7 9331   0.537   2.387   1.149 -0.3476 -0.3002  0.6224
  626TMC3    C8 9332   0.444   2.227   0.685  0.2158 -0.1788 -0.3188
  626TMC3    O1 9333   0.636   2.404   1.227  0.0075 -0.6763  0.3230
  626TMC3    O2 9334   0.472   2.136   0.611  0.0548  0.4584 -0.8163
  627MPD2     C 9335   4.036   2.024  14.237  0.9887  0.1470  0.4421
  627MPD2    C1 9336   4.029   2.006  14.376  0.2804  0.5130  0.4480
  627MPD2    C2 9337   3.947   1.901  14.428  0.1728 -0.5497 -0.6196
  627MPD2    C3 9338   3.877   1.816  14.348 -0.2234 -0.0362 -0.3163
  627MPD2    C4 9339   3.886   1.832  14.215  0.2427 -0.0069 -1.2900
  627MPD2    C5 9340   3.969   1.930  14.163  0.0940 -0.2576  0.5059
  627MPD2     H 9341   3.942   1.887  14.536 -0.3354 -0.1541 -0.5928
  627MPD2    H1 9342   3.833   1.771  14.142 -2.4551  1.5045 -0.5564
  627MPD2    H2 9343   4.101   2.098  14.194  1.2726  1.2861  2.8242
  627MPD2    H3 9344   3.972   1.936  14.055 -2.8339 -1.1423  0.3769
  627MPD2     N 9345   3.789   1.727  14.408 -0.6737  0.0196  0.0074
  627MPD2    H5 9346   3.792   1.725  14.509  0.8710 -1.0266 -0.0627
  627MPD2    N1 9347   4.108   2.090  14.465  0.2876 -0.1860 -0.3599
  627MPD2    H7 9348   4.093   2.080  14.565  0.6104  0.7939 -0.2139
  628TMC3    C1 9349   4.244   2.257  14.541 -0.1100  0.2939  0.2780
  628TMC3    C2 9350   4.309   2.189  14.635 -0.7274  0.0758 -0.0242
  628TMC3    C3 9351   4.371   2.252  14.736  0.0993  0.2075  0.3095
  628TMC3    C4 9352   4.257   2.388  14.531  0.0761 -0.0444 -0.1401
  628TMC3    C5 9353   4.328   2.453  14.625 -0.0375  0.3123  0.0363
  628TMC3    C6 9354   4.385   2.390  14.733 -0.3421 -0.2903  0.2992
  628TMC3     C 9355   4.187   2.197  14.426  0.0894  0.0610  0.1000
  628TMC3     O 9356   4.217   2.246  14.318  0.4754  0.5775  0.5876
  628TMC3     H 9357   4.304   2.081  14.620 -1.2123  0.5364 -3.1684
  628TMC3    H1 9358   4.192   2.440  14.462  1.9455  1.2268 -0.9656
  628TMC3    H2 9359   4.416   2.444  14.821  0.6425 -1.1196  0.4693
  628TMC3    C7 9360   4.337   2.596  14.613  0.2116  0.9213 -0.6053
  628TMC3    C8 9361   4.441   2.173  14.839 -0.3608  0.0404 -0.6445
  628TMC3    O1 9362   4.343   2.659  14.717  0.1020  0.3976 -0.3527
  628TMC3    O2 9363   4.413   2.055  14.833 -0.2206 -0.0126  0.5019
  629MPD2     C 9364   2.325   0.276  16.989  0.5942 -0.4764  0.5778
  629MPD2    C1 9365   2.363   0.361  16.887 -0.0243  0.1655  0.5430
  629MPD2    C2 9366   2.269   0.414  16.797  0.6676  0.5199 -0.2174
  629MPD2    C3 9367   2.138   0.383  16.811  0.3076 -0.1962 -0.1323
  629MPD2    C4 9368   2.102   0.306  16.923  0.6127  0.2969 -0.3235
  629MPD2    C5 9369   2.191   0.244  17.010 -0.6170 -0.1428 -0.0672
  629MPD2     H 9370   2.302   0.481  16.719 -0.6885 -0.5930 -1.7432
  629MPD2    H1 9371   2.000   0.270  16.929  1.2417 -1.8708 -2.4944
  629MPD2    H2 9372   2.394   0.224  17.055  0.8263 -2.9862 -1.6478
  629MPD2    H3 9373   2.151   0.177  17.085  0.5139  2.2881  2.6868
  629MPD2     N 9374   2.037   0.424  16.729 -0.6283  1.0000  0.1936
  629MPD2    H5 9375   1.951   0.373  16.748 -0.8428  0.8910 -1.0575
  629MPD2    N1 9376   2.502   0.379  16.865  0.0641 -0.1595 -0.7138
  629MPD2    H7 9377   2.558   0.332  16.936 -1.4932 -1.1364 -0.1374
  630TMC3    C1 9378   2.697   0.463  16.774  0.2090  0.5446 -0.1865
  630TMC3    C2 9379   2.736   0.579  16.709  0.6982 -0.4117 -0.5152
  630TMC3    C3 9380   2.864   0.622  16.741 -0.1541 -0.9322 -0.1679
  630TMC3    C4 9381   2.769   0.400  16.869  1.2741  0.3745  0.2931
  630TMC3    C5 9382   2.896   0.444  16.896  0.3741 -0.5498  0.3968
  630TMC3    C6 9383   2.943   0.560  16.836  0.5923  0.4214  0.0279
  630TMC3     C 9384   2.559   0.451  16.763 -0.1407 -0.1031 -0.7603
  630TMC3     O 9385   2.508   0.497  16.662  0.8512  0.0997  0.8360
  630TMC3     H 9386   2.676   0.630  16.634 -0.6975 -2.4211 -0.7823
  630TMC3    H1 9387   2.747   0.300  16.904 -0.9228  0.6778 -0.2480
  630TMC3    H2 9388   3.046   0.591  16.845  1.2517 -1.5781 -0.4897
  630TMC3    C7 9389   2.952   0.400  17.025 -0.7487  0.0265 -0.0176
  630TMC3    C8 9390   2.927   0.733  16.669 -0.2736 -0.1272  0.0711
  630TMC3    O1 9391   2.906   0.299  17.078  0.0303 -0.0348 -0.5710
  630TMC3    O2 9392   3.048   0.752  16.695 -0.4180 -0.2630 -1.2627
  631MPD2     C 9393   0.610   0.290  15.733  0.2606  0.3410 -0.6952
  631MPD2    C1 9394   0.596   0.396  15.646  0.3434  0.7147  0.7085
  631MPD2    C2 9395   0.716   0.445  15.596 -0.2795  0.2790  0.4470
  631MPD2    C3 9396   0.842   0.389  15.620  0.0132 -0.0030  0.2483
  631MPD2    C4 9397   0.843   0.278  15.708  0.1346  0.1088 -0.7759
  631MPD2    C5 9398   0.727   0.226  15.749 -0.0082 -0.0837 -0.4010
  631MPD2     H 9399   0.711   0.541  15.545  2.7332  0.8342  1.2043
  631MPD2    H1 9400   0.935   0.225  15.729 -0.6636 -1.8354 -2.1941
  631MPD2    H2 9401   0.528   0.248  15.790 -1.0833  1.6424 -1.6690
  631MPD2    H3 9402   0.721   0.134  15.807  3.9902 -1.6722 -2.4719
  631MPD2     N 9403   0.965   0.440  15.580 -0.4857  0.3789  0.0712
  631MPD2    H5 9404   1.053   0.404  15.616 -1.3092  1.1905  2.9601
  631MPD2    N1 9405   0.475   0.467  15.629  0.2811 -0.0047 -0.0020
  631MPD2    H7 9406   0.400   0.429  15.686 -1.6846  2.4016 -0.9844
  632TMC3    C1 9407   0.318   0.635  15.565 -0.0046 -0.1758 -0.1615
  632TMC3    C2 9408   0.285   0.671  15.690 -0.3089 -0.5824  0.4307
  632TMC3    C3 9409   0.225   0.798  15.717  0.0353 -0.7577 -0.1573
  632TMC3    C4 9410   0.275   0.713  15.464  0.0258 -0.0075 -0.4463
  632TMC3    C5 9411   0.206   0.828  15.485  1.0378  0.4709 -0.0905
  632TMC3    C6 9412   0.169   0.870  15.608 -0.1329 -0.6524  0.0185
  632TMC3     C 9413   0.445   0.564  15.535 -0.0309  0.9897  0.1367
  632TMC3     O 9414   0.511   0.605  15.442  0.1398  0.2944  0.0765
  632TMC3     H 9415   0.332   0.626  15.777  2.6318  1.5230 -0.0355
  632TMC3    H1 9416   0.308   0.690  15.363 -1.2413  2.7172 -1.5022
  632TMC3    H2 9417   0.105   0.957  15.615  2.0793  1.0320 -0.6064
  632TMC3    C7 9418   0.253   0.940  15.403  0.6128  0.4235 -0.2735
  632TMC3    C8 9419   0.232   0.865  15.846 -0.7693 -0.6823  0.1002
  632TMC3    O1 9420   0.278   0.911  15.286  0.4067  0.0147 -0.0341
  632TMC3    O2 9421   0.141   0.940  15.869 -0.4889  0.2058  0.5515
  633MPD2     C 9422   0.703   3.576  17.570 -0.3215  0.0326  0.4097
  633MPD2    C1 9423   0.659   3.567  17.439 -0.1456 -0.8106  0.2440
  633MPD2    C2 9424   0.561   3.482  17.400  0.1005 -0.1083  0.0598
  633MPD2    C3 9425   0.499   3.397  17.498 -0.2501  0.0852  0.1874
  633MPD2    C4 9426   0.539   3.415  17.630  0.4785  0.5793 -0.1009
  633MPD2    C5 9427   0.636   3.504  17.670  0.1383 -0.5476 -0.2399
  633MPD2     H 9428   0.527   3.464  17.298  0.9449  3.0194 -0.7623
  633MPD2    H1 9429   0.487   3.360  17.708  2.3193 -2.2748 -0.8793
  633MPD2    H2 9430   0.773   3.651  17.606 -2.5500  2.2690  0.0378
  633MPD2    H3 9431   0.665   3.522   0.031  0.3586 -0.7106 -0.2743
  633MPD2     N 9432   0.394   3.301  17.479 -0.2300  0.5876 -0.6676
  633MPD2    H5 9433   0.352   3.250  17.556 -1.4342 -0.7505 -2.2085
  633MPD2    N1 9434   0.714   3.655  17.343 -0.1584  0.1664  0.1304
  633MPD2    H7 9435   0.663   3.654  17.255  1.1557 -0.3354 -0.6251
  634TMC3    C1 9436   0.860   3.793  17.237  0.2023  0.1833  0.0298
  634TMC3    C2 9437   0.904   3.703  17.143  0.4073  0.7943  0.3225
  634TMC3    C3 9438   0.864   3.719  17.012 -0.1916  0.3374  0.5946
  634TMC3    C4 9439   0.782   3.896  17.202 -0.5127  0.0091 -0.6145
  634TMC3    C5 9440   0.729   3.908  17.074  0.7639 -0.2463  0.2453
  634TMC3    C6 9441   0.768   3.817  16.977  0.5484 -0.4837  0.0502
  634TMC3     C 9442   0.829   3.731  17.360 -0.2566 -0.2254  0.6078
  634TMC3     O 9443   0.900   3.751  17.457  0.6105  0.0504 -0.2583
  634TMC3     H 9444   0.966   3.620  17.175 -1.4066  0.4651  3.0049
  634TMC3    H1 9445   0.748   3.959  17.284  0.3791 -0.2211 -0.0660
  634TMC3    H2 9446   0.726   3.816  16.877  0.5222 -2.8747  0.0681
  634TMC3    C7 9447   0.640   4.017  17.042  0.9797 -1.0312  0.7513
  634TMC3    C8 9448   0.889   3.610  16.917 -0.3531  0.0893  0.3032
  634TMC3    O1 9449   0.652   4.050  16.929  0.0876  0.0812  0.4973
  634TMC3    O2 9450   0.922   3.500  16.962  0.0769  0.2809 -0.1766
  635TMC3    C1 9451   1.591   4.193   0.495 -0.5550 -0.2098 -0.4215
  635TMC3    C2 9452   1.553   4.145   0.372 -0.1403  0.4379  0.6071
  635TMC3    C3 9453   1.500   4.017   0.373  0.1082 -0.0485  0.2107
  635TMC3    C4 9454   1.575   4.130   0.615  0.0266 -0.1334 -0.0336
  635TMC3    C5 9455   1.527   3.999   0.611  0.2859 -0.2891  0.1289
  635TMC3    C6 9456   1.484   3.943   0.491 -0.3498 -0.0633  0.0965
  635TMC3     C 9457   1.621   4.335   0.514 -0.1295  0.3733  0.0520
  635TMC3     O 9458   1.654   4.381   0.620  0.0062 -0.1077  0.2044
  635TMC3     H 9459   1.581   4.176   0.272  1.1381  2.9981  1.7423
  635TMC3    H1 9460   1.597   4.181   0.709  0.8561 -0.4641 -0.0593
  635TMC3    H2 9461   1.439   3.844   0.488 -1.4671  0.3907  1.4370
  635TMC3    C7 9462   1.485   3.937   0.731 -0.4905  0.1917  0.1223
  635TMC3    C8 9463   1.472   3.940   0.247 -0.1982 -0.2847 -0.8392
  635TMC3    O1 9464   1.431   3.832   0.717  0.2384  0.2405  0.2756
  635TMC3    O2 9465   1.456   3.820   0.258  0.2908  0.1664  0.0404
  636MPD2     C 9466   1.745   4.010  16.110 -0.0238  0.1005  0.1278
  636MPD2    C1 9467   1.793   3.965  16.227 -0.5506 -0.5549  0.4103
  636MPD2    C2 9468   1.872   3.852  16.232 -0.1029  0.7686  0.4284
  636MPD2    C3 9469   1.901   3.784  16.114 -0.1656 -0.8442  0.6244
  636MPD2    C4 9470   1.851   3.825  15.993  0.0250 -0.0752  0.5028
  636MPD2    C5 9471   1.773   3.939  15.994  0.2777 -0.2182  0.0078
  636MPD2     H 9472   1.912   3.813  16.325  0.9809  0.2423 -0.2630
  636MPD2    H1 9473   1.861   3.769  15.901 -1.2960  0.1313  0.2300
  636MPD2    H2 9474   1.692   4.103  16.093 -1.2449 -0.4750  0.7036
  636MPD2    H3 9475   1.723   3.965  15.901 -1.6223 -0.2023  1.0387
  636MPD2     N 9476   1.972   3.664  16.133  0.0908  0.2238 -0.2500
  636MPD2    H5 9477   1.996   3.628  16.225  0.1040 -0.6064 -0.5754
  636MPD2    N1 9478   1.784   4.036  16.346  0.6476  0.3237 -0.3499
  636MPD2    H7 9479   1.831   3.992  16.424  1.1964 -2.6231 -2.3415
  637TMC3    C1 9480   2.117   3.488  16.106  0.5471  0.5925  0.0084
  637TMC3    C2 9481   2.078   3.434  16.222 -0.2488  0.3631  0.2450
  637TMC3    C3 9482   2.169   3.354  16.287  0.7289  0.0823 -0.0004
  637TMC3    C4 9483   2.237   3.462  16.042  0.3286  0.6723 -0.0867
  637TMC3    C5 9484   2.327   3.388  16.108  0.7827  0.2116 -0.1969
  637TMC3    C6 9485   2.286   3.333  16.226  0.7253  0.8316 -0.2036
  637TMC3     C 9486   2.034   3.589  16.040 -0.4136 -0.9135 -0.0420
  637TMC3     O 9487   2.037   3.614  15.919  0.0113 -0.0636  1.0075
  637TMC3     H 9488   1.983   3.460  16.269  0.8488  1.8088  1.6702
  637TMC3    H1 9489   2.241   3.498  15.939  1.3027 -0.1313 -0.3293
  637TMC3    H2 9490   2.367   3.286  16.280  1.4633 -0.3796 -2.3416
  637TMC3    C7 9491   2.443   3.470  16.131 -0.0566 -0.0712 -0.1327
  637TMC3    C8 9492   2.178   3.395  16.425 -0.1487  0.1292  0.8238
  637TMC3    O1 9493   2.519   3.448  16.227 -0.1045 -0.4491  0.1751
  637TMC3    O2 9494   2.128   3.504  16.444  0.0451 -0.1049 -0.6495
  638MPD2     C 9495   1.822   2.611  15.188  0.2323  0.2478  0.1879
  638MPD2    C1 9496   1.727   2.516  15.168  0.1225 -0.3636  0.2760
  638MPD2    C2 9497   1.660   2.456  15.273  0.9836  0.3065 -0.7296
  638MPD2    C3 9498   1.700   2.478  15.399 -0.2961  0.6944 -0.1644
  638MPD2    C4 9499   1.788   2.579  15.428  0.4780 -0.0182 -0.7218
  638MPD2    C5 9500   1.840   2.645  15.317  0.3447 -0.3289 -0.0104
  638MPD2     H 9501   1.585   2.382  15.251  1.9452 -1.1809  0.9359
  638MPD2    H1 9502   1.808   2.600  15.533 -1.1877 -1.2002 -0.1686
  638MPD2    H2 9503   1.873   2.666  15.110 -2.7712  3.0435  0.2415
  638MPD2    H3 9504   1.910   2.723  15.343  1.9206 -1.7260 -0.0651
  638MPD2     N 9505   1.650   2.390  15.497  0.0559 -0.2158 -0.8940
  638MPD2    H5 9506   1.569   2.333  15.475 -1.7913  2.0306  0.1530
  638MPD2    N1 9507   1.698   2.466  15.040 -0.1995  0.3837 -0.1263
  638MPD2    H7 9508   1.629   2.392  15.037 -0.2927  0.5274 -1.5110
  639TMC3    C1 9509   1.669   2.246  15.674 -0.2011 -0.1874  0.4324
  639TMC3    C2 9510   1.539   2.214  15.641 -0.8194 -0.2582  0.6682
  639TMC3    C3 9511   1.495   2.088  15.600 -0.2784 -0.4499  0.5762
  639TMC3    C4 9512   1.764   2.149  15.642  0.1726  0.6868  0.3649
  639TMC3    C5 9513   1.723   2.031  15.584  0.2729  0.0298  0.4946
  639TMC3    C6 9514   1.593   2.003  15.557  0.3071 -0.9321 -0.0376
  639TMC3     C 9515   1.713   2.368  15.623 -0.6882  0.7526  0.1111
  639TMC3     O 9516   1.826   2.401  15.656  0.0821  0.2145  0.2834
  639TMC3     H 9517   1.465   2.288  15.669 -2.5482 -2.1596  1.0158
  639TMC3    H1 9518   1.866   2.165  15.675  0.6593  0.7320 -1.1718
  639TMC3    H2 9519   1.571   1.918  15.494  1.9747 -0.2755 -1.4904
  639TMC3    C7 9520   1.812   1.948  15.516 -0.3042 -0.2893 -0.5507
  639TMC3    C8 9521   1.376   2.068  15.522  0.6601 -0.1696 -0.6524
  639TMC3    O1 9522   1.764   1.843  15.471 -0.4399 -0.0002 -0.1104
  639TMC3    O2 9523   1.388   2.017  15.410  0.3757  0.5105  0.2549
  640MPD2     C 9524   2.087   1.475  10.413  0.1910 -0.2121 -0.3895
  640MPD2    C1 9525   2.127   1.583  10.340 -0.2675 -0.7269  0.2970
  640MPD2    C2 9526   2.051   1.691  10.328  0.2563 -0.2393  0.6811
  640MPD2    C3 9527   1.931   1.705  10.395 -0.5071  0.1267 -0.1884
  640MPD2    C4 9528   1.883   1.604  10.465  0.2514 -0.6947 -0.1616
  640MPD2    C5 9529   1.961   1.483  10.468  0.1031  0.2187 -0.2997
  640MPD2     H 9530   2.080   1.761  10.251 -1.4982  0.8127  0.9764
  640MPD2    H1 9531   1.795   1.611  10.528  0.2572  1.3070 -0.3954
  640MPD2    H2 9532   2.139   1.380  10.419  2.1710  0.9000 -0.0004
  640MPD2    H3 9533   1.923   1.398  10.523 -2.0704  1.0149 -0.5458
  640MPD2     N 9534   1.848   1.820  10.402  0.0805 -0.2304 -0.3406
  640MPD2    H5 9535   1.764   1.813  10.459 -0.2465 -0.8109 -0.9095
  640MPD2    N1 9536   2.260   1.568  10.283  0.3032 -0.0923 -0.1585
  640MPD2    H7 9537   2.304   1.478  10.299  0.1578 -0.0884  0.2459
  641TMC3    C1 9538   2.441   1.628  10.129  0.3718 -0.4405 -0.3073
  641TMC3    C2 9539   2.485   1.502  10.155  0.8710 -0.3066  0.0355
  641TMC3    C3 9540   2.552   1.445  10.057  0.2610 -0.1741  0.5038
  641TMC3    C4 9541   2.452   1.701  10.011 -0.1585  0.1538  1.1141
  641TMC3    C5 9542   2.520   1.630   9.917 -0.0605 -0.7569  0.2865
  641TMC3    C6 9543   2.581   1.508   9.936 -0.4211  0.2478 -0.3285
  641TMC3     C 9544   2.321   1.669  10.205  0.3314 -0.6441 -0.2541
  641TMC3     O 9545   2.304   1.791  10.200  0.1003 -0.1909 -0.1003
  641TMC3     H 9546   2.486   1.454  10.252  3.3602  1.4363  0.8729
  641TMC3    H1 9547   2.417   1.803  10.002 -0.9928 -0.3333 -1.1159
  641TMC3    H2 9548   2.623   1.448   9.856  0.1887  1.3114 -0.8045
  641TMC3    C7 9549   2.522   1.676   9.781 -0.4842  0.2179 -0.3230
  641TMC3    C8 9550   2.582   1.307  10.063  0.8172 -0.6229  0.4039
  641TMC3    O1 9551   2.591   1.609   9.705  0.2609  0.4274  0.6445
  641TMC3    O2 9552   2.585   1.249   9.958  0.0375  0.0880  0.3648
  642TMC3    C1 9553   3.105   2.373  12.624  0.6376 -0.3358 -0.1419
  642TMC3    C2 9554   3.222   2.415  12.559 -0.8887  0.2329 -0.9592
  642TMC3    C3 9555   3.268   2.342  12.449 -1.2876  0.7551 -0.5233
  642TMC3    C4 9556   3.042   2.262  12.581  0.8533  0.3415 -0.2151
  642TMC3    C5 9557   3.098   2.187  12.479 -0.4497  0.3643 -0.4158
  642TMC3    C6 9558   3.200   2.234  12.401  0.2409 -0.5619  0.1955
  642TMC3     C 9559   3.107   2.396  12.766 -0.7557  0.0732 -0.5521
  642TMC3     O 9560   3.213   2.401  12.821  0.1437 -0.4279  0.9043
  642TMC3     H 9561   3.272   2.505  12.591 -1.1561  0.0248  0.0481
  642TMC3    H1 9562   2.960   2.221  12.638  1.8709 -1.3645  0.0265
  642TMC3    H2 9563   3.234   2.177  12.315 -0.2926  1.2783 -1.2458
  642TMC3    C7 9564   3.023   2.082  12.419  0.8835 -0.2351 -0.3740
  642TMC3    C8 9565   3.405   2.347  12.420  0.2177  0.3635  0.2567
  642TMC3    O1 9566   3.053   2.038  12.308  0.3089 -0.2398 -0.2495
  642TMC3    O2 9567   3.454   2.286  12.329 -0.1603  0.0785 -0.1616
  643TMC3    C1 9568   2.332   1.421   0.484  0.2688 -0.1718  1.4674
  643TMC3    C2 9569   2.200   1.387   0.476  0.1464  0.7719  0.5425
  643TMC3    C3 9570   2.163   1.333   0.356  0.4899 -0.1762  0.1636
  643TMC3    C4 9571   2.424   1.392   0.391  0.3883  0.2179  1.3626
  643TMC3    C5 9572   2.386   1.315   0.284  0.5267 -0.1684 -0.6442
  643TMC3    C6 9573   2.254   1.286   0.263 -0.0785 -0.7126 -0.8431
  643TMC3     C 9574   2.353   1.541   0.579 -0.1337  0.9348  0.3707
  643TMC3     O 9575   2.255   1.615   0.585 -0.1226  1.2744 -0.4646
  643TMC3     H 9576   2.136   1.406   0.561  0.0858  0.7914  0.4923
  643TMC3    H1 9577   2.527   1.422   0.406  0.9548 -0.2654 -1.4797
  643TMC3    H2 9578   2.223   1.249   0.166 -3.3913  0.0934 -0.0868
  643TMC3    C7 9579   2.465   1.352   0.167  0.2333  0.1831 -0.3181
  643TMC3    C8 9580   2.067   1.408   0.290  0.0743 -0.6116 -0.3402
  643TMC3    O1 9581   2.534   1.452   0.180 -0.1864  0.1057 -0.7886
  643TMC3    O2 9582   2.024   1.371   0.182 -0.5138  0.2108  0.5116
  644MPD2     C 9583   2.846   2.195  10.158  0.5188  0.1769 -0.2664
  644MPD2    C1 9584   2.785   2.176  10.036  1.0050 -0.7102  0.2616
  644MPD2    C2 9585   2.700   2.271   9.983 -0.3369 -0.6051 -0.3034
  644MPD2    C3 9586   2.671   2.388  10.052 -0.0701  0.1419 -0.2044
  644MPD2    C4 9587   2.736   2.411  10.175  0.6800 -0.8373 -0.4493
  644MPD2    C5 9588   2.824   2.318  10.221  1.2089 -0.0651 -0.0426
  644MPD2     H 9589   2.647   2.256   9.890 -0.0329 -2.3978 -0.1821
  644MPD2    H1 9590   2.715   2.495  10.240  0.3712 -0.9736 -0.3739
  644MPD2    H2 9591   2.922   2.126  10.194 -1.0311  0.2519  3.2020
  644MPD2    H3 9592   2.867   2.345  10.316  3.2192 -1.9411 -0.4036
  644MPD2     N 9593   2.584   2.480   9.988 -0.1011 -0.1862  0.6365
  644MPD2    H5 9594   2.542   2.455   9.899  0.6225 -0.2309  0.3024
  644MPD2    N1 9595   2.810   2.054   9.970  0.6286  0.2507 -0.1165
  644MPD2    H7 9596   2.871   1.992  10.023 -0.2247 -1.2517 -0.8948
  645TMC3    C1 9597   2.467   2.671   9.951  0.4104  0.2743  0.3590
  645TMC3    C2 9598   2.366   2.599   9.886  0.3123  0.0710  0.3222
  645TMC3    C3 9599   2.291   2.668   9.796 -0.1490 -0.1923 -0.0915
  645TMC3    C4 9600   2.496   2.799   9.915  0.3143  0.4413 -0.0788
  645TMC3    C5 9601   2.426   2.858   9.814  0.3349  0.2228 -0.1571
  645TMC3    C6 9602   2.316   2.796   9.755  0.3952 -0.7448  0.2109
  645TMC3     C 9603   2.556   2.600  10.036 -0.1899  0.2942 -1.0910
  645TMC3     O 9604   2.583   2.661  10.142 -0.2620  0.2871 -0.3986
  645TMC3     H 9605   2.348   2.496   9.915 -1.5644  0.1151 -0.6616
  645TMC3    H1 9606   2.577   2.857   9.957 -0.4644  1.0629  0.5769
  645TMC3    H2 9607   2.252   2.850   9.687  0.2089 -0.6517  0.4580
  645TMC3    C7 9608   2.473   2.978   9.749 -0.6141  1.2101  0.1479
  645TMC3    C8 9609   2.167   2.615   9.743 -0.3593  0.0371 -0.3135
  645TMC3    O1 9610   2.391   3.040   9.683 -0.3826 -0.3028  0.4227
  645TMC3    O2 9611   2.094   2.698   9.690  0.2137  0.2875  0.6070
  646MPD2     C 9612   1.620   1.444  14.913 -0.6513 -0.5319  0.1457
  646MPD2    C1 9613   1.563   1.350  14.998 -0.7100  0.5939  0.3419
  646MPD2    C2 9614   1.429   1.373  15.035 -0.6033  0.1045 -0.0617
  646MPD2    C3 9615   1.360   1.482  14.989 -0.1682  0.0625  0.0088
  646MPD2    C4 9616   1.425   1.576  14.904  0.3947 -0.4151 -0.0940
  646MPD2    C5 9617   1.555   1.546  14.861  0.7625  0.4979 -0.2186
  646MPD2     H 9618   1.368   1.305  15.094  0.4451 -1.1183 -0.3896
  646MPD2    H1 9619   1.380   1.665  14.862 -1.5517 -0.3306  2.2200
  646MPD2    H2 9620   1.721   1.435  14.873 -0.3385  0.0348  0.8121
  646MPD2    H3 9621   1.602   1.612  14.789  0.9268  0.2156 -0.3665
  646MPD2     N 9622   1.224   1.494  15.020 -0.1931 -0.3975 -0.3314
  646MPD2    H5 9623   1.188   1.446  15.101  0.8959 -1.6636 -0.5959
  646MPD2    N1 9624   1.651   1.244  15.046  0.2742 -0.0846 -0.2494
  646MPD2    H7 9625   1.748   1.237  15.015  0.2948 -0.6573 -0.0580
  647TMC3    C1 9626   1.723   1.059  15.155 -0.1164  0.1596 -0.0477
  647TMC3    C2 9627   1.671   0.946  15.217 -0.6386  0.9381  0.2758
  647TMC3    C3 9628   1.714   0.919  15.343 -0.2227 -0.2763 -0.2086
  647TMC3    C4 9629   1.836   1.121  15.202 -0.4953  0.4473 -0.1085
  647TMC3    C5 9630   1.885   1.073  15.323  0.2577 -0.2131 -0.1219
  647TMC3    C6 9631   1.814   0.982  15.393  0.0866  0.1606  0.5482
  647TMC3     C 9632   1.618   1.153  15.136  0.2248 -0.1528 -0.0351
  647TMC3     O 9633   1.513   1.117  15.189  0.1602  0.1469 -0.1714
  647TMC3     H 9634   1.585   0.895  15.175  0.5047  2.4307 -3.7908
  647TMC3    H1 9635   1.873   1.209  15.151  0.5447 -0.5028 -0.9836
  647TMC3    H2 9636   1.861   0.936  15.479 -0.4063 -1.9822 -0.3436
  647TMC3    C7 9637   2.028   1.064  15.335 -0.1169 -0.5848 -0.3021
  647TMC3    C8 9638   1.715   0.784  15.386  0.1849 -0.2980 -0.0680
  647TMC3    O1 9639   2.058   1.049  15.448 -0.2312  0.1652 -0.4696
  647TMC3    O2 9640   1.704   0.769  15.508  0.2355 -0.3739  0.2520
  648TMC3    C1 9641   1.145   3.837  16.359 -0.0602  0.2506 -0.3150
  648TMC3    C2 9642   1.215   3.736  16.308  0.0144 -0.4340 -0.2657
  648TMC3    C3 9643   1.189   3.700  16.177  0.9726  0.3794 -0.0323
  648TMC3    C4 9644   1.048   3.901  16.283 -0.0884  0.2833 -0.2896
  648TMC3    C5 9645   1.032   3.868  16.148 -0.4941 -0.3580 -0.5602
  648TMC3    C6 9646   1.109   3.768  16.089 -0.1115  0.1872  0.6470
  648TMC3     C 9647   1.157   3.876  16.501 -0.0699 -0.0678  0.2590
  648TMC3     O 9648   1.108   3.979  16.549 -0.3672  0.1235  0.2466
  648TMC3     H 9649   1.292   3.692  16.371 -0.1421  0.7528  0.7570
  648TMC3    H1 9650   0.982   3.972  16.330  0.1209 -0.0999  0.5770
  648TMC3    H2 9651   1.115   3.753  15.981  1.0115  0.0517  0.7308
  648TMC3    C7 9652   0.931   3.932  16.067 -0.3533 -0.1918 -0.2236
  648TMC3    C8 9653   1.293   3.618  16.119 -0.7462 -0.9382  0.9090
  648TMC3    O1 9654   0.913   3.899  15.952  0.0907  0.3155 -0.4623
  648TMC3    O2 9655   1.292   3.593  16.000 -0.0047  0.4879  0.5023
  649TMC3    C1 9656   0.124   4.147  12.463 -0.0697  1.4417 -0.3517
  649TMC3    C2 9657   0.245   4.090  12.466  0.2632  0.2151  0.1252
  649TMC3    C3 9658   0.284   4.014  12.568  0.5691  0.0790  0.4980
  649TMC3    C4 9659   0.035   4.121  12.563  0.0380 -0.2050  0.6703
  649TMC3    C5 9660   0.080   4.045  12.672 -0.7363 -0.7623 -0.2060
  649TMC3    C6 9661   0.202   3.986  12.672  0.6655  0.1211 -0.4857
  649TMC3     C 9662   0.084   4.242  12.360 -0.0504 -0.5300 -0.4412
  649TMC3     O 9663   4.715   4.301  12.378  0.6121 -0.0060  0.1727
  649TMC3     H 9664   0.306   4.097  12.377 -1.8398  0.4902 -1.2901
  649TMC3    H1 9665   4.675   4.170  12.557  0.7717  1.3001  1.1338
  649TMC3    H2 9666   0.235   3.939  12.764 -1.1537  0.3193  0.2688
  649TMC3    C7 9667   4.725   4.029  12.784 -0.1035 -0.3679  0.2269
  649TMC3    C8 9668   0.423   3.990  12.569  0.2157  0.0754 -0.0989
  649TMC3    O1 9669   4.619   4.085  12.766  0.3086 -0.6147 -0.1242
  649TMC3    O2 9670   0.494   4.039  12.484  0.1118  0.5363  0.2956
  650TMC3    C1 9671   2.527   1.515  13.353  0.2627  0.5028 -1.3749
  650TMC3    C2 9672   2.499   1.649  13.382 -0.7054  0.3312 -0.4197
  650TMC3    C3 9673   2.407   1.712  13.303  0.0289  0.4394 -0.2324
  650TMC3    C4 9674   2.491   1.460  13.234  0.9126 -0.4604 -0.2262
  650TMC3    C5 9675   2.399   1.524  13.158  0.1895  0.0460 -0.6356
  650TMC3    C6 9676   2.353   1.645  13.198 -0.3935 -0.2788 -0.6013
  650TMC3     C 9677   2.637   1.448  13.425 -0.5733  0.4443 -0.2665
  650TMC3     O 9678   2.713   1.530  13.479 -0.0083  0.3683 -0.2555
  650TMC3     H 9679   2.531   1.699  13.473 -1.9102  4.2474 -2.1867
  650TMC3    H1 9680   2.526   1.365  13.194  0.1277 -0.7975 -0.0990
  650TMC3    H2 9681   2.271   1.686  13.140 -0.3541  1.4965  0.5923
  650TMC3    C7 9682   2.378   1.480  13.022 -0.8439  0.1864  0.3391
  650TMC3    C8 9683   2.366   1.853  13.316  0.1979  0.0245  0.2986
  650TMC3    O1 9684   2.389   1.358  12.990 -0.5082  0.3246  0.2849
  650TMC3    O2 9685   2.443   1.926  13.375  0.4008 -0.5239 -0.4239
  651MPD2     C 9686   1.236   3.581  10.673  0.2880 -0.1278  0.2092
  651MPD2    C1 9687   1.226   3.701  10.746 -0.0841 -0.0891  0.0070
  651MPD2    C2 9688   1.327   3.793  10.727  0.5712  0.0557  0.1689
  651MPD2    C3 9689   1.433   3.765  10.640 -0.0855 -0.5510  0.1184
  651MPD2    C4 9690   1.442   3.646  10.574 -0.1719 -0.7344 -0.4754
  651MPD2    C5 9691   1.348   3.554  10.598 -0.2211 -0.3053  0.3048
  651MPD2     H 9692   1.309   3.891  10.769  0.2453  0.2588 -0.4480
  651MPD2    H1 9693   1.524   3.627  10.506 -0.2353 -0.9275 -0.4969
  651MPD2    H2 9694   1.163   3.503  10.685 -1.4912  1.3715 -0.8133
  651MPD2    H3 9695   1.349   3.457  10.550 -0.0434 -0.8365  1.4038
  651MPD2     N 9696   1.522   3.870  10.625  0.4268  0.1767 -0.1410
  651MPD2    H5 9697   1.518   3.963  10.666  2.6335  0.9428 -1.6777
  651MPD2    N1 9698   1.119   3.739  10.832  0.2697 -0.2064 -0.2452
  651MPD2    H7 9699   1.131   3.827  10.882  0.0361 -0.6172  0.5243
  652TMC3    C1 9700   1.930   4.086  10.593 -0.0147  0.1918  0.1532
  652TMC3    C2 9701   1.844   3.996  10.541  0.1668  1.2919 -0.7540
  652TMC3    C3 9702   1.737   3.955  10.611  0.8298 -0.5225 -0.7022
  652TMC3    C4 9703   1.923   4.121  10.726  0.1901  0.2869 -0.0740
  652TMC3    C5 9704   1.823   4.066  10.806 -0.7704  0.5922  0.2136
  652TMC3    C6 9705   1.722   4.000  10.746 -0.1716 -0.4297  0.5089
  652TMC3     C 9706   2.059   4.085  10.524  0.5100  0.1245  0.3185
  652TMC3     O 9707   2.058   4.085  10.401  0.7010 -0.1860 -0.0452
  652TMC3     H 9708   1.854   3.942  10.448 -2.5932  0.0912 -0.3892
  652TMC3    H1 9709   1.996   4.185  10.773  0.4868  0.4960 -0.8201
  652TMC3    H2 9710   1.650   3.949  10.810  0.5732 -0.9078  0.9662
  652TMC3    C7 9711   1.794   4.114  10.939 -0.2138  0.2056  0.4434
  652TMC3    C8 9712   1.640   3.857  10.553 -0.0844  0.9393 -0.0439
  652TMC3    O1 9713   1.679   4.090  10.985  0.1296  0.0079 -0.4205
  652TMC3    O2 9714   1.680   3.775  10.469  0.0928  0.1486 -0.2380
  653MPD2     C 9715   0.300   3.459   0.231 -0.6723  0.8535 -0.9130
  653MPD2    C1 9716   0.233   3.546   0.144  0.4775  0.1296  0.0345
  653MPD2    C2 9717   0.161   3.488   0.039 -1.0193  0.5019 -1.0873
  653MPD2    C3 9718   0.144   3.354   0.029 -0.1817  0.1809  0.5952
  653MPD2    C4 9719   0.206   3.274   0.124 -0.2405 -1.3618  1.2274
  653MPD2    C5 9720   0.284   3.328   0.220 -0.3269 -0.6173 -0.0230
  653MPD2     H 9721   0.118   3.559  17.711  1.6336  2.2435 -0.9404
  653MPD2    H1 9722   0.192   3.166   0.121  1.2058 -1.5297  0.5134
  653MPD2    H2 9723   0.366   3.498   0.307  0.6191 -0.0730 -1.5649
  653MPD2    H3 9724   0.327   3.260   0.293  3.6697 -0.7500 -2.4856
  653MPD2     N 9725   0.057   3.309  17.670  0.0288  0.4045 -0.3526
  653MPD2    H5 9726   0.019   3.378  17.606  1.1756  1.4865  0.1308
  653MPD2    N1 9727   0.230   3.686   0.150  0.1838  0.2941 -0.7579
  653MPD2    H7 9728   0.178   3.730   0.076 -1.3353  0.0976  0.1875
  654TMC3    C1 9729   4.635   3.159  17.562 -0.0863  0.7253  0.8998
  654TMC3    C2 9730   4.565   3.263  17.520  0.7800 -0.1720  0.0198
  654TMC3    C3 9731   4.517   3.248  17.392 -0.5011 -0.0150  0.0225
  654TMC3    C4 9732   4.645   3.038  17.499  0.1172 -0.3293  0.2908
  654TMC3    C5 9733   4.591   3.033  17.375  0.1339 -0.0013  0.3410
  654TMC3    C6 9734   4.514   3.132  17.324 -0.6975  0.2002  0.0208
  654TMC3     C 9735   0.007   3.178  17.660  0.3581 -0.0437 -0.0192
  654TMC3     O 9736   0.056   3.079  17.708  0.6807 -0.0307 -0.7733
  654TMC3     H 9737   4.571   3.360  17.569  2.2244 -0.2234 -0.0602
  654TMC3    H1 9738   4.703   2.959  17.544 -1.6363 -2.2474 -0.8083
  654TMC3    H2 9739   4.481   3.111  17.223  0.4676  1.4807 -0.6302
  654TMC3    C7 9740   4.636   2.922  17.288 -0.3145  0.7149 -0.1026
  654TMC3    C8 9741   4.479   3.372  17.334  0.3522  0.8465  0.0031
  654TMC3    O1 9742   4.640   2.953  17.171 -0.5392  0.1646  0.3417
  654TMC3    O2 9743   4.449   3.464  17.412 -0.0722 -0.1419 -0.1310
  655MPD2     C 9744   1.399   3.893  15.875  1.1874  0.3833  0.4646
  655MPD2    C1 9745   1.422   4.011  15.817  0.4865  0.0066  0.2504
  655MPD2    C2 9746   1.516   4.031  15.718 -0.1562 -0.2123  0.1453
  655MPD2    C3 9747   1.570   3.916  15.661  0.3704 -0.3704 -0.6886
  655MPD2    C4 9748   1.555   3.802  15.726 -0.6116  1.1726  0.2867
  655MPD2    C5 9749   1.477   3.783  15.835  0.0444  0.5576 -0.6257
  655MPD2     H 9750   1.533   4.129  15.674  1.3148  0.1919  1.6407
  655MPD2    H1 9751   1.602   3.710  15.693 -1.2717  0.2684  1.8844
  655MPD2    H2 9752   1.328   3.871  15.953 -0.0529  0.4463 -0.6558
  655MPD2    H3 9753   1.476   3.687  15.887  0.3920  1.0661  0.3226
  655MPD2     N 9754   1.631   3.902  15.533  0.4954  0.5949 -0.2595
  655MPD2    H5 9755   1.665   3.808  15.516 -1.1934  0.4507 -2.7301
  655MPD2    N1 9756   1.361   4.125  15.868  0.3525  0.0699 -0.2807
  655MPD2    H7 9757   1.376   4.213  15.819  2.4322 -0.7719 -1.1679
  656TMC3    C1 9758   1.250   4.255  16.028 -0.0971 -0.9311 -0.1397
  656TMC3    C2 9759   1.227   4.282  16.162 -0.6307  0.2568 -0.2540
  656TMC3    C3 9760   1.118   4.352  16.200  0.8025 -0.4637  0.1777
  656TMC3    C4 9761   1.163   4.304  15.932 -0.2220 -0.2879 -0.5831
  656TMC3    C5 9762   1.056   4.383  15.976  0.3760  0.2876  0.1619
  656TMC3    C6 9763   1.034   4.410  16.109  0.3386 -0.1026  0.5197
  656TMC3     C 9764   1.311   4.131  15.998  0.1091 -0.2332 -0.3151
  656TMC3     O 9765   1.333   4.058  16.094 -0.0992  0.5891  0.1340
  656TMC3     H 9766   1.277   4.220  16.236 -4.2522 -3.0254 -0.5998
  656TMC3    H1 9767   1.168   4.273  15.828 -1.1233 -3.1585  0.2567
  656TMC3    H2 9768   0.943   4.453  16.150 -0.4895  0.1356 -1.5497
  656TMC3    C7 9769   0.956   4.416  15.882  0.0471  0.5094 -0.0796
  656TMC3    C8 9770   1.050   4.303  16.318  0.6450 -0.4860 -0.3354
  656TMC3    O1 9771   0.961   4.358  15.777  0.3458 -0.0388  0.6386
  656TMC3    O2 9772   1.035   4.184  16.306  0.5044 -0.1056 -0.4133
  657TMC3    C1 9773   0.786   3.124  14.915  0.0750  0.0421 -0.0667
  657TMC3    C2 9774   0.804   3.192  15.032 -0.1620  0.6886  0.2282
  657TMC3    C3 9775   0.758   3.318  15.036  0.6765  0.6266 -0.3279
  657TMC3    C4 9776   0.741   3.188  14.804 -0.1382  0.4563  0.7927
  657TMC3    C5 9777   0.712   3.319  14.809 -0.3100  0.5554  0.5473
  657TMC3    C6 9778   0.708   3.387  14.929 -0.2926 -0.5092  0.2759
  657TMC3     C 9779   0.785   2.987  14.916 -0.3593 -0.4143  0.0458
  657TMC3     O 9780   0.817   2.925  14.816 -0.4163 -0.7988  0.3973
  657TMC3     H 9781   0.851   3.136  15.112  1.7752  0.7650 -0.8519
  657TMC3    H1 9782   0.706   3.114  14.733  1.5574  1.1728 -0.7853
  657TMC3    H2 9783   0.657   3.482  14.936  1.2327  0.4119 -0.8954
  657TMC3    C7 9784   0.626   3.370  14.699  0.2689 -0.2892  0.3705
  657TMC3    C8 9785   0.716   3.354  15.174 -0.1159 -0.1197  0.5091
  657TMC3    O1 9786   0.552   3.294  14.642  0.6078  0.5031  0.0351
  657TMC3    O2 9787   0.738   3.279  15.266 -0.5250  0.1983 -1.0259
  658MPD2     C 9788   1.769   4.456  14.966  0.0190 -0.1949 -0.0497
  658MPD2    C1 9789   1.782   4.324  14.920 -0.3946 -0.0440 -0.0005
  658MPD2    C2 9790   1.800   4.307  14.781 -0.2491  0.2206 -0.4645
  658MPD2    C3 9791   1.798   4.417  14.695 -0.5096 -0.2121  0.1733
  658MPD2    C4 9792   1.771   4.543  14.745  0.3382  0.3087  0.0697
  658MPD2    C5 9793   1.759   4.560  14.879  0.1849 -0.2211 -0.5729
  658MPD2     H 9794   1.833   4.211  14.743 -0.2321  0.1960 -0.3857
  658MPD2    H1 9795   1.762   4.625  14.674  0.7257 -0.6439 -1.0852
  658MPD2    H2 9796   1.756   4.470  15.073 -3.2441 -1.8514 -0.2041
  658MPD2    H3 9797   1.769   4.659  14.923  0.1658  0.0468 -1.1814
  658MPD2     N 9798   1.830   4.390  14.556 -0.7143  0.0752 -0.4063
  658MPD2    H5 9799   1.860   4.295  14.538 -0.9252  0.2511 -1.6220
  658MPD2    N1 9800   1.789   4.217  15.017 -0.2131  0.1059 -0.5628
  658MPD2    H7 9801   1.790   4.238  15.116 -0.1336 -1.0689 -0.3243
  659TMC3    C1 9802   1.783   3.991  15.102  0.0924 -0.1989  0.3105
  659TMC3    C2 9803   1.752   4.043  15.224  0.1890 -0.2934 -0.7364
  659TMC3    C3 9804   1.697   3.952  15.310 -0.3152 -0.4371 -0.1963
  659TMC3    C4 9805   1.770   3.861  15.067  0.0867  0.5808 -0.2578
  659TMC3    C5 9806   1.736   3.770  15.169  0.3279  0.3011  0.6874
  659TMC3    C6 9807   1.697   3.816  15.291 -0.1305  0.5724  0.6278
  659TMC3     C 9808   1.802   4.082  14.992  0.2878 -0.1433 -0.4611
  659TMC3     O 9809   1.795   4.033  14.880  0.1838  0.2930 -0.0740
  659TMC3     H 9810   1.735   4.149  15.238 -3.9830 -1.2148  0.8457
  659TMC3    H1 9811   1.809   3.824  14.973 -1.1318  0.7342 -0.8208
  659TMC3    H2 9812   1.660   3.742  15.361  0.1780 -1.3204 -1.2109
  659TMC3    C7 9813   1.691   3.641  15.126 -0.5320  0.0409  0.4532
  659TMC3    C8 9814   1.652   4.001  15.438  0.7547 -0.4620  0.1978
  659TMC3    O1 9815   1.658   3.569  15.216 -0.1028  0.0375 -0.2036
  659TMC3    O2 9816   1.628   4.118  15.440 -0.0844  0.0728 -0.8043
  660MPD2     C 9817   4.438   2.524  12.666 -0.4525 -0.2623  0.4298
  660MPD2    C1 9818   4.302   2.520  12.694  0.0887  0.7194 -0.2787
  660MPD2    C2 9819   4.249   2.408  12.758  0.4180 -0.1752 -0.4547
  660MPD2    C3 9820   4.328   2.300  12.801 -0.0053 -0.7387 -0.7412
  660MPD2    C4 9821   4.462   2.302  12.775  0.4611  0.2173 -0.5340
  660MPD2    C5 9822   4.514   2.415  12.709  0.3958 -0.1883  0.1264
  660MPD2     H 9823   4.142   2.393  12.773  0.3725  0.5202 -0.0817
  660MPD2    H1 9824   4.526   2.222  12.808  0.1414  0.1238 -0.1380
  660MPD2    H2 9825   4.477   2.615  12.622 -0.7497  0.0226  0.7530
  660MPD2    H3 9826   4.622   2.422  12.705  0.2963  1.8626  1.1531
  660MPD2     N 9827   4.262   2.187  12.854  0.0412 -0.5742  0.2276
  660MPD2    H5 9828   4.161   2.193  12.864  0.1411  0.9321  0.3160
  660MPD2    N1 9829   4.235   2.637  12.651 -0.2158  0.1196 -0.1506
  660MPD2    H7 9830   4.287   2.704  12.594  3.0494 -0.6946  1.8529
  661TMC3    C1 9831   4.065   2.792  12.599  0.1040  0.4110  0.4115
  661TMC3    C2 9832   4.120   2.820  12.478 -0.5691 -1.0075  0.0528
  661TMC3    C3 9833   4.045   2.887  12.387 -0.0938  0.0902 -0.8930
  661TMC3    C4 9834   3.942   2.836  12.630  0.3868 -0.7317  0.0943
  661TMC3    C5 9835   3.866   2.887  12.531 -0.0323  0.4175  0.1032
  661TMC3    C6 9836   3.919   2.929  12.408  0.4781  0.0900 -0.3148
  661TMC3     C 9837   4.106   2.682  12.681 -0.4885  0.3872  0.1243
  661TMC3     O 9838   4.033   2.639  12.768  0.0960  0.7462 -0.2756
  661TMC3     H 9839   4.222   2.800  12.450  0.2035  0.1243  2.0297
  661TMC3    H1 9840   3.883   2.817  12.719  0.5824 -0.4239  0.2896
  661TMC3    H2 9841   3.860   2.992  12.344  2.8908  1.4493 -1.2155
  661TMC3    C7 9842   3.718   2.877  12.531 -0.5451  0.3817  0.3691
  661TMC3    C8 9843   4.104   2.899  12.253  0.6604  0.4139 -0.3742
  661TMC3    O1 9844   3.656   2.888  12.633  0.5831  0.0420 -0.2178
  661TMC3    O2 9845   4.075   2.999  12.183  0.5347  0.6924  1.3900
  662MPD2     C 9846   0.146   2.001   0.277 -0.0174  0.2717 -0.2456
  662MPD2    C1 9847   0.082   1.989   0.158  0.1905  0.2056  0.1637
  662MPD2    C2 9848   4.731   2.093   0.126  0.3078  0.2309 -0.3214
  662MPD2    C3 9849   4.719   2.207   0.202  0.1767 -0.2593  0.4361
  662MPD2    C4 9850   0.051   2.223   0.319 -0.2457 -0.0332 -0.6162
  662MPD2    C5 9851   0.135   2.115   0.354  0.3523 -0.4422  0.6540
  662MPD2     H 9852   4.665   2.076   0.041  0.9166  0.5168 -0.8499
  662MPD2    H1 9853   0.047   2.316   0.374  0.0987 -0.2834 -0.1717
  662MPD2    H2 9854   0.206   1.918   0.313  2.0209  1.6887 -0.4166
  662MPD2    H3 9855   0.171   2.130   0.455  0.7583  0.2168  0.4113
  662MPD2     N 9856   4.618   2.302   0.176 -0.3409  0.4125 -1.2031
  662MPD2    H5 9857   4.600   2.375   0.243 -0.1775  0.3196 -1.0591
  662MPD2    N1 9858   0.083   1.875   0.069 -0.2242  0.1953 -0.3820
  662MPD2    H7 9859   0.025   1.878  17.728 -1.7471  0.2909  0.6924
  663TMC3    C1 9860   0.133   1.650  17.735  0.0976 -0.5430 -0.0652
  663TMC3    C2 9861   0.032   1.668  17.640  0.6395  0.1420  0.5477
  663TMC3    C3 9862   4.715   1.556  17.578  0.2439  0.5843 -0.5508
  663TMC3    C4 9863   0.157   1.522   0.045 -0.5989 -0.2152 -0.5239
  663TMC3    C5 9864   0.077   1.419  17.741 -0.4820  0.3903 -0.2773
  663TMC3    C6 9865   4.728   1.439  17.640 -0.3726 -0.2400  0.3255
  663TMC3     C 9866   0.161   1.762   0.080 -0.2104  0.1278 -0.3984
  663TMC3     O 9867   0.241   1.743   0.171 -0.0467 -0.3802  0.1520
  663TMC3     H 9868   0.039   1.752  17.572  1.6937  0.5229  1.1222
  663TMC3    H1 9869   0.221   1.511   0.132  0.1311 -1.1338 -1.1857
  663TMC3    H2 9870   4.686   1.350  17.594  0.5448 -1.6138  2.1284
  663TMC3    C7 9871   0.110   1.288   0.050 -0.1549 -0.3726  0.3014
  663TMC3    C8 9872   4.575   1.566  17.540 -0.1210  0.3042 -0.2382
  663TMC3    O1 9873   0.213   1.282   0.111  0.3600 -0.0942 -0.3485
  663TMC3    O2 9874   4.526   1.475  17.482 -1.0515 -0.1733  0.3957
  664MPD2     C 9875   2.427   4.728   0.276 -0.4294  0.1923 -0.0240
  664MPD2    C1 9876   2.477   0.122   0.292 -0.5914  1.1271  0.6412
  664MPD2    C2 9877   2.437   0.198   0.405  0.2956  0.5372 -0.3051
  664MPD2    C3 9878   2.370   0.140   0.519 -0.4905 -0.6348  0.3810
  664MPD2    C4 9879   2.351   0.003   0.511 -0.2378 -0.0603 -0.5587
  664MPD2    C5 9880   2.364   4.673   0.386  0.2642  0.4863  0.3912
  664MPD2     H 9881   2.466   0.302   0.409  0.3490  0.5539 -1.0697
  664MPD2    H1 9882   2.301   4.686   0.592  0.4717  0.2158  0.0509
  664MPD2    H2 9883   2.430   4.678   0.180 -0.7162 -1.2379  0.7176
  664MPD2    H3 9884   2.322   4.575   0.369 -1.1227  1.4325 -1.5841
  664MPD2     N 9885   2.351   0.225   0.632  0.2649 -0.4965  0.3260
  664MPD2    H5 9886   2.383   0.321   0.626 -0.1281 -0.4052 -0.2426
  664MPD2    N1 9887   2.552   0.181   0.187 -0.1497 -0.3100  0.5396
  664MPD2    H7 9888   2.587   0.276   0.197  0.9674 -0.5231 -1.3268
  665TMC3    C1 9889   2.332   0.282   0.864  0.1170 -0.4899  0.8884
  665TMC3    C2 9890   2.319   0.237   0.995  0.1862 -1.0397  0.8437
  665TMC3    C3 9891   2.363   0.327   1.088 -0.2515 -0.2424  0.9214
  665TMC3    C4 9892   2.371   0.406   0.831 -0.0599 -0.1898 -0.0196
  665TMC3    C5 9893   2.411   0.488   0.928  1.2090  0.0362  0.9267
  665TMC3    C6 9894   2.412   0.450   1.055 -0.2807 -0.1312  0.2128
  665TMC3     C 9895   2.320   0.179   0.757  0.2998 -0.1264 -0.1998
  665TMC3     O 9896   2.295   0.065   0.799  0.0616 -0.7767  0.4314
  665TMC3     H 9897   2.271   0.143   1.019 -0.1881 -1.0723 -0.0460
  665TMC3    H1 9898   2.384   0.442   0.729 -0.3398 -0.3289 -0.1060
  665TMC3    H2 9899   2.452   0.509   1.137  2.8137  3.5231 -3.8854
  665TMC3    C7 9900   2.508   0.591   0.887 -0.2219 -0.5585 -0.0632
  665TMC3    C8 9901   2.301   0.308   1.222 -0.5454  0.6137 -0.0715
  665TMC3    O1 9902   2.500   0.636   0.776  0.6913 -0.2661 -0.6455
  665TMC3    O2 9903   2.274   0.414   1.277  0.0036 -0.5018  0.4346
  666TMC3    C1 9904   1.988   0.042  10.355 -0.2243 -0.9157 -0.3568
  666TMC3    C2 9905   2.045   4.719  10.468 -0.1792 -0.1246  0.0031
  666TMC3    C3 9906   2.159   0.049  10.508 -0.7913  0.1458 -0.7731
  666TMC3    C4 9907   2.040   0.147  10.291  0.7225  0.2143  0.1640
  666TMC3    C5 9908   2.154   0.199  10.333 -0.4634  0.1589  0.2884
  666TMC3    C6 9909   2.211   0.158  10.450 -0.0766  0.2101 -0.4929
  666TMC3     C 9910   1.856   0.002  10.313 -0.2288  0.2263 -0.2290
  666TMC3     O 9911   1.791   0.088  10.255  0.1921 -0.1807 -1.1890
  666TMC3     H 9912   1.987   4.651  10.529  0.0119  1.0824  1.5143
  666TMC3    H1 9913   1.986   0.181  10.204 -0.2365 -1.7156 -0.0044
  666TMC3    H2 9914   2.292   0.216  10.492  1.1140  0.0744 -2.6089
  666TMC3    C7 9915   2.200   0.315  10.268 -0.8126 -0.0588 -0.3120
  666TMC3    C8 9916   2.230   0.003  10.626 -0.3456 -0.4283 -0.4207
  666TMC3    O1 9917   2.149   0.341  10.155  0.3879 -0.1055  0.1600
  666TMC3    O2 9918   2.166   4.669  10.702 -0.5455  0.3247 -0.1743
  667MPD2     C 9919   3.263   0.616  14.770 -0.0210  0.2509 -0.2657
  667MPD2    C1 9920   3.240   0.603  14.902 -0.2902  0.0359  0.2413
  667MPD2    C2 9921   3.192   0.479  14.951  0.1763  0.0710  0.0551
  667MPD2    C3 9922   3.172   0.374  14.865 -0.6015 -0.8508  0.1064
  667MPD2    C4 9923   3.202   0.390  14.733 -0.1432 -0.3288  0.0641
  667MPD2    C5 9924   3.240   0.512  14.687 -0.3039  0.2965  0.4062
  667MPD2     H 9925   3.201   0.459  15.057 -0.1895 -0.5540 -0.0294
  667MPD2    H1 9926   3.173   0.312  14.664 -0.5966  0.1817 -0.3232
  667MPD2    H2 9927   3.285   0.710  14.721 -1.3729  0.1796 -0.9943
  667MPD2    H3 9928   3.259   0.515  14.580 -0.4007 -1.3062  0.3483
  667MPD2     N 9929   3.132   0.249  14.917  0.4449  0.0286 -0.1912
  667MPD2    H5 9930   3.129   0.172  14.851  1.0045  0.8857 -1.2292
  667MPD2    N1 9931   3.285   0.707  14.987  0.0076 -0.1305 -0.3236
  667MPD2    H7 9932   3.260   0.693  15.084  0.8077  0.6888  0.0086
  668TMC3    C1 9933   3.397   0.887  15.072 -0.5763 -0.3166  0.1401
  668TMC3    C2 9934   3.452   1.018  15.055 -0.6718 -0.1602 -0.0634
  668TMC3    C3 9935   3.498   1.076  15.170 -0.0074 -0.3292 -0.4477
  668TMC3    C4 9936   3.400   0.824  15.195 -0.2844  0.0786  0.1758
  668TMC3    C5 9937   3.436   0.897  15.306  0.3423 -0.2860  0.1519
  668TMC3    C6 9938   3.501   1.016  15.295  0.6501 -0.0267  0.0204
  668TMC3     C 9939   3.365   0.811  14.956  0.1297  0.1293  0.8579
  668TMC3     O 9940   3.436   0.831  14.857 -0.2607  0.4461 -0.0413
  668TMC3     H 9941   3.456   1.059  14.955  1.2672 -0.9043 -0.2986
  668TMC3    H1 9942   3.382   0.717  15.201  0.9950 -0.0849  1.1066
  668TMC3    H2 9943   3.545   1.070  15.379  1.1506 -1.2236  0.5284
  668TMC3    C7 9944   3.439   0.833  15.434 -0.2510 -1.1359  0.5166
  668TMC3    C8 9945   3.550   1.210  15.160 -0.0623  0.7456 -0.0233
  668TMC3    O1 9946   3.522   0.878  15.513  0.2214 -0.1881  0.3577
  668TMC3    O2 9947   3.583   1.263  15.266 -0.0928 -0.2238 -0.4609
  669TMC3    C1 9948   1.410   0.482  15.081  0.0361  0.4759 -0.3414
  669TMC3    C2 9949   1.287   0.503  15.021 -0.4370 -0.2946  0.0753
  669TMC3    C3 9950   1.279   0.596  14.920  0.0382 -0.1114  0.5641
  669TMC3    C4 9951   1.512   0.575  15.070  0.0851  0.0392  0.4433
  669TMC3    C5 9952   1.501   0.665  14.965 -0.8823 -0.0914 -0.5094
  669TMC3    C6 9953   1.388   0.678  14.897  0.5913 -0.1471 -0.2595
  669TMC3     C 9954   1.424   0.381  15.181  0.6784 -0.6564 -0.1172
  669TMC3     O 9955   1.323   0.325  15.214  0.5039  0.0282  0.2702
  669TMC3     H 9956   1.215   0.425  15.043  0.0514 -0.6114  0.5585
  669TMC3    H1 9957   1.606   0.564  15.122  0.9242 -2.3088 -1.5440
  669TMC3    H2 9958   1.385   0.743  14.810 -1.5000  0.0200 -0.0614
  669TMC3    C7 9959   1.622   0.708  14.904  0.4778  0.5389 -0.5426
  669TMC3    C8 9960   1.181   0.578  14.813 -0.4672  0.2424  1.0044
  669TMC3    O1 9961   1.710   0.750  14.984 -0.2412  0.2566 -0.4508
  669TMC3    O2 9962   1.171   0.468  14.760  0.2378 -0.0245  0.3992
  670MPD2     C 9963   0.751   2.361  13.954 -0.6586  0.6754 -0.4267
  670MPD2    C1 9964   0.730   2.492  13.985  0.5562 -0.2492  0.6195
  670MPD2    C2 9965   0.600   2.546  13.982 -0.7531 -0.9484  0.3436
  670MPD2    C3 9966   0.491   2.474  13.947 -0.9866 -0.3718 -0.1913
  670MPD2    C4 9967   0.513   2.340  13.924 -0.5655 -0.0069  0.7909
  670MPD2    C5 9968   0.643   2.287  13.925  0.1205  0.4372 -0.3335
  670MPD2     H 9969   0.583   2.647  14.020  0.5501 -0.9358  0.9004
  670MPD2    H1 9970   0.436   2.271  13.891 -0.1758  1.2414 -2.7761
  670MPD2    H2 9971   0.847   2.312  13.946  0.4540  2.7090  0.3860
  670MPD2    H3 9972   0.650   2.181  13.904 -1.3791  0.2409  0.1300
  670MPD2     N 9973   0.359   2.527  13.954  0.1795  0.4314 -0.0640
  670MPD2    H5 9974   0.351   2.626  13.973 -1.3157  0.5740 -1.4465
  670MPD2    N1 9975   0.836   2.580  13.991 -0.2269 -0.1154  0.0767
  670MPD2    H7 9976   0.808   2.676  14.006 -0.9279 -0.0042 -1.9235
  671TMC3    C1 9977   0.119   2.541  13.975  0.3826  0.9229 -0.3320
  671TMC3    C2 9978   0.130   2.634  14.077  0.0577 -0.1376 -1.1475
  671TMC3    C3 9979   0.023   2.651  14.158  0.0856  0.5579 -0.0260
  671TMC3    C4 9980   4.735   2.486  13.941 -0.0424  0.8694 -0.3853
  671TMC3    C5 9981   4.624   2.520  14.017 -0.9036  0.4960  0.5731
  671TMC3    C6 9982   4.639   2.595  14.131 -0.0138  0.0187  0.0384
  671TMC3     C 9983   0.239   2.462  13.930  0.9967 -0.8577  0.7510
  671TMC3     O 9984   0.221   2.371  13.854  0.0349 -0.0591 -0.4855
  671TMC3     H 9985   0.225   2.676  14.108 -2.0127  1.5681  2.8402
  671TMC3    H1 9986   4.720   2.420  13.856 -1.5704  1.0925 -0.2963
  671TMC3    H2 9987   4.557   2.628  14.193  0.4600 -0.2140  0.7912
  671TMC3    C7 9988   4.492   2.457  14.003 -0.5444  0.1100  0.4675
  671TMC3    C8 9989   0.025   2.762  14.253  0.1803  0.1828 -0.5276
  671TMC3    O1 9990   4.404   2.479  14.086 -0.3454 -0.2274 -0.1563
  671TMC3    O2 9991   0.066   2.865  14.205  0.2304  0.1150  0.6065
  672MPD2     C 9992   0.068   3.441   1.255 -0.0470  0.2445 -1.1746
  672MPD2    C1 9993   0.165   3.372   1.196  0.0872 -0.0347 -0.1452
  672MPD2    C2 9994   0.285   3.441   1.175  0.5928 -1.0056 -0.5948
  672MPD2    C3 9995   0.297   3.577   1.206  0.1661 -0.8127  0.2927
  672MPD2    C4 9996   0.191   3.642   1.259 -0.0350  0.0662  0.1627
  672MPD2    C5 9997   0.080   3.571   1.293  0.3508 -0.1394 -0.2944
  672MPD2     H 9998   0.361   3.387   1.119  0.9947  0.2477 -1.2457
  672MPD2    H1 9999   0.195   3.744   1.297 -2.5430  0.5734 -0.9115
  672MPD2    H210000   4.709   3.394   1.276  0.5989 -1.3022 -1.7339
  672MPD2    H310001   4.736   3.626   1.340 -1.1544  0.4482 -3.5911
  672MPD2     N10002   0.415   3.656   1.175 -0.2376 -0.1880 -0.0457
  672MPD2    H510003   0.413   3.754   1.200  1.0924  0.0968 -1.0193
  672MPD2    N110004   0.147   3.246   1.143  0.0539  0.4531  0.6287
  672MPD2    H710005   0.222   3.196   1.095 -0.3914  0.5053 -0.1118
  673TMC3    C110006   0.031   3.063   1.060 -0.7869 -0.1793  0.4286
  673TMC3    C210007   0.137   2.980   1.043 -0.3583 -0.3366  0.5380
  673TMC3    C310008   0.149   2.926   0.919 -0.2452  0.4669  0.5588
  673TMC3    C410009   4.677   3.081   0.962 -0.4811 -0.1449 -0.6920
  673TMC3    C510010   4.686   3.008   0.848  0.3626  0.6603  0.9340
  673TMC3    C610011   0.059   2.930   0.821 -0.0858 -0.4045  0.0825
  673TMC3     C10012   0.031   3.172   1.152 -0.1310 -0.2208 -0.6042
  673TMC3     O10013   4.657   3.212   1.182 -0.8173 -0.2048  0.2966
  673TMC3     H10014   0.212   2.954   1.118 -2.7339  0.0097  3.0427
  673TMC3    H110015   4.586   3.138   0.972  1.1737  1.9883  2.2072
  673TMC3    H210016   0.071   2.891   0.720  0.3069 -1.0114  0.3661
  673TMC3    C710017   4.601   3.038   0.732 -0.6196 -0.2919  0.4956
  673TMC3    C810018   0.258   2.835   0.891  0.2157 -1.0812  0.1123
  673TMC3    O110019   4.605   2.958   0.645 -0.3383 -0.2269  0.0686
  673TMC3    O210020   0.234   2.755   0.800  0.2561  0.4355  0.3423
  674MPD2     C10021   4.486   3.433   0.130 -0.0502  0.2709  0.3088
  674MPD2    C110022   4.449   3.301   0.142  0.5853 -1.1518  0.1737
  674MPD2    C210023   4.316   3.273   0.126  0.0029  0.3007  0.8657
  674MPD2    C310024   4.223   3.371   0.131 -0.6517  0.2318 -0.1333
  674MPD2    C410025   4.263   3.505   0.117 -0.4211 -0.3517 -0.1291
  674MPD2    C510026   4.398   3.539   0.110 -0.1585 -0.3603 -0.8475
  674MPD2     H10027   4.279   3.171   0.118 -0.2786  0.2420  3.0619
  674MPD2    H110028   4.191   3.585   0.103  1.7582  1.7868  0.8996
  674MPD2    H210029   4.591   3.463   0.131  0.1768 -0.5558  2.1366
  674MPD2    H310030   4.432   3.642   0.104 -1.0168 -0.0584 -0.5707
  674MPD2     N10031   4.083   3.336   0.150 -0.3002  0.1717  0.4618
  674MPD2    H510032   4.063   3.237   0.142  0.2154 -0.0124  1.4649
  674MPD2    N110033   4.540   3.197   0.162  0.7374  0.6982 -0.1425
  674MPD2    H710034   4.637   3.226   0.166  0.9236  0.1744 -0.7533
  675TMC3    C110035   4.639   3.003   0.228 -0.2565 -0.0938  0.7768
  675TMC3    C210036   4.620   2.869   0.262  0.2345  0.2925  0.6051
  675TMC3    C310037   4.698   2.820   0.363 -0.7265  0.4023 -0.0746
  675TMC3    C410038   4.725   3.082   0.300  0.7836  0.3939 -0.8555
  675TMC3    C510039   0.058   3.022   0.400 -0.2387  0.1283 -0.0874
  675TMC3    C610040   0.044   2.889   0.436 -0.0376 -0.2896 -0.2794
  675TMC3     C10041   4.516   3.065   0.182  1.1028  0.4626  0.0401
  675TMC3     O10042   4.415   3.000   0.169  0.4878 -0.0584  0.2024
  675TMC3     H10043   4.540   2.807   0.222  1.1722  1.1721 -2.5514
  675TMC3    H110044   0.005   3.188   0.286 -0.8228  1.0232  1.9663
  675TMC3    H210045   0.093   2.850   0.525  0.0047 -1.6261 -0.8938
  675TMC3    C710046   0.134   3.089   0.497 -0.2624  0.4816  0.0230
  675TMC3    C810047   4.654   2.693   0.412 -0.8451  0.2760 -0.5038
  675TMC3    O110048   0.221   3.029   0.547 -0.6120 -0.0687  0.6404
  675TMC3    O210049   4.636   2.600   0.337 -0.3875  0.0629  0.1731
  676MPD2     C10050   2.719   1.643  11.185 -0.4382 -0.0229  0.1404
  676MPD2    C110051   2.604   1.576  11.216 -0.3638  0.0137  0.0751
  676MPD2    C210052   2.604   1.480  11.313  1.1690 -0.6925 -0.7735
  676MPD2    C310053   2.727   1.442  11.371 -0.5642  0.0587 -0.0641
  676MPD2    C410054   2.839   1.519  11.349  0.7681 -0.0644 -0.1150
  676MPD2    C510055   2.831   1.622  11.261  0.0685 -0.6635 -0.1114
  676MPD2     H10056   2.522   1.410  11.312 -0.2105  0.9079  0.4373
  676MPD2    H110057   2.938   1.501  11.391 -0.4692  1.0202  3.2541
  676MPD2    H210058   2.721   1.711  11.101  0.2892 -0.6858 -0.3703
  676MPD2    H310059   2.926   1.669  11.239  0.5110 -0.8220  1.5330
  676MPD2     N10060   2.743   1.326  11.448  0.1236  0.1292  0.0145
  676MPD2    H510061   2.839   1.322  11.482 -0.4322 -1.8509  1.3386
  676MPD2    N110062   2.483   1.591  11.153  0.5002  0.0663  0.1654
  676MPD2    H710063   2.409   1.534  11.192 -0.8585  1.2476 -0.7175
  677TMC3    C110064   2.311   1.695  11.029 -0.2876 -0.3393 -0.2861
  677TMC3    C210065   2.255   1.582  11.072  0.0126  0.2836 -0.2778
  677TMC3    C310066   2.142   1.578  11.151 -0.8508  0.3120  0.1066
  677TMC3    C410067   2.265   1.821  11.066  1.0309  0.4648  0.0430
  677TMC3    C510068   2.155   1.816  11.145 -0.8103 -0.0686 -0.7769
  677TMC3    C610069   2.092   1.699  11.190 -0.0624 -0.4242 -0.2391
  677TMC3     C10070   2.455   1.680  11.045  0.6120 -0.2942 -0.4207
  677TMC3     O10071   2.532   1.756  10.989 -0.2848  0.0386  0.1207
  677TMC3     H10072   2.296   1.487  11.040  1.5466  1.1723 -0.9694
  677TMC3    H110073   2.312   1.910  11.027  1.0792  0.8526  1.0137
  677TMC3    H210074   1.997   1.703  11.241 -0.5638 -1.4729 -1.0851
  677TMC3    C710075   2.120   1.934  11.231  0.1284  0.3289 -0.1062
  677TMC3    C810076   2.166   1.495  11.262 -1.1539 -0.1766 -0.3796
  677TMC3    O110077   2.020   1.921  11.300  0.3862  0.3708 -0.0176
  677TMC3    O210078   2.267   1.424  11.258  0.2515 -0.6096  0.6079
  678MPD2     C10079   4.393   1.365   1.472  0.6461 -0.3270 -0.6466
  678MPD2    C110080   4.335   1.466   1.395  0.7781 -0.3228 -0.2365
  678MPD2    C210081   4.204   1.446   1.347 -0.2371 -0.0412 -0.4359
  678MPD2    C310082   4.134   1.333   1.382 -0.1504 -0.4551  0.3454
  678MPD2    C410083   4.192   1.251   1.476 -0.3196  1.0985 -0.8717
  678MPD2    C510084   4.320   1.265   1.517 -0.2179 -0.5219 -0.4497
  678MPD2     H10085   4.157   1.529   1.296  1.2578  1.5176  0.7280
  678MPD2    H110086   4.149   1.162   1.519  1.8070  0.1486 -0.7000
  678MPD2    H210087   4.491   1.378   1.517  1.0748 -3.1162 -0.8046
  678MPD2    H310088   4.349   1.178   1.575  1.3050  1.0093  1.0909
  678MPD2     N10089   4.005   1.313   1.329  0.4880 -0.8295  0.1562
  678MPD2    H510090   3.977   1.388   1.267  0.1985 -0.1157  1.1611
  678MPD2    N110091   4.406   1.580   1.365 -0.7860  0.5770  0.7266
  678MPD2    H710092   4.360   1.650   1.309  1.7064 -1.5551 -4.0268
  679TMC3    C110093   0.075   1.781   1.268  0.6280  0.2297 -0.2960
  679TMC3    C210094   4.731   1.730   1.370 -0.0750 -0.4343 -1.0844
  679TMC3    C310095   4.592   1.734   1.354 -0.5611  0.2160 -0.0449
  679TMC3    C410096   0.029   1.848   1.163 -0.1213 -0.4347  0.0589
  679TMC3    C510097   4.623   1.849   1.148 -0.0643 -0.0329 -0.5834
  679TMC3    C610098   4.541   1.787   1.236  0.4521 -0.1361 -0.0079
  679TMC3     C10099   0.222   1.772   1.272  0.0129  0.0994 -0.3645
  679TMC3     O10100   0.284   1.834   1.188  0.3242 -0.4934 -0.1283
  679TMC3     H10101   0.037   1.708   1.468  1.5359 -1.6577 -2.0447
  679TMC3    H110102   0.094   1.905   1.098 -2.3907  0.0336 -1.8274
  679TMC3    H210103   4.434   1.788   1.218  0.3909  0.0529  0.3775
  679TMC3    C710104   4.560   1.935   1.050  0.2603  0.3155  0.3636
  679TMC3    C810105   4.532   1.611   1.408 -0.0436  0.5644 -0.3704
  679TMC3    O110106   4.615   1.948   0.943  0.3753 -0.3085 -0.2840
  679TMC3    O210107   4.615   1.539   1.456  0.1199  0.2398  0.4689
  680MPD2     C10108   4.550   0.005  13.186 -0.5995  0.3643  0.0482
  680MPD2    C110109   4.576   4.654  13.291 -0.5597 -0.3417  0.0034
  680MPD2    C210110   4.690   4.674  13.361 -0.3361 -0.1279 -0.5236
  680MPD2    C310111   0.027   0.056  13.352  0.7033 -0.1582  0.2822
  680MPD2    C410112   4.734   0.142  13.244 -0.3600  0.1914 -1.0853
  680MPD2    C510113   4.628   0.115  13.161 -0.2665  0.8004 -0.3318
  680MPD2     H10114   4.708   4.600  13.438  0.1701  1.4944  0.9093
  680MPD2    H110115   0.044   0.239  13.227  0.2422  0.1445  0.2537
  680MPD2    H210116   4.471   4.717  13.116  0.3011 -1.2365 -0.4066
  680MPD2    H310117   4.596   0.173  13.075 -0.5225 -1.1222 -1.5509
  680MPD2     N10118   0.135   0.085  13.435 -0.3125  0.2382  0.5785
  680MPD2    H510119   0.187   0.168  13.411 -0.5595 -0.1574 -1.3325
  680MPD2    N110120   4.505   4.534  13.309 -0.2187  0.1710 -0.2179
  680MPD2    H710121   4.545   4.470  13.377 -1.2750  1.9602  2.0573
  681TMC3    C110122   4.325   4.391  13.308  0.6607  0.0882 -0.1015
  681TMC3    C210123   4.212   4.389  13.374  0.4918  0.0161  0.1354
  681TMC3    C310124   4.177   4.285  13.457 -1.1036 -0.6821  0.2508
  681TMC3    C410125   4.401   4.280  13.311  0.2570 -0.0757 -0.3172
  681TMC3    C510126   4.353   4.168  13.375 -0.4972 -0.0828  0.1581
  681TMC3    C610127   4.245   4.165  13.457 -0.3002  0.7829 -0.2176
  681TMC3     C10128   4.380   4.514  13.263  0.0927 -0.2291 -0.2486
  681TMC3     O10129   4.302   4.583  13.201 -0.2496 -0.1517  0.6671
  681TMC3     H10130   4.154   4.481  13.376  3.1888  1.7355 -0.7497
  681TMC3    H110131   4.499   4.283  13.265 -0.6596 -0.6249 -2.3195
  681TMC3    H210132   4.205   4.082  13.514  0.6332 -0.2353 -1.0541
  681TMC3    C710133   4.421   4.047  13.352 -0.2899 -1.1815  0.2050
  681TMC3    C810134   4.120   4.333  13.584  0.0371 -0.2647 -0.1364
  681TMC3    O110135   4.441   3.971  13.447  0.1161  0.1126 -0.4169
  681TMC3    O210136   4.117   4.455  13.602  0.5783 -0.3561 -1.1120
  682MPD2     C10137   1.614   1.363  10.603 -0.4344  0.9072  0.1818
  682MPD2    C110138   1.618   1.229  10.632 -0.3900  0.4916  0.3324
  682MPD2    C210139   1.582   1.178  10.755  0.8646 -0.2314  0.3560
  682MPD2    C310140   1.526   1.269  10.847  0.4706 -0.3945 -0.0098
  682MPD2    C410141   1.499   1.398  10.805  0.0303 -0.3337 -0.3301
  682MPD2    C510142   1.547   1.445  10.690  0.4765 -0.4883  0.0927
  682MPD2     H10143   1.594   1.073  10.780  0.6380  0.3592  3.0288
  682MPD2    H110144   1.445   1.469  10.866  2.3066  0.3898  0.8320
  682MPD2    H210145   1.657   1.404  10.512 -1.2576  0.5919 -0.3579
  682MPD2    H310146   1.540   1.551  10.668 -1.1349 -0.6227 -0.0079
  682MPD2     N10147   1.500   1.249  10.981  0.5772  0.0662 -0.7489
  682MPD2    H510148   1.443   1.320  11.026  0.5750 -0.3380 -0.1167
  682MPD2    N110149   1.675   1.139  10.541  0.1566 -0.2991  0.3465
  682MPD2    H710150   1.693   1.046  10.577  0.1963 -0.8245 -1.0283
  683TMC3    C110151   1.459   1.290  11.383  0.1393 -0.2184 -0.1675
  683TMC3    C210152   1.448   1.178  11.461  0.5667  0.0469  0.2720
  683TMC3    C310153   1.466   1.059  11.402  0.3311  0.1254  0.6747
  683TMC3    C410154   1.474   1.285  11.250 -0.1776  0.3482 -1.1659
  683TMC3    C510155   1.496   1.157  11.197  0.2566 -0.3404  0.0003
  683TMC3    C610156   1.498   1.042  11.267  0.1289 -0.6905  0.1506
  683TMC3     C10157   1.505   1.416  11.442  0.3494  0.1554 -0.1397
  683TMC3     O10158   1.536   1.507  11.365  0.5292 -0.2986  0.3371
  683TMC3     H10159   1.390   1.169  11.552  1.0841 -0.5496  0.5374
  683TMC3    H110160   1.491   1.376  11.194 -1.4214  1.2274 -0.1004
  683TMC3    H210161   1.511   0.943  11.224  0.0417 -0.2797 -0.8175
  683TMC3    C710162   1.521   1.136  11.050  0.9081  0.2845  0.5376
  683TMC3    C810163   1.403   0.946  11.471  0.3459  0.3661  0.2755
  683TMC3    O110164   1.582   1.040  11.015  0.0106 -0.5524  0.5161
  683TMC3    O210165   1.317   0.955  11.554  0.6721  0.0864 -0.1886
  684MPD2     C10166   0.329   1.021  16.691 -0.3159 -0.6262 -0.2901
  684MPD2    C110167   0.215   0.967  16.646 -0.3668 -0.0409 -0.7259
  684MPD2    C210168   0.095   1.034  16.670  0.4912  0.5262  0.4101
  684MPD2    C310169   0.088   1.154  16.733 -0.3391  0.0104 -0.0275
  684MPD2    C410170   0.201   1.206  16.784  0.5040  0.0234  0.6975
  684MPD2    C510171   0.319   1.141  16.759 -0.1389 -0.3966 -0.5990
  684MPD2     H10172   4.735   0.988  16.645 -0.4526  1.7775  1.7403
  684MPD2    H110173   0.196   1.298  16.841  1.4838  0.3453  0.2707
  684MPD2    H210174   0.426   0.972  16.686  0.4050  0.8047 -0.4178
  684MPD2    H310175   0.406   1.192  16.797  0.6969 -1.1190 -1.5542
  684MPD2     N10176   4.705   1.223  16.749 -0.0194 -0.1947  0.1395
  684MPD2    H510177   4.712   1.314  16.794  0.1444 -0.3568  0.4448
  684MPD2    N110178   0.210   0.838  16.574  0.0056  0.6227  0.6413
  684MPD2    H710179   0.121   0.813  16.533  0.2189  0.3344  0.3444
  685TMC3    C110180   0.294   0.655  16.441  0.2130  0.8575 -0.5274
  685TMC3    C210181   0.206   0.677  16.344  0.0123 -0.5414 -0.2836
  685TMC3    C310182   0.240   0.635  16.217 -0.6735 -0.0247  0.3528
  685TMC3    C410183   0.414   0.592  16.420 -0.0114  0.1611  0.8993
  685TMC3    C510184   0.454   0.573  16.290 -0.2192 -0.3140  0.1285
  685TMC3    C610185   0.365   0.587  16.190 -0.4631  0.4692 -0.1111
  685TMC3     C10186   0.321   0.758  16.545 -1.3127 -0.3689 -0.3264
  685TMC3     O10187   0.435   0.756  16.596 -0.3393 -0.0842 -0.1984
  685TMC3     H10188   0.124   0.743  16.369 -0.5677 -1.6596  0.7272
  685TMC3    H110189   0.478   0.561  16.501  0.3215 -1.9206 -0.1564
  685TMC3    H210190   0.403   0.585  16.088 -0.2484  0.1307 -0.0242
  685TMC3    C710191   0.589   0.625  16.271 -0.3093  0.1972 -0.0879
  685TMC3    C810192   0.142   0.635  16.104 -0.3723  0.1767  0.2267
  685TMC3    O110193   0.654   0.574  16.180 -0.5146 -0.1358  0.0114
  685TMC3    O210194   0.150   0.549  16.015  0.6939  0.4886 -0.1878
  686MPD2     C10195   1.376   1.049  15.761 -0.5463 -0.9510  0.2715
  686MPD2    C110196   1.266   0.971  15.719  0.5051  0.2086 -0.4938
  686MPD2    C210197   1.260   0.947  15.581  0.6426 -0.4488  0.2670
  686MPD2    C310198   1.363   0.984  15.496  0.4296  0.5026  0.3622
  686MPD2    C410199   1.462   1.069  15.541  0.5710 -0.2171 -0.4570
  686MPD2    C510200   1.459   1.101  15.672 -0.1039  0.0474  0.2124
  686MPD2     H10201   1.176   0.893  15.540  0.9510 -0.4407 -0.3685
  686MPD2    H110202   1.538   1.115  15.478 -1.4882  0.3873 -2.4960
  686MPD2    H210203   1.402   1.074  15.864 -0.5127  1.5355 -0.3422
  686MPD2    H310204   1.531   1.170  15.714 -0.4541  0.1688  0.6196
  686MPD2     N10205   1.372   0.936  15.364 -0.6207 -0.4432  0.2400
  686MPD2    H510206   1.418   1.002  15.302 -1.8964  2.6467  2.5873
  686MPD2    N110207   1.176   0.908  15.814  0.0640  0.1286  0.1930
  686MPD2    H710208   1.202   0.922  15.911  2.4753 -0.8556 -0.3268
  687TMC3    C110209   1.280   0.699  15.385  0.5226 -0.1268  0.8630
  687TMC3    C210210   1.159   0.648  15.376 -0.0978  0.0192 -0.1520
  687TMC3    C310211   1.116   0.579  15.492 -0.2433 -0.4264 -0.4179
  687TMC3    C410212   1.367   0.675  15.488  0.3497 -0.2351 -0.3766
  687TMC3    C510213   1.314   0.604  15.596  0.7730 -0.0407 -0.2170
  687TMC3    C610214   1.197   0.545  15.600  0.5424  0.4063 -0.2108
  687TMC3     C10215   1.315   0.819  15.306 -0.0297 -0.9423 -0.2799
  687TMC3     O10216   1.308   0.793  15.189  0.3721  0.6915  0.4598
  687TMC3     H10217   1.105   0.651  15.282 -1.9621 -0.9668  0.8886
  687TMC3    H110218   1.463   0.723  15.498  0.1312 -0.3991  2.6491
  687TMC3    H210219   1.167   0.502  15.695 -4.1492  0.2833 -1.7774
  687TMC3    C710220   1.399   0.592  15.714 -0.2818 -0.2270  0.5601
  687TMC3    C810221   0.978   0.539  15.488  0.2643 -0.6760  0.5152
  687TMC3    O110222   1.343   0.580  15.821  0.1591  0.1318  0.2177
  687TMC3    O210223   0.899   0.568  15.402  0.3923 -0.1792  0.1687
  688MPD2     C10224   0.452   4.399  17.637  0.5274  0.1081  0.2538
  688MPD2    C110225   0.487   4.264  17.634  0.1694 -0.2291  0.3510
  688MPD2    C210226   0.612   4.229  17.578  0.3936 -0.1552 -0.1896
  688MPD2    C310227   0.687   4.333  17.520 -0.0254 -0.1738  0.0399
  688MPD2    C410228   0.642   4.458  17.521 -0.9616  0.4349  0.4996
  688MPD2    C510229   0.527   4.493  17.583 -0.3321 -0.0268 -0.3445
  688MPD2     H10230   0.656   4.129  17.578  1.5619  0.3703  1.9245
  688MPD2    H110231   0.697   4.540  17.475  3.5117 -3.2194 -0.7340
  688MPD2    H210232   0.365   4.437  17.690  0.4836 -1.7190  1.5027
  688MPD2    H310233   0.483   4.592  17.587 -1.5127 -0.6151  1.1654
  688MPD2     N10234   0.810   4.310  17.449  0.6722  0.2918  0.4036
  688MPD2    H510235   0.832   4.391  17.392  0.5694  0.1317  0.1373
  688MPD2    N110236   0.411   4.159  17.700  0.0512  0.2974  0.0948
  688MPD2    H710237   0.459   4.074  17.727 -0.9402 -0.1430  0.4762
  689TMC3    C110238   0.220   4.074   0.079 -0.3804  0.3635 -0.0047
  689TMC3    C210239   0.143   4.130   0.175 -0.5844  0.2736  0.2205
  689TMC3    C310240   0.146   4.082   0.307 -0.6004 -0.2833  0.5550
  689TMC3    C410241   0.286   3.959   0.104 -0.1380 -0.7691 -0.1756
  689TMC3    C510242   0.254   3.895   0.225  0.7425 -0.3180 -0.3841
  689TMC3    C610243   0.195   3.959   0.329 -0.6849 -0.0960  0.6517
  689TMC3     C10244   0.278   4.176  17.727  0.5224 -0.2362  0.5528
  689TMC3     O10245   0.213   4.272  17.698  0.1779  0.4861 -0.1676
  689TMC3     H10246   0.084   4.217   0.149  0.8961  0.9244 -0.9585
  689TMC3    H110247   0.359   3.908   0.042  2.0596  1.5127  0.5491
  689TMC3    H210248   0.172   3.903   0.419  0.2485 -1.6328 -0.0638
  689TMC3    C710249   0.283   3.758   0.252  0.0201 -0.5004  0.6296
  689TMC3    C810250   0.070   4.149   0.410  1.0415 -0.3458 -0.3925
  689TMC3    O110251   0.330   3.719   0.357 -0.4947  0.5117  0.1999
  689TMC3    O210252   0.085   4.094   0.514  0.5307 -0.5107  0.0377
  690MPD2     C10253   3.169   1.589  15.974 -0.6691  0.1247  0.0120
  690MPD2    C110254   3.082   1.584  15.861 -0.4829  0.0022 -0.3281
  690MPD2    C210255   3.129   1.635  15.739 -0.0737 -0.3532  0.4797
  690MPD2    C310256   3.258   1.683  15.726  0.0938  0.8079  0.3507
  690MPD2    C410257   3.343   1.675  15.824 -0.6376 -0.3908  0.1232
  690MPD2    C510258   3.293   1.636  15.952  0.4387 -0.9306  0.1620
  690MPD2     H10259   3.077   1.624  15.644 -0.7871 -0.6390  0.8977
  690MPD2    H110260   3.449   1.699  15.815 -1.0577  1.1718 -0.5781
  690MPD2    H210261   3.148   1.557  16.075 -1.9835  0.5917 -0.1120
  690MPD2    H310262   3.361   1.636  16.037 -1.2311 -0.2251  1.4966
  690MPD2     N10263   3.300   1.715  15.590 -0.1388 -0.1684  0.0935
  690MPD2    H510264   3.235   1.699  15.514 -1.4484  2.5175  0.6366
  690MPD2    N110265   2.946   1.546  15.873  0.4419  0.1726  0.0615
  690MPD2    H710266   2.895   1.549  15.786  1.6753 -1.2607 -0.7019
  691TMC3    C110267   2.750   1.459  15.971 -0.4009  0.5295  0.3048
  691TMC3    C210268   2.668   1.492  15.867 -0.1478  0.2499  0.1823
  691TMC3    C310269   2.559   1.418  15.838  0.4228 -0.2322  0.2748
  691TMC3    C410270   2.725   1.348  16.046 -0.1953  0.1119  0.3929
  691TMC3    C510271   2.614   1.275  16.017 -0.3028  0.4716 -0.1504
  691TMC3    C610272   2.529   1.307  15.913  0.5092 -0.4951 -0.0181
  691TMC3     C10273   2.884   1.508  15.987  0.0634  0.3492  1.2351
  691TMC3     O10274   2.918   1.517  16.102 -0.4637 -0.3074  0.6130
  691TMC3     H10275   2.685   1.585  15.814 -0.7949 -0.7838 -1.8213
  691TMC3    H110276   2.794   1.308  16.119  0.0041  0.9777  0.6804
  691TMC3    H210277   2.428   1.269  15.912  0.6253 -0.8626  1.3597
  691TMC3    C710278   2.577   1.165  16.115  0.6765  0.4085 -0.6052
  691TMC3    C810279   2.456   1.474  15.753 -0.0093  0.3957  0.5583
  691TMC3    O110280   2.616   1.178  16.227  0.0622  0.1311  0.3502
  691TMC3    O210281   2.387   1.386  15.706 -0.1533  0.0862  0.1385
  692TMC3    C110282   4.244   2.208  15.894 -0.0488 -0.8737 -0.4479
  692TMC3    C210283   4.368   2.229  15.946 -0.7726  0.0839  0.5611
  692TMC3    C310284   4.430   2.144  16.035  0.4881 -0.2526 -0.4604
  692TMC3    C410285   4.173   2.094  15.936 -0.2995  0.1460  0.0658
  692TMC3    C510286   4.235   2.012  16.029  0.1738 -0.6930  0.4244
  692TMC3    C610287   4.365   2.030  16.072 -0.1893 -0.1097 -0.1435
  692TMC3     C10288   4.154   2.310  15.858 -0.3361  0.5441 -0.2742
  692TMC3     O10289   4.042   2.281  15.817 -0.5399  0.1879 -0.6265
  692TMC3     H10290   4.434   2.293  15.889  0.2558 -0.7743  0.7758
  692TMC3    H110291   4.069   2.072  15.913 -0.3471  1.0015 -0.5805
  692TMC3    H210292   4.412   1.971  16.150  1.8882  0.6340 -0.8370
  692TMC3    C710293   4.168   1.891  16.049  0.4305  0.5828  0.0140
  692TMC3    C810294   4.482   2.210  16.150 -0.1407 -0.2544 -0.0987
  692TMC3    O110295   4.106   1.843  15.954 -0.4722 -0.4634 -0.6386
  692TMC3    O210296   4.517   2.139  16.241  0.3201  0.1488  0.0573
  693MPD2     C10297   3.817   0.679  10.472 -0.4486  0.4022 -0.1594
  693MPD2    C110298   3.748   0.570  10.530 -0.7023 -0.6387  0.1966
  693MPD2    C210299   3.817   0.490  10.616 -0.8316  0.0100 -0.7609
  693MPD2    C310300   3.950   0.522  10.658  0.3753  0.1437 -0.6403
  693MPD2    C410301   4.011   0.633  10.602  0.1140 -0.3165 -0.3627
  693MPD2    C510302   3.950   0.707  10.501 -1.0443 -0.3384  0.3052
  693MPD2     H10303   3.766   0.413  10.673 -0.2766 -0.3631 -0.7616
  693MPD2    H110304   4.110   0.655  10.639 -1.3874  2.1508  2.1779
  693MPD2    H210305   3.767   0.727  10.388 -2.7812 -0.3838  0.7900
  693MPD2    H310306   4.000   0.793  10.457 -1.0652  0.5428  1.9762
  693MPD2     N10307   4.028   0.454  10.754  0.0043 -0.6262 -0.5600
  693MPD2    H510308   4.123   0.486  10.769 -0.1059 -1.4635  1.8604
  693MPD2    N110309   3.616   0.543  10.486  0.7483  0.0408 -0.0440
  693MPD2    H710310   3.571   0.621  10.440 -0.9834 -1.3874 -0.7579
  694TMC3    C110311   3.396   0.445  10.501  0.3425 -0.7733 -0.3582
  694TMC3    C210312   3.321   0.343  10.470 -0.7968  0.4975  0.2301
  694TMC3    C310313   3.188   0.338  10.498 -0.6219  0.1011  0.2034
  694TMC3    C410314   3.346   0.560  10.564 -0.2298  0.0678  0.1606
  694TMC3    C510315   3.214   0.557  10.596 -0.1758 -0.1434  1.0161
  694TMC3    C610316   3.136   0.445  10.563 -0.7331 -0.4058  0.1032
  694TMC3     C10317   3.538   0.424  10.519 -0.2321 -0.8077  0.0153
  694TMC3     O10318   3.563   0.307  10.553 -0.0348 -0.3584  1.0385
  694TMC3     H10319   3.371   0.262  10.419  0.6780  1.9091 -0.5993
  694TMC3    H110320   3.409   0.638  10.607 -2.9121  2.5487 -0.4339
  694TMC3    H210321   3.029   0.450  10.584 -0.6328 -0.2667  0.5860
  694TMC3    C710322   3.187   0.601  10.738 -0.7258 -0.6860  0.6817
  694TMC3    C810323   3.116   0.211  10.470  0.1364 -0.3625 -0.3782
  694TMC3    O110324   3.173   0.719  10.767  0.0571  0.0781 -0.4013
  694TMC3    O210325   3.020   0.205  10.548  0.4072 -0.1629  0.5358
  695MPD2     C10326   0.344   2.037  13.700  0.4341  0.2891 -0.5697
  695MPD2    C110327   0.239   1.991  13.774 -0.1579  0.4868 -0.8206
  695MPD2    C210328   0.124   1.956  13.705  0.0276 -0.0925  0.3906
  695MPD2    C310329   0.120   1.956  13.569 -0.3134 -0.4736 -0.4385
  695MPD2    C410330   0.232   1.993  13.499  0.9979  0.3269  0.6572
  695MPD2    C510331   0.343   2.040  13.564  0.1812  0.3575  1.0325
  695MPD2     H10332   0.041   1.925  13.768 -0.7477  1.2812  0.0351
  695MPD2    H110333   0.236   1.995  13.390  2.4050  2.5066  0.7464
  695MPD2    H210334   0.432   2.077  13.750  1.1430 -1.2537 -0.5772
  695MPD2    H310335   0.426   2.078  13.507 -0.6570  1.1839  0.3538
  695MPD2     N10336   4.733   1.918  13.517  0.4526 -0.4633 -0.6005
  695MPD2    H510337   4.656   1.912  13.583 -0.7249  0.9313 -1.8414
  695MPD2    N110338   0.248   1.974  13.911  0.4229 -0.0294 -0.0711
  695MPD2    H710339   0.170   1.921  13.947  0.0746  0.1171 -0.6189
  696TMC3    C110340   4.558   1.878  13.372 -0.8721  0.4402 -0.4927
  696TMC3    C210341   4.500   1.817  13.477 -0.4806  0.4405  0.0550
  696TMC3    C310342   4.372   1.853  13.518  0.0068 -1.1933 -0.2496
  696TMC3    C410343   4.492   1.969  13.300 -0.0895 -0.2294 -0.0787
  696TMC3    C510344   4.359   1.988  13.323  0.1519  0.1593  0.4454
  696TMC3    C610345   4.302   1.935  13.433 -0.7784  1.3476 -0.3717
  696TMC3     C10346   4.702   1.906  13.384  0.5334  0.7227 -0.1521
  696TMC3     O10347   0.023   1.968  13.298 -0.6538  0.0425 -0.0441
  696TMC3     H10348   4.561   1.749  13.535 -2.3887 -2.3179 -1.1429
  696TMC3    H110349   4.546   2.009  13.215  2.1399  0.4153  1.6445
  696TMC3    H210350   4.204   1.971  13.461  0.0715  2.3962  1.2938
  696TMC3    C710351   4.297   2.118  13.284  0.0009  0.5396  0.2433
  696TMC3    C810352   4.384   1.910  13.650  0.0593  0.4203 -0.8277
  696TMC3    O110353   4.180   2.100  13.255  0.0437 -0.3349  0.5550
  696TMC3    O210354   4.502   1.910  13.672  0.6165  0.1226  0.0939
  697MPD2     C10355   4.231   4.109  15.853 -0.5122 -0.2367 -0.4878
  697MPD2    C110356   4.270   4.052  15.738  0.1338 -0.3390  0.3669
  697MPD2    C210357   4.322   4.132  15.644 -0.2358  0.1415  0.7754
  697MPD2    C310358   4.326   4.273  15.662  0.9179 -0.4698  0.3471
  697MPD2    C410359   4.276   4.327  15.776 -0.5087 -0.0862  0.8691
  697MPD2    C510360   4.227   4.244  15.875 -0.7240 -0.8074  0.2536
  697MPD2     H10361   4.370   4.091  15.556 -0.9459  0.6695  0.1402
  697MPD2    H110362   4.282   4.434  15.788  0.6402  0.0429 -0.8862
  697MPD2    H210363   4.186   4.048  15.931  1.2089 -0.6895  0.1509
  697MPD2    H310364   4.187   4.281  15.970  0.8685 -0.7672  0.9083
  697MPD2     N10365   4.403   4.336  15.561  0.2971  0.0263  0.1817
  697MPD2    H510366   4.424   4.281  15.479  0.5556  0.2796  0.0775
  697MPD2    N110367   4.281   3.911  15.718 -0.0651 -0.0158 -0.0607
  697MPD2    H710368   4.336   3.883  15.637 -1.1145 -1.3506 -0.3041
  698TMC3    C110369   4.537   4.486  15.449  0.0669  0.5715 -0.7163
  698TMC3    C210370   4.663   4.530  15.471 -0.6774 -0.2221  0.1586
  698TMC3    C310371   0.008   4.535  15.359  0.7581  0.0335 -0.0365
  698TMC3    C410372   4.494   4.433  15.331  0.5007  0.1775  0.0268
  698TMC3    C510373   4.577   4.445  15.220 -0.5848  0.0614 -0.0607
  698TMC3    C610374   4.705   4.493  15.229 -0.0985  0.7869  0.4432
  698TMC3     C10375   4.451   4.464  15.564  0.7704  0.2364  0.1081
  698TMC3     O10376   4.446   4.555  15.649  0.0211  0.3565 -0.6063
  698TMC3     H10377   4.693   4.573  15.566  0.3155  0.0059 -0.2541
  698TMC3    H110378   4.393   4.397  15.314  1.1944 -2.4630  1.3791
  698TMC3    H210379   0.041   4.500  15.148  1.5732  0.0642  1.8441
  698TMC3    C710380   4.533   4.387  15.093 -0.3956 -0.0072 -0.7709
  698TMC3    C810381   0.137   4.594  15.397  0.7165  0.2631 -0.0961
  698TMC3    O110382   4.424   4.330  15.088  0.0630 -0.0051 -0.5701
  698TMC3    O210383   0.173   4.581  15.512 -0.2696  0.1634  0.4748
  699TMC3    C110384   4.231   1.953  12.922  0.0745  0.2071  0.1755
  699TMC3    C210385   4.273   1.847  12.995  0.5825  0.7898 -0.0399
  699TMC3    C310386   4.183   1.750  13.033  0.4316 -0.8567 -0.7036
  699TMC3    C410387   4.103   1.959  12.875 -0.3292  0.3521  0.3429
  699TMC3    C510388   4.010   1.862  12.920  0.4035 -0.0878  0.5522
  699TMC3    C610389   4.056   1.751  12.985 -0.5758 -0.7333 -0.1864
  699TMC3     C10390   4.316   2.068  12.895  0.8277 -0.1460  0.1314
  699TMC3     O10391   4.432   2.045  12.925 -0.1332 -0.3599 -0.1291
  699TMC3     H10392   4.373   1.847  13.036 -0.1222  1.6214  1.6809
  699TMC3    H110393   4.072   2.048  12.820  2.9954  1.0035 -0.4761
  699TMC3    H210394   3.984   1.678  13.021 -0.7050 -0.2363  0.5546
  699TMC3    C710395   3.883   1.912  12.980  0.0625 -0.0380 -0.0238
  699TMC3    C810396   4.209   1.661  13.142  0.3354  0.1464  0.6360
  699TMC3    O110397   3.832   1.846  13.071  0.0042 -0.6484 -0.4368
  699TMC3    O210398   4.117   1.637  13.215 -0.5034 -0.0046 -0.2852
  700TMC3    C110399   3.042   4.411   0.117 -0.9267 -0.4948 -0.6655
  700TMC3    C210400   3.137   4.316   0.076  0.3831  0.5585 -0.1260
  700TMC3    C310401   3.268   4.340   0.096  0.1338  0.3533  0.3394
  700TMC3    C410402   3.090   4.517   0.192  0.5991 -0.3202  0.4223
  700TMC3    C510403   3.223   4.529   0.213  0.4808  0.6376  0.8983
  700TMC3    C610404   3.322   4.441   0.166 -0.4623  0.5736 -0.4151
  700TMC3     C10405   2.937   4.446   0.021  0.5011 -0.6377  0.2697
  700TMC3     O10406   2.867   4.356  17.721  0.0320 -0.5818 -0.1732
  700TMC3     H10407   3.098   4.246   0.003  0.6626 -1.8916  2.0689
  700TMC3    H110408   3.023   4.600   0.209  0.8126 -0.4270  1.7312
  700TMC3    H210409   3.425   4.475   0.166 -0.3902  0.3611 -0.4518
  700TMC3    C710410   3.269   4.658   0.268  0.2567  0.2944  0.7437
  700TMC3    C810411   3.362   4.262   0.027 -0.7311 -0.3818 -0.8366
  700TMC3    O110412   3.372   4.707   0.222  0.3647 -0.3603  0.2792
  700TMC3    O210413   3.479   4.302   0.029 -0.5789 -0.2650 -0.2885
  701TMC3    C110414   3.386   3.466  15.130 -0.2440  0.2125 -0.2990
  701TMC3    C210415   3.386   3.327  15.121  0.2212 -0.4295 -0.2317
  701TMC3    C310416   3.490   3.259  15.181 -0.0156 -0.1261  0.3743
  701TMC3    C410417   3.489   3.541  15.191  0.0694 -0.0452 -0.1308
  701TMC3    C510418   3.583   3.463  15.247  0.1737 -0.5141 -0.4659
  701TMC3    C610419   3.590   3.328  15.244  0.0011 -0.0849 -0.0502
  701TMC3     C10420   3.282   3.547  15.065 -0.3415  0.5020  0.7189
  701TMC3     O10421   3.276   3.658  15.118 -0.4085  0.2231  0.4387
  701TMC3     H10422   3.290   3.281  15.099 -0.6203  1.0101  0.3946
  701TMC3    H110423   3.501   3.648  15.185  2.8415 -0.4624 -2.0664
  701TMC3    H210424   3.682   3.277  15.269  0.3100  1.0226  1.0473
  701TMC3    C710425   3.693   3.538  15.309 -0.2704  0.6562 -0.6348
  701TMC3    C810426   3.518   3.109  15.174 -0.5993 -0.4155 -0.0328
  701TMC3    O110427   3.744   3.624  15.236  0.0884  0.3288  0.0560
  701TMC3    O210428   3.603   3.069  15.250  0.1549 -0.2992 -0.0533
  702MPD2     C10429   3.238   0.940  11.301  0.3475  1.3501  0.1385
  702MPD2    C110430   3.114   0.992  11.268 -0.1583  0.0503 -0.0774
  702MPD2    C210431   3.097   1.057  11.149 -0.6869  0.1162  0.2427
  702MPD2    C310432   3.194   1.065  11.051 -0.1335  0.2407  0.3658
  702MPD2    C410433   3.316   1.009  11.084 -0.4961 -0.3014  0.4824
  702MPD2    C510434   3.336   0.953  11.209 -0.1383 -0.5831  0.2685
  702MPD2     H10435   3.004   1.111  11.138  0.4226  2.2410  1.3002
  702MPD2    H110436   3.397   1.004  11.012  0.3761 -0.3756  1.4655
  702MPD2    H210437   3.269   0.887  11.390 -1.0467  0.7032  0.2448
  702MPD2    H310438   3.437   0.922  11.232 -0.5464  0.8361  3.8978
  702MPD2     N10439   3.175   1.135  10.929  0.0808  0.6215 -0.0121
  702MPD2    H510440   3.254   1.128  10.867  0.2748 -1.0408  0.4223
  702MPD2    N110441   3.004   0.986  11.361  0.1410  0.0572 -0.0256
  702MPD2    H710442   2.915   1.026  11.332  0.1353  0.8560  1.0844
  703TMC3    C110443   3.055   1.234  10.746 -0.4545  0.7275  0.3800
  703TMC3    C210444   2.928   1.274  10.706  0.1403  0.1021 -0.0474
  703TMC3    C310445   2.907   1.387  10.640  0.4470 -0.1658  0.8845
  703TMC3    C410446   3.162   1.313  10.716  0.2973  0.6765  0.6082
  703TMC3    C510447   3.145   1.419  10.630 -0.1660 -0.8315  0.7929
  703TMC3    C610448   3.016   1.464  10.600 -0.1744  0.6983  0.1032
  703TMC3     C10449   3.055   1.179  10.880 -1.2452 -0.1865  0.2413
  703TMC3     O10450   2.947   1.181  10.936 -0.4983 -1.1010  0.2961
  703TMC3     H10451   2.845   1.209  10.730  0.4987 -0.4243 -0.2249
  703TMC3    H110452   3.261   1.281  10.746  0.4730  0.8532  0.2203
  703TMC3    H210453   2.994   1.548  10.535 -1.2943 -0.6221 -1.2184
  703TMC3    C710454   3.256   1.497  10.590  0.2046  0.0871  0.8898
  703TMC3    C810455   2.780   1.454  10.640 -0.2226 -0.4384  0.0881
  703TMC3    O110456   3.239   1.588  10.509  0.9309 -0.2821  0.1705
  703TMC3    O210457   2.781   1.567  10.594  0.5028  0.0106  0.2569
  704TMC3    C110458   1.016   3.455  12.221  0.0156  0.0102 -0.5022
  704TMC3    C210459   1.036   3.368  12.120  0.3198  0.1214  0.1193
  704TMC3    C310460   1.091   3.244  12.120  0.7009  0.1423  0.3670
  704TMC3    C410461   1.058   3.414  12.346  0.3207  0.0546 -0.3719
  704TMC3    C510462   1.121   3.292  12.350 -0.0763 -0.2346  0.2739
  704TMC3    C610463   1.138   3.209  12.242 -0.1750  0.1213 -0.8896
  704TMC3     C10464   0.871   3.480  12.232  0.0646 -0.6100 -0.0310
  704TMC3     O10465   0.805   3.398  12.296  0.1792  0.1912 -1.2895
  704TMC3     H10466   0.984   3.389  12.027  1.1193  1.0866 -0.1200
  704TMC3    H110467   1.029   3.469  12.434  1.3190 -0.4965  0.2949
  704TMC3    H210468   1.193   3.117  12.263 -1.5841 -0.6750 -0.7012
  704TMC3    C710469   1.104   3.221  12.478 -0.0102  0.3753  0.2624
  704TMC3    C810470   1.008   3.151  12.057  0.1983  0.2819  0.1675
  704TMC3    O110471   0.989   3.191  12.509 -0.2957 -0.1152  0.1547
  704TMC3    O210472   1.024   3.094  11.952  0.2293 -0.3370 -0.3726
  705MPD2     C10473   0.145   2.053  16.842 -0.2511  0.2193 -0.2077
  705MPD2    C110474   0.053   2.016  16.745 -0.3490  0.1441  0.1002
  705MPD2    C210475   4.659   2.044  16.772 -0.5729  0.2153  0.0437
  705MPD2    C310476   4.621   2.094  16.892  0.6321 -0.0764 -0.3994
  705MPD2    C410477   4.710   2.130  16.990  0.2271  0.6116  0.3781
  705MPD2    C510478   0.105   2.103  16.962  0.0229 -0.3880  0.5147
  705MPD2     H10479   4.583   2.019  16.698 -0.0843  0.7562 -0.6387
  705MPD2    H110480   4.688   2.195  17.073  0.6250 -0.3338  1.2286
  705MPD2    H210481   0.252   2.040  16.840 -0.0521  2.0858 -0.9179
  705MPD2    H310482   0.175   2.144  17.034  0.3755 -0.1039  0.0005
  705MPD2     N10483   4.480   2.125  16.894 -0.0024 -0.3875 -0.2651
  705MPD2    H510484   4.429   2.098  16.810  1.9910  0.8339 -1.8767
  705MPD2    N110485   0.082   1.965  16.620  0.1066 -0.0697  0.0196
  705MPD2    H710486   4.731   1.947  16.570  0.8968 -1.5040 -0.8464
  706TMC3    C110487   0.054   1.893  16.236 -0.2990  0.1617 -0.0800
  706TMC3    C210488   0.113   1.999  16.173  0.3811 -0.0998  0.5941
  706TMC3    C310489   0.217   2.068  16.228  0.0389 -0.0264  0.1461
  706TMC3    C410490   0.091   1.864  16.365  0.3417 -0.7621  0.6568
  706TMC3    C510491   0.182   1.946  16.426 -0.8854 -0.6082  0.2212
  706TMC3    C610492   0.249   2.046  16.360  0.4866 -0.5977  0.8552
  706TMC3     C10493   4.679   1.817  16.185  0.8445 -0.0449 -0.3748
  706TMC3     O10494   4.597   1.764  16.264  0.5484 -0.2750 -0.5212
  706TMC3     H10495   0.083   2.023  16.072  1.2587 -2.4305 -0.2331
  706TMC3    H110496   0.061   1.780  16.426 -2.3320 -0.9053 -0.8642
  706TMC3    H210497   0.324   2.106  16.410  1.7218 -2.0103  0.7079
  706TMC3    C710498   0.202   1.936  16.569 -0.0418 -0.5521  0.0159
  706TMC3    C810499   0.208   2.206  16.185  0.8203  0.4206 -0.4600
  706TMC3    O110500   0.319   1.961  16.604  0.1231  0.2534 -0.5163
  706TMC3    O210501   0.210   2.235  16.065 -0.3209  0.2045 -0.8152
  707TMC3    C110502   1.395   1.355   1.500  0.1372 -0.4169  0.2793
  707TMC3    C210503   1.388   1.261   1.605 -0.6023  0.1564  0.4038
  707TMC3    C310504   1.275   1.259   1.681 -0.5841  0.2547 -0.6124
  707TMC3    C410505   1.311   1.459   1.487  0.0311  0.5542  0.3403
  707TMC3    C510506   1.202   1.458   1.567  0.7070 -0.2427 -0.0511
  707TMC3    C610507   1.185   1.359   1.666  0.5390 -0.2335 -0.8053
  707TMC3     C10508   1.511   1.329   1.414 -0.1007 -0.0087 -0.2334
  707TMC3     O10509   1.565   1.222   1.425 -0.1380  0.2981 -0.1870
  707TMC3     H10510   1.470   1.192   1.616  0.7131  1.8634  1.2605
  707TMC3    H110511   1.327   1.528   1.405  1.2812 -1.7307 -1.3349
  707TMC3    H210512   1.111   1.372   1.744  1.1564 -0.9506 -0.0993
  707TMC3    C710513   1.089   1.539   1.546  0.2291  0.8755  0.3077
  707TMC3    C810514   1.262   1.179   1.792 -0.3718  0.1536 -0.4025
  707TMC3    O110515   0.999   1.514   1.622  0.3434  0.3099  0.1938
  707TMC3    O210516   1.154   1.164   1.844  0.0969 -0.1151  0.4538
  708MPD2     C10517   2.728   0.010  14.890 -0.7201 -0.2283 -0.0938
  708MPD2    C110518   2.681   0.097  14.794 -0.3463  0.0953 -0.4712
  708MPD2    C210519   2.648   0.230  14.822 -0.1986  0.0618  0.0228
  708MPD2    C310520   2.697   0.290  14.940 -0.3066 -0.0484 -0.3918
  708MPD2    C410521   2.747   0.202  15.034 -0.2222  0.7403  0.7985
  708MPD2    C510522   2.774   0.071  15.004  0.2605  0.3360  0.5984
  708MPD2     H10523   2.586   0.280  14.749  1.0890  0.0206 -1.0939
  708MPD2    H110524   2.776   0.247  15.129  1.9182 -0.9388  0.9223
  708MPD2    H210525   2.751   4.643  14.866  1.2275  0.1646  0.0727
  708MPD2    H310526   2.804   4.734  15.079 -0.6708 -1.5878 -0.8882
  708MPD2     N10527   2.680   0.429  14.970  0.2706  0.1273  0.3778
  708MPD2    H510528   2.728   0.460  15.054  1.6511 -1.0169  0.0234
  708MPD2    N110529   2.642   0.045  14.666 -0.4894  0.6375 -0.7634
  708MPD2    H710530   2.583   0.101  14.605 -0.4149  1.4306 -0.0990
  709TMC3    C110531   2.656   4.671  14.469 -0.3755  0.5312  0.1484
  709TMC3    C210532   2.762   4.677  14.383  0.0166 -0.3755 -0.3905
  709TMC3    C310533   2.771   0.037  14.291  0.8197 -0.5793 -0.3950
  709TMC3    C410534   2.551   0.019  14.453  0.4205 -0.0891  0.3906
  709TMC3    C510535   2.553   0.113  14.355 -0.1787 -0.0852 -0.9426
  709TMC3    C610536   2.667   0.124  14.276 -0.2794  0.0766  0.1282
  709TMC3     C10537   2.703   4.667  14.605  0.5088 -0.4551 -0.1292
  709TMC3     O10538   2.811   4.616  14.636  0.3615  0.3626  0.9865
  709TMC3     H10539   2.856   4.634  14.415 -0.4753 -1.0279  0.1959
  709TMC3    H110540   2.463   4.731  14.511 -0.3450 -3.7542 -2.2339
  709TMC3    H210541   2.680   0.211  14.213 -1.8078  0.2997  0.1089
  709TMC3    C710542   2.492   0.237  14.405 -0.4946 -0.0132 -1.1983
  709TMC3    C810543   2.865   0.015  14.180 -0.3464 -0.3161 -1.0205
  709TMC3    O110544   2.478   0.238  14.525  0.0910  0.0181 -0.0339
  709TMC3    O210545   2.924   4.645  14.169  0.3846  0.5609  0.1321
  710TMC3    C110546   4.037   2.189   0.382  0.2537 -0.3540  0.5063
  710TMC3    C210547   4.091   2.137   0.267 -0.1276  0.0669 -0.5074
  710TMC3    C310548   4.220   2.091   0.279 -0.4908  0.2068 -0.3613
  710TMC3    C410549   4.105   2.190   0.502 -0.8199  0.2152 -0.6573
  710TMC3    C510550   4.234   2.148   0.502  0.3545 -0.2311 -0.5108
  710TMC3    C610551   4.303   2.111   0.388  0.1298 -0.5222 -0.0137
  710TMC3     C10552   3.898   2.230   0.366 -0.0847  0.5494  0.5723
  710TMC3     O10553   3.842   2.174   0.273  0.5409 -0.2705 -0.1488
  710TMC3     H10554   4.036   2.120   0.174  0.4959 -0.5273 -0.7679
  710TMC3    H110555   4.051   2.211   0.594  0.2228  1.1031 -0.2513
  710TMC3    H210556   4.404   2.077   0.403 -0.1203 -0.8739  0.8823
  710TMC3    C710557   4.312   2.142   0.622  0.0963 -0.0149  0.0292
  710TMC3    C810558   4.275   2.008   0.172 -0.3631  0.6265  0.4161
  710TMC3    O110559   4.402   2.066   0.628 -0.9095 -0.2403  0.1134
  710TMC3    O210560   4.397   1.997   0.181 -0.9926  0.0130 -0.9653
  711TMC3    C110561   4.020   2.729  14.786  0.6113  0.1289 -0.0894
  711TMC3    C210562   4.001   2.693  14.920  0.1342  0.2301  0.0984
  711TMC3    C310563   4.059   2.769  15.021 -0.2554  0.3646  0.1616
  711TMC3    C410564   4.089   2.844  14.753  0.9547  0.3206  0.5058
  711TMC3    C510565   4.135   2.924  14.857  0.7760 -0.0442  0.2914
  711TMC3    C610566   4.120   2.890  14.985  0.9752 -0.3354  0.1116
  711TMC3     C10567   3.963   2.639  14.693  0.1878  0.5783  0.4594
  711TMC3     O10568   3.894   2.553  14.736  0.0552 -0.1356  0.2247
  711TMC3     H10569   3.950   2.602  14.949 -2.2316  0.6013 -2.8289
  711TMC3    H110570   4.112   2.868  14.650  2.1462 -1.1187  0.4420
  711TMC3    H210571   4.152   2.959  15.062 -0.8314 -0.1192  0.6614
  711TMC3    C710572   4.265   2.986  14.853 -0.0836  0.2105  0.3141
  711TMC3    C810573   4.076   2.703  15.145  0.4917  0.4022  0.3098
  711TMC3    O110574   4.266   3.105  14.863 -0.0338  0.3436  0.2167
  711TMC3    O210575   4.005   2.608  15.159  0.3482 -0.3704 -0.6669
  712MPD2     C10576   0.896   3.361  13.398 -0.3533 -0.4637 -0.1982
  712MPD2    C110577   0.766   3.395  13.393 -1.1144  1.1015 -0.7107
  712MPD2    C210578   0.721   3.522  13.358 -0.3773 -0.3456 -0.0293
  712MPD2    C310579   0.818   3.611  13.306 -0.2061  0.0508  1.0288
  712MPD2    C410580   0.952   3.573  13.309  0.0910 -0.2614 -0.0291
  712MPD2    C510581   0.991   3.451  13.352 -0.0645  0.7554  0.7351
  712MPD2     H10582   0.616   3.548  13.356 -0.4282 -0.6512 -1.5085
  712MPD2    H110583   1.032   3.643  13.290  0.9304 -1.6265 -1.4606
  712MPD2    H210584   0.924   3.261  13.428  1.0400 -0.3494 -1.0843
  712MPD2    H310585   1.095   3.423  13.357 -0.4550 -0.7919  0.2931
  712MPD2     N10586   0.788   3.748  13.269 -0.4022  0.3265  0.0418
  712MPD2    H510587   0.861   3.813  13.240 -0.1012 -0.2890 -0.5890
  712MPD2    N110588   0.667   3.303  13.436  0.0902  0.5051 -0.1775
  712MPD2    H710589   0.577   3.345  13.458  0.4060  0.2792  1.5956
  713TMC3    C110590   0.651   3.918  13.188 -0.3353 -0.2879  0.0548
  713TMC3    C210591   0.754   4.007  13.206 -1.3021 -0.4480  0.5318
  713TMC3    C310592   0.748   4.122  13.132 -0.5541 -0.2139 -0.3986
  713TMC3    C410593   0.555   3.937  13.087 -0.0333 -0.4447  0.1430
  713TMC3    C510594   0.556   4.059  13.025  0.0331  0.7281 -0.3410
  713TMC3    C610595   0.651   4.153  13.046 -0.4149  0.3629  0.2412
  713TMC3     C10596   0.657   3.793  13.250  0.1734  0.1109  0.3975
  713TMC3     O10597   0.542   3.752  13.260 -0.0794  0.2312  0.8897
  713TMC3     H10598   0.828   3.983  13.282 -2.0663 -1.7333  0.8716
  713TMC3    H110599   0.481   3.860  13.071 -0.5849 -0.3762  2.3271
  713TMC3    H210600   0.657   4.253  13.006  2.6709  0.3389  0.6018
  713TMC3    C710601   0.439   4.105  12.955 -0.6063  0.1105 -0.1238
  713TMC3    C810602   0.850   4.219  13.150 -0.9689 -0.0013  0.1620
  713TMC3    O110603   0.336   4.048  12.982 -0.3114 -0.2549  0.2985
  713TMC3    O210604   0.843   4.330  13.103  0.7125  0.2593  0.0634
  714MPD2     C10605   2.490   2.620   1.831 -0.5792 -0.4557  1.0719
  714MPD2    C110606   2.528   2.591   1.698  0.2681 -1.0064 -0.2217
  714MPD2    C210607   2.435   2.619   1.603  0.1214 -0.0823  0.0760
  714MPD2    C310608   2.314   2.673   1.637  0.1332 -0.5092  0.1894
  714MPD2    C410609   2.279   2.705   1.770 -0.9560 -0.2312  0.1859
  714MPD2    C510610   2.370   2.679   1.867 -0.3782 -0.3179 -0.0201
  714MPD2     H10611   2.444   2.594   1.497 -0.0845  2.3639 -0.5159
  714MPD2    H110612   2.184   2.746   1.801 -0.7727 -1.3550  2.1697
  714MPD2    H210613   2.571   2.608   1.902  1.7775  2.2675 -1.1766
  714MPD2    H310614   2.364   2.713   1.970 -0.4797 -0.2964 -0.0342
  714MPD2     N10615   2.225   2.702   1.531 -0.6909  0.2648 -0.6129
  714MPD2    H510616   2.264   2.700   1.438 -2.3362 -1.8868 -1.2428
  714MPD2    N110617   2.669   2.547   1.668  0.1623 -0.0921 -0.2380
  714MPD2    H710618   2.728   2.527   1.748 -0.9901  0.9413  0.8692
  715TMC3    C110619   2.855   2.478   1.527 -0.5289 -0.2369 -0.2139
  715TMC3    C210620   2.883   2.414   1.410 -0.5425 -0.0597 -0.3743
  715TMC3    C310621   3.015   2.405   1.376 -0.1862 -0.0465 -0.3844
  715TMC3    C410622   2.945   2.535   1.612 -0.6186 -0.2812 -0.8272
  715TMC3    C510623   3.077   2.518   1.569  0.0558  0.0508  0.2129
  715TMC3    C610624   3.117   2.456   1.452  0.3559  0.2597  0.2596
  715TMC3     C10625   2.712   2.517   1.538 -0.3360  0.8331  0.0574
  715TMC3     O10626   2.642   2.494   1.441  0.4511 -0.4912  0.5866
  715TMC3     H10627   2.805   2.367   1.352  0.3707 -0.9223 -0.8946
  715TMC3    H110628   2.923   2.594   1.700  3.2331  0.7999 -0.5974
  715TMC3    H210629   3.220   2.438   1.423  0.1879 -1.9537  0.9935
  715TMC3    C710630   3.195   2.553   1.654  0.2886 -0.1835 -0.3270
  715TMC3    C810631   3.059   2.316   1.264 -0.4311  0.7025 -1.0976
  715TMC3    O110632   3.297   2.557   1.590  0.2366 -0.3217 -0.0410
  715TMC3    O210633   2.981   2.229   1.248 -0.5489  0.1788 -0.1324
  716MPD2     C10634   2.700   1.095  10.333 -0.5313  0.5790 -1.2999
  716MPD2    C110635   2.644   1.130  10.216 -0.4451 -0.1758 -0.4811
  716MPD2    C210636   2.601   1.026  10.138  0.1853 -0.5626 -0.3828
  716MPD2    C310637   2.639   0.896  10.157  0.0447 -0.4314 -0.8549
  716MPD2    C410638   2.707   0.866  10.274 -0.4666 -0.0924  0.2638
  716MPD2    C510639   2.738   0.965  10.359 -0.0320  0.0662 -1.0181
  716MPD2     H10640   2.553   1.038  10.042  2.8816 -0.0906 -1.6615
  716MPD2    H110641   2.729   0.767  10.313  2.8265  0.3461 -0.5338
  716MPD2    H210642   2.720   1.177  10.401 -0.4898  0.3283 -1.0135
  716MPD2    H310643   2.787   0.939  10.452 -1.9316 -1.6901 -0.4930
  716MPD2     N10644   2.603   0.799  10.061  0.9421 -0.3709 -0.3199
  716MPD2    H510645   2.541   0.829   9.987  0.0336 -1.2710  0.0751
  716MPD2    N110646   2.618   1.267  10.186  0.1704 -0.1140  0.3850
  716MPD2    H710647   2.656   1.339  10.248  1.2709 -0.1914 -0.1937
  717TMC3    C110648   2.525   0.594  10.012  1.2891 -0.5454 -0.1793
  717TMC3    C210649   2.411   0.661   9.963 -0.4135  0.1818 -0.5845
  717TMC3    C310650   2.327   0.575   9.896  0.4412 -0.0687 -0.4244
  717TMC3    C410651   2.556   0.466   9.989 -0.3412  0.1524 -0.0466
  717TMC3    C510652   2.472   0.399   9.905  0.2075 -0.6358  0.0464
  717TMC3    C610653   2.349   0.445   9.862  1.2868  0.0269  0.1341
  717TMC3     C10654   2.631   0.668  10.077 -0.4084 -0.2266 -0.7510
  717TMC3     O10655   2.703   0.610  10.157  0.0329 -0.2953  0.0499
  717TMC3     H10656   2.382   0.762   9.987 -1.4646 -0.7057  1.8226
  717TMC3    H110657   2.643   0.422  10.037 -1.0722 -0.3493  0.8170
  717TMC3    H210658   2.288   0.383   9.797  2.2514  0.6858 -1.4063
  717TMC3    C710659   2.519   0.278   9.840 -0.6666 -0.9793 -0.1495
  717TMC3    C810660   2.192   0.615   9.886 -0.1042  0.0120  0.6853
  717TMC3    O110661   2.435   0.212   9.782  0.4554  0.2564 -0.5913
  717TMC3    O210662   2.179   0.731   9.854 -0.1888 -0.2785 -0.4217
  718MPD2     C10663   2.639   3.408  12.695  0.6092  0.2498  0.4309
  718MPD2    C110664   2.554   3.444  12.590 -0.3084  0.0735 -0.4006
  718MPD2    C210665   2.435   3.370  12.583  0.1592  0.0432 -0.0821
  718MPD2    C310666   2.410   3.253  12.643  0.8738  0.3828 -0.5240
  718MPD2    C410667   2.492   3.228  12.752 -0.1697  0.9476 -0.2832
  718MPD2    C510668   2.604   3.304  12.780  0.5154  0.9486 -0.4085
  718MPD2     H10669   2.367   3.404  12.506 -0.9082 -1.8966  0.0140
  718MPD2    H110670   2.474   3.142  12.815  4.8120  0.0537 -0.0326
  718MPD2    H210671   2.730   3.465  12.708 -0.3433  1.7811  0.3901
  718MPD2    H310672   2.668   3.283  12.865  0.4713  1.9016 -0.1299
  718MPD2     N10673   2.298   3.182  12.605 -0.1423 -0.4911  0.2567
  718MPD2    H510674   2.255   3.219  12.521  1.0882  1.1622  0.3552
  718MPD2    N110675   2.585   3.568  12.524 -0.1771  0.3059  0.1498
  718MPD2    H710676   2.672   3.617  12.545  2.0454 -3.5983  0.0885
  719TMC3    C110677   2.520   3.768  12.411 -0.1798 -0.2172 -0.0543
  719TMC3    C210678   2.416   3.811  12.335 -1.2011 -0.7257  0.9276
  719TMC3    C310679   2.347   3.920  12.366  0.4867 -0.5945  0.0989
  719TMC3    C410680   2.560   3.833  12.521  0.3163  0.0664  0.0839
  719TMC3    C510681   2.496   3.952  12.548  0.7221 -0.6124 -0.1006
  719TMC3    C610682   2.385   3.992  12.480  0.7667  0.2417 -0.2512
  719TMC3     C10683   2.505   3.623  12.424 -0.5401  0.1653  0.5444
  719TMC3     O10684   2.409   3.569  12.369 -0.2665 -0.5127  0.4633
  719TMC3     H10685   2.401   3.764  12.238 -1.5137 -1.7197  1.4500
  719TMC3    H110686   2.639   3.793  12.583  0.5299  0.7093  0.2261
  719TMC3    H210687   2.336   4.082  12.517 -0.1175 -1.0571  1.7726
  719TMC3    C710688   2.592   4.054  12.591 -0.4231  0.3375  0.5394
  719TMC3    C810689   2.206   3.892  12.368  0.2498  0.5363  0.1466
  719TMC3    O110690   2.698   4.039  12.539 -0.5047  0.2488 -0.2973
  719TMC3    O210691   2.126   3.983  12.385  0.2523 -0.0934  0.2340
  720MPD2     C10692   0.335   1.006  14.248  0.6437  0.1499  1.2717
  720MPD2    C110693   0.400   1.127  14.232 -0.1400 -0.5270 -0.0661
  720MPD2    C210694   0.467   1.188  14.338  0.0951  0.6972  0.0067
  720MPD2    C310695   0.489   1.117  14.457  0.3139 -0.1501  0.1433
  720MPD2    C410696   0.440   0.989  14.460  0.0903 -0.5292  0.5961
  720MPD2    C510697   0.352   0.943  14.366  0.8081  0.2295 -0.5948
  720MPD2     H10698   0.510   1.287  14.326  0.7518  0.4174  0.0423
  720MPD2    H110699   0.473   0.927  14.543 -1.7924 -0.7933  1.1741
  720MPD2    H210700   0.280   0.958  14.168  1.6247  1.0095  0.0837
  720MPD2    H310701   0.322   0.841  14.380 -0.3613  0.9079  1.7297
  720MPD2     N10702   0.583   1.156  14.550  0.4641 -0.1760 -0.4632
  720MPD2    H510703   0.626   1.246  14.535 -1.0686  1.1408  3.0695
  720MPD2    N110704   0.411   1.186  14.107 -0.3587 -0.0692  0.0075
  720MPD2    H710705   0.456   1.277  14.106  0.7183 -0.5825  1.1805
  721TMC3    C110706   0.688   1.176  14.757  0.0853 -0.0896 -0.1148
  721TMC3    C210707   0.678   1.164  14.895  0.6266  0.3310 -0.1833
  721TMC3    C310708   0.774   1.221  14.973 -0.1699 -0.4943 -0.2251
  721TMC3    C410709   0.801   1.233  14.700  1.0013 -0.1146 -0.0776
  721TMC3    C510710   0.903   1.275  14.783  0.6274 -0.7968 -0.4318
  721TMC3    C610711   0.890   1.276  14.923  1.1914 -0.7345 -1.0175
  721TMC3     C10712   0.617   1.098  14.671  0.0320 -0.1597 -0.2094
  721TMC3     O10713   0.575   0.995  14.720  0.3226 -0.0759  0.2561
  721TMC3     H10714   0.591   1.110  14.930  0.4716  1.3841  1.0309
  721TMC3    H110715   0.820   1.227  14.594 -0.2670 -0.7225 -0.2644
  721TMC3    H210716   0.970   1.310  14.988 -0.4421 -0.8679  1.0663
  721TMC3    C710717   1.030   1.229  14.740  0.2909  0.2628 -0.3628
  721TMC3    C810718   0.747   1.247  15.118  0.3788  0.0374 -0.8064
  721TMC3    O110719   1.077   1.276  14.637  0.4625 -0.1162 -0.0082
  721TMC3    O210720   0.782   1.354  15.154  0.1431  0.1298  0.4769
  722MPD2     C10721   4.142   4.087  13.058 -0.3225 -0.2100  0.6828
  722MPD2    C110722   4.105   4.218  13.079  0.2830 -0.4298 -0.9577
  722MPD2    C210723   3.999   4.243  13.164  0.1895  0.0443  0.4936
  722MPD2    C310724   3.957   4.143  13.260  0.2605  0.0876  0.3282
  722MPD2    C410725   4.016   4.015  13.247 -0.6965  0.0568  0.1728
  722MPD2    C510726   4.112   3.992  13.152 -0.3331  0.0692 -0.3227
  722MPD2     H10727   3.960   4.343  13.179  0.0276  0.4988 -2.9131
  722MPD2    H110728   3.987   3.938  13.318 -1.1546  0.3818  0.3348
  722MPD2    H210729   4.218   4.059  12.986 -0.9524 -1.8456  0.6597
  722MPD2    H310730   4.153   3.891  13.151 -1.2565 -0.3037 -1.8247
  722MPD2     N10731   3.855   4.161  13.355  0.2608 -0.6290 -0.3528
  722MPD2    H510732   3.818   4.085  13.410 -0.1779  0.2803  0.6083
  722MPD2    N110733   4.168   4.323  13.006 -0.3602 -0.3249 -0.1348
  722MPD2    H710734   4.116   4.409  12.994  0.9022  0.4014 -0.3734
  723TMC3    C110735   3.710   4.255  13.512 -0.3361 -0.2696 -0.3752
  723TMC3    C210736   3.634   4.138  13.500 -0.1680 -0.0956  0.0503
  723TMC3    C310737   3.554   4.107  13.606  0.2604 -0.4844 -0.3961
  723TMC3    C410738   3.718   4.339  13.626  0.0427 -0.1256  0.3521
  723TMC3    C510739   3.642   4.297  13.724 -0.3411  0.3351 -0.3926
  723TMC3    C610740   3.559   4.183  13.714 -0.0153  0.0637  0.3052
  723TMC3     C10741   3.803   4.279  13.405 -0.6150 -0.0324 -0.1026
  723TMC3     O10742   3.820   4.394  13.373 -0.6960 -0.0380  0.0151
  723TMC3     H10743   3.614   4.091  13.405 -1.5799 -1.7749  1.1734
  723TMC3    H110744   3.787   4.423  13.622  0.5607 -0.6579 -1.5053
  723TMC3    H210745   3.480   4.176  13.788 -1.0452 -1.6479 -0.9490
  723TMC3    C710746   3.634   4.356  13.852  0.1914 -0.4369  0.1122
  723TMC3    C810747   3.447   4.008  13.593  0.3105 -0.2149 -0.2762
  723TMC3    O110748   3.559   4.310  13.937  0.2628  0.0606 -0.0908
  723TMC3    O210749   3.402   3.964  13.698  0.7291  0.2490 -0.1968
  724TMC3    C110750   0.398   3.037  10.138  0.1180 -0.0879 -0.4361
  724TMC3    C210751   0.288   2.950  10.152  0.1018  0.4367 -0.3808
  724TMC3    C310752   0.171   3.016  10.188 -0.8514  0.1408 -0.3784
  724TMC3    C410753   0.386   3.174  10.144 -0.0003 -0.2369 -0.2558
  724TMC3    C510754   0.263   3.230  10.177  0.3930  0.3289  0.3973
  724TMC3    C610755   0.155   3.153  10.200 -0.0265 -0.1043  0.5849
  724TMC3     C10756   0.523   2.968  10.111 -0.4502 -0.0539 -0.6115
  724TMC3     O10757   0.511   2.846  10.089 -0.4730  0.2383 -0.2630
  724TMC3     H10758   0.283   2.842  10.146  0.8348  0.4891 -1.9244
  724TMC3    H110759   0.473   3.238  10.131 -0.0082  0.5799  3.7039
  724TMC3    H210760   0.057   3.195  10.218 -0.8901 -0.6924 -2.6680
  724TMC3    C710761   0.256   3.377  10.166  0.6875 -0.0943  0.1909
  724TMC3    C810762   0.051   2.934  10.173 -0.5026  0.6010 -0.6642
  724TMC3    O110763   0.359   3.419  10.114  1.5373  0.1490  0.0831
  724TMC3    O210764   0.067   2.814  10.194  0.1858 -0.1037 -0.7537
  725TMC3    C110765   1.460   1.436  13.185  1.2227  0.2863 -0.5161
  725TMC3    C210766   1.326   1.457  13.165 -0.4739 -0.3866  0.5016
  725TMC3    C310767   1.273   1.394  13.057  0.0092  0.0826 -0.5986
  725TMC3    C410768   1.537   1.369  13.101 -0.7821  0.7894 -0.7210
  725TMC3    C510769   1.476   1.307  12.992 -0.2120  0.1671 -0.1052
  725TMC3    C610770   1.341   1.318  12.965  0.9935 -0.2109 -0.7505
  725TMC3     C10771   1.521   1.492  13.303 -0.5209 -0.2651  0.2535
  725TMC3     O10772   1.640   1.509  13.277  0.3747  0.4737  0.2872
  725TMC3     H10773   1.253   1.508  13.226 -0.2092  0.6208 -0.0127
  725TMC3    H110774   1.646   1.368  13.104 -0.7457  0.3622 -2.2544
  725TMC3    H210775   1.287   1.282  12.879 -2.2137  0.8154  0.8474
  725TMC3    C710776   1.547   1.201  12.922  0.4974  0.7263 -0.0482
  725TMC3    C810777   1.137   1.402  13.026 -0.3641 -0.2221  0.7417
  725TMC3    O110778   1.532   1.179  12.804  0.7492 -0.7313 -0.5064
  725TMC3    O210779   1.063   1.372  13.125  0.1563 -0.1850 -0.0256
  726MPD2     C10780   4.034   2.991  10.824 -0.2809  0.2641 -0.1332
  726MPD2    C110781   3.975   3.098  10.754 -0.4596  0.4643  0.6041
  726MPD2    C210782   3.832   3.102  10.755  0.9617  0.4472  0.3426
  726MPD2    C310783   3.754   3.015  10.831  0.3880  0.0240  0.2493
  726MPD2    C410784   3.821   2.915  10.893 -0.7466 -0.0362 -0.5020
  726MPD2    C510785   3.957   2.905  10.897 -0.1001  0.8172  0.4527
  726MPD2     H10786   3.794   3.183  10.693 -1.6342 -0.8370  0.2781
  726MPD2    H110787   3.762   2.835  10.936  1.8158 -2.5808 -1.7243
  726MPD2    H210788   4.141   2.977  10.828 -0.2579  0.2324 -0.8983
  726MPD2    H310789   4.007   2.821  10.944 -1.1980 -0.5769 -0.8678
  726MPD2     N10790   3.616   3.011  10.828  0.0461 -0.4765 -0.1346
  726MPD2    H510791   3.567   2.941  10.882 -1.9315  1.2354  0.3078
  726MPD2    N110792   4.046   3.198  10.682  0.5194  0.4502 -0.1340
  726MPD2    H710793   3.979   3.265  10.645 -0.0880  1.1958  2.3373
  727TMC3    C110794   4.212   3.367  10.638  0.3390 -0.4787 -0.2919
  727TMC3    C210795   4.342   3.396  10.618  0.6192 -0.2642  0.0155
  727TMC3    C310796   4.380   3.524  10.602 -0.1701  0.7561  0.1211
  727TMC3    C410797   4.115   3.459  10.615  0.2932  0.6263  0.1099
  727TMC3    C510798   4.155   3.589  10.587  0.3759 -0.6780  0.3340
  727TMC3    C610799   4.288   3.624  10.573 -0.5737  0.1570 -0.0348
  727TMC3     C10800   4.182   3.224  10.676 -0.4660 -0.0058  0.9134
  727TMC3     O10801   4.271   3.149  10.716  0.0268  0.1176  0.1146
  727TMC3     H10802   4.409   3.317  10.650 -2.0452 -2.5954 -0.1134
  727TMC3    H110803   4.009   3.435  10.614  0.5652 -0.5232 -2.2238
  727TMC3    H210804   4.319   3.728  10.569 -2.3865  0.6892 -0.4308
  727TMC3    C710805   4.054   3.696  10.589 -0.1379 -0.6566 -0.0325
  727TMC3    C810806   4.518   3.549  10.621 -0.6034 -0.2583 -0.1244
  727TMC3    O110807   4.097   3.812  10.592  0.9604 -0.4707  0.0908
  727TMC3    O210808   4.586   3.446  10.616 -0.6377  0.1958  0.6987
  728TMC3    C110809   3.446   1.787  15.424  0.0887  0.4906  0.2800
  728TMC3    C210810   3.578   1.817  15.409  0.4370  0.4508 -0.7474
  728TMC3    C310811   3.614   1.834  15.278  0.6604 -0.3655  0.3476
  728TMC3    C410812   3.355   1.756  15.326  0.0347  0.5191 -0.1018
  728TMC3    C510813   3.408   1.761  15.200 -1.2651  0.2281  0.3345
  728TMC3    C610814   3.533   1.804  15.171  0.3925  0.2252  0.5767
  728TMC3     C10815   3.418   1.768  15.564  0.1286 -0.3260  0.0473
  728TMC3     O10816   3.495   1.821  15.647  0.1038 -0.2740 -0.2709
  728TMC3     H10817   3.646   1.833  15.491  0.2824 -0.0222 -0.5271
  728TMC3    H110818   3.252   1.725  15.345 -0.2223  0.3315 -1.7803
  728TMC3    H210819   3.569   1.809  15.069 -0.9541  2.6164  0.2364
  728TMC3    C710820   3.306   1.788  15.102  0.1916 -0.3723 -0.1348
  728TMC3    C810821   3.741   1.900  15.247 -0.0877  0.1734 -0.5408
  728TMC3    O110822   3.192   1.811  15.150  0.4536 -0.2478 -0.0472
  728TMC3    O210823   3.761   1.906  15.127 -0.2692 -0.0545 -0.4118
  729MPD2     C10824   0.278   3.003  16.559 -0.2375 -0.0171 -0.4082
  729MPD2    C110825   0.378   2.964  16.648  0.6037 -0.1902  0.2519
  729MPD2    C210826   0.345   2.957  16.780  0.5050 -0.0244 -0.2418
  729MPD2    C310827   0.218   2.997  16.824 -0.1472 -0.7318  0.1043
  729MPD2    C410828   0.129   3.027  16.735 -0.1772  0.3143  0.5063
  729MPD2    C510829   0.153   3.029  16.602  0.9831 -0.2315  0.0029
  729MPD2     H10830   0.425   2.945  16.852  2.0207  0.8281 -1.7860
  729MPD2    H110831   0.027   3.058  16.754 -0.2432 -0.4642  1.4046
  729MPD2    H210832   0.297   3.017  16.454 -1.3370  0.6783 -0.5100
  729MPD2    H310833   0.074   3.073  16.542  0.6938  3.5303  3.1330
  729MPD2     N10834   0.188   3.008  16.963 -0.1898  0.3997  0.0450
  729MPD2    H510835   0.105   3.065  16.973 -0.4709 -0.0219  0.0795
  729MPD2    N110836   0.511   2.950  16.598 -0.8776 -0.0303 -0.1508
  729MPD2    H710837   0.534   2.993  16.509  3.0287 -2.6677 -0.4141
  730TMC3    C110838   0.209   2.985  17.196  0.1675 -0.6621  0.4796
  730TMC3    C210839   0.238   2.886  17.278 -0.5373  0.2876 -0.0683
  730TMC3    C310840   0.288   2.925  17.399  0.0806  0.0638 -0.3087
  730TMC3    C410841   0.210   3.121  17.223  0.4442  0.2762  0.5207
  730TMC3    C510842   0.255   3.158  17.354 -0.1778  0.6950 -0.4566
  730TMC3    C610843   0.285   3.058  17.442  0.3279  0.0156 -0.5701
  730TMC3     C10844   0.263   2.952  17.070 -0.1003  0.4197  0.1022
  730TMC3     O10845   0.366   2.884  17.074 -1.0505 -0.0805  0.0501
  730TMC3     H10846   0.233   2.790  17.229  1.4748  0.8501 -1.3549
  730TMC3    H110847   0.203   3.194  17.144 -2.5317 -1.8019 -1.1355
  730TMC3    H210848   0.312   3.092  17.541  0.5034  3.5582 -1.8208
  730TMC3    C710849   0.341   3.269  17.358  0.5406 -0.4240 -0.3199
  730TMC3    C810850   0.418   2.861  17.420 -0.4163 -0.1605 -0.0529
  730TMC3    O110851   0.383   3.299  17.247 -0.5341 -0.1992  0.5599
  730TMC3    O210852   0.437   2.759  17.354 -0.2618 -0.5836 -0.2227
  731MPD2     C10853   1.038   0.609  12.655 -0.6477  0.0215 -0.7765
  731MPD2    C110854   0.933   0.684  12.603  0.0983 -0.2745 -0.6886
  731MPD2    C210855   0.871   0.784  12.686  0.4242  0.4747 -0.0814
  731MPD2    C310856   0.910   0.810  12.813  1.1856  0.2594  0.5334
  731MPD2    C410857   1.005   0.729  12.858  0.3083  0.2374  0.3545
  731MPD2    C510858   1.076   0.637  12.781  0.0134 -0.0090 -0.6869
  731MPD2     H10859   0.792   0.844  12.643  0.1059  0.2962  0.2588
  731MPD2    H110860   1.040   0.729  12.960 -2.0754  2.5956  1.1360
  731MPD2    H210861   1.093   0.534  12.599 -0.7663 -0.8106  0.2025
  731MPD2    H310862   1.160   0.587  12.829 -0.5190 -0.7021 -0.4711
  731MPD2     N10863   0.853   0.910  12.890 -0.7787  0.5932 -0.0608
  731MPD2    H510864   0.771   0.958  12.855  0.3399  2.5420 -0.0423
  731MPD2    N110865   0.916   0.669  12.457 -0.4425 -0.4298 -0.3350
  731MPD2    H710866   0.980   0.611  12.405  0.3898  0.2267 -0.0495
  732TMC3    C110867   0.821   0.721  12.246  0.1149 -0.0482 -0.1537
  732TMC3    C210868   0.710   0.727  12.174  0.3679  0.0889 -0.1576
  732TMC3    C310869   0.722   0.728  12.038  0.3489 -0.1687 -0.2234
  732TMC3    C410870   0.945   0.735  12.195 -0.1616 -0.1418  0.5266
  732TMC3    C510871   0.951   0.737  12.062 -0.1382 -0.1937 -0.5951
  732TMC3    C610872   0.844   0.725  11.979 -0.3100 -0.2884  0.0386
  732TMC3     C10873   0.806   0.726  12.388 -0.4897  0.0792 -0.1833
  732TMC3     O10874   0.700   0.767  12.437 -0.2986  0.5432  0.3516
  732TMC3     H10875   0.613   0.722  12.223 -0.3226 -2.2557 -1.7358
  732TMC3    H110876   1.029   0.744  12.262  0.6416 -1.2895 -0.3138
  732TMC3    H210877   0.857   0.701  11.874  0.8979  2.8304 -0.5269
  732TMC3    C710878   1.073   0.708  11.999 -0.8069 -0.1819 -0.2078
  732TMC3    C810879   0.618   0.673  11.957 -0.6674 -0.6381  0.1243
  732TMC3    O110880   1.085   0.745  11.884 -0.2211  0.1340  0.1587
  732TMC3    O210881   0.644   0.628  11.849  0.2725  0.2056  1.0570
  733TMC3    C110882   1.892   2.997  12.659 -0.4541  0.0775  0.7826
  733TMC3    C210883   2.022   2.994  12.694 -0.1358  0.3339  0.2601
  733TMC3    C310884   2.110   3.055  12.610 -0.2116 -0.3483 -0.6848
  733TMC3    C410885   1.847   3.054  12.542 -0.3690  0.0790 -0.6006
  733TMC3    C510886   1.937   3.113  12.457  0.0534  0.2019  0.1076
  733TMC3    C610887   2.075   3.122  12.495 -0.2699  0.4201 -0.0883
  733TMC3     C10888   1.800   3.012  12.763  0.7487 -0.3816  0.3685
  733TMC3     O10889   1.715   3.096  12.748  0.6375  0.0202  0.3505
  733TMC3     H10890   2.043   2.957  12.794  0.7752 -2.3153 -0.9193
  733TMC3    H110891   1.742   3.062  12.517 -0.8963  2.7010  2.4752
  733TMC3    H210892   2.153   3.139  12.421  0.5243 -3.7805 -0.2133
  733TMC3    C710893   1.878   3.231  12.400  0.2314 -0.4230 -0.2160
  733TMC3    C810894   2.235   3.080  12.671  0.6827 -0.3842  0.2511
  733TMC3    O110895   1.763   3.230  12.368 -0.5457 -0.2974 -0.2753
  733TMC3    O210896   2.274   3.007  12.765  0.9284 -0.2691 -0.3190
  734MPD2     C10897   3.700   1.499  12.802  0.0241  0.9664  0.1117
  734MPD2    C110898   3.588   1.456  12.725  0.4304  0.0474  0.0128
  734MPD2    C210899   3.535   1.551  12.635  0.7967 -0.3771 -0.5026
  734MPD2    C310900   3.591   1.678  12.622  0.2110 -0.1318 -0.3104
  734MPD2    C410901   3.695   1.714  12.699  0.5099  0.2202  0.0812
  734MPD2    C510902   3.747   1.624  12.783  0.0654 -0.4180  1.0204
  734MPD2     H10903   3.469   1.523  12.553 -1.2037 -0.5760  1.1796
  734MPD2    H110904   3.742   1.811  12.682 -1.1463  0.6996 -1.7574
  734MPD2    H210905   3.756   1.453  12.883 -1.2623 -2.5405 -1.0031
  734MPD2    H310906   3.843   1.647  12.827  0.0018  0.5676  0.6629
  734MPD2     N10907   3.532   1.759  12.523 -0.5983 -0.3081 -0.1976
  734MPD2    H510908   3.451   1.711  12.483 -1.6190  1.0836  0.1766
  734MPD2    N110909   3.560   1.318  12.719 -0.5212  0.9056  0.0552
  734MPD2    H710910   3.624   1.252  12.763  1.2921  2.3264 -0.4479
  735TMC3    C110911   3.445   1.134  12.629  0.2378 -0.2881 -0.5001
  735TMC3    C210912   3.321   1.095  12.582  0.2178 -0.3638  0.7175
  735TMC3    C310913   3.316   1.021  12.463  0.3123  0.6303 -0.5207
  735TMC3    C410914   3.564   1.078  12.576  0.1086 -0.0357 -0.1236
  735TMC3    C510915   3.549   1.010  12.457  0.0344  0.2696  0.5452
  735TMC3    C610916   3.432   0.982  12.395  0.2875 -0.0096 -0.3494
  735TMC3     C10917   3.449   1.275  12.649  0.8144  1.0259  0.0275
  735TMC3     O10918   3.350   1.333  12.615 -0.1705  0.2611  0.3345
  735TMC3     H10919   3.227   1.140  12.612  0.4357 -1.2661  2.7919
  735TMC3    H110920   3.660   1.102  12.619  1.7119 -0.9102 -3.2100
  735TMC3    H210921   3.429   0.920  12.306 -0.7019  0.9654 -1.0088
  735TMC3    C710922   3.672   0.969  12.396  0.2847  0.4049 -0.2547
  735TMC3    C810923   3.218   1.075  12.369 -1.0892  0.1121 -0.0500
  735TMC3    O110924   3.773   1.033  12.416  0.3708 -0.3733  0.1856
  735TMC3    O210925   3.188   1.005  12.274 -0.5805  0.6210  0.7855
  736MPD2     C10926   3.742   0.643  12.245 -0.5985 -0.4693 -0.5760
  736MPD2    C110927   3.769   0.774  12.284 -0.9786  0.6105 -0.1531
  736MPD2    C210928   3.890   0.834  12.248  0.9585 -0.3376  0.1316
  736MPD2    C310929   3.992   0.756  12.196 -0.1275 -0.5920 -0.0979
  736MPD2    C410930   3.963   0.630  12.154 -0.6092  0.2207 -0.2278
  736MPD2    C510931   3.834   0.570  12.173 -0.2269  0.3136  0.0201
  736MPD2     H10932   3.898   0.940  12.267  0.6457 -0.4867  1.1048
  736MPD2    H110933   4.033   0.572  12.096  0.2185 -1.1699  2.1481
  736MPD2    H210934   3.649   0.594  12.270 -0.7905  0.8989  1.3291
  736MPD2    H310935   3.801   0.476  12.130  0.9742  0.7951 -1.9756
  736MPD2     N10936   4.114   0.811  12.150  0.7960 -0.0449  0.0661
  736MPD2    H510937   4.171   0.753  12.088  2.3156 -0.0740  1.5023
  736MPD2    N110938   3.670   0.843  12.350  0.5582 -0.4258  0.3109
  736MPD2    H710939   3.584   0.792  12.367 -0.2345  0.8417  0.1259
  737TMC3    C110940   4.267   0.982  12.086  0.3695  0.0614 -0.2306
  737TMC3    C210941   4.300   1.116  12.087 -0.5797 -0.8224 -0.1940
  737TMC3    C310942   4.389   1.163  11.990 -0.8780  0.0822 -0.1701
  737TMC3    C410943   4.329   0.890  12.008 -0.0639 -0.2825 -0.0083
  737TMC3    C510944   4.420   0.938  11.912  0.2858 -1.1532  0.9270
  737TMC3    C610945   4.452   1.072  11.904 -0.3425 -0.0178  0.5303
  737TMC3     C10946   4.157   0.940  12.170 -0.3376 -0.3181  0.4505
  737TMC3     O10947   4.123   1.023  12.250  0.0725 -0.5653  0.2487
  737TMC3     H10948   4.243   1.175  12.158 -1.5610 -0.5746 -1.1770
  737TMC3    H110949   4.309   0.784  12.013 -0.7893 -0.0634  1.7667
  737TMC3    H210950   4.507   1.109  11.818  0.9323  1.6338  2.0656
  737TMC3    C710951   4.498   0.824  11.850 -0.0266 -0.2255 -0.1891
  737TMC3    C810952   4.373   1.304  11.959  0.3600  0.1482  0.6598
  737TMC3    O110953   4.470   0.707  11.868 -0.1858 -0.3583  0.1952
  737TMC3    O210954   4.354   1.383  12.051  0.4175  0.0907 -0.1903
  738MPD2     C10955   0.337   0.067  15.439  0.0971  0.0213 -0.1753
  738MPD2    C110956   0.292   0.024  15.312 -0.0022  0.8011  1.2197
  738MPD2    C210957   0.344   0.090  15.196  0.6474 -0.0000  0.0916
  738MPD2    C310958   0.427   0.204  15.217  0.3699 -0.3552 -0.3762
  738MPD2    C410959   0.475   0.229  15.341  0.1195 -0.7510 -0.3293
  738MPD2    C510960   0.436   0.153  15.446  0.4535 -0.5104 -0.0063
  738MPD2     H10961   0.301   0.072  15.098  0.6220 -0.9045  0.2664
  738MPD2    H110962   0.550   0.306  15.354 -0.1809 -0.7991  1.7808
  738MPD2    H210963   0.298   0.034  15.535 -0.4743 -2.5038 -1.2728
  738MPD2    H310964   0.460   0.182  15.548  0.7846 -0.4366 -0.1079
  738MPD2     N10965   0.461   0.290  15.109 -0.1892 -0.5209  0.6290
  738MPD2    H510966   0.496   0.379  15.143  0.7970  0.4887 -3.0153
  738MPD2    N110967   0.193   4.668  15.292  0.2424  1.0291 -0.4552
  738MPD2    H710968   0.150   4.670  15.200  1.1590 -1.0418 -0.9152
  739TMC3    C110969   0.454   0.380  14.887  0.9391 -0.0625  0.1803
  739TMC3    C210970   0.464   0.358  14.752  0.0311  0.2415  0.1331
  739TMC3    C310971   0.440   0.459  14.656  0.1608  0.6868 -0.4805
  739TMC3    C410972   0.413   0.503  14.933 -0.0814  0.0348  0.0866
  739TMC3    C510973   0.371   0.594  14.839  0.1627  0.6675 -0.5899
  739TMC3    C610974   0.400   0.579  14.698 -0.4226 -0.2752 -0.0308
  739TMC3     C10975   0.428   0.267  14.979 -0.0521 -0.6913 -0.9992
  739TMC3     O10976   0.389   0.166  14.922 -0.2081  0.5521 -0.2392
  739TMC3     H10977   0.464   0.256  14.716 -0.3331  0.2162  0.2056
  739TMC3    H110978   0.400   0.534  15.036 -1.0348  1.1393 -0.3706
  739TMC3    H210979   0.374   0.660  14.631 -0.1986 -0.4448 -0.3242
  739TMC3    C710980   0.348   0.720  14.890 -0.2887  0.1039 -0.7226
  739TMC3    C810981   0.470   0.422  14.519 -0.1434  1.1003  0.0874
  739TMC3    O110982   0.370   0.739  15.010  0.6109  0.4284 -0.3387
  739TMC3    O210983   0.438   0.508  14.443 -0.2229 -0.1711 -0.3583
  740TMC3    C110984   4.686   1.432  14.464 -0.8001 -0.6600  0.5080
  740TMC3    C210985   4.677   1.301  14.515  0.1595 -0.5013 -0.3055
  740TMC3    C310986   0.007   1.206  14.448  0.3192 -0.2625  0.4311
  740TMC3    C410987   0.006   1.466  14.341 -0.0420  0.0755  0.1331
  740TMC3    C510988   0.051   1.358  14.270 -0.1541  0.1384  0.3641
  740TMC3    C610989   0.058   1.231  14.321 -0.3260 -0.8249  0.1256
  740TMC3     C10990   4.609   1.532  14.531 -0.6288  0.1136  0.5605
  740TMC3     O10991   4.615   1.644  14.484  0.1884  0.0178  0.2258
  740TMC3     H10992   4.624   1.268  14.604 -0.2775 -2.1201 -1.1660
  740TMC3    H110993   4.723   1.564  14.299 -1.5219  0.7784  2.3885
  740TMC3    H210994   0.117   1.163  14.260 -1.2955 -0.0661 -1.6839
  740TMC3    C710995   0.055   1.363  14.124 -0.3636  0.6110 -0.0418
  740TMC3    C810996   4.715   1.071  14.500  0.0444 -0.1012  0.5369
  740TMC3    O110997   4.734   1.276  14.063 -0.2703 -0.0006  0.0587
  740TMC3    O210998   4.668   1.054  14.614  0.2225 -0.2386 -0.0955
  741TMC3    C110999   4.699   0.273  14.749  0.0911  0.2197  0.6042
  741TMC3    C211000   4.569   0.257  14.751  0.3876 -0.3198 -0.0578
  741TMC3    C311001   4.501   0.288  14.863 -0.6630  0.9275 -0.4575
  741TMC3    C411002   0.033   0.304  14.860 -0.0864 -0.7552  0.0875
  741TMC3    C511003   4.698   0.354  14.969  0.5377  0.2312 -0.7157
  741TMC3    C611004   4.558   0.345  14.974  0.2061  0.1053 -0.1879
  741TMC3     C11005   0.041   0.209  14.642  0.6639  0.2426 -0.0227
  741TMC3     O11006   0.151   0.164  14.663 -0.1777  0.6729  0.4673
  741TMC3     H11007   4.513   0.216  14.667 -3.0888  0.1631  2.0334
  741TMC3    H111008   0.135   0.267  14.863 -0.0149 -0.5142  0.5172
  741TMC3    H211009   4.507   0.392  15.057 -1.0219 -1.6473  0.0424
  741TMC3    C711010   0.026   0.342  15.097 -0.1102 -0.4733 -0.0570
  741TMC3    C811011   4.364   0.324  14.839  0.1146  0.3593 -0.1372
  741TMC3    O111012   0.105   0.248  15.112  0.0541 -0.4317  0.0012
  741TMC3    O211013   4.302   0.257  14.759 -0.2941  0.5128  0.3773
  742TMC3    C111014   0.139   4.193  15.382 -0.0296  0.3141  0.2669
  742TMC3    C211015   0.048   4.146  15.289  0.4464  0.5018  0.0726
  742TMC3    C311016   0.096   4.133  15.159 -0.0019  0.3443  0.3926
  742TMC3    C411017   0.272   4.226  15.361  0.9961  0.4808 -0.0410
  742TMC3    C511018   0.309   4.212  15.229  0.3549  0.1614  0.4061
  742TMC3    C611019   0.223   4.170  15.131  0.2171  0.4917  0.2182
  742TMC3     C11020   0.092   4.210  15.521 -0.2484 -0.4354  0.7147
  742TMC3     O11021   4.726   4.156  15.562  0.3087 -0.1684  0.1786
  742TMC3     H11022   4.680   4.162  15.314  0.0737 -0.5675 -0.7869
  742TMC3    H111023   0.348   4.249  15.435  0.3936  2.3199  0.0155
  742TMC3    H211024   0.272   4.134  15.041 -0.4070  1.4051 -0.4806
  742TMC3    C711025   0.442   4.151  15.220  0.4369  0.6035 -0.2740
  742TMC3    C811026   0.036   4.044  15.056  0.5300 -1.0643 -0.3919
  742TMC3    O111027   0.451   4.039  15.173 -0.3641 -0.2505  0.2402
  742TMC3    O211028   0.119   3.991  14.985  0.1767 -0.0729  0.1363
  743MPD2     C11029   2.134   0.618   2.397  0.4480 -0.0715  0.3485
  743MPD2    C111030   2.162   0.574   2.277  0.4565  0.5877 -0.0827
  743MPD2    C211031   2.290   0.578   2.227  0.9913 -0.4303  0.4688
  743MPD2    C311032   2.396   0.606   2.312 -0.5110 -1.2258 -0.3163
  743MPD2    C411033   2.373   0.642   2.438 -0.6555 -0.6035  0.5381
  743MPD2    C511034   2.239   0.650   2.478  0.0515 -0.4782 -0.2008
  743MPD2     H11035   2.311   0.550   2.124 -0.5718 -2.6194  0.7448
  743MPD2    H111036   2.444   0.674   2.514  0.7252 -0.5244 -0.7747
  743MPD2    H211037   2.032   0.648   2.419  0.1058 -2.3528  1.9040
  743MPD2    H311038   2.220   0.689   2.578  4.9829  1.4150 -0.0247
  743MPD2     N11039   2.522   0.604   2.256  0.0470 -0.2138  0.0204
  743MPD2    H511040   2.522   0.573   2.159 -2.7701  0.5639 -0.2392
  743MPD2    N111041   2.052   0.525   2.199  0.6715 -0.7862  0.1477
  743MPD2    H711042   1.958   0.543   2.231  0.1638 -1.0617 -1.1786
  744TMC3    C111043   1.940   0.438   1.998  0.3198 -0.3008 -0.4856
  744TMC3    C211044   1.848   0.543   1.995 -0.4434 -0.4471  0.2400
  744TMC3    C311045   1.810   0.583   1.871 -0.2252 -0.4701  1.0886
  744TMC3    C411046   1.968   0.369   1.888  0.0657 -0.3108  0.1733
  744TMC3    C511047   1.926   0.418   1.766 -0.6752 -0.2582 -0.7198
  744TMC3    C611048   1.853   0.532   1.752 -0.5674 -0.7303 -0.1544
  744TMC3     C11049   2.061   0.453   2.078  0.5871 -0.1411  0.1923
  744TMC3     O11050   2.159   0.419   2.016  0.4885  0.6714 -0.2923
  744TMC3     H11051   1.838   0.619   2.071  1.6096  0.0068  0.0724
  744TMC3    H111052   2.039   0.287   1.902  0.8060  0.4859  1.0563
  744TMC3    H211053   1.822   0.565   1.653 -1.5472 -1.9865 -0.2517
  744TMC3    C711054   2.005   0.370   1.656 -0.2096 -0.0298 -0.0713
  744TMC3    C811055   1.719   0.692   1.865 -0.8989 -0.7647 -0.6490
  744TMC3    O111056   2.030   0.444   1.562 -0.6467 -0.0794 -0.0560
  744TMC3    O211057   1.725   0.742   1.753  0.0233 -0.0675  0.2533
  745TMC3    C111058   0.550   3.101  13.504  0.1316  0.0781  0.3374
  745TMC3    C211059   0.459   3.194  13.548 -0.3384  0.2522  0.1696
  745TMC3    C311060   0.326   3.178  13.520  0.3766  0.4687  0.1185
  745TMC3    C411061   0.508   2.994  13.428  0.0902 -0.6475  0.2898
  745TMC3    C511062   0.380   3.000  13.376 -0.7124 -0.4253 -0.2746
  745TMC3    C611063   0.286   3.083  13.426  0.2249  0.1085  0.1781
  745TMC3     C11064   0.678   3.161  13.454  0.1258  0.5748  0.0602
  745TMC3     O11065   0.764   3.077  13.427 -0.2382 -0.0199  1.3249
  745TMC3     H11066   0.492   3.274  13.612 -0.1211 -0.4094  0.8870
  745TMC3    H111067   0.582   2.921  13.397 -0.2983 -0.1621 -1.7479
  745TMC3    H211068   0.178   3.070  13.424  0.1229  0.8464  0.8554
  745TMC3    C711069   0.391   3.018  13.233  0.3580  0.0293 -0.5057
  745TMC3    C811070   0.232   3.261  13.593  0.1192 -0.6143 -1.3432
  745TMC3    O111071   0.298   3.052  13.161 -0.3931  0.5313 -1.0794
  745TMC3    O211072   0.115   3.258  13.550 -0.1165 -0.2094 -0.6682
  746TMC3    C111073   2.703   1.113  11.544  0.0483 -0.1147  0.1297
  746TMC3    C211074   2.836   1.082  11.522 -0.2097 -0.2559  0.0071
  746TMC3    C311075   2.871   0.954  11.543  0.6192 -0.9198 -0.0097
  746TMC3    C411076   2.617   1.013  11.575 -0.5852  0.4577  0.3792
  746TMC3    C511077   2.664   0.884  11.607  0.5856 -0.1464  0.1479
  746TMC3    C611078   2.792   0.849  11.581 -0.0183  0.2645  0.2281
  746TMC3     C11079   2.648   1.230  11.476  0.2692 -1.3732 -0.1824
  746TMC3     O11080   2.527   1.225  11.457 -0.0650 -0.2260  1.0503
  746TMC3     H11081   2.902   1.159  11.486  0.9023 -0.2585  1.9996
  746TMC3    H111082   2.516   1.049  11.594 -0.6794  0.9990 -1.1282
  746TMC3    H211083   2.826   0.748  11.564  2.0464  1.4251 -2.5721
  746TMC3    C711084   2.577   0.770  11.592 -1.1478  0.4682  0.4778
  746TMC3    C811085   2.992   0.922  11.484 -0.3717  0.8059 -0.0453
  746TMC3    O111086   2.621   0.659  11.590  0.5001  0.3968  0.2926
  746TMC3    O211087   3.065   0.839  11.540 -0.2794 -0.2451  0.6434
  747TMC3    C111088   0.295   1.130  11.029 -0.6403 -0.0646  0.6915
  747TMC3    C211089   0.218   1.036  11.095  0.3934  0.5289  0.2278
  747TMC3    C311090   0.250   1.010  11.224  0.4596  0.4249  0.0150
  747TMC3    C411091   0.393   1.198  11.097  0.1216 -0.2466 -0.1418
  747TMC3    C511092   0.426   1.167  11.234 -0.0263 -0.0662 -0.6472
  747TMC3    C611093   0.352   1.071  11.295 -0.1809 -0.0051 -0.4944
  747TMC3     C11094   0.274   1.168  10.888  0.4993  0.6429 -0.4452
  747TMC3     O11095   0.337   1.264  10.850 -0.0325  0.4452  0.0348
  747TMC3     H11096   0.149   0.975  11.038  0.7392 -0.3971  0.8040
  747TMC3    H111097   0.424   1.292  11.054 -0.8884  0.0127 -0.2770
  747TMC3    H211098   0.381   1.027  11.390 -0.9067 -0.2011 -0.3660
  747TMC3    C711099   0.534   1.219  11.304  0.3928  0.7074  0.1907
  747TMC3    C811100   0.180   0.898  11.287 -0.1923 -0.2714 -0.1505
  747TMC3    O111101   0.546   1.193  11.426  0.4032  0.3912 -0.1834
  747TMC3    O211102   0.132   0.819  11.208  0.5517 -0.3171  0.6099
  748MPD2     C11103   2.013   1.229   1.611  0.3456  0.0227  0.1414
  748MPD2    C111104   2.133   1.264   1.664  0.4123  0.4014  0.7029
  748MPD2    C211105   2.221   1.334   1.589  0.4665  0.8289  0.1454
  748MPD2    C311106   2.199   1.369   1.456  0.2468 -0.3203 -0.2375
  748MPD2    C411107   2.071   1.341   1.411 -0.4577 -0.2932 -0.5830
  748MPD2    C511108   1.976   1.276   1.490 -0.2018  0.6300  0.4369
  748MPD2     H11109   2.320   1.346   1.633  0.2736  2.8447  0.0279
  748MPD2    H111110   2.038   1.376   1.314  0.2008  0.8085 -0.4037
  748MPD2    H211111   1.938   1.176   1.669  0.4462  0.1680  0.4045
  748MPD2    H311112   1.883   1.250   1.438  0.1101  0.8350 -0.2241
  748MPD2     N11113   2.288   1.441   1.372  0.6330 -0.5420 -0.5579
  748MPD2    H511114   2.367   1.487   1.415 -0.6217 -0.0591  1.2454
  748MPD2    N111115   2.151   1.220   1.800 -0.1523 -0.1839 -0.2985
  748MPD2    H711116   2.072   1.173   1.842 -0.4999 -1.1164 -2.0215
  749TMC3    C111117   2.361   1.569   1.185  0.7022 -0.0008  0.1788
  749TMC3    C211118   2.486   1.582   1.239 -0.0907 -0.1618 -0.0075
  749TMC3    C311119   2.548   1.703   1.240 -0.8721 -0.4980 -0.4356
  749TMC3    C411120   2.286   1.673   1.140 -0.3874 -0.1359  0.4553
  749TMC3    C511121   2.345   1.795   1.158 -0.2312 -0.2650 -0.2610
  749TMC3    C611122   2.478   1.808   1.197 -0.3553  0.2678 -0.4316
  749TMC3     C11123   2.268   1.471   1.240 -0.1370  0.3505  0.2226
  749TMC3     O11124   2.171   1.439   1.169 -0.4831  0.0827 -0.0582
  749TMC3     H11125   2.538   1.492   1.270 -1.1400 -0.3773  1.1391
  749TMC3    H111126   2.183   1.656   1.111 -0.6423  1.0483  0.6695
  749TMC3    H211127   2.534   1.898   1.174  0.2956 -0.6061 -2.2574
  749TMC3    C711128   2.290   1.910   1.084 -0.3188 -0.3042  0.5274
  749TMC3    C811129   2.686   1.720   1.261  0.3732 -0.0477  0.6953
  749TMC3    O111130   2.342   2.021   1.098 -0.0734  0.3605 -0.0501
  749TMC3    O211131   2.736   1.833   1.246  0.0924 -0.4183  0.3084
  750MPD2     C11132   2.424   2.747  11.314 -0.0869 -0.0960 -0.5038
  750MPD2    C111133   2.289   2.700  11.308  0.4680 -0.4592  0.4001
  750MPD2    C211134   2.265   2.598  11.214 -0.1591 -0.3561 -0.2013
  750MPD2    C311135   2.368   2.543  11.132  0.2216  0.2829 -0.0361
  750MPD2    C411136   2.495   2.598  11.144  0.3997 -0.5113  0.0314
  750MPD2    C511137   2.525   2.691  11.239  0.7185  0.0061  1.3839
  750MPD2     H11138   2.176   2.539  11.236 -1.1566  1.2645  0.1372
  750MPD2    H111139   2.589   2.565  11.102  0.2480  0.5872 -1.1660
  750MPD2    H211140   2.455   2.815  11.392 -1.5298  1.3460 -1.1844
  750MPD2    H311141   2.629   2.715  11.260  1.2237 -0.1852 -0.9421
  750MPD2     N11142   2.360   2.431  11.051  0.0111  0.7840  0.7322
  750MPD2    H511143   2.445   2.411  11.000 -0.2184  1.9965 -0.1388
  750MPD2    N111144   2.200   2.755  11.401  0.1462 -0.5315 -0.1239
  750MPD2    H711145   2.240   2.823  11.465  0.8487  0.0495 -1.1804
  751TMC3    C111146   2.269   2.239  10.933  0.6906  0.9802 -0.9676
  751TMC3    C211147   2.174   2.144  10.922 -0.6859 -0.5415  0.3091
  751TMC3    C311148   2.187   2.043  10.830  0.0926 -0.5817  0.0707
  751TMC3    C411149   2.387   2.217  10.863 -0.5939  0.0098  0.4552
  751TMC3    C511150   2.393   2.125  10.763 -0.0952  0.8492 -0.2624
  751TMC3    C611151   2.302   2.023  10.756  0.0653  0.1245  0.7209
  751TMC3     C11152   2.244   2.359  11.017 -0.6079 -0.1832 -0.2105
  751TMC3     O11153   2.130   2.383  11.057  0.1787 -0.3214 -0.2032
  751TMC3     H11154   2.082   2.152  10.978 -1.6029  0.9494 -1.3867
  751TMC3    H111155   2.465   2.292  10.874  0.0317 -0.5045 -0.6139
  751TMC3    H211156   2.317   1.939  10.689 -2.9474  0.7678 -0.7799
  751TMC3    C711157   2.512   2.111  10.685  0.4082 -0.1608 -0.0390
  751TMC3    C811158   2.096   1.933  10.834 -0.1917 -0.3546  0.2354
  751TMC3    O111159   2.602   2.183  10.718 -0.1433  0.6202 -0.6507
  751TMC3    O211160   2.132   1.834  10.767 -0.3730 -0.2683 -0.1006
  752TMC3    C111161   0.984   2.415  17.540  0.7652  0.2300  0.2417
  752TMC3    C211162   1.046   2.386  17.657 -0.0644  0.6241 -0.0333
  752TMC3    C311163   0.979   2.410   0.031  0.2160 -0.3337 -0.2400
  752TMC3    C411164   0.853   2.470  17.547  0.7952 -0.3514  0.1993
  752TMC3    C511165   0.794   2.501  17.665  0.1106  0.5166 -0.5268
  752TMC3    C611166   0.859   2.477   0.042  0.4660  0.1149  0.2990
  752TMC3     C11167   1.073   2.489  17.455  0.8316  0.1391 -0.3400
  752TMC3     O11168   1.179   2.531  17.500  0.2439 -0.0249  0.4950
  752TMC3     H11169   1.143   2.338  17.658 -0.6024 -0.5327 -2.3279
  752TMC3    H111170   0.801   2.508  17.461  2.8070  0.0410 -0.8491
  752TMC3    H211171   0.815   2.480   0.141 -0.5088 -0.5698 -0.1160
  752TMC3    C711172   0.653   2.539  17.667 -0.2559 -0.0981 -0.5055
  752TMC3    C811173   1.050   2.374   0.161 -0.4053  0.1680  0.7539
  752TMC3    O111174   0.590   2.517  17.567 -0.2718  0.0135  0.5239
  752TMC3    O211175   1.110   2.265   0.171 -0.1548  0.3611  0.0665
  753TMC3    C111176   3.800   3.110  13.827  0.6026 -0.3147 -0.4167
  753TMC3    C211177   3.878   3.164  13.922 -0.3346 -0.0842  0.5086
  753TMC3    C311178   4.010   3.123  13.933  0.1624 -0.1047 -0.6104
  753TMC3    C411179   3.849   3.019  13.732  0.0151 -0.4637 -0.1758
  753TMC3    C511180   3.977   2.980  13.748 -0.2885 -0.1949 -0.5225
  753TMC3    C611181   4.064   3.033  13.844  0.4973 -0.3088  0.1682
  753TMC3     C11182   3.665   3.153  13.808 -0.3322  0.0333  0.1657
  753TMC3     O11183   3.594   3.081  13.732 -0.3148 -0.0217  0.4043
  753TMC3     H11184   3.833   3.231  13.994  0.0471  1.2212 -0.4775
  753TMC3    H111185   3.782   2.977  13.658 -1.0782 -2.6429  2.0448
  753TMC3    H211186   4.166   2.995  13.850  1.2600  1.7129 -0.1835
  753TMC3    C711187   4.012   2.846  13.704 -0.7188  0.1264 -0.1108
  753TMC3    C811188   4.098   3.175  14.035  0.6310  0.0920 -0.2422
  753TMC3    O111189   4.130   2.823  13.679 -0.8339 -0.7413 -0.2980
  753TMC3    O211190   4.198   3.110  14.051  0.0340  0.7149  0.3781
  754MPD2     C11191   2.796   1.753  13.834  1.1333  0.3772  1.1377
  754MPD2    C111192   2.694   1.666  13.822 -0.4363  0.7136  0.8173
  754MPD2    C211193   2.580   1.712  13.762 -1.2252  0.4662  0.4235
  754MPD2    C311194   2.559   1.844  13.722  0.1804 -0.3754 -0.1786
  754MPD2    C411195   2.661   1.935  13.742 -0.1116  0.2990  0.2346
  754MPD2    C511196   2.783   1.890  13.793 -0.5332  0.3916  0.5289
  754MPD2     H11197   2.508   1.636  13.733 -1.7770  0.1477  2.6240
  754MPD2    H111198   2.655   2.040  13.716 -2.1640 -0.6171 -3.0999
  754MPD2    H211199   2.893   1.718  13.868  1.3109  0.1305  0.3635
  754MPD2    H311200   2.865   1.960  13.805 -1.1701  0.2712  5.5537
  754MPD2     N11201   2.433   1.888  13.688 -0.3097 -0.3074  0.2155
  754MPD2    H511202   2.420   1.988  13.674  0.1637 -0.2087  0.4421
  754MPD2    N111203   2.716   1.533  13.864  0.3514  0.3516 -0.2740
  754MPD2    H711204   2.813   1.505  13.876 -0.0638 -0.7914  0.4553
  755MPD2     C11205   2.105   2.688  13.637 -0.0102  0.5615  0.4223
  755MPD2    C111206   2.045   2.633  13.749 -0.1402 -0.0516 -0.0496
  755MPD2    C211207   2.031   2.498  13.765 -0.0021  0.4222 -0.7430
  755MPD2    C311208   2.089   2.409  13.673  0.0179 -0.3191 -0.1817
  755MPD2    C411209   2.153   2.460  13.568  0.1710  0.1056  0.1107
  755MPD2    C511210   2.157   2.598  13.545  0.0104 -0.4377  0.3459
  755MPD2     H11211   1.975   2.459  13.850  0.8251  1.6147  0.3308
  755MPD2    H111212   2.207   2.404  13.493  0.2676  1.3554 -0.7576
  755MPD2    H211213   2.104   2.789  13.597 -1.0369 -0.0047 -0.9699
  755MPD2    H311214   2.216   2.616  13.457 -1.5561  2.9963 -0.0010
  755MPD2     N11215   2.119   2.273  13.710  0.5066 -0.5172  0.1507
  755MPD2    H511216   2.183   2.213  13.659 -0.9908 -2.1135  0.1575
  755MPD2    N111217   1.967   2.716  13.835  0.6456 -0.4767  0.2570
  755MPD2    H711218   1.924   2.672  13.915  1.0344  0.4606  0.9840
  756MPD2     C11219   2.481   3.619  10.010 -0.6335 -0.5041 -0.3152
  756MPD2    C111220   2.405   3.562  10.113 -0.2857  0.1208 -0.0856
  756MPD2    C211221   2.331   3.453  10.082 -0.5954 -0.2450  0.1787
  756MPD2    C311222   2.323   3.409   9.948  0.0568  0.0254  0.5945
  756MPD2    C411223   2.390   3.469   9.841 -0.4965  0.0324  0.1463
  756MPD2    C511224   2.467   3.579   9.880  0.0522  0.8720 -0.7183
  756MPD2     H11225   2.269   3.403  10.156 -0.8109  0.3346  0.3972
  756MPD2    H111226   2.388   3.436   9.738 -3.1623  0.4357  0.0766
  756MPD2    H211227   2.546   3.704  10.028 -1.0534 -0.8231  2.7840
  756MPD2    H311228   2.534   3.623   9.807 -0.5322 -1.1107 -2.4487
  756MPD2     N11229   2.230   3.308   9.937  0.2969 -0.0030 -0.4115
  756MPD2    H511230   2.194   3.274  10.025 -1.0071  0.8441 -0.6271
  756MPD2    N111231   2.400   3.616  10.243  0.2404 -0.2451 -0.5766
  756MPD2    H711232   2.329   3.576  10.304 -1.1925 -0.9199 -2.6827
  757MPD2     C11233   2.239   2.364  10.168 -0.1880  0.3960 -0.2329
  757MPD2    C111234   2.115   2.357  10.100 -0.6430  0.3198 -0.0254
  757MPD2    C211235   2.062   2.481  10.057 -0.0211  0.2384  0.0612
  757MPD2    C311236   2.123   2.599  10.085  0.0655 -0.5570  0.7814
  757MPD2    C411237   2.235   2.600  10.162  0.5829 -0.2855  0.0225
  757MPD2    C511238   2.291   2.481  10.208  0.2394 -0.3672 -0.0195
  757MPD2     H11239   1.977   2.476   9.991  1.1418 -1.8829 -1.2603
  757MPD2    H111240   2.286   2.691  10.191  1.1346 -0.9492  1.1743
  757MPD2    H211241   2.298   2.274  10.182 -2.1033 -0.4703  2.2809
  757MPD2    H311242   2.390   2.484  10.254  0.4198 -0.9346 -0.3755
  757MPD2     N11243   2.061   2.713  10.022  0.3855  0.5282  0.0625
  757MPD2    H511244   1.976   2.692   9.971 -0.5600  1.9576  1.0415
  757MPD2    N111245   2.048   2.240  10.059 -0.6309  0.2171  0.3658
  757MPD2    H711246   2.105   2.157  10.071  2.8409  2.7236  1.2833
  758MPD2     C11247   1.974   1.770  16.164  0.2873  0.3425 -0.7849
  758MPD2    C111248   2.073   1.777  16.250  0.0787  0.8006  0.3929
  758MPD2    C211249   2.068   1.864  16.362 -0.5959  0.0300  0.7528
  758MPD2    C311250   1.946   1.929  16.388 -0.0657 -0.1828  0.8086
  758MPD2    C411251   1.845   1.920  16.295 -0.4862  0.1974  0.6134
  758MPD2    C511252   1.860   1.842  16.177  0.1881 -0.1183  0.3223
  758MPD2     H11253   2.156   1.879  16.423  0.1572  1.4865 -0.7066
  758MPD2    H111254   1.754   1.978  16.297 -0.5378  0.2206 -1.9881
  758MPD2    H211255   1.963   1.692  16.089 -0.1449 -1.1013  0.7859
  758MPD2    H311256   1.783   1.821  16.105 -0.5839  0.3927  0.9942
  758MPD2     N11257   1.925   2.007  16.506 -0.7422 -0.1525  0.4587
  758MPD2    H511258   1.827   2.029  16.523 -0.6447  2.5121 -2.5359
  758MPD2    N111259   2.199   1.714  16.214 -0.0948  0.3111  0.2357
  758MPD2    H711260   2.214   1.673  16.123 -1.0373 -0.1614  0.2928
  759MPD2     C11261   0.966   0.134  10.606 -0.4644 -0.0739 -0.3704
  759MPD2    C111262   0.831   0.099  10.586  0.0081  0.1923  0.1652
  759MPD2    C211263   0.759   0.185  10.502  0.2796 -0.9152  0.3073
  759MPD2    C311264   0.819   0.294  10.436  0.0216  0.4272  0.5332
  759MPD2    C411265   0.959   0.306  10.437 -0.3411 -0.1468 -0.0538
  759MPD2    C511266   1.027   0.226  10.527 -0.5144  0.2918 -0.4340
  759MPD2     H11267   0.651   0.180  10.495  0.0655 -0.2052  2.9265
  759MPD2    H111268   1.008   0.383  10.380  1.4200 -3.2592 -2.7584
  759MPD2    H211269   1.030   0.082  10.676  0.7461  1.2353 -0.4859
  759MPD2    H311270   1.135   0.238  10.534 -0.2781 -0.6227 -2.5689
  759MPD2     N11271   0.741   0.371  10.349  0.7480 -0.0706  0.3754
  759MPD2    H511272   0.648   0.335  10.329  0.6484  0.9085 -0.9902
  759MPD2    N111273   0.768   4.713  10.620 -0.0890  0.3707 -0.2413
  759MPD2    H711274   0.679   4.689  10.577  0.6461 -2.4396 -0.1934
  760MPD2     C11275   0.265   2.429  12.222  0.2844 -0.4538 -0.2805
  760MPD2    C111276   0.373   2.421  12.130 -0.6252 -0.0047 -0.1623
  760MPD2    C211277   0.454   2.314  12.133 -0.4945 -0.3930 -0.0852
  760MPD2    C311278   0.441   2.220  12.234 -0.4505 -0.6315 -0.5571
  760MPD2    C411279   0.343   2.237  12.331  1.2171  0.4292  0.4780
  760MPD2    C511280   0.254   2.340  12.322 -0.2008 -0.7360 -0.0078
  760MPD2     H11281   0.531   2.312  12.057  1.1618 -0.3369  1.6055
  760MPD2    H111282   0.321   2.171  12.413 -1.3089 -0.2961 -0.7811
  760MPD2    H211283   0.188   2.505  12.213  1.2742  0.7797  1.4609
  760MPD2    H311284   0.184   2.347  12.404  1.6835  0.3013  1.5300
  760MPD2     N11285   0.530   2.112  12.252 -0.4838 -0.7643 -0.4627
  760MPD2    H511286   0.518   2.067  12.343 -0.2692  0.1906  0.0384
  760MPD2    N111287   0.385   2.525  12.029 -0.0190 -0.2120 -0.6481
  760MPD2    H711288   0.444   2.499  11.951  3.4595 -0.9348  2.2171
  761MPD2     C11289   1.679   1.705  11.041  0.2269  0.7513  0.0159
  761MPD2    C111290   1.779   1.650  10.966  0.0594  0.1544 -0.9921
  761MPD2    C211291   1.886   1.730  10.917 -1.2402 -0.1483 -0.8684
  761MPD2    C311292   1.880   1.865  10.935  0.1934  0.1457 -0.0174
  761MPD2    C411293   1.774   1.920  10.997 -0.3264 -0.3561 -0.5625
  761MPD2    C511294   1.673   1.846  11.051  0.0226 -0.3833 -0.2104
  761MPD2     H11295   1.976   1.697  10.867 -0.4335 -0.1089  0.5539
  761MPD2    H111296   1.763   2.028  11.007 -1.2246 -0.7021  1.9995
  761MPD2    H211297   1.604   1.643  11.089  2.5386  0.8140  3.7222
  761MPD2    H311298   1.595   1.891  11.111 -0.3751  0.5203 -1.4009
  761MPD2     N11299   1.978   1.955  10.905 -0.4094 -0.6314  0.1120
  761MPD2    H511300   1.957   2.050  10.935  0.6943  0.5489 -2.8998
  761MPD2    N111301   1.770   1.508  10.948  0.3349 -0.1495 -0.3119
  761MPD2    H711302   1.703   1.466  11.010 -0.7155  0.2964 -1.1350
  762MPD2     C11303   2.265   1.515  10.697  0.3347 -0.1365 -0.7079
  762MPD2    C111304   2.304   1.407  10.775 -0.3963  0.3320  0.5935
  762MPD2    C211305   2.437   1.369  10.773 -0.1952  0.5826  0.8053
  762MPD2    C311306   2.535   1.437  10.702  0.3507 -0.6226  0.9302
  762MPD2    C411307   2.490   1.536  10.623  0.2644  0.4566  0.4045
  762MPD2    C511308   2.356   1.571  10.618 -0.2983 -0.3985  0.1192
  762MPD2     H11309   2.470   1.283  10.831 -0.9765 -0.6854 -0.6366
  762MPD2    H111310   2.550   1.584  10.547  1.7944 -0.1576  1.2180
  762MPD2    H211311   2.164   1.549  10.677  0.1620  0.9112  1.8320
  762MPD2    H311312   2.316   1.647  10.552 -2.4491 -1.2045  0.4928
  762MPD2     N11313   2.669   1.393  10.703  0.5380  0.6975  0.1626
  762MPD2    H511314   2.689   1.311  10.758  0.2431 -0.9400 -2.1615
  762MPD2    N111315   2.204   1.330  10.826  0.6031  0.0044  0.1146
  762MPD2    H711316   2.111   1.357  10.795  0.3575 -0.9391  0.0352
  763MPD2     C11317   4.102   2.316  16.247  0.5724 -0.2643  0.2529
  763MPD2    C111318   4.000   2.384  16.187  0.5921 -0.1392  0.1465
  763MPD2    C211319   4.002   2.524  16.196  0.1507 -0.6193 -0.0624
  763MPD2    C311320   4.087   2.589  16.282 -0.6308  0.5952 -0.3769
  763MPD2    C411321   4.181   2.514  16.350 -0.2566 -0.0687 -0.3358
  763MPD2    C511322   4.193   2.378  16.320 -0.4823 -0.2700 -0.4932
  763MPD2     H11323   3.931   2.573  16.131  1.5343 -0.1085 -1.2050
  763MPD2    H111324   4.263   2.557  16.406 -1.4041  0.2522  1.0917
  763MPD2    H211325   4.114   2.209  16.234 -1.7438 -0.3821 -0.9296
  763MPD2    H311326   4.273   2.322  16.367 -1.1092 -1.2636 -0.6264
  763MPD2     N11327   4.094   2.730  16.306  0.2674 -0.5768 -0.3816
  763MPD2    H511328   4.173   2.759  16.363 -1.9977  1.0101  1.9430
  763MPD2    N111329   3.900   2.314  16.104 -0.6626 -0.1951 -0.7802
  763MPD2    H711330   3.842   2.370  16.043  0.4946 -0.6361 -2.2778
  764MPD2     C11331   1.806   4.143   0.002  0.3764 -0.0368  0.1100
  764MPD2    C111332   1.801   4.011  17.709 -0.7462 -0.6243 -0.6036
  764MPD2    C211333   1.804   3.926   0.072 -0.6188 -0.1955 -0.3546
  764MPD2    C311334   1.827   3.966   0.200 -0.4988  0.1211  0.5146
  764MPD2    C411335   1.841   4.099   0.231 -0.1017 -0.0398 -0.9053
  764MPD2    C511336   1.837   4.192   0.126 -0.0493  0.1323  0.0514
  764MPD2     H11337   1.794   3.822   0.044  1.1018 -0.1627 -1.0709
  764MPD2    H111338   1.859   4.130   0.333 -1.0506 -0.4425 -0.6205
  764MPD2    H211339   1.793   4.216  17.666 -0.8665  0.1587  0.4990
  764MPD2    H311340   1.856   4.297   0.143  0.3063  0.0059  0.4333
  764MPD2     N11341   1.821   3.870   0.305 -0.1044 -0.2186  0.2344
  764MPD2    H511342   1.804   3.777   0.267 -0.4153  0.9211 -2.4354
  764MPD2    N111343   1.775   3.969  17.576 -0.4129 -0.7636 -0.3554
  764MPD2    H711344   1.737   3.876  17.570 -3.5385  0.4154  1.0949
  765MPD2     C11345   2.055   1.786  15.732 -0.1033  0.8645 -0.2148
  765MPD2    C111346   2.164   1.862  15.765  0.3294 -0.5010  0.1302
  765MPD2    C211347   2.295   1.808  15.760  0.2722 -0.5009 -0.2353
  765MPD2    C311348   2.309   1.675  15.721 -0.1406 -0.1793  0.4387
  765MPD2    C411349   2.199   1.603  15.679  0.3715 -0.1521  0.0922
  765MPD2    C511350   2.072   1.655  15.687 -0.6334 -0.4693 -0.1707
  765MPD2     H11351   2.380   1.873  15.781 -0.0542  0.2743 -1.3028
  765MPD2    H111352   2.196   1.497  15.655 -1.0250 -0.5218  1.9143
  765MPD2    H211353   1.954   1.825  15.729 -0.1559  0.6619 -1.2213
  765MPD2    H311354   1.996   1.590  15.644  0.0575 -0.4209 -1.4884
  765MPD2     N11355   2.432   1.607  15.757  0.2311 -0.4268 -0.3183
  765MPD2    H511356   2.506   1.667  15.792  0.8483 -1.6048  0.3914
  765MPD2    N111357   2.140   1.995  15.811 -0.4038 -0.7009 -0.2015
  765MPD2    H711358   2.044   2.012  15.837 -0.7577  0.9661 -2.6187
  766MPD2     C11359   1.494   2.161  16.056  0.7984 -0.2857 -0.4142
  766MPD2    C111360   1.606   2.104  16.009  1.0219  0.0859 -0.0237
  766MPD2    C211361   1.594   1.990  15.932  0.4104  0.3553  0.1110
  766MPD2    C311362   1.469   1.946  15.890 -0.2517  0.3477  0.4382
  766MPD2    C411363   1.359   2.013  15.934  0.1274 -0.0300  0.8518
  766MPD2    C511364   1.370   2.118  16.018 -0.1413  0.5201  0.1267
  766MPD2     H11365   1.689   1.947  15.902  1.0681  1.1767  1.0219
  766MPD2    H111366   1.259   1.985  15.902  0.9517 -1.5539 -0.3790
  766MPD2    H211367   1.497   2.251  16.117 -1.0548 -1.0329  0.7811
  766MPD2    H311368   1.278   2.165  16.049  0.0768 -0.9957  3.1000
  766MPD2     N11369   1.450   1.839  15.803 -0.2522  0.6249  0.2683
  766MPD2    H511370   1.356   1.829  15.767  0.5745  3.0458 -2.5740
  766MPD2    N111371   1.728   2.166  16.031 -0.4135 -0.1427  0.3586
  766MPD2    H711372   1.716   2.252  16.085 -1.9668 -0.7106  0.9032
  767MPD2     C11373   1.035   2.083  15.663 -0.1416 -0.0829 -0.8302
  767MPD2    C111374   1.137   2.044  15.576  0.0914 -0.1672  0.3007
  767MPD2    C211375   1.110   1.952  15.470  0.4393  0.2886 -0.4922
  767MPD2    C311376   0.980   1.902  15.457 -0.0515  0.2322  0.2373
  767MPD2    C411377   0.882   1.942  15.545  0.2423 -0.0440 -0.1094
  767MPD2    C511378   0.911   2.033  15.641  0.5649 -0.5812 -0.1239
  767MPD2     H11379   1.197   1.921  15.414  0.2222 -3.3183  1.1678
  767MPD2    H111380   0.778   1.912  15.545 -0.1576  1.3177 -1.7643
  767MPD2    H211381   1.044   2.157  15.741 -0.7731 -1.9149  0.9981
  767MPD2    H311382   0.831   2.074  15.702 -0.9024 -2.0679 -1.0535
  767MPD2     N11383   0.972   1.803  15.350 -0.2123  0.1586 -0.1203
  767MPD2    H511384   1.061   1.783  15.307  0.8944  1.8739  1.3357
  767MPD2    N111385   1.264   2.091  15.596 -0.2577  0.1107 -0.1259
  767MPD2    H711386   1.272   2.143  15.683  3.6572  1.7297 -1.4434
  768MPD2     C11387   2.860   0.606  11.106  0.0757  0.2949  0.4000
  768MPD2    C111388   2.803   0.503  11.181  0.7157  1.0445 -0.7888
  768MPD2    C211389   2.863   0.485  11.302  0.5084 -0.2618 -0.0613
  768MPD2    C311390   2.966   0.564  11.354 -0.5700 -0.1194 -0.1876
  768MPD2    C411391   3.022   0.660  11.274  0.1458 -0.3466 -0.2266
  768MPD2    C511392   2.968   0.679  11.148  0.0614 -0.5550 -0.8540
  768MPD2     H11393   2.824   0.404  11.362 -0.4294 -2.3282 -3.4997
  768MPD2    H111394   3.111   0.716  11.300  0.7873 -0.3778 -2.3528
  768MPD2    H211395   2.819   0.643  11.012  2.1022  0.2264 -0.5181
  768MPD2    H311396   2.999   0.751  11.073  0.4537  1.0558  0.8505
  768MPD2     N11397   3.033   0.534  11.475 -0.3515 -0.5849  0.2857
  768MPD2    H511398   3.105   0.602  11.499 -0.2907 -0.4217 -0.3467
  768MPD2    N111399   2.675   0.429  11.147  0.1587  0.3268 -0.3181
  768MPD2    H711400   2.633   0.369  11.218 -1.8220  0.9835 -0.9532
  769MPD2     C11401   3.286   2.650  15.105  0.1762 -0.1812 -0.7520
  769MPD2    C111402   3.221   2.745  15.023 -0.0387 -0.0319 -0.2054
  769MPD2    C211403   3.272   2.875  15.026 -0.0625 -0.5305  1.1200
  769MPD2    C311404   3.386   2.908  15.096  0.2927 -0.1446 -0.0221
  769MPD2    C411405   3.441   2.819  15.191  0.3083 -0.2087  0.1660
  769MPD2    C511406   3.393   2.687  15.192  0.3259 -0.1956  0.5696
  769MPD2     H11407   3.221   2.952  14.969  0.2222  0.1938  1.8380
  769MPD2    H111408   3.523   2.842  15.258  1.1776  0.4135 -1.1062
  769MPD2    H211409   3.256   2.547  15.116  0.6553 -0.2474 -0.0911
  769MPD2    H311410   3.442   2.608  15.248 -0.0543 -1.3763 -0.7686
  769MPD2     N11411   3.425   3.046  15.090  0.0035 -0.2866  0.4886
  769MPD2    H511412   3.377   3.108  15.026  1.3289  0.1348 -0.1007
  769MPD2    N111413   3.107   2.701  14.957 -0.1206 -0.3090  0.3555
  769MPD2    H711414   3.066   2.613  14.986  1.4359 -1.4313 -0.7989
  770MPD2     C11415   2.242   2.568  15.102 -0.2435 -0.0321  0.0989
  770MPD2    C111416   2.378   2.581  15.113  0.1530 -0.3533 -0.5756
  770MPD2    C211417   2.448   2.679  15.042  0.2727 -0.0157 -0.5688
  770MPD2    C311418   2.379   2.762  14.960 -0.1120  0.1096  0.6258
  770MPD2    C411419   2.240   2.760  14.956  0.0233  0.4782 -0.3357
  770MPD2    C511420   2.171   2.662  15.026 -0.6984  1.3637 -0.4070
  770MPD2     H11421   2.556   2.687  15.053 -0.3564  5.1238  1.4613
  770MPD2    H111422   2.188   2.826  14.888 -1.4904  0.0377  0.3961
  770MPD2    H211423   2.185   2.492  15.155  0.1644  0.0314  0.6216
  770MPD2    H311424   2.062   2.658  15.026 -0.7166  1.5910  1.3275
  770MPD2     N11425   2.446   2.858  14.877  0.0837 -0.4140 -0.1676
  770MPD2    H511426   2.378   2.926  14.844 -0.8416 -2.0735 -1.6782
  770MPD2    N111427   2.444   2.484  15.193 -0.0312  0.1232 -0.0752
  770MPD2    H711428   2.383   2.410  15.229  1.3224 -0.6910  0.5487
  771MPD2     C11429   3.965   1.162  14.343  0.0889  0.5211 -0.5322
  771MPD2    C111430   4.042   1.147  14.233 -0.5203 -0.2800 -0.0703
  771MPD2    C211431   4.079   1.017  14.201 -0.0255 -0.0107  0.3107
  771MPD2    C311432   4.045   0.900  14.269  0.5571  0.0941  0.1461
  771MPD2    C411433   3.984   0.925  14.391  0.8507 -0.0220 -0.4127
  771MPD2    C511434   3.942   1.052  14.421  0.3480  0.3076 -0.3219
  771MPD2     H11435   4.124   1.009  14.103  3.2963 -1.1012  1.9485
  771MPD2    H111436   3.964   0.847  14.464 -0.0643  1.6571  1.1136
  771MPD2    H211437   3.929   1.261  14.369  0.6557  0.8073 -0.8251
  771MPD2    H311438   3.888   1.069  14.514  0.9710 -0.1986  0.1348
  771MPD2     N11439   4.082   0.773  14.224  0.0489 -0.1579 -0.3930
  771MPD2    H511440   4.129   0.768  14.134 -0.8594  1.7534 -0.9885
  771MPD2    N111441   4.075   1.263  14.156 -0.2101 -0.2617  0.0319
  771MPD2    H711442   4.125   1.243  14.069  0.5863 -0.6674  0.5865
  772MPD2     C11443   3.562   1.507  13.764 -0.3136  0.8941 -0.1351
  772MPD2    C111444   3.584   1.553  13.890  0.3359  0.5647 -0.1845
  772MPD2    C211445   3.485   1.539  13.988 -0.5022 -0.1607  0.4064
  772MPD2    C311446   3.360   1.489  13.953 -0.4379 -0.5962  1.3310
  772MPD2    C411447   3.340   1.452  13.820 -0.0004  0.5356  0.7991
  772MPD2    C511448   3.444   1.460  13.723 -0.4505  0.0620  0.2407
  772MPD2     H11449   3.496   1.591  14.082 -0.7095 -1.7676  1.3035
  772MPD2    H111450   3.237   1.423  13.798  0.0966  0.1345  0.8749
  772MPD2    H211451   3.637   1.493  13.686 -0.5614 -1.6731  0.0903
  772MPD2    H311452   3.432   1.414  13.625 -2.6110 -0.4000  0.7412
  772MPD2     N11453   3.246   1.481  14.040  0.0129 -0.3036 -0.1599
  772MPD2    H511454   3.156   1.455  14.001  0.4975 -1.4176 -0.5468
  772MPD2    N111455   3.719   1.594  13.928 -0.6034  0.0756  1.0523
  772MPD2    H711456   3.729   1.619  14.026 -1.3472 -1.0978  1.4255
  773MPD2     C11457   2.690   2.216   0.666  0.4386  0.5153  0.3565
  773MPD2    C111458   2.621   2.129   0.586  0.1102  0.4403  0.2434
  773MPD2    C211459   2.687   2.010   0.543  0.3342  0.2473 -0.2617
  773MPD2    C311460   2.809   1.978   0.590 -0.5753 -0.4695 -0.5236
  773MPD2    C411461   2.873   2.064   0.674  0.7593 -0.2860  0.1264
  773MPD2    C511462   2.817   2.185   0.706 -0.6804 -0.0751 -0.5320
  773MPD2     H11463   2.631   1.931   0.493 -1.7018  0.3062  1.9020
  773MPD2    H111464   2.972   2.053   0.716  0.5605  0.8156  0.9070
  773MPD2    H211465   2.644   2.305   0.706 -1.5965 -0.5065  0.2811
  773MPD2    H311466   2.871   2.255   0.768  1.0879  0.2396 -2.4539
  773MPD2     N11467   2.859   1.847   0.561  0.1585  0.2118  0.6040
  773MPD2    H511468   2.801   1.780   0.511  1.0945 -0.1174 -0.0464
  773MPD2    N111469   2.486   2.158   0.536 -0.0979  0.0443 -0.4175
  773MPD2    H711470   2.465   2.101   0.455 -0.8624 -0.8801  0.4286
  774MPD2     C11471   1.711   1.156  14.089 -0.1903 -0.2112  0.8590
  774MPD2    C111472   1.725   1.288  14.118  0.1349  0.6058 -0.6282
  774MPD2    C211473   1.821   1.356  14.053  0.4914  0.7383  0.0235
  774MPD2    C311474   1.917   1.294  13.978  0.2739 -0.6740 -0.3544
  774MPD2    C411475   1.898   1.161  13.936  0.1684  0.3802 -0.1265
  774MPD2    C511476   1.792   1.099  13.999  0.0306 -0.4616  0.3178
  774MPD2     H11477   1.820   1.465  14.055 -1.1350  0.7056  0.5935
  774MPD2    H111478   1.964   1.103  13.874  0.6512  1.0082 -0.1938
  774MPD2    H211479   1.645   1.092  14.146 -0.7844 -0.7020 -0.3752
  774MPD2    H311480   1.775   0.993  13.986  1.4174 -0.6694  0.1814
  774MPD2     N11481   2.036   1.366  13.953 -0.1279  0.1099  0.7219
  774MPD2    H511482   2.042   1.460  13.990  0.8090  1.1698 -2.1173
  774MPD2    N111483   1.671   1.338  14.244 -0.0434  0.5727  0.2457
  774MPD2    H711484   1.618   1.276  14.304 -1.6425  1.2754 -0.4445
  775MPD2     C11485   3.916   2.914  15.580 -0.1819 -0.6091 -0.3466
  775MPD2    C111486   3.861   3.031  15.617 -0.5447 -0.3795 -0.6908
  775MPD2    C211487   3.942   3.134  15.665  0.7895  0.0696 -0.1795
  775MPD2    C311488   4.079   3.120  15.660  0.0257 -0.3534  0.3425
  775MPD2    C411489   4.129   3.005  15.608  0.3573 -0.6103 -0.1691
  775MPD2    C511490   4.049   2.903  15.573  0.1663 -0.4622 -1.1658
  775MPD2     H11491   3.897   3.231  15.682 -0.0240 -0.5764  1.4502
  775MPD2    H111492   4.234   2.999  15.583  1.2425  0.0394  3.4037
  775MPD2    H211493   3.858   2.826  15.553 -0.5083 -0.1411 -1.1895
  775MPD2    H311494   4.097   2.819  15.523  1.4878  0.0182 -0.7167
  775MPD2     N11495   4.165   3.225  15.686 -0.1666  0.4127  0.3601
  775MPD2    H511496   4.262   3.201  15.668 -0.2681  1.1721 -1.1898
  775MPD2    N111497   3.720   3.034  15.610 -0.5453 -0.1136  0.0095
  775MPD2    H711498   3.679   2.944  15.585  0.2700 -0.0541 -1.6077
  776MPD2     C11499   2.381   3.179  11.811 -0.0753  0.0957  1.3137
  776MPD2    C111500   2.255   3.201  11.762 -0.0561 -0.4124  0.4713
  776MPD2    C211501   2.207   3.331  11.748 -0.4261 -0.4229 -0.3703
  776MPD2    C311502   2.289   3.440  11.787 -0.5382  0.4977 -0.0445
  776MPD2    C411503   2.417   3.409  11.839 -0.7419 -0.0305  0.4525
  776MPD2    C511504   2.458   3.279  11.850 -0.3823  0.3982  0.0455
  776MPD2     H11505   2.111   3.356  11.705 -0.8580  2.7922  2.4594
  776MPD2    H111506   2.487   3.488  11.860  1.6947 -1.2748 -3.0054
  776MPD2    H211507   2.413   3.076  11.824  1.8609  0.5502  0.1158
  776MPD2    H311508   2.551   3.255  11.899 -0.1437 -0.0220 -0.6103
  776MPD2     N11509   2.265   3.575  11.762 -0.2291  0.4555 -0.1026
  776MPD2    H511510   2.346   3.635  11.774  0.5239 -0.5577 -0.0777
  776MPD2    N111511   2.177   3.094  11.712  0.1131 -0.3235 -0.1898
  776MPD2    H711512   2.224   3.006  11.691  0.8352 -0.2766  1.2116
  777MPD2     C11513   2.977   0.814   0.889 -0.3100  0.1643 -0.5266
  777MPD2    C111514   2.945   0.780   1.018 -0.6191  0.6259 -0.5479
  777MPD2    C211515   2.819   0.723   1.045 -0.3943  0.3267 -0.3411
  777MPD2    C311516   2.726   0.698   0.946 -0.9011 -0.2192 -0.1909
  777MPD2    C411517   2.764   0.739   0.816 -0.2467  0.2299  0.0659
  777MPD2    C511518   2.881   0.797   0.792  0.1427 -0.4426  0.0479
  777MPD2     H11519   2.801   0.685   1.145 -1.7079 -0.3588 -0.8463
  777MPD2    H111520   2.704   0.711   0.731 -1.5020  4.2474 -0.3382
  777MPD2    H211521   3.077   0.841   0.856 -0.2958 -0.4879 -1.0215
  777MPD2    H311522   2.916   0.805   0.690  0.8916  1.2850  0.4602
  777MPD2     N11523   2.611   0.619   0.972 -0.4871  0.1826  0.2171
  777MPD2    H511524   2.607   0.587   1.068 -0.6056  0.5222  0.3265
  777MPD2    N111525   3.033   0.820   1.123 -0.5080  0.3393 -1.0956
  777MPD2    H711526   3.120   0.857   1.085 -0.2599 -0.2263 -1.0818
  778MPD2     C11527   3.686   1.466  15.074  0.0163  0.0278  1.0313
  778MPD2    C111528   3.683   1.342  15.008 -0.4982  0.3657  0.3458
  778MPD2    C211529   3.770   1.328  14.905  0.2190  0.7486  0.1609
  778MPD2    C311530   3.863   1.424  14.864 -0.0977 -0.0391  0.0625
  778MPD2    C411531   3.872   1.543  14.939 -0.1323 -0.0053 -0.2065
  778MPD2    C511532   3.777   1.564  15.037 -0.4979 -0.3460 -0.7315
  778MPD2     H11533   3.772   1.236  14.847  0.0612 -0.5687  2.2670
  778MPD2    H111534   3.949   1.618  14.923 -0.6462  0.7932  1.0359
  778MPD2    H211535   3.619   1.491  15.155  0.2492 -0.4018  1.3618
  778MPD2    H311536   3.793   1.648  15.105 -0.1599 -2.1643  1.4385
  778MPD2     N11537   3.939   1.391  14.756  0.3237  0.2582 -0.0381
  778MPD2    H511538   3.930   1.297  14.720  0.0420  0.3177 -0.1303
  778MPD2    N111539   3.600   1.234  15.037 -0.3903 -0.0498  0.2366
  778MPD2    H711540   3.594   1.156  14.973  2.7012 -1.0901  1.2151
  779MPD2     C11541   3.679   4.338  14.632 -0.3519  0.0663  0.7958
  779MPD2    C111542   3.784   4.382  14.551  0.5157 -0.6154  0.0689
  779MPD2    C211543   3.774   4.517  14.522 -0.0530  0.1718  0.0340
  779MPD2    C311544   3.659   4.591  14.537 -0.7676  0.2457  0.2404
  779MPD2    C411545   3.551   4.535  14.599 -0.3875 -0.3120 -0.6198
  779MPD2    C511546   3.560   4.403  14.647 -0.1594 -0.7208  0.0475
  779MPD2     H11547   3.861   4.558  14.473 -1.0710 -0.1786 -2.0589
  779MPD2    H111548   3.461   4.592  14.622 -0.6065 -0.8211 -0.2157
  779MPD2    H211549   3.678   4.239  14.677 -2.2018  0.2265  1.0920
  779MPD2    H311550   3.478   4.360  14.703  0.5446 -2.9771 -0.6361
  779MPD2     N11551   3.666   4.728  14.512 -0.1186 -0.1047 -0.0799
  779MPD2    H511552   3.762   0.020  14.493  0.0976 -0.4510  0.5045
  779MPD2    N111553   3.895   4.307  14.502  0.1121 -0.0958  0.2536
  779MPD2    H711554   3.973   4.352  14.454  0.5868  2.0424  3.0394
  780MPD2     C11555   3.021   4.424   1.427  0.3151 -0.3865  0.2113
  780MPD2    C111556   3.020   4.418   1.290  0.1557 -0.1869  0.1634
  780MPD2    C211557   3.134   4.443   1.218  0.7365 -0.3085  0.2753
  780MPD2    C311558   3.255   4.472   1.278  0.5727 -0.2116  0.0153
  780MPD2    C411559   3.264   4.456   1.415 -0.4973 -0.1937 -1.0659
  780MPD2    C511560   3.145   4.444   1.490 -0.2482 -0.7657  0.9414
  780MPD2     H11561   3.131   4.448   1.110  0.5196  2.6487  0.4249
  780MPD2    H111562   3.365   4.448   1.455 -0.6718  2.1851 -0.1626
  780MPD2    H211563   2.934   4.415   1.490 -0.8994  0.3843 -1.3507
  780MPD2    H311564   3.142   4.445   1.598  1.0222  2.7388  0.9506
  780MPD2     N11565   3.365   4.486   1.193  0.0231  0.0670  0.2410
  780MPD2    H511566   3.353   4.480   1.093 -2.3484 -3.2424  0.7572
  780MPD2    N111567   2.888   4.402   1.240  0.2152  0.4299  0.1830
  780MPD2    H711568   2.813   4.385   1.306  0.5837  1.2497  0.8107
  781MPD2     C11569   0.365   1.838  12.096 -0.1486  0.4093  0.0916
  781MPD2    C111570   0.433   1.751  12.187 -0.2942 -0.1114 -1.1378
  781MPD2    C211571   0.549   1.679  12.146 -0.2608 -0.3329  0.1448
  781MPD2    C311572   0.597   1.711  12.020 -0.3631  0.3354  0.7494
  781MPD2    C411573   0.535   1.803  11.939  0.1639  0.4571  0.4025
  781MPD2    C511574   0.414   1.861  11.969 -0.1135 -0.1905 -0.8114
  781MPD2     H11575   0.591   1.597  12.202  0.5308  0.3537  0.5666
  781MPD2    H111576   0.575   1.838  11.845 -3.7144  3.3615 -0.1879
  781MPD2    H211577   0.280   1.893  12.133 -0.1962  0.4681 -0.1076
  781MPD2    H311578   0.360   1.933  11.908 -1.6842 -0.0896  0.6687
  781MPD2     N11579   0.721   1.664  11.979 -0.4346 -0.3509 -0.5174
  781MPD2    H511580   0.748   1.681  11.883  1.0551  4.2353  0.7226
  781MPD2    N111581   0.398   1.726  12.318  0.1261  0.5982  0.1890
  781MPD2    H711582   0.466   1.682  12.379  0.8823  2.3528  0.6000
  782MPD2     C11583   2.985   2.619  10.285  0.3376  0.5305 -0.3324
  782MPD2    C111584   3.098   2.590  10.362 -0.0232 -0.3529  1.1171
  782MPD2    C211585   3.149   2.687  10.445 -0.1480 -0.3260 -0.3880
  782MPD2    C311586   3.077   2.799  10.468 -0.2170 -0.1460 -0.2650
  782MPD2    C411587   2.963   2.828  10.403  0.8801  0.2144 -0.1201
  782MPD2    C511588   2.921   2.740  10.307 -0.0974  0.4912 -0.8407
  782MPD2     H11589   3.243   2.662  10.494 -1.9748 -2.8930  1.7843
  782MPD2    H111590   2.935   2.933  10.405  1.4430  0.3819 -1.2604
  782MPD2    H211591   2.938   2.563  10.205  0.7331 -1.2228  0.6648
  782MPD2    H311592   2.831   2.754  10.248  0.4631  0.6830 -1.6448
  782MPD2     N11593   3.139   2.884  10.565  0.6817  0.2313 -0.1722
  782MPD2    H511594   3.236   2.867  10.589  0.4663 -1.4519 -0.4972
  782MPD2    N111595   3.167   2.464  10.350  0.0482 -0.6335 -0.1537
  782MPD2    H711596   3.132   2.407  10.273 -0.2025 -0.4431 -0.1811
  783MPD2     C11597   2.584   1.890  10.396  0.6195 -0.6753  0.4770
  783MPD2    C111598   2.609   1.982  10.501 -0.8558 -0.2643 -0.3933
  783MPD2    C211599   2.735   2.029  10.508  0.4259 -0.7758  0.3982
  783MPD2    C311600   2.837   1.976  10.429 -0.4150 -0.3041  0.4391
  783MPD2    C411601   2.813   1.876  10.340  0.1704 -0.0316  0.0807
  783MPD2    C511602   2.686   1.831  10.324 -0.0554 -0.1180  0.7730
  783MPD2     H11603   2.762   2.112  10.573 -0.4456 -0.4282  0.3208
  783MPD2    H111604   2.890   1.831  10.279 -0.9521 -0.5845 -0.9146
  783MPD2    H211605   2.484   1.851  10.384  0.8688 -1.4412  0.9290
  783MPD2    H311606   2.649   1.750  10.263  1.8316  1.9578 -3.1134
  783MPD2     N11607   2.965   2.043  10.436 -0.5470 -0.3346 -0.2664
  783MPD2    H511608   2.979   2.122  10.498  3.5331 -2.5368  1.6307
  783MPD2    N111609   2.504   2.023  10.581 -0.2525  0.1465  0.0684
  783MPD2    H711610   2.414   1.980  10.563 -0.4315  0.6474 -0.2134
  784MPD2     C11611   0.721   2.621   0.944 -0.1226  0.0356  0.6458
  784MPD2    C111612   0.711   2.721   1.032 -0.1528  0.2483  0.4662
  784MPD2    C211613   0.598   2.804   1.029  0.4082 -0.1872 -0.1352
  784MPD2    C311614   0.496   2.778   0.941 -0.1485 -0.2556 -0.3235
  784MPD2    C411615   0.505   2.668   0.858  0.5080  0.4917  0.2821
  784MPD2    C511616   0.622   2.591   0.855 -0.3049 -0.6225 -0.4717
  784MPD2     H11617   0.584   2.887   1.099  0.7042 -0.4083  0.1870
  784MPD2    H111618   0.427   2.628   0.794  0.8611 -0.5422  0.4940
  784MPD2    H211619   0.812   2.564   0.929  0.2589  0.6765  0.5059
  784MPD2    H311620   0.633   2.510   0.783 -0.1999  1.2609 -2.5978
  784MPD2     N11621   0.376   2.854   0.955  0.2133  0.7103 -0.2495
  784MPD2    H511622   0.379   2.933   1.018  1.1574  0.3672  0.1362
  784MPD2    N111623   0.810   2.753   1.126  0.2663 -0.2520  0.6767
  784MPD2    H711624   0.788   2.829   1.189  2.6451  1.7289 -0.8822
  785MPD2     C11625   1.059   0.400  11.041 -0.3971 -0.2728 -0.2823
  785MPD2    C111626   0.971   0.497  11.080 -0.5254 -0.5014 -0.5956
  785MPD2    C211627   0.834   0.482  11.049  0.2526  0.5526 -0.5494
  785MPD2    C311628   0.784   0.399  10.961  1.1343 -0.0808 -0.6808
  785MPD2    C411629   0.881   0.309  10.914 -0.2077 -0.2458 -0.3800
  785MPD2    C511630   1.012   0.301  10.962 -0.4326  0.1149  0.0537
  785MPD2     H11631   0.756   0.546  11.088  0.8341  1.5588 -1.0115
  785MPD2    H111632   0.852   0.223  10.855 -0.6695  0.4578 -1.1712
  785MPD2    H211633   1.162   0.404  11.076 -0.3670  1.3160 -0.5355
  785MPD2    H311634   1.078   0.221  10.930  0.6421  1.6715 -1.6454
  785MPD2     N11635   0.642   0.394  10.945  0.9276 -0.1635 -0.6802
  785MPD2    H511636   0.588   0.461  10.998  1.3892  2.1691 -3.1576
  785MPD2    N111637   0.997   0.614  11.154  0.3306  0.5655 -0.0870
  785MPD2    H711638   0.921   0.681  11.164 -0.7159 -0.6712  0.2955
  786MPD2     C11639   4.377   3.870  14.790 -0.1134 -0.0037 -0.0680
  786MPD2    C111640   4.508   3.839  14.787  0.2293  0.1490  0.1088
  786MPD2    C211641   4.603   3.882  14.878  0.1255  0.7637  0.7124
  786MPD2    C311642   4.560   3.956  14.982  0.0243  0.2792  0.4887
  786MPD2    C411643   4.424   3.982  14.992 -0.0686 -1.0508  0.5466
  786MPD2    C511644   4.330   3.931  14.902  0.0505  0.1151  1.2145
  786MPD2     H11645   4.709   3.863  14.862 -0.8465 -2.4019 -2.1113
  786MPD2    H111646   4.376   4.046  15.066  1.0340  0.0648  0.2804
  786MPD2    H211647   4.303   3.845  14.714 -1.3080 -1.1260  1.4578
  786MPD2    H311648   4.225   3.956  14.900  0.0930  0.3361  1.7220
  786MPD2     N11649   4.637   4.021  15.078 -0.3602 -0.9134  0.3082
  786MPD2    H511650   4.599   4.072  15.158  0.2491  0.3218 -0.1852
  786MPD2    N111651   4.560   3.781  14.676  0.0765 -0.7275 -0.9429
  786MPD2    H711652   4.660   3.770  14.670  0.1273 -0.0101 -1.3302
  787MPD2     C11653   4.626   3.168  14.781 -0.9426 -0.7015  0.7874
  787MPD2    C111654   4.668   3.177  14.651 -0.1527  0.7844  0.5804
  787MPD2    C211655   0.009   3.081  14.594  0.3718  0.2262 -0.3071
  787MPD2    C311656   0.054   2.973  14.666 -0.6569  0.2394  0.4027
  787MPD2    C411657   0.022   2.968  14.797  0.5778  0.3853 -0.0774
  787MPD2    C511658   4.680   3.062  14.851 -0.5741  1.0931 -0.3526
  787MPD2     H11659   0.027   3.081  14.487  0.5310 -1.9980 -0.2859
  787MPD2    H111660   0.045   2.883  14.860 -0.9845  0.5750  0.7550
  787MPD2    H211661   4.560   3.239  14.828 -1.7667  0.3051 -1.9109
  787MPD2    H311662   4.669   3.053  14.958  1.8842 -2.4865 -0.4198
  787MPD2     N11663   0.155   2.901  14.610 -0.4171 -0.2876  0.3076
  787MPD2    H511664   0.188   2.936  14.521  1.3587 -0.1029  1.0193
  787MPD2    N111665   4.626   3.297  14.575  0.2579  0.4270  0.1559
  787MPD2    H711666   4.569   3.364  14.625 -0.5978  0.1389 -0.4402
  788MPD2     C11667   1.576   2.491   1.272  0.8355 -0.1923 -0.4703
  788MPD2    C111668   1.513   2.460   1.150 -0.3415  0.0122 -0.9967
  788MPD2    C211669   1.456   2.561   1.074 -0.4762  0.0337  0.1620
  788MPD2    C311670   1.447   2.686   1.126  0.2167 -0.5878  0.0698
  788MPD2    C411671   1.507   2.715   1.243 -0.0308  0.5566 -0.4762
  788MPD2    C511672   1.571   2.622   1.320  0.7245  0.3184 -0.4488
  788MPD2     H11673   1.430   2.544   0.971  0.6856 -1.1634  0.0637
  788MPD2    H111674   1.514   2.814   1.285 -1.4756 -0.0099  1.0678
  788MPD2    H211675   1.644   2.421   1.317  0.4055 -1.3374 -1.6066
  788MPD2    H311676   1.614   2.655   1.413 -1.3023  0.6878  0.3396
  788MPD2     N11677   1.375   2.787   1.066  0.3209 -0.3867 -0.0091
  788MPD2    H511678   1.397   2.882   1.094  2.1886 -0.2866 -1.7475
  788MPD2    N111679   1.516   2.330   1.103  0.0334  0.8950  0.3892
  788MPD2    H711680   1.493   2.320   1.005  2.2199 -0.6542  0.0310
  789MPD2     C11681   1.980   1.772  16.881  0.0255 -0.7676 -0.1396
  789MPD2    C111682   1.874   1.796  16.792  0.7448  0.7322 -0.1308
  789MPD2    C211683   1.775   1.882  16.829 -0.8705 -0.6144  0.1103
  789MPD2    C311684   1.772   1.952  16.955  0.0150  0.4195  0.6063
  789MPD2    C411685   1.876   1.923  17.042 -0.1017  0.4284 -0.1452
  789MPD2    C511686   1.979   1.845  16.996  0.3541  1.2013 -0.3276
  789MPD2     H11687   1.699   1.903  16.754 -0.5445  1.1295  0.2611
  789MPD2    H111688   1.874   1.976  17.137  1.6950  1.6322 -0.7625
  789MPD2    H211689   2.064   1.706  16.861  0.9072  0.0520  0.8693
  789MPD2    H311690   2.063   1.826  17.062 -2.7300 -3.3262  2.3266
  789MPD2     N11691   1.675   2.048  17.002 -0.0752  0.0632  0.2602
  789MPD2    H511692   1.671   2.092  17.093 -3.3778  1.1834 -0.4239
  789MPD2    N111693   1.852   1.718  16.675  0.1312 -0.1526 -0.0009
  789MPD2    H711694   1.776   1.743  16.614  1.3031  1.3966 -0.8081
  790MPD2     C11695   3.295   2.991  13.641 -0.2819 -0.1728 -0.2541
  790MPD2    C111696   3.182   3.051  13.691 -0.1179 -0.1291  0.2075
  790MPD2    C211697   3.073   3.024  13.613 -0.2318  0.2005 -0.2997
  790MPD2    C311698   3.082   2.956  13.489  0.3483 -0.4384 -0.5144
  790MPD2    C411699   3.198   2.907  13.441 -0.1328  0.1360  0.2316
  790MPD2    C511700   3.306   2.917  13.526 -0.3809  0.0403  0.8003
  790MPD2     H11701   2.979   3.054  13.657  0.4032  0.6892  0.7114
  790MPD2    H111702   3.204   2.856  13.346  0.9946 -1.4639  1.1781
  790MPD2    H211703   3.382   2.990  13.706  0.1471 -1.2656 -0.8550
  790MPD2    H311704   3.403   2.872  13.509  0.1959  1.9726 -1.0883
  790MPD2     N11705   2.967   2.930  13.405 -0.1861  0.0537  0.1846
  790MPD2    H511706   2.991   2.908  13.309 -0.9210  1.7923 -0.3984
  790MPD2    N111707   3.179   3.090  13.827 -0.2150 -0.8843  0.2346
  790MPD2    H711708   3.263   3.079  13.883 -0.5486  2.3579  1.3688
  791MPD2     C11709   2.092   3.046  13.130 -0.4744  1.0645 -0.2134
  791MPD2    C111710   2.162   2.950  13.202 -0.4500 -0.5715 -0.3946
  791MPD2    C211711   2.099   2.886  13.311 -0.0019  0.1658  0.1015
  791MPD2    C311712   1.960   2.915  13.339  0.6765 -0.1072  0.0465
  791MPD2    C411713   1.897   3.001  13.254 -0.1716 -0.1812 -1.1620
  791MPD2    C511714   1.963   3.071  13.153  0.5012  0.3267 -0.2694
  791MPD2     H11715   2.142   2.798  13.359  0.3845 -0.0264 -0.6091
  791MPD2    H111716   1.792   3.025  13.266  0.1614  0.6563  0.1316
  791MPD2    H211717   2.141   3.082  13.041  2.3465  0.3978  1.0742
  791MPD2    H311718   1.920   3.143  13.085 -2.6340  1.0062  2.4044
  791MPD2     N11719   1.895   2.828  13.426 -0.7419  0.0348 -0.4306
  791MPD2    H511720   1.945   2.751  13.469 -3.0954 -0.6094  1.1675
  791MPD2    N111721   2.301   2.947  13.182  0.6225 -0.1634  0.0349
  791MPD2    H711722   2.340   2.988  13.098 -1.0295  1.0332 -0.1419
  792MPD2     C11723   2.767   3.494  11.411 -0.2747 -0.5140  0.3851
  792MPD2    C111724   2.690   3.576  11.330  0.1767  0.4290 -0.8483
  792MPD2    C211725   2.548   3.578  11.338  0.5398  0.3287 -0.3507
  792MPD2    C311726   2.483   3.498  11.428 -0.6776  0.1193 -0.4018
  792MPD2    C411727   2.562   3.407  11.503  0.0170 -0.2374  0.2604
  792MPD2    C511728   2.699   3.405  11.494  0.3118 -0.7071  0.2177
  792MPD2     H11729   2.485   3.638  11.274 -0.9011  1.3270  2.0494
  792MPD2    H111730   2.509   3.343  11.573 -1.1144  0.6252  0.1760
  792MPD2    H211731   2.875   3.499  11.410 -0.3093 -0.1770 -0.9456
  792MPD2    H311732   2.752   3.330  11.551  0.1415 -1.1643 -0.2269
  792MPD2     N11733   2.341   3.488  11.432 -0.1412 -0.6888  0.0150
  792MPD2    H511734   2.305   3.424  11.501  0.6500 -1.7002 -0.5117
  792MPD2    N111735   2.758   3.662  11.232 -0.4784  0.2425  0.4406
  792MPD2    H711736   2.859   3.657  11.223 -0.6754  1.1292 -2.0949
  793MPD2     C11737   1.874   3.674  10.747  0.4339 -0.2732  0.6820
  793MPD2    C111738   2.002   3.696  10.804  1.1565 -0.8481 -0.5352
  793MPD2    C211739   2.009   3.688  10.941  0.4597 -0.4337  0.7722
  793MPD2    C311740   1.901   3.657  11.026  0.1591 -0.7439  0.4737
  793MPD2    C411741   1.783   3.623  10.963  0.2512 -1.0326 -0.1466
  793MPD2    C511742   1.775   3.638  10.828  0.5424  0.8570  0.6467
  793MPD2     H11743   2.106   3.708  10.986  0.4574  0.9497  0.1590
  793MPD2    H111744   1.689   3.602  11.014 -0.1419  3.5268  1.0529
  793MPD2    H211745   1.861   3.682  10.639 -0.4177 -0.4128  0.7694
  793MPD2    H311746   1.686   3.609  10.774  1.0455 -2.4541  1.5455
  793MPD2     N11747   1.917   3.659  11.166 -0.1709 -0.5928 -0.0133
  793MPD2    H511748   2.009   3.689  11.195 -0.7788  0.7456  0.5331
  793MPD2    N111749   2.117   3.720  10.731 -0.2144 -0.3614 -0.5170
  793MPD2    H711750   2.201   3.734  10.787 -1.0267  0.1184  0.5778
  794MPD2     C11751   2.049   2.843   0.204 -0.2526 -0.3541  0.3126
  794MPD2    C111752   2.092   2.738   0.124  0.4405 -0.5258 -0.6936
  794MPD2    C211753   2.081   2.748  17.732 -0.4110 -0.1778 -0.2469
  794MPD2    C311754   2.013   2.862  17.676 -0.1118 -0.0719 -0.1277
  794MPD2    C411755   1.967   2.961   0.019 -0.0242  0.7312 -0.0753
  794MPD2    C511756   1.988   2.949   0.151 -0.5228 -0.1390  0.0580
  794MPD2     H11757   2.095   2.657  17.675  0.0962 -0.4188  0.2592
  794MPD2    H111758   1.911   3.045  17.720  1.7972  2.2425  0.5434
  794MPD2    H211759   2.072   2.845   0.310  1.4847 -2.0455 -0.0367
  794MPD2    H311760   1.960   3.035   0.211 -0.5445  0.1014 -0.2996
  794MPD2     N11761   1.980   2.877  17.539 -0.5117  0.1987 -0.0781
  794MPD2    H511762   1.907   2.946  17.523 -1.6167 -0.7190  0.9715
  794MPD2    N111763   2.148   2.623   0.172  0.3315  0.4901 -0.7375
  794MPD2    H711764   2.178   2.557   0.101 -0.4013  0.6187 -1.1631
  795MPD2     C11765   0.212   4.425  12.635  0.2491 -0.5232  0.2913
  795MPD2    C111766   0.170   4.372  12.753 -0.1304  0.1722  0.2376
  795MPD2    C211767   0.249   4.288  12.824  0.2991  0.3218  0.0863
  795MPD2    C311768   0.381   4.270  12.780 -0.1328 -0.3472 -0.1736
  795MPD2    C411769   0.423   4.326  12.662  0.3214 -0.8579 -0.1436
  795MPD2    C511770   0.334   4.399  12.582 -0.1400 -0.5625 -0.0097
  795MPD2     H11771   0.215   4.258  12.922  1.6250  0.2031  0.5081
  795MPD2    H111772   0.531   4.329  12.651  0.6124  0.8284  3.0388
  795MPD2    H211773   0.155   4.480  12.561  1.8311 -0.0564 -0.5854
  795MPD2    H311774   0.358   4.443  12.487 -0.3156 -0.0326  0.1905
  795MPD2     N11775   0.473   4.187  12.853 -0.2294 -0.3463  0.0208
  795MPD2    H511776   0.572   4.204  12.839 -0.3436  0.5125  0.2140
  795MPD2    N111777   0.031   4.393  12.797 -0.2680 -0.3295 -0.0845
  795MPD2    H711778   4.729   4.338  12.874  0.7797  1.6044  1.7956
  796MPD2     C11779   4.056   1.495  16.358 -0.4333 -0.1809 -0.3002
  796MPD2    C111780   4.163   1.569  16.416 -0.0128 -0.4577  0.6413
  796MPD2    C211781   4.196   1.694  16.367  0.4176  0.2667 -0.0425
  796MPD2    C311782   4.142   1.743  16.247  0.3234 -0.1111 -0.5344
  796MPD2    C411783   4.038   1.675  16.196 -0.8537  0.5517 -0.4589
  796MPD2    C511784   3.990   1.562  16.259  0.1871  0.0475  0.0188
  796MPD2     H11785   4.288   1.741  16.400  0.3259 -0.2993  1.0292
  796MPD2    H111786   3.989   1.705  16.104  0.8191 -0.8121 -1.8030
  796MPD2    H211787   4.014   1.402  16.396 -0.9025  0.0034 -0.3748
  796MPD2    H311788   3.907   1.511  16.211  0.3945 -0.2743 -0.0002
  796MPD2     N11789   4.192   1.858  16.182 -0.1422 -0.1128  0.0010
  796MPD2    H511790   4.239   1.928  16.238  3.2667  1.4395 -4.7822
  796MPD2    N111791   4.235   1.514  16.516  0.0027  0.2881 -0.5622
  796MPD2    H711792   4.214   1.417  16.537 -0.7049  0.5348 -0.1371
  797MPD2     C11793   0.684   0.959   0.110  0.1134  0.2932  0.3258
  797MPD2    C111794   0.748   1.086   0.110  0.3823 -0.3327 -0.5012
  797MPD2    C211795   0.710   1.189   0.030  0.1754 -0.4633  0.5449
  797MPD2    C311796   0.595   1.182  17.700  0.3302 -0.1288  0.0159
  797MPD2    C411797   0.529   1.060  17.701  0.0121  0.8893  0.1176
  797MPD2    C511798   0.570   0.948   0.030  0.1009  0.3976 -0.0134
  797MPD2     H11799   0.756   1.285   0.051  1.4067 -0.8147 -0.5378
  797MPD2    H111800   0.444   1.045  17.636 -0.9772  0.4251  1.5162
  797MPD2    H211801   0.712   0.874   0.172 -0.0597 -0.4960 -0.6814
  797MPD2    H311802   0.512   0.857   0.024 -1.2340  1.2884 -0.6658
  797MPD2     N11803   0.564   1.289  17.615  0.0702  0.4791 -0.7557
  797MPD2    H511804   0.639   1.357  17.615  0.7767 -0.2985 -0.8501
  797MPD2    N111805   0.852   1.123   0.203  0.4152 -0.0740  1.4918
  797MPD2    H711806   0.899   1.207   0.174  1.8451 -0.9960  1.1545
  798MPD2     C11807   0.752   1.830   0.120  0.0270 -0.2604  0.4821
  798MPD2    C111808   0.782   1.719   0.043  0.0960  0.2907  0.2131
  798MPD2    C211809   0.861   1.618   0.109 -0.8014  0.7376 -0.2839
  798MPD2    C311810   0.914   1.645   0.229 -0.9224  0.4369  0.0396
  798MPD2    C411811   0.891   1.767   0.291  0.3041  0.3217  0.1516
  798MPD2    C511812   0.817   1.860   0.229 -0.7137  0.5775 -0.3693
  798MPD2     H11813   0.884   1.521   0.066  0.0726 -1.6047  5.5323
  798MPD2    H111814   0.940   1.794   0.384  2.1065  1.4944 -1.1332
  798MPD2    H211815   0.689   1.908   0.080 -1.7948  0.0017  3.8816
  798MPD2    H311816   0.816   1.963   0.264  1.0475 -0.4278  2.5786
  798MPD2     N11817   0.969   1.532   0.292  0.6087 -0.7222 -0.4388
  798MPD2    H511818   0.969   1.448   0.235  0.4521 -0.8087 -0.3101
  798MPD2    N111819   0.724   1.699  17.659  0.6919 -0.2846 -0.0415
  798MPD2    H711820   0.664   1.777  17.632 -2.0255 -2.0952  0.8112
  799MPD2     C11821   4.370   2.870  14.524  0.5119  0.5333 -0.3123
  799MPD2    C111822   4.357   2.763  14.441  0.1664 -0.1445 -0.0294
  799MPD2    C211823   4.384   2.788  14.309  0.3461  0.1131  0.3658
  799MPD2    C311824   4.422   2.914  14.259  0.4018  0.3055 -0.6284
  799MPD2    C411825   4.437   3.014  14.348 -0.7573 -0.4224 -0.1482
  799MPD2    C511826   4.408   2.991  14.480 -0.4249 -0.0584 -0.0066
  799MPD2     H11827   4.395   2.702  14.243 -1.1417  0.1089  0.1211
  799MPD2    H111828   4.488   3.106  14.320 -0.4269 -0.9247 -1.2006
  799MPD2    H211829   4.350   2.869  14.631 -2.3558 -2.2355 -0.8600
  799MPD2    H311830   4.413   3.076  14.547  0.8043 -0.2711  0.1682
  799MPD2     N11831   4.463   2.934  14.128 -0.2395 -0.2159  0.5051
  799MPD2    H511832   4.501   3.027  14.113 -1.0622 -0.1613 -1.1608
  799MPD2    N111833   4.339   2.634  14.482  0.4646 -1.2464 -0.1349
  799MPD2    H711834   4.333   2.562  14.411  0.4076 -0.2696 -1.1291
  800MPD2     C11835   0.073   3.588  13.955  0.6567  0.0903 -0.1875
  800MPD2    C111836   0.204   3.577  13.972  0.2190 -0.0729 -0.0790
  800MPD2    C211837   0.272   3.483  13.896  0.2569  0.5744 -0.1755
  800MPD2    C311838   0.206   3.405  13.797 -0.2364  0.9194  0.1516
  800MPD2    C411839   0.071   3.416  13.783  0.3511 -0.4760  0.1010
  800MPD2    C511840   0.011   3.494  13.879  0.0426  0.6465  0.3877
  800MPD2     H11841   0.380   3.468  13.902  0.3068  0.2627 -1.8810
  800MPD2    H111842   0.007   3.360  13.716  2.3839 -0.1627 -2.1147
  800MPD2    H211843   0.009   3.660  14.005  3.6822  2.4145  0.3283
  800MPD2    H311844   4.640   3.504  13.868  0.0688 -0.5323 -0.9756
  800MPD2     N11845   0.276   3.319  13.712 -0.5762 -0.1104  0.1019
  800MPD2    H511846   0.373   3.307  13.742 -0.2867  3.0300  0.4138
  800MPD2    N111847   0.263   3.675  14.049 -0.1010 -0.3908 -0.0384
  800MPD2    H711848   0.195   3.748  14.069  0.4276  0.0351  0.2012
  801MPD2     C11849   0.259   4.366  13.925 -0.5852 -0.0693 -0.0347
  801MPD2    C111850   0.212   4.292  14.031 -0.0602  0.0101 -0.2018
  801MPD2    C211851   0.096   4.315  14.098  0.5492 -0.4004  0.2890
  801MPD2    C311852   0.015   4.421  14.060  0.9336 -0.3651 -0.2163
  801MPD2    C411853   0.048   4.490  13.949  0.1001 -0.3861  0.3247
  801MPD2    C511854   0.162   4.456  13.876 -0.0963 -0.6874 -0.1582
  801MPD2     H11855   0.066   4.247  14.177  1.4294 -1.1356 -0.0088
  801MPD2    H111856   4.719   4.568  13.913  2.1861  0.9568 -0.5539
  801MPD2    H211857   0.338   4.347  13.853  1.0936 -1.2605  2.1223
  801MPD2    H311858   0.173   4.506  13.781  1.8198 -0.2907  0.2643
  801MPD2     N11859   4.626   4.455  14.128 -0.3958 -0.4982  0.4804
  801MPD2    H511860   4.572   4.529  14.086  0.4691  0.0532  0.3292
  801MPD2    N111861   0.286   4.181  14.083  0.4579 -0.3413 -0.5646
  801MPD2    H711862   0.249   4.120  14.155  0.0232  2.3927  1.5120
  802MPD2     C11863   3.764   0.698   0.083  0.5514  0.0277  0.2870
  802MPD2    C111864   3.793   0.614   0.183 -0.3085  0.4708  0.1919
  802MPD2    C211865   3.779   0.476   0.175 -0.1110  0.3446 -0.5056
  802MPD2    C311866   3.726   0.427   0.054  0.0204  0.8717  0.3769
  802MPD2    C411867   3.683   0.511  17.698 -0.2568 -0.5542 -0.0931
  802MPD2    C511868   3.689   0.647  17.714 -0.7561  0.7561  0.2447
  802MPD2     H11869   3.812   0.411   0.255  1.1871  1.7628  0.1071
  802MPD2    H111870   3.635   0.473  17.609  0.3472 -1.5702  0.0108
  802MPD2    H211871   3.760   0.805   0.104 -2.0099  0.0594 -0.3460
  802MPD2    H311872   3.643   0.707  17.637  3.6126 -0.8167 -3.6541
  802MPD2     N11873   3.739   0.287   0.037  0.0823 -0.1043  0.8431
  802MPD2    H511874   3.799   0.227   0.093 -0.4329 -0.7986  0.6480
  802MPD2    N111875   3.844   0.661   0.308 -0.4816 -0.0912 -0.1637
  802MPD2    H711876   3.845   0.588   0.378 -1.0347  2.4980  2.5296
  803MPD2     C11877   0.099   2.898  12.822  0.6527  0.5772  0.5103
  803MPD2    C111878   0.209   2.936  12.752 -0.4491 -0.0011 -0.2938
  803MPD2    C211879   0.334   2.890  12.798  0.4781  0.0974 -0.1963
  803MPD2    C311880   0.344   2.829  12.917  0.0311 -0.3784  0.3780
  803MPD2    C411881   0.224   2.800  12.991 -0.2471  0.6548  0.5701
  803MPD2    C511882   0.106   2.834  12.945 -1.1930 -0.1290 -0.2987
  803MPD2     H11883   0.420   2.892  12.733 -0.2177  1.2718 -1.1030
  803MPD2    H111884   0.220   2.745  13.084  0.4999 -2.4412 -1.2237
  803MPD2    H211885   0.001   2.935  12.793 -0.2495 -0.9063  1.7021
  803MPD2    H311886   0.020   2.798  13.001  0.8920 -2.0959  1.6541
  803MPD2     N11887   0.468   2.777  12.970 -0.2698 -0.2067  0.1627
  803MPD2    H511888   0.466   2.737  13.063 -0.4005 -0.9724 -0.1753
  803MPD2    N111889   0.204   3.016  12.632 -0.2679 -0.2096 -0.5219
  803MPD2    H711890   0.292   3.055  12.599  0.6490  0.5105  2.6968
  804MPD2     C11891   0.075   0.019  17.219  0.5150 -0.1032  0.2688
  804MPD2    C111892   0.102   4.722  17.354  0.1624  0.1093  0.4314
  804MPD2    C211893   0.170   0.075  17.432  0.0021 -0.2544  0.1298
  804MPD2    C311894   0.212   0.201  17.381 -0.4314  0.0907 -0.0886
  804MPD2    C411895   0.184   0.229  17.250  0.8641 -1.0297  1.0675
  804MPD2    C511896   0.108   0.142  17.174 -0.8126  0.1149 -0.2606
  804MPD2     H11897   0.199   0.037  17.530 -0.3332 -0.8937 -0.0155
  804MPD2    H111898   0.207   0.320  17.196  2.2707 -1.2804  1.2509
  804MPD2    H211899   0.020   4.688  17.153 -0.9677  2.3996 -1.0361
  804MPD2    H311900   0.092   0.159  17.068  2.3139  0.8269 -0.6107
  804MPD2     N11901   0.275   0.291  17.473  0.3150 -0.4222  0.0108
  804MPD2    H511902   0.287   0.255  17.567  1.3396 -0.5095 -0.1438
  804MPD2    N111903   0.059   4.592  17.406 -0.0065 -0.0602 -0.1366
  804MPD2    H711904   0.058   4.578  17.507  0.5761 -1.1222 -0.2874
  805MPD2     C11905   4.203   2.568  15.399 -0.6025 -0.2502 -0.3482
  805MPD2    C111906   4.245   2.689  15.338 -0.1214  0.0635 -0.7474
  805MPD2    C211907   4.340   2.767  15.403  0.4968 -0.1498 -0.5116
  805MPD2    C311908   4.400   2.723  15.526  0.1966  0.4858  0.6154
  805MPD2    C411909   4.366   2.598  15.573 -0.1230 -0.0125  0.6167
  805MPD2    C511910   4.266   2.523  15.514 -0.0258 -0.5225  0.1554
  805MPD2     H11911   4.379   2.854  15.353  0.3154  1.6424  2.4579
  805MPD2    H111912   4.410   2.549  15.659  0.8917  1.0190  0.6941
  805MPD2    H211913   4.124   2.507  15.357 -0.3085 -0.5701 -0.4271
  805MPD2    H311914   4.243   2.426  15.557 -1.2569 -0.5893 -0.6293
  805MPD2     N11915   4.495   2.809  15.593 -0.0588  0.1902 -0.0781
  805MPD2    H511916   4.487   2.907  15.571  0.6312  0.7725  2.2293
  805MPD2    N111917   4.184   2.747  15.218  0.1335  0.3791  0.2158
  805MPD2    H711918   4.214   2.840  15.189 -1.8065 -0.2263 -3.6568
  806MPD2     C11919   4.629   2.425   0.846  0.2442 -0.5618 -0.2717
  806MPD2    C111920   4.569   2.548   0.872 -0.1389 -0.4685  0.2655
  806MPD2    C211921   4.567   2.640   0.772  0.2710 -0.3829  0.0942
  806MPD2    C311922   4.593   2.599   0.643  0.1177  0.5326  0.5797
  806MPD2    C411923   4.632   2.471   0.613 -0.2768  0.7527  0.0774
  806MPD2    C511924   4.650   2.375   0.716 -0.0075 -0.0666 -0.7705
  806MPD2     H11925   4.534   2.743   0.776 -1.3313 -0.8662 -0.4388
  806MPD2    H111926   4.665   2.440   0.515  2.7101 -1.1254  1.6456
  806MPD2    H211927   4.638   2.351   0.924 -1.8175  0.7670  1.2205
  806MPD2    H311928   4.682   2.277   0.686  0.1488  0.2014 -1.4798
  806MPD2     N11929   4.615   2.708   0.547  0.0236 -0.9724 -0.0111
  806MPD2    H511930   4.620   2.803   0.580  0.2203 -0.7085 -0.7881
  806MPD2    N111931   4.537   2.587   1.005 -0.0497 -0.7940  0.0013
  806MPD2    H711932   4.566   2.519   1.075 -0.6706 -0.8405  0.2210
  807MPD2     C11933   4.308   2.314   1.668 -0.0307  0.2950 -0.3690
  807MPD2    C111934   4.241   2.378   1.562 -0.1391  0.5117 -0.0941
  807MPD2    C211935   4.102   2.363   1.565  0.1056 -0.7562 -0.0078
  807MPD2    C311936   4.037   2.289   1.662 -0.3397 -0.5726  0.1735
  807MPD2    C411937   4.115   2.228   1.756  0.3730  0.4770  0.0177
  807MPD2    C511938   4.250   2.235   1.754  0.2426  0.0693 -0.3642
  807MPD2     H11939   4.048   2.436   1.506 -0.2331 -2.1005 -1.3654
  807MPD2    H111940   4.080   2.173   1.843  0.6139  2.4680  1.3629
  807MPD2    H211941   4.415   2.311   1.679  0.0066  2.4091 -0.0608
  807MPD2    H311942   4.303   2.197   1.840  0.0064 -0.1204 -0.3037
  807MPD2     N11943   3.894   2.277   1.668 -0.3714 -0.8202  0.1558
  807MPD2    H511944   3.844   2.302   1.584 -1.2552  0.0146  0.9236
  807MPD2    N111945   4.311   2.457   1.465 -0.3116  0.5632 -0.0514
  807MPD2    H711946   4.260   2.492   1.384 -1.5636 -1.8222 -0.2764
  808MPD2     C11947   4.056   3.817   9.726 -0.5069  0.1205  0.1725
  808MPD2    C111948   4.131   3.739   9.806  0.7015  0.0864 -0.1798
  808MPD2    C211949   4.239   3.788   9.880 -0.2194  0.6795 -0.4304
  808MPD2    C311950   4.288   3.913   9.859 -0.1276  0.2290 -0.3211
  808MPD2    C411951   4.216   3.997   9.782  0.4931 -0.0425  0.6263
  808MPD2    C511952   4.104   3.948   9.716 -0.6447 -0.6395  0.1463
  808MPD2     H11953   4.295   3.720   9.943 -0.8909 -0.2876 -0.8712
  808MPD2    H111954   4.251   4.097   9.762 -0.6059  0.1268 -0.4314
  808MPD2    H211955   3.985   3.788   9.649 -1.3772  2.1471  0.2165
  808MPD2    H311956   4.036   4.015   9.665 -0.5940 -0.7041 -0.0065
  808MPD2     N11957   4.403   3.958   9.926  0.3826  0.7775 -0.1676
  808MPD2    H511958   4.421   4.058   9.914 -1.8249  0.7680 -3.4610
  808MPD2    N111959   4.125   3.600   9.796 -0.0759  0.1294 -0.4777
  808MPD2    H711960   4.206   3.551   9.833  0.1502  0.7946 -0.0957
  809MPD2     C11961   0.620   3.722   9.885 -0.4502  0.6121  0.5049
  809MPD2    C111962   0.585   3.852   9.850 -0.3474  0.7148  0.0927
  809MPD2    C211963   0.466   3.908   9.874  0.9851  0.3361 -0.3772
  809MPD2    C311964   0.365   3.824   9.916 -0.1591  0.6805 -0.4605
  809MPD2    C411965   0.387   3.690   9.934 -0.4892  0.2165 -0.0671
  809MPD2    C511966   0.516   3.646   9.920 -0.4633 -0.4944 -0.1315
  809MPD2     H11967   0.446   4.014   9.868 -1.2896 -0.1660 -1.5094
  809MPD2    H111968   0.309   3.618   9.959  0.5422 -0.9027 -0.0861
  809MPD2    H211969   0.716   3.671   9.877 -0.1596  0.9643  1.8272
  809MPD2    H311970   0.536   3.543   9.946 -2.4164 -1.2312 -1.5072
  809MPD2     N11971   0.234   3.867   9.939  0.1488 -0.0124  0.2462
  809MPD2    H511972   0.164   3.795   9.954  0.9704 -0.9592 -0.4589
  809MPD2    N111973   0.687   3.939   9.807  0.5014  0.0496 -0.1007
  809MPD2    H711974   0.675   4.040   9.808 -1.3369 -0.1587 -0.7149
  810MPD2     C11975   0.209   2.729  10.591 -0.9104  0.1069  0.2075
  810MPD2    C111976   0.145   2.848  10.563 -0.1323  0.7500  0.3417
  810MPD2    C211977   0.221   2.964  10.536  0.4877  0.0498  0.2267
  810MPD2    C311978   0.362   2.963  10.541 -0.2255  0.4822  0.0477
  810MPD2    C411979   0.430   2.841  10.562 -0.2461  0.3575 -0.0708
  810MPD2    C511980   0.350   2.727  10.576  0.3480 -0.0251  0.3972
  810MPD2     H11981   0.171   3.049  10.493  3.9906  0.5792 -2.8079
  810MPD2    H111982   0.538   2.834  10.559 -0.2439  0.5945 -0.7760
  810MPD2    H211983   0.149   2.640  10.605  2.9992 -2.3387  1.4721
  810MPD2    H311984   0.398   2.630  10.584  0.3006 -0.0006  0.9837
  810MPD2     N11985   0.439   3.081  10.533  0.3667 -0.5675  0.2144
  810MPD2    H511986   0.539   3.073  10.547  0.0557  0.4898  2.9319
  810MPD2    N111987   0.006   2.844  10.556 -0.6171  0.0499 -0.6108
  810MPD2    H711988   4.688   2.760  10.572 -0.0171  0.2653  2.5000
  811MPD2     C11989   3.904   3.018  10.212  0.5374 -0.0068 -0.2059
  811MPD2    C111990   4.020   3.082  10.243 -0.6587  1.3416  0.5374
  811MPD2    C211991   4.043   3.212  10.203  0.5524 -0.4997  0.2405
  811MPD2    C311992   3.937   3.284  10.145  0.2155  0.6296 -0.1346
  811MPD2    C411993   3.816   3.227  10.111 -0.9130 -0.3431  0.7974
  811MPD2    C511994   3.802   3.094  10.149  0.3281  0.2386  0.1335
  811MPD2     H11995   4.141   3.254  10.220  0.6716  0.1828 -2.2080
  811MPD2    H111996   3.732   3.279  10.066 -1.2227 -0.9987  0.6248
  811MPD2    H211997   3.874   2.921  10.250  0.1453 -0.3145 -1.3021
  811MPD2    H311998   3.705   3.045  10.144 -1.1776  3.1241  0.8110
  811MPD2     N11999   3.966   3.420  10.140  0.1025  0.2315 -0.0284
  811MPD2    H512000   4.065   3.439  10.154 -0.1068  2.3081 -1.4302
  811MPD2    N112001   4.107   3.005  10.331  0.3447 -0.7774 -0.0035
  811MPD2    H712002   4.084   2.911  10.361  0.1239 -1.0200 -0.9492
  812MPD2     C12003   3.281   3.247  11.996  0.9161  0.3850  0.8671
  812MPD2    C112004   3.265   3.361  12.068  0.3565 -0.1707  0.1394
  812MPD2    C212005   3.252   3.358  12.206 -0.7589 -0.4903 -0.3424
  812MPD2    C312006   3.250   3.236  12.274  0.3810  0.2573 -0.5006
  812MPD2    C412007   3.271   3.121  12.198  0.1748  0.3948  0.1560
  812MPD2    C512008   3.293   3.129  12.065  0.3781 -0.1940  0.0367
  812MPD2     H12009   3.249   3.445  12.270  0.4316 -1.1152  0.5585
  812MPD2    H112010   3.269   3.024  12.246 -1.5066  0.4781  0.2560
  812MPD2    H212011   3.293   3.252  11.889  3.2065 -1.0920  1.0568
  812MPD2    H312012   3.321   3.039  12.013  0.6885  0.1799 -0.4424
  812MPD2     N12013   3.228   3.232  12.416  0.1464 -0.2400  0.2401
  812MPD2    H512014   3.216   3.319  12.468  0.4863  0.4500 -0.8382
  812MPD2    N112015   3.263   3.479  12.000  0.4319  0.3911 -0.5221
  812MPD2    H712016   3.276   3.474  11.900 -2.8005  2.4428 -1.0340
  813MPD2     C12017   2.266   0.338  13.158  0.1376  0.6526  0.1398
  813MPD2    C112018   2.300   0.402  13.281 -0.6456  0.1252 -0.3026
  813MPD2    C212019   2.196   0.441  13.361 -0.5171  1.0424  0.1507
  813MPD2    C312020   2.066   0.448  13.313 -0.0486 -0.7839 -0.8151
  813MPD2    C412021   2.033   0.392  13.190  0.9437  0.2813  0.4319
  813MPD2    C512022   2.130   0.334  13.117 -0.6570 -0.0537  0.4922
  813MPD2     H12023   2.215   0.484  13.459  1.2659  0.5412  0.0362
  813MPD2    H112024   1.929   0.385  13.160  1.4563  2.4856 -1.8494
  813MPD2    H212025   2.338   0.298  13.088  0.3049  0.1434  0.5990
  813MPD2    H312026   2.103   0.298  13.018  1.1847  1.7154 -0.6835
  813MPD2     N12027   1.972   0.505  13.400  0.0866  0.0041  0.3439
  813MPD2    H512028   1.996   0.516  13.498  1.4874 -1.1173  0.1308
  813MPD2    N112029   2.434   0.422  13.336 -0.4764 -0.0433  0.2578
  813MPD2    H712030   2.458   0.477  13.418 -0.2029 -0.3542  0.3828
  814MPD2     C12031   2.601   1.787  12.401 -0.1529 -0.1328 -0.4538
  814MPD2    C112032   2.697   1.813  12.304 -0.3432  0.1735  0.2357
  814MPD2    C212033   2.806   1.889  12.342 -0.0308  0.0975  0.2602
  814MPD2    C312034   2.825   1.934  12.468 -0.1896  0.1828 -0.3488
  814MPD2    C412035   2.734   1.891  12.563 -0.1687  0.5570  0.2954
  814MPD2    C512036   2.629   1.812  12.531 -0.2139 -0.0505 -0.0803
  814MPD2     H12037   2.877   1.914  12.264  0.0263  0.3303  0.3854
  814MPD2    H112038   2.751   1.918  12.667 -0.0477  0.7783  0.2174
  814MPD2    H212039   2.510   1.737  12.370 -0.7915  1.4794 -1.1774
  814MPD2    H312040   2.558   1.778  12.605 -0.9062  0.9523 -0.2736
  814MPD2     N12041   2.931   2.023  12.502 -0.6475 -0.0467  0.0191
  814MPD2    H512042   2.930   2.054  12.599  0.6429 -1.2935  0.4256
  814MPD2    N112043   2.699   1.752  12.170  0.2011 -0.2611  0.1785
  814MPD2    H712044   2.788   1.768  12.122  0.4292  0.0834  0.7164
  815MPD2     C12045   3.639   4.133  12.353 -0.3945 -0.7956 -0.2031
  815MPD2    C112046   3.635   4.258  12.300  0.1072  0.1431 -0.1245
  815MPD2    C212047   3.602   4.360  12.389 -0.8043 -0.6529  1.0980
  815MPD2    C312048   3.575   4.344  12.521 -0.1128 -1.0224  0.2580
  815MPD2    C412049   3.578   4.218  12.569 -0.1503 -0.3647 -0.1562
  815MPD2    C512050   3.614   4.110  12.484 -0.1125  0.2484 -1.1051
  815MPD2     H12051   3.585   4.462  12.354  1.4941 -0.6001  0.1482
  815MPD2    H112052   3.555   4.192  12.672 -0.6855  0.0210 -0.1766
  815MPD2    H212053   3.659   4.045  12.293 -1.1258 -1.1342  0.0561
  815MPD2    H312054   3.592   4.007  12.508  0.7013  0.4152  0.3733
  815MPD2     N12055   3.523   4.454  12.596 -0.6471 -0.5892  0.9733
  815MPD2    H512056   3.518   4.542  12.547  1.4965 -0.5366  0.8615
  815MPD2    N112057   3.645   4.262  12.162 -0.1978  0.2686 -0.4423
  815MPD2    H712058   3.641   4.173  12.114 -2.6303  0.3451 -0.3961
  816MPD2     C12059   3.316   3.903  17.696 -0.5210 -0.7976 -0.3455
  816MPD2    C112060   3.386   4.028  17.693  0.0408 -0.5570  0.0329
  816MPD2    C212061   3.500   4.037  17.621  0.4165 -0.0990  0.0680
  816MPD2    C312062   3.546   3.928  17.553  0.5036 -0.9554 -0.0898
  816MPD2    C412063   3.469   3.809  17.542  0.4690 -0.6544 -0.3418
  816MPD2    C512064   3.357   3.795  17.623 -0.0931  0.5128 -0.3257
  816MPD2     H12065   3.558   4.128  17.613 -0.9350  0.9174  1.8760
  816MPD2    H112066   3.502   3.720  17.491 -2.3714 -0.0384 -3.2136
  816MPD2    H212067   3.234   3.896   0.024  0.1817  0.2454  0.6003
  816MPD2    H312068   3.297   3.707  17.642  3.3526 -1.3802  1.9026
  816MPD2     N12069   3.662   3.941  17.476  0.6857  0.1756  0.3625
  816MPD2    H512070   3.715   4.027  17.486  0.2285  0.3219  1.5421
  816MPD2    N112071   3.309   4.137   0.010  0.2168  0.2296  0.8016
  816MPD2    H712072   3.215   4.112   0.039 -0.3578  2.0258  0.4926
  817MPD2     C12073   3.021   1.150  10.224  0.6326  0.0681  0.6700
  817MPD2    C112074   3.008   1.121  10.094  0.0313  0.2890  0.8757
  817MPD2    C212075   2.969   1.216   9.999 -0.0175 -0.4034  0.5168
  817MPD2    C312076   2.956   1.348  10.049 -0.1226 -0.6606 -0.1164
  817MPD2    C412077   2.988   1.376  10.178 -0.1797  0.0361  0.2203
  817MPD2    C512078   3.009   1.274  10.265  0.8879 -0.1275 -0.2345
  817MPD2     H12079   2.947   1.188   9.897 -1.0160 -0.4487  0.7434
  817MPD2    H112080   2.997   1.474  10.223  1.3090  0.1733 -0.3721
  817MPD2    H212081   3.024   1.073  10.301  0.3050  1.1284  1.7422
  817MPD2    H312082   3.006   1.294  10.372 -1.0686 -1.6421 -0.0145
  817MPD2     N12083   2.925   1.450   9.958  0.2290  0.5159  0.4103
  817MPD2    H512084   2.921   1.431   9.859 -0.1193 -0.0285  0.5292
  817MPD2    N112085   3.012   0.981  10.051  0.0958 -0.5318 -0.0908
  817MPD2    H712086   2.958   0.967   9.966 -1.5911 -1.4276  1.1313
  818MPD2     C12087   2.327   0.802  10.328 -0.2681 -0.1606  0.1139
  818MPD2    C112088   2.228   0.741  10.260 -0.6929  0.2159 -0.6298
  818MPD2    C212089   2.220   0.605  10.258  0.1819  0.0802 -0.0492
  818MPD2    C312090   2.306   0.527  10.329  0.0218 -0.7166  0.3033
  818MPD2    C412091   2.410   0.587  10.386  0.6228  0.2928 -0.1399
  818MPD2    C512092   2.418   0.725  10.399 -0.0177 -0.4281 -0.4319
  818MPD2     H12093   2.130   0.569  10.210  0.8115  2.3097 -2.9387
  818MPD2    H112094   2.487   0.529  10.435  1.6011  0.5299 -1.4165
  818MPD2    H212095   2.327   0.910  10.341 -1.0480 -0.0391 -0.8889
  818MPD2    H312096   2.496   0.782  10.447 -0.2142  0.3447 -1.0380
  818MPD2     N12097   2.289   0.387  10.343 -0.5054  0.0625  1.1924
  818MPD2    H512098   2.336   0.344  10.422 -0.5652 -0.2772  1.0418
  818MPD2    N112099   2.127   0.818  10.191 -0.3106 -0.6539 -0.6885
  818MPD2    H712100   2.056   0.757  10.151 -1.8010  0.2263  0.6292
  819MPD2     C12101   0.298   2.754  15.729  0.0656 -0.3119  0.0398
  819MPD2    C112102   0.269   2.622  15.725 -0.0694  0.2122 -0.6278
  819MPD2    C212103   0.328   2.537  15.818  0.2470  0.9403  0.2339
  819MPD2    C312104   0.390   2.595  15.926 -0.1609 -0.1867  0.3571
  819MPD2    C412105   0.411   2.733  15.931 -0.2241  0.1982  0.5665
  819MPD2    C512106   0.379   2.806  15.827  0.3860  0.7488 -0.1896
  819MPD2     H12107   0.306   2.431  15.820 -0.5235  1.0896 -0.5154
  819MPD2    H112108   0.450   2.785  16.018  0.3036 -0.8411  0.9460
  819MPD2    H212109   0.275   2.820  15.645 -0.0870 -0.1911  0.1779
  819MPD2    H312110   0.392   2.913  15.823 -0.3396  0.8458  0.2117
  819MPD2     N12111   0.433   2.509  16.026  0.7489 -0.4874 -0.0766
  819MPD2    H512112   0.391   2.418  16.038 -1.5650  1.0105  3.3821
  819MPD2    N112113   0.195   2.570  15.610  0.1337 -0.1681 -0.1685
  819MPD2    H712114   0.154   2.633  15.542  0.7571 -0.1692 -0.5497
  820MPD2     C12115   4.457   3.036  15.092 -0.3885  0.1057  0.2291
  820MPD2    C112116   4.430   2.915  15.031 -0.2598 -0.1625  0.3165
  820MPD2    C212117   4.492   2.800  15.078 -0.1506  0.1966 -0.2628
  820MPD2    C312118   4.586   2.806  15.176 -0.4604 -0.3937 -0.4877
  820MPD2    C412119   4.612   2.928  15.233 -0.5366 -0.2269  0.4509
  820MPD2    C512120   4.561   3.040  15.184  0.2506 -0.2680 -0.1089
  820MPD2     H12121   4.449   2.709  15.037 -0.4385 -0.1082  0.7272
  820MPD2    H112122   4.684   2.954  15.309 -1.5652  3.5511  0.1269
  820MPD2    H212123   4.417   3.130  15.058  1.1600  0.2902 -1.1016
  820MPD2    H312124   4.588   3.130  15.237 -1.9957  0.2064  0.2512
  820MPD2     N12125   4.646   2.689  15.232 -0.8314 -0.8650  0.0050
  820MPD2    H512126   4.699   2.703  15.318  2.0518  2.4290 -2.3081
  820MPD2    N112127   4.341   2.893  14.923 -0.0181  0.4121 -0.1477
  820MPD2    H712128   4.334   2.799  14.883 -1.1573 -0.2694  1.6882
  821MPD2     C12129   0.499   3.141  12.973  0.2877  0.2457  0.3141
  821MPD2    C112130   0.576   3.103  13.082 -0.3273  0.4389 -0.3412
  821MPD2    C212131   0.708   3.137  13.089 -0.4731  0.1923  0.6349
  821MPD2    C312132   0.770   3.188  12.976  0.5463 -0.5272  0.3682
  821MPD2    C412133   0.700   3.215  12.868 -0.4634  0.3185 -0.2751
  821MPD2    C512134   0.567   3.194  12.867 -0.2957 -0.7351 -0.6508
  821MPD2     H12135   0.760   3.129  13.183  0.1885 -0.2721  0.2283
  821MPD2    H112136   0.752   3.275  12.794  0.5189 -0.0075  0.1474
  821MPD2    H212137   0.393   3.127  12.959  0.5730 -1.6306 -0.0006
  821MPD2    H312138   0.511   3.216  12.776 -0.4271  1.0978 -0.1229
  821MPD2     N12139   0.908   3.215  12.974  0.1042  0.4804 -0.3591
  821MPD2    H512140   0.956   3.259  12.897 -1.0695  0.4232 -1.1167
  821MPD2    N112141   0.522   3.039  13.199 -0.4862 -0.4732  0.5557
  821MPD2    H712142   0.597   3.021  13.266 -0.1639 -0.8898  0.0899
  822MPD2     C12143   0.734   4.149  15.969 -1.0334 -0.5512  0.5210
  822MPD2    C112144   0.767   4.120  16.097  0.5068  0.2269  0.4235
  822MPD2    C212145   0.710   4.194  16.197  0.0944 -0.1793  0.4205
  822MPD2    C312146   0.623   4.298  16.173  0.3810 -0.4341 -0.0684
  822MPD2    C412147   0.592   4.331  16.044 -0.4651 -0.1606 -0.0640
  822MPD2    C512148   0.640   4.245  15.947  0.0544  0.3462  0.4862
  822MPD2     H12149   0.720   4.164  16.301 -1.3475 -2.1080  0.0199
  822MPD2    H112150   0.524   4.407  16.008  0.6065  0.9196  0.1836
  822MPD2    H212151   0.791   4.106  15.887 -0.0075 -0.9554  1.4607
  822MPD2    H312152   0.608   4.270  15.846 -1.5819  1.8340  1.3711
  822MPD2     N12153   0.571   4.361  16.293  0.6483  0.0877 -0.4833
  822MPD2    H512154   0.595   4.323  16.384 -0.4132 -0.2135 -0.3303
  822MPD2    N112155   0.865   4.027  16.140  0.3814 -0.2799 -0.2535
  822MPD2    H712156   0.890   4.031  16.238  1.2629  0.1114 -0.4879
  823MPD2     C12157   0.379   4.455  17.104 -0.3071 -0.7622  0.6864
  823MPD2    C112158   0.429   4.390  16.997 -0.1979 -1.3649  0.5685
  823MPD2    C212159   0.493   4.266  17.006 -0.1357 -0.3556 -0.3487
  823MPD2    C312160   0.508   4.202  17.133 -0.2235 -0.4815 -0.0112
  823MPD2    C412161   0.455   4.264  17.247  0.2288 -0.5068  0.0343
  823MPD2    C512162   0.384   4.391  17.231 -0.4558 -1.1592  0.5871
  823MPD2     H12163   0.527   4.232  16.909 -0.7474  2.5687 -1.6060
  823MPD2    H112164   0.453   4.216  17.344 -0.2504  2.4554  1.5111
  823MPD2    H212165   0.326   4.547  17.086  0.7500 -0.3585 -0.3555
  823MPD2    H312166   0.342   4.445  17.315 -0.7819 -0.3058 -0.1287
  823MPD2     N12167   0.577   4.079  17.145  0.1266 -0.2219 -0.4634
  823MPD2    H512168   0.591   4.050  17.241 -2.5020  2.0404  0.6055
  823MPD2    N112169   0.424   4.460  16.876 -0.5216 -0.1956 -0.1089
  823MPD2    H712170   0.394   4.557  16.883  0.7687  0.1279  0.8254
  824MPD2     C12171   1.518   3.415  16.326 -0.1986  0.4612 -0.5039
  824MPD2    C112172   1.472   3.468  16.210 -0.0077  0.7311 -0.2526
  824MPD2    C212173   1.538   3.458  16.091  0.0673 -0.4632 -0.2040
  824MPD2    C312174   1.664   3.389  16.085  0.0816 -0.2404  0.3782
  824MPD2    C412175   1.711   3.342  16.208  0.2395  0.8839  0.1488
  824MPD2    C512176   1.637   3.356  16.322  0.4525 -0.2226 -0.7666
  824MPD2     H12177   1.499   3.491  15.995 -0.7247 -2.5554 -0.5977
  824MPD2    H112178   1.804   3.286  16.214  0.1177  0.3678 -2.6458
  824MPD2    H212179   1.454   3.410  16.414  0.5187  0.2618  0.0013
  824MPD2    H312180   1.669   3.307  16.414  1.2329  1.7753  0.0278
  824MPD2     N12181   1.724   3.376  15.959  0.1201  0.1300 -0.0992
  824MPD2    H512182   1.665   3.396  15.879 -2.9041  0.3421  2.2136
  824MPD2    N112183   1.355   3.548  16.218 -0.8361  0.3976 -0.3668
  824MPD2    H712184   1.313   3.548  16.311 -0.6298  0.9092 -0.2715
  825MPD2     C12185   2.149   3.755  15.303 -0.0622 -0.0941  0.1947
  825MPD2    C112186   2.070   3.730  15.417  0.0361 -0.6915  0.0092
  825MPD2    C212187   2.026   3.843  15.484  0.8229 -0.2740 -0.3940
  825MPD2    C312188   2.046   3.971  15.441 -0.8597 -0.0842  0.4731
  825MPD2    C412189   2.104   3.985  15.312 -0.4338  0.4392  0.2235
  825MPD2    C512190   2.166   3.878  15.250 -0.3021 -0.2299 -0.0397
  825MPD2     H12191   1.980   3.827  15.581 -0.0478 -1.9297 -1.0874
  825MPD2    H112192   2.127   4.077  15.260  2.5258 -1.1336 -1.2760
  825MPD2    H212193   2.193   3.669  15.254  0.0667 -0.2425  0.5715
  825MPD2    H312194   2.233   3.895  15.167 -1.7533  1.4864 -0.8814
  825MPD2     N12195   1.990   4.085  15.507  0.1504  0.1048 -0.1330
  825MPD2    H512196   1.998   4.177  15.464 -1.2578  0.1735 -0.2626
  825MPD2    N112197   2.046   3.606  15.473 -0.3631  0.0080  0.3509
  825MPD2    H712198   2.109   3.532  15.444 -0.5478 -0.1957  0.4735
  826MPD2     C12199   2.319   2.912  14.149  0.2996 -0.2594 -0.3520
  826MPD2    C112200   2.323   2.910  14.009 -0.2439  0.3400 -0.2345
  826MPD2    C212201   2.269   3.021  13.942  0.3176  0.2837  0.7063
  826MPD2    C312202   2.223   3.130  14.012 -0.8942  0.4998  0.5941
  826MPD2    C412203   2.213   3.129  14.148  0.7184  0.5173  0.3703
  826MPD2    C512204   2.266   3.021  14.216  0.5276 -0.0772 -0.3410
  826MPD2     H12205   2.259   3.022  13.834  0.7548 -2.3521  0.6311
  826MPD2    H112206   2.178   3.216  14.202  1.7282  1.2190 -0.0927
  826MPD2    H212207   2.359   2.834  14.213 -1.6581  0.1174  1.3263
  826MPD2    H312208   2.271   3.004  14.322 -2.7767 -1.7964 -0.4520
  826MPD2     N12209   2.159   3.239  13.950 -0.7547  0.4183  0.2421
  826MPD2    H512210   2.107   3.298  14.015 -1.5872  0.7689 -0.7434
  826MPD2    N112211   2.365   2.793  13.947  0.4157 -0.3289  0.3571
  826MPD2    H712212   2.410   2.716  13.997  2.1559  0.4740  0.0379
  827MPD2     C12213   2.346   4.722  10.121  0.4425 -0.0893  0.7414
  827MPD2    C112214   2.295   4.621  10.201  0.2655  0.0670 -0.1733
  827MPD2    C212215   2.175   4.566  10.170  0.4648  0.2723 -0.6417
  827MPD2    C312216   2.107   4.603  10.060 -0.0169  0.4504  0.3732
  827MPD2    C412217   2.156   4.712   9.987  0.1624 -0.6019 -0.7724
  827MPD2    C512218   2.277   0.036  10.015 -0.2658 -0.3214 -0.1811
  827MPD2     H12219   2.130   4.499  10.241 -2.9427  3.7992  0.5211
  827MPD2    H112220   2.100   0.015   9.903  0.0139 -1.7305 -1.1947
  827MPD2    H212221   2.433   0.042  10.154  1.7362 -1.5905 -0.1349
  827MPD2    H312222   2.314   0.123   9.961 -2.0722  0.1876 -0.6150
  827MPD2     N12223   1.988   4.537  10.030  0.9924  0.5081  0.0390
  827MPD2    H512224   1.974   4.446  10.073 -0.5910 -0.1824 -1.9333
  827MPD2    N112225   2.375   4.583  10.316  0.0146  0.0822  0.6152
  827MPD2    H712226   2.467   4.625  10.327  0.0097 -0.1950  1.7275
  828MPD2     C12227   1.076   3.877  12.483  0.0270 -0.0347 -0.0737
  828MPD2    C112228   1.013   3.910  12.370 -0.8248  0.3134 -0.1433
  828MPD2    C212229   1.083   3.979  12.269 -0.1608  0.6390  0.7272
  828MPD2    C312230   1.216   4.001  12.270 -0.1991  0.4817  0.6887
  828MPD2    C412231   1.285   3.961  12.386  1.3948 -0.3270  0.3293
  828MPD2    C512232   1.211   3.907  12.488  0.1299 -0.0526 -0.2645
  828MPD2     H12233   1.027   4.017  12.183 -0.1313  1.2004  0.9562
  828MPD2    H112234   1.392   3.977  12.389  1.1494  0.9163  2.0744
  828MPD2    H212235   1.020   3.820  12.557  0.3578  1.5666  1.4008
  828MPD2    H312236   1.269   3.872  12.573  2.6992  1.7094 -1.3032
  828MPD2     N12237   1.284   4.056  12.156 -0.0910 -0.1205 -0.2182
  828MPD2    H512238   1.384   4.071  12.169 -0.4155  0.6667  1.3346
  828MPD2    N112239   0.875   3.881  12.346  0.4134  0.7932 -0.1475
  828MPD2    H712240   0.837   3.918  12.260 -3.7573  0.5414  1.5955
  829MPD2     C12241   0.398   4.305  11.732  0.0759 -0.6938  0.6635
  829MPD2    C112242   0.308   4.241  11.810  0.3920  1.3030  0.3717
  829MPD2    C212243   0.343   4.152  11.908  0.4007 -0.3852 -0.8135
  829MPD2    C312244   0.474   4.118  11.921 -0.0810 -0.1247 -0.1702
  829MPD2    C412245   0.569   4.181  11.838  0.1762  0.5975 -0.0383
  829MPD2    C512246   0.536   4.280  11.751  0.0386  0.3457  0.4309
  829MPD2     H12247   0.268   4.105  11.971  1.5345 -0.9888  0.0873
  829MPD2    H112248   0.672   4.148  11.830 -0.9597 -3.0335  0.1402
  829MPD2    H212249   0.377   4.374  11.651  3.7868  1.0870  1.2247
  829MPD2    H312250   0.600   4.337  11.684 -0.0283 -0.3162 -0.1906
  829MPD2     N12251   0.527   4.032  12.023 -0.1944  0.1246 -0.6061
  829MPD2    H512252   0.625   4.010  12.035  0.0197  1.0639 -0.6832
  829MPD2    N112253   0.170   4.267  11.781  0.4658  0.9259 -0.3818
  829MPD2    H712254   0.155   4.338  11.710 -1.5209  0.2891 -0.5947
  830MPD2     C12255   0.443   1.968  15.944  0.9573 -0.0655 -0.5485
  830MPD2    C112256   0.528   2.046  16.020  0.3023 -0.2761 -0.1925
  830MPD2    C212257   0.591   2.150  15.957 -0.2282 -0.8118  0.5638
  830MPD2    C312258   0.566   2.186  15.828  0.0949 -0.7685 -0.2484
  830MPD2    C412259   0.470   2.116  15.762 -0.0873 -0.2094  0.1371
  830MPD2    C512260   0.422   2.000  15.807  0.2372  1.1322  0.2846
  830MPD2     H12261   0.660   2.210  16.016 -0.8247  0.0593  0.3879
  830MPD2    H112262   0.451   2.123  15.656 -1.3623 -2.2301  0.2273
  830MPD2    H212263   0.394   1.878  15.981  2.3955 -0.3226  0.7315
  830MPD2    H312264   0.358   1.935  15.749 -1.4270  1.2348  2.0264
  830MPD2     N12265   0.611   2.307  15.770 -0.0226 -0.0670  0.0815
  830MPD2    H512266   0.566   2.326  15.681  1.8851 -0.0945 -0.8805
  830MPD2    N112267   0.531   2.014  16.157  0.2740 -0.2601  0.1211
  830MPD2    H712268   0.495   1.920  16.173  0.6681 -0.4799 -0.2935
  831MPD2     C12269   0.913   4.480  16.620 -0.5544 -0.2789  0.7334
  831MPD2    C112270   0.925   4.378  16.518  0.1739 -0.2045 -0.5857
  831MPD2    C212271   0.855   4.260  16.524  0.0138  0.2174  0.5818
  831MPD2    C312272   0.782   4.224  16.638 -0.3828 -0.8293  0.4597
  831MPD2    C412273   0.779   4.320  16.742  0.0497  0.7067  0.4562
  831MPD2    C512274   0.851   4.438  16.736 -0.1201  0.1988  0.1442
  831MPD2     H12275   0.866   4.187  16.446  2.8968  0.2585  0.9281
  831MPD2    H112276   0.721   4.300  16.831  0.3557  1.8996  0.9256
  831MPD2    H212277   0.966   4.573  16.604 -2.1542  0.4760 -0.2455
  831MPD2    H312278   0.840   4.511  16.816  0.9291 -1.3843  1.7345
  831MPD2     N12279   0.707   4.107  16.651 -0.7594 -0.1285 -0.1180
  831MPD2    H512280   0.656   4.084  16.735  3.9719  2.0193  3.3573
  831MPD2    N112281   1.001   4.403  16.402 -0.5768  0.2327 -0.2781
  831MPD2    H712282   1.043   4.492  16.378 -1.1944  0.7602  0.6165
  832MPD2     C12283   4.148   0.174  17.330 -0.1415 -0.1552  0.0360
  832MPD2    C112284   4.087   0.274  17.404  0.5874 -0.7045  0.5467
  832MPD2    C212285   3.948   0.279  17.389 -0.1031  0.4030 -0.2556
  832MPD2    C312286   3.877   0.193  17.306  0.4533  0.0854 -0.1294
  832MPD2    C412287   3.943   0.080  17.259 -0.3572  0.0316  0.0225
  832MPD2    C512288   4.079   0.072  17.270 -0.6779  0.0787  0.4505
  832MPD2     H12289   3.899   0.370  17.423  1.6891  1.1817  0.2724
  832MPD2    H112290   3.904   0.004  17.191 -2.1901  0.2042  0.8847
  832MPD2    H212291   4.256   0.172  17.325 -0.1815  0.0382 -0.8583
  832MPD2    H312292   4.138   4.731  17.221 -1.6038 -0.5735  0.3462
  832MPD2     N12293   3.743   0.215  17.260 -0.5047 -0.2288  0.1907
  832MPD2    H512294   3.709   0.131  17.214 -2.2459  0.9122 -0.5738
  832MPD2    N112295   4.161   0.362  17.485 -0.2897 -0.0750 -0.3212
  832MPD2    H712296   4.262   0.350  17.493 -0.7370 -3.0325  0.5504
  833MPD2     C12297   1.396   2.114  12.322  0.2431  0.0880 -0.0515
  833MPD2    C112298   1.371   2.236  12.262  0.5763  0.2112 -0.4669
  833MPD2    C212299   1.441   2.262  12.144  0.3678  0.2581  0.0784
  833MPD2    C312300   1.530   2.173  12.080 -0.0805  0.6104  0.1778
  833MPD2    C412301   1.548   2.060  12.144  0.4089 -0.5740  0.0544
  833MPD2    C512302   1.494   2.037  12.268  0.1981 -0.0192 -0.3341
  833MPD2     H12303   1.430   2.361  12.101 -1.0241 -0.3201 -0.9096
  833MPD2    H112304   1.609   1.986  12.092  0.9553  0.0744 -0.2258
  833MPD2    H212305   1.344   2.081  12.411  0.1959  1.0888  0.2952
  833MPD2    H312306   1.526   1.948  12.320 -1.0379 -1.0160 -1.2946
  833MPD2     N12307   1.603   2.198  11.964  0.2086  0.4044 -0.4144
  833MPD2    H512308   1.663   2.123  11.931 -2.8918 -1.3092 -2.0838
  833MPD2    N112309   1.270   2.314  12.315 -0.3235  0.2024  0.1307
  833MPD2    H712310   1.225   2.276  12.398  0.7907  0.8700  1.0461
  834MPD2     C12311   1.596   1.457  11.803  0.0385 -0.4157  0.8135
  834MPD2    C112312   1.586   1.492  11.670  0.2272  0.2919  0.0532
  834MPD2    C212313   1.636   1.618  11.620  0.1394  0.5191  0.4849
  834MPD2    C312314   1.682   1.709  11.715  0.7161  0.1298  0.1224
  834MPD2    C412315   1.692   1.670  11.850 -0.2551 -0.3421  0.1540
  834MPD2    C512316   1.660   1.546  11.889  0.3125  0.4015 -0.2310
  834MPD2     H12317   1.630   1.651  11.517  1.3847 -0.3619  0.1278
  834MPD2    H112318   1.734   1.734  11.928  1.3443 -0.2175 -0.8058
  834MPD2    H212319   1.566   1.360  11.843 -1.2564 -0.1447  0.4884
  834MPD2    H312320   1.670   1.522  11.994 -1.1196  1.5378  0.1650
  834MPD2     N12321   1.704   1.842  11.669  0.1252 -0.6284 -0.1591
  834MPD2    H512322   1.715   1.853  11.569 -1.4559  3.3550  0.1240
  834MPD2    N112323   1.521   1.405  11.582 -0.0076 -0.6127  0.2979
  834MPD2    H712324   1.493   1.315  11.620 -0.0370 -1.6620 -2.2496
  835MPD2     C12325   1.584   4.719  11.222  1.0244 -0.0102  0.3046
  835MPD2    C112326   1.505   4.715  11.340  0.3170  0.0522 -0.8234
  835MPD2    C212327   1.566   4.684  11.464  0.3240  0.4362  1.1971
  835MPD2    C312328   1.702   4.662  11.472 -0.3611  0.4941  0.2235
  835MPD2    C412329   1.763   4.640  11.357 -0.0939  0.0902 -0.2060
  835MPD2    C512330   1.716   4.680  11.232  0.2160 -0.6254 -0.0258
  835MPD2     H12331   1.512   4.679  11.557 -1.4181 -1.8341  0.0609
  835MPD2    H112332   1.866   4.607  11.359 -0.3772 -0.9049 -1.7422
  835MPD2    H212333   1.544   0.014  11.126  2.6186 -1.9005 -0.9598
  835MPD2    H312334   1.770   4.662  11.140  2.7749 -0.2161  1.4027
  835MPD2     N12335   1.768   4.629  11.593  0.2461  0.0529 -0.0919
  835MPD2    H512336   1.866   4.605  11.583 -0.1067 -0.9812 -0.9601
  835MPD2    N112337   1.362   0.000  11.335  0.1774 -0.0992 -0.1408
  835MPD2    H712338   1.325   0.015  11.428  1.0095 -0.5486  0.2628
  836MPD2     C12339   1.309   4.566  11.974  0.0635  0.2894  0.8986
  836MPD2    C112340   1.401   4.524  12.067 -0.2148  0.2471 -0.2044
  836MPD2    C212341   1.349   4.468  12.182 -0.3056 -0.9038  0.0845
  836MPD2    C312342   1.213   4.447  12.198  0.4598 -0.2791 -0.2215
  836MPD2    C412343   1.121   4.504  12.109 -0.4865  0.5522  0.9056
  836MPD2    C512344   1.175   4.556  11.994  0.1067  0.3486  0.0756
  836MPD2     H12345   1.425   4.435  12.252 -0.4247 -0.6967  0.3097
  836MPD2    H112346   1.015   4.505  12.127 -0.2192 -0.9301  2.5662
  836MPD2    H212347   1.336   4.601  11.875 -1.2063 -1.1692  0.0437
  836MPD2    H312348   1.103   4.602  11.927 -0.1867 -2.1020 -1.2902
  836MPD2     N12349   1.160   4.390  12.319  0.2999  0.8930  0.1576
  836MPD2    H512350   1.059   4.375  12.322  0.0700  2.3820  0.0958
  836MPD2    N112351   1.533   4.545  12.042 -0.3796  0.3052 -0.1616
  836MPD2    H712352   1.560   4.594  11.958 -0.5045  0.3888 -0.1531
  837MPD2     C12353   4.428   4.024  10.409 -0.3307 -0.3201  0.1291
  837MPD2    C112354   4.300   4.064  10.374  0.0414 -0.9247  0.6261
  837MPD2    C212355   4.268   4.192  10.404 -0.1647  0.1995  0.6277
  837MPD2    C312356   4.366   4.282  10.446 -0.8211  0.5161 -0.9875
  837MPD2    C412357   4.493   4.239  10.489 -0.3220 -0.2064 -0.0534
  837MPD2    C512358   4.518   4.109  10.460  0.2796 -0.1754  0.7115
  837MPD2     H12359   4.168   4.229  10.381  0.9048  2.7124 -0.0113
  837MPD2    H112360   4.576   4.307  10.499 -0.3283 -0.2991  0.6062
  837MPD2    H212361   4.466   3.924  10.398  0.7470  0.1292 -0.2549
  837MPD2    H312362   4.620   4.075  10.476  0.3886  0.4470  1.3559
  837MPD2     N12363   4.320   4.417  10.436  0.2442  0.2806  0.5857
  837MPD2    H512364   4.222   4.421  10.412  0.1586  0.0048  0.8834
  837MPD2    N112365   4.206   3.986  10.309  0.0015 -0.7087 -0.4431
  837MPD2    H712366   4.119   4.038  10.308  1.0354  0.9979 -2.1313
  838MPD2     C12367   2.691   2.683  12.112 -0.0305  0.2457 -0.0968
  838MPD2    C112368   2.618   2.601  12.033  0.0901 -0.0429 -0.3951
  838MPD2    C212369   2.537   2.515  12.096 -0.3235 -0.1794  0.2759
  838MPD2    C312370   2.516   2.517  12.231  0.2985  0.0890  0.4413
  838MPD2    C412371   2.577   2.606  12.310  0.3668  0.1483  0.4384
  838MPD2    C512372   2.669   2.687  12.246 -0.7215 -0.0636  0.6584
  838MPD2     H12373   2.480   2.435  12.049 -1.6154  0.3194  0.9868
  838MPD2    H112374   2.570   2.623  12.417 -0.5117 -0.0558  0.4149
  838MPD2    H212375   2.772   2.740  12.070  0.1695 -0.0829 -0.1625
  838MPD2    H312376   2.744   2.737  12.307 -2.5874  0.9455  2.1510
  838MPD2     N12377   2.435   2.425  12.290 -0.1746 -0.4282  0.0870
  838MPD2    H512378   2.363   2.388  12.229  0.7635 -0.5620 -0.9218
  838MPD2    N112379   2.628   2.600  11.887  0.7787 -0.6543 -0.0428
  838MPD2    H712380   2.564   2.535  11.844  1.8575 -1.6610 -0.1130
  839MPD2     C12381   2.101   2.187  11.370 -0.0789 -0.2748  0.1233
  839MPD2    C112382   2.217   2.136  11.328  1.1288  0.0731 -0.1512
  839MPD2    C212383   2.339   2.200  11.366 -0.1926 -0.1593  0.5357
  839MPD2    C312384   2.330   2.312  11.450  0.2746 -0.2242 -0.0545
  839MPD2    C412385   2.207   2.362  11.490 -0.0377  0.4930  0.7739
  839MPD2    C512386   2.100   2.295  11.448  0.3673  0.2798 -1.1227
  839MPD2     H12387   2.435   2.157  11.342 -0.7979 -1.6328  0.7125
  839MPD2    H112388   2.206   2.455  11.545 -0.9802 -0.4652  2.3595
  839MPD2    H212389   2.003   2.143  11.351 -0.4186 -0.6319  2.6708
  839MPD2    H312390   2.003   2.335  11.474  0.8252  0.6636 -0.0109
  839MPD2     N12391   2.447   2.378  11.493 -0.2492 -0.1103  0.1766
  839MPD2    H512392   2.425   2.444  11.568  2.1710 -1.6025  2.1906
  839MPD2    N112393   2.221   2.025  11.250 -0.5680  0.2164 -0.2848
  839MPD2    H712394   2.313   2.001  11.215  0.1441  2.6848 -0.1163
  840MPD2     C12395   3.001   4.538  10.200 -0.2536  0.1250 -0.4244
  840MPD2    C112396   2.958   4.579  10.324 -0.3434 -0.5417  0.3975
  840MPD2    C212397   3.009   4.694  10.378  0.2836  0.3392 -0.9694
  840MPD2    C312398   3.117   0.024  10.318  0.3016  0.4384 -0.2513
  840MPD2    C412399   3.161   4.721  10.187 -0.0684  0.5209 -0.0833
  840MPD2    C512400   3.098   4.610  10.136 -0.3157  0.1626 -0.4145
  840MPD2     H12401   2.972   0.001  10.471  2.4731  1.0569 -0.4382
  840MPD2    H112402   3.232   0.049  10.136 -1.1409  1.2147 -0.7012
  840MPD2    H212403   2.945   4.461  10.148  3.0167 -1.5189 -1.5882
  840MPD2    H312404   3.121   4.587  10.032 -2.4587 -0.7658 -0.6687
  840MPD2     N12405   3.170   0.139  10.369 -0.4002  0.1310  0.5285
  840MPD2    H512406   3.261   0.160  10.329 -1.6503 -0.6717 -2.7776
  840MPD2    N112407   2.851   4.516  10.385  0.5605  0.4054  0.9179
  840MPD2    H712408   2.798   4.452  10.326 -1.9817  4.5963 -1.3513
  841MPD2     C12409   3.057   4.135  14.731 -0.5655  0.0668  0.2647
  841MPD2    C112410   2.980   4.244  14.704 -0.5178 -1.2359 -0.3617
  841MPD2    C212411   3.018   4.362  14.758  0.1325  0.6368  0.7293
  841MPD2    C312412   3.125   4.369  14.853  0.9983 -0.8377 -0.1023
  841MPD2    C412413   3.191   4.253  14.890  0.3538  0.7922 -0.3791
  841MPD2    C512414   3.157   4.144  14.820  0.5715 -0.6042  0.3892
  841MPD2     H12415   2.959   4.450  14.736  2.5821  2.1910  0.4397
  841MPD2    H112416   3.269   4.240  14.964 -0.8732 -0.2594  0.7304
  841MPD2    H212417   3.040   4.031  14.706 -0.0396  0.0458 -0.0049
  841MPD2    H312418   3.223   4.058  14.829 -0.0660 -1.2054 -0.6871
  841MPD2     N12419   3.152   4.490  14.918 -0.0179 -0.1288 -0.5320
  841MPD2    H512420   3.091   4.563  14.882 -0.2600 -0.5115 -0.8960
  841MPD2    N112421   2.866   4.244  14.620  0.0733 -0.3074 -0.0114
  841MPD2    H712422   2.826   4.336  14.601  2.9524  1.3801  2.0367
  842MPD2     C12423   3.212   0.574  17.212  0.6864  0.2231  0.5189
  842MPD2    C112424   3.107   0.488  17.197  0.3867  0.0137  0.5061
  842MPD2    C212425   3.063   0.396  17.297 -0.1805  0.3139 -0.0016
  842MPD2    C312426   3.131   0.398  17.412 -0.0335 -0.8124  0.0097
  842MPD2    C412427   3.241   0.473  17.434 -0.3562  0.0982  0.4786
  842MPD2    C512428   3.276   0.562  17.331 -0.1505 -0.2578 -0.0287
  842MPD2     H12429   2.961   0.360  17.295 -0.4578  1.1766 -1.0401
  842MPD2    H112430   3.293   0.476  17.529  0.4054  1.7341  0.0137
  842MPD2    H212431   3.241   0.647  17.137  1.7668 -0.8580 -0.1076
  842MPD2    H312432   3.362   0.627  17.346  0.1127 -0.9844  1.7310
  842MPD2     N12433   3.068   0.347  17.524  0.7555 -0.6800 -0.1204
  842MPD2    H512434   3.109   0.373  17.614 -0.2348  1.7596 -0.3575
  842MPD2    N112435   3.046   0.489  17.071 -0.1873 -0.5918  0.2152
  842MPD2    H712436   3.063   0.564  17.005  0.3706  0.3565  1.4349
  843MPD2     C12437   0.521   1.295   0.311  0.2883 -0.1811 -0.0911
  843MPD2    C112438   0.568   1.291   0.442  1.0862  1.1536  1.3102
  843MPD2    C212439   0.602   1.415   0.499  0.1646  0.0387  0.0426
  843MPD2    C312440   0.591   1.539   0.435 -0.0025 -0.8826 -0.2875
  843MPD2    C412441   0.538   1.529   0.303  0.1496 -0.4088  0.5361
  843MPD2    C512442   0.511   1.411   0.236 -0.4284 -0.1171 -0.0667
  843MPD2     H12443   0.642   1.408   0.599 -2.3953  0.3176  1.0765
  843MPD2    H112444   0.519   1.622   0.250  1.7494 -0.7377 -0.6134
  843MPD2    H212445   0.527   1.197   0.267 -2.5424  0.7208 -2.4726
  843MPD2    H312446   0.497   1.419   0.129 -1.8208 -0.4465  0.0900
  843MPD2     N12447   0.630   1.663   0.489 -0.4695  0.2929  0.0821
  843MPD2    H512448   0.643   1.735   0.419  2.9370  1.7585  2.1911
  843MPD2    N112449   0.580   1.165   0.505 -0.5142 -0.3423  0.2504
  843MPD2    H712450   0.552   1.089   0.444 -0.2189  0.7149 -1.2000
  844MPD2     C12451   3.952   0.461  17.080 -0.4189 -0.0100 -0.7769
  844MPD2    C112452   4.015   0.368  17.001 -0.2319  0.4118  0.9344
  844MPD2    C212453   4.153   0.354  17.004  0.7375 -0.3648 -0.2873
  844MPD2    C312454   4.224   0.437  17.083 -0.2764  0.2176 -0.2315
  844MPD2    C412455   4.165   0.527  17.169  0.0114  0.2319  0.0092
  844MPD2    C512456   4.033   0.547  17.149  0.1343  0.3211 -0.1102
  844MPD2     H12457   4.211   0.288  16.942  2.0900 -0.5948  1.2126
  844MPD2    H112458   4.219   0.583  17.245  1.1159 -2.5020  1.2240
  844MPD2    H212459   3.844   0.466  17.090 -0.3410  2.2566 -1.1161
  844MPD2    H312460   3.991   0.619  17.218  0.1286 -0.1252  0.3551
  844MPD2     N12461   4.367   0.419  17.087 -0.6223 -0.1179  0.5912
  844MPD2    H512462   4.403   0.339  17.037 -1.4594  1.5665 -2.7058
  844MPD2    N112463   3.948   0.286  16.906  0.1766 -0.1063 -0.5762
  844MPD2    H712464   4.006   0.227  16.848 -0.7688 -1.8188  0.2081
  845MPD2     C12465   4.698   1.194  17.396  0.2261  0.5193  0.4871
  845MPD2    C112466   4.576   1.129  17.413  0.8877 -0.3839 -0.0942
  845MPD2    C212467   4.570   0.996  17.420 -0.6938  0.5367  0.3141
  845MPD2    C312468   4.683   0.916  17.417  0.1541  0.3795  0.8313
  845MPD2    C412469   0.068   0.980  17.433 -0.6455  0.4903 -0.2269
  845MPD2    C512470   0.070   1.117  17.421  0.4869 -0.3229 -1.0427
  845MPD2     H12471   4.470   0.954  17.420  0.4493 -2.2172  0.5452
  845MPD2    H112472   0.164   0.930  17.426 -1.3468 -0.4217 -3.0708
  845MPD2    H212473   4.697   1.300  17.376 -0.0802 -0.0307 -2.3471
  845MPD2    H312474   0.168   1.163  17.422  0.1707  0.3286  0.1894
  845MPD2     N12475   4.662   0.776  17.405  0.2271  0.0436 -0.2304
  845MPD2    H512476   4.569   0.736  17.398 -0.2848  1.5466 -1.9709
  845MPD2    N112477   4.464   1.213  17.434 -0.0041 -0.5605 -0.3288
  845MPD2    H712478   4.488   1.309  17.412  1.0495 -0.7536 -0.0066
  846MPD2     C12479   0.203   1.580  13.673  0.0841  0.4494  0.0274
  846MPD2    C112480   0.290   1.610  13.771  0.6962 -0.4352  0.0629
  846MPD2    C212481   0.261   1.568  13.896  0.1615  0.3748  0.2258
  846MPD2    C312482   0.151   1.501  13.935 -0.4070  0.8770  0.0232
  846MPD2    C412483   0.057   1.478  13.834 -0.5671  0.0296 -0.6567
  846MPD2    C512484   0.088   1.511  13.703  0.4129  0.6374 -0.0610
  846MPD2     H12485   0.336   1.590  13.971 -0.2985 -0.9775  1.0875
  846MPD2    H112486   4.708   1.414  13.854 -0.1727 -0.4808 -0.6293
  846MPD2    H212487   0.217   1.619  13.573 -0.8895 -1.0722 -0.7025
  846MPD2    H312488   0.015   1.482  13.628  0.6455  0.3145 -0.1631
  846MPD2     N12489   0.128   1.467  14.073  0.2769  0.1672 -0.0681
  846MPD2    H512490   0.180   1.525  14.138 -0.2172  0.4281  0.0943
  846MPD2    N112491   0.410   1.682  13.748  0.5142 -0.4075  0.2860
  846MPD2    H712492   0.466   1.719  13.823  1.9373 -0.4636 -0.7467
  847MPD2     C12493   0.940   2.468  14.666  0.8326 -0.5156 -0.4881
  847MPD2    C112494   0.998   2.524  14.776  0.5519 -0.6078 -0.4896
  847MPD2    C212495   1.003   2.436  14.884  0.4487  0.4257  0.0043
  847MPD2    C312496   0.959   2.309  14.885  0.5055 -0.2696  0.7078
  847MPD2    C412497   0.905   2.253  14.773  0.7155 -0.7115 -0.7992
  847MPD2    C512498   0.893   2.334  14.663  0.3177 -0.8412 -0.4437
  847MPD2     H12499   1.048   2.475  14.974  0.3497  1.9215 -0.5972
  847MPD2    H112500   0.869   2.151  14.783 -0.4257 -0.4541 -2.3276
  847MPD2    H212501   0.919   2.525  14.576 -2.9173  1.3705  1.5836
  847MPD2    H312502   0.848   2.286  14.577  0.4550 -2.6939  0.5199
  847MPD2     N12503   0.969   2.239  15.007 -0.3550 -0.4042  0.3129
  847MPD2    H512504   1.007   2.297  15.081  2.8062 -1.0358 -0.8131
  847MPD2    N112505   1.053   2.657  14.781 -0.3919  0.5551 -0.2745
  847MPD2    H712506   1.111   2.674  14.862 -0.6168  0.4560 -0.0909
  848MPD2     C12507   3.272   0.398  16.633 -0.0538 -0.3299  0.1793
  848MPD2    C112508   3.391   0.430  16.709  0.2815  0.4526 -0.2224
  848MPD2    C212509   3.473   0.537  16.662 -0.3697  1.0378 -0.2935
  848MPD2    C312510   3.437   0.595  16.541  0.0783 -0.6230 -0.3848
  848MPD2    C412511   3.335   0.541  16.461 -0.6855 -0.1218  0.6710
  848MPD2    C512512   3.256   0.442  16.510 -0.1489  0.3893 -0.8270
  848MPD2     H12513   3.557   0.574  16.720 -0.8423 -0.7877  1.5876
  848MPD2    H112514   3.312   0.588  16.366 -0.0947  0.2332  0.7018
  848MPD2    H212515   3.199   0.335  16.682  1.0993 -1.9241 -0.1338
  848MPD2    H312516   3.173   0.414  16.447  0.2046 -1.7669 -0.3367
  848MPD2     N12517   3.498   0.711  16.494 -0.4231 -0.0178  0.2865
  848MPD2    H512518   3.475   0.737  16.399  0.5453 -2.6454 -0.6568
  848MPD2    N112519   3.429   0.375  16.834  0.3865  0.4357 -0.6080
  848MPD2    H712520   3.510   0.416  16.879  0.5374  1.3329 -1.7030
  849MPD2     C12521   2.463   0.561  14.233 -0.0260  0.2305  0.1012
  849MPD2    C112522   2.476   0.478  14.338  0.0001  0.2945  0.7126
  849MPD2    C212523   2.488   0.529  14.464 -0.2351  0.2536 -0.5326
  849MPD2    C312524   2.484   0.664  14.481  0.0285 -0.0228 -0.3241
  849MPD2    C412525   2.458   0.753  14.373  0.3431  0.2723 -0.6309
  849MPD2    C512526   2.446   0.690  14.253  1.0258 -0.1837 -0.5269
  849MPD2     H12527   2.501   0.470  14.554  2.5508  1.0757 -0.3955
  849MPD2    H112528   2.439   0.860  14.371  0.7911  0.3420 -1.0360
  849MPD2    H212529   2.448   0.529  14.131  1.6916  0.1298 -0.1142
  849MPD2    H312530   2.425   0.757  14.171 -0.8448  0.3534  0.3848
  849MPD2     N12531   2.515   0.714  14.605  0.7303 -0.2881 -0.2295
  849MPD2    H512532   2.533   0.649  14.681 -1.6675  1.9024  2.2229
  849MPD2    N112533   2.491   0.337  14.314  0.0238  0.3729 -0.2735
  849MPD2    H712534   2.504   0.303  14.219 -1.3838  0.0490 -0.3508
  850MPD2     C12535   1.267   3.470  14.879  0.3131  0.4295 -0.1637
  850MPD2    C112536   1.290   3.513  15.008 -0.1712  0.0851 -0.3208
  850MPD2    C212537   1.420   3.562  15.041  0.1453 -0.8313 -0.7543
  850MPD2    C312538   1.529   3.567  14.955  0.2483  0.7365 -0.3125
  850MPD2    C412539   1.505   3.527  14.828  0.3093  0.4939  0.1669
  850MPD2    C512540   1.381   3.475  14.793 -0.1327  0.2398 -0.4599
  850MPD2     H12541   1.439   3.587  15.145 -0.0697 -1.3343 -0.5938
  850MPD2    H112542   1.580   3.531  14.750 -1.2521 -0.1862 -1.3730
  850MPD2    H212543   1.176   3.418  14.849  0.7188 -0.1889 -0.3408
  850MPD2    H312544   1.364   3.435  14.694  1.4082 -2.2557  0.2968
  850MPD2     N12545   1.656   3.623  14.990 -0.0503  0.4436 -0.5551
  850MPD2    H512546   1.716   3.653  14.914  0.0744  0.3633 -0.4880
  850MPD2    N112547   1.195   3.488  15.112 -0.5718  0.3354 -0.2245
  850MPD2    H712548   1.238   3.464  15.200 -0.6489  1.0827  0.0126
  851MPD2     C12549   1.089   3.274  15.902  0.6376 -0.5757  0.1314
  851MPD2    C112550   1.048   3.259  15.770 -0.0943  0.4177  0.1380
  851MPD2    C212551   0.975   3.145  15.732  0.4029  0.1505  0.0616
  851MPD2    C312552   0.943   3.053  15.834 -0.0255  1.0846 -0.0692
  851MPD2    C412553   0.991   3.067  15.961  0.4112 -0.8438 -0.7774
  851MPD2    C512554   1.066   3.175  15.995 -1.1056  0.0349 -0.9977
  851MPD2     H12555   0.939   3.140  15.629  0.9002  0.9598 -0.1491
  851MPD2    H112556   0.977   2.993  16.039 -4.0451  0.9774  0.1606
  851MPD2    H212557   1.133   3.368  15.934  0.8188 -1.5050  2.6152
  851MPD2    H312558   1.096   3.187  16.098 -2.4764  0.8130 -0.6973
  851MPD2     N12559   0.850   2.958  15.800 -0.0144  0.0700  0.0738
  851MPD2    H512560   0.813   2.957  15.706  1.6597  0.6492 -0.5744
  851MPD2    N112561   1.060   3.365  15.678 -0.2263 -0.8962 -0.3076
  851MPD2    H712562   1.100   3.449  15.719 -2.0008 -0.2236  0.0755
  852MPD2     C12563   0.378   0.823  10.374 -0.4733  0.1779  0.4005
  852MPD2    C112564   0.474   0.772  10.464 -0.4989 -0.6778 -0.2695
  852MPD2    C212565   0.590   0.841  10.470 -0.3789 -0.3898 -0.0028
  852MPD2    C312566   0.632   0.947  10.391  0.3838  0.0231 -0.4833
  852MPD2    C412567   0.536   0.998  10.308 -0.5926 -0.2407  0.2666
  852MPD2    C512568   0.418   0.929  10.301  0.0058  0.0959 -0.3472
  852MPD2     H12569   0.655   0.802  10.547 -0.6393 -0.5262  0.1465
  852MPD2    H112570   0.541   1.087  10.247  0.4068 -0.2647  0.3142
  852MPD2    H212571   0.280   0.780  10.357 -0.3272 -0.6766  1.6806
  852MPD2    H312572   0.341   0.966  10.234  0.0698 -2.2038 -1.6924
  852MPD2     N12573   0.771   0.993  10.395  0.4871  0.0696  0.5936
  852MPD2    H512574   0.840   0.941  10.449  0.1183 -0.8566  0.1640
  852MPD2    N112575   0.458   0.656  10.545  0.0930  0.2672  0.0085
  852MPD2    H712576   0.535   0.636  10.609 -1.8109  0.7659  2.4640
  853MPD2     C12577   2.230   0.844  12.807  0.7146  0.7851  0.2753
  853MPD2    C112578   2.186   0.960  12.744  0.5073 -0.2737  0.1933
  853MPD2    C212579   2.220   0.977  12.609 -0.4817 -0.0560  0.0073
  853MPD2    C312580   2.294   0.881  12.544 -0.2788  1.0241 -0.3043
  853MPD2    C412581   2.337   0.773  12.613  0.0564  0.3579 -0.2982
  853MPD2    C512582   2.296   0.741  12.742  0.4681  0.3549 -0.5762
  853MPD2     H12583   2.204   1.069  12.555 -2.8940 -0.5927 -0.1752
  853MPD2    H112584   2.406   0.704  12.565 -0.7292 -1.5416  1.2605
  853MPD2    H212585   2.206   0.816  12.909  1.2947 -0.1836  0.1362
  853MPD2    H312586   2.321   0.652  12.798 -1.2501 -0.6888 -1.4803
  853MPD2     N12587   2.320   0.881  12.411  0.0266 -0.1902 -0.1338
  853MPD2    H512588   2.387   0.814  12.375  0.5079  0.2526 -0.0643
  853MPD2    N112589   2.121   1.055  12.824  0.0821  0.5929 -0.1765
  853MPD2    H712590   2.121   1.037  12.924 -0.8966  2.0090  0.0849
  854MPD2     C12591   3.728   0.674  14.032 -0.0223  0.9170 -0.0315
  854MPD2    C112592   3.729   0.552  13.962  0.2523  0.1970 -0.4929
  854MPD2    C212593   3.822   0.536  13.856  0.1037  0.6638  0.0322
  854MPD2    C312594   3.901   0.650  13.818 -0.6227 -0.3624 -0.0107
  854MPD2    C412595   3.898   0.767  13.897  0.0827  0.5897 -0.1686
  854MPD2    C512596   3.813   0.774  14.006 -0.0275 -0.3228  0.3392
  854MPD2     H12597   3.827   0.446  13.797  0.5069  0.9481 -0.3746
  854MPD2    H112598   3.957   0.856  13.876 -0.6031  0.5765 -2.2248
  854MPD2    H212599   3.673   0.677  14.126  2.2661 -0.8544  1.3813
  854MPD2    H312600   3.823   0.866  14.063 -0.5205 -0.5239  0.7461
  854MPD2     N12601   3.987   0.648  13.707  0.1136  0.2064 -0.3008
  854MPD2    H512602   4.046   0.730  13.704 -0.0239  0.2514 -2.0249
  854MPD2    N112603   3.630   0.449  13.989 -1.0319  0.1208 -0.1078
  854MPD2    H712604   3.573   0.457  14.073 -1.6338  1.0189 -0.6059
  855MPD2     C12605   0.064   0.708  13.783  0.0774 -0.1912  0.5195
  855MPD2    C112606   0.036   0.609  13.688 -0.3386  0.0717  0.3316
  855MPD2    C212607   4.663   0.630  13.608 -0.2246 -0.0401 -0.5346
  855MPD2    C312608   4.574   0.738  13.617 -0.1658 -0.3258  0.2080
  855MPD2    C412609   4.595   0.835  13.710  0.4213  0.5676 -0.5403
  855MPD2    C512610   4.710   0.815  13.787 -1.1022  0.0343  0.5121
  855MPD2     H12611   4.654   0.565  13.522 -1.5088  1.2836 -1.4027
  855MPD2    H112612   4.529   0.921  13.711  2.2192  1.9093  1.4925
  855MPD2    H212613   0.149   0.704  13.850 -0.3541  1.3307  1.1686
  855MPD2    H312614   4.726   0.886  13.867 -0.5305  1.7230 -1.1034
  855MPD2     N12615   4.450   0.742  13.545  0.0399  0.2630 -0.4314
  855MPD2    H512616   4.370   0.793  13.580  0.2551 -0.0510  0.5181
  855MPD2    N112617   0.114   0.491  13.672 -0.6201 -0.0439 -0.3297
  855MPD2    H712618   0.092   0.423  13.600 -0.1780 -0.5233 -0.0114
  856MPD2     C12619   1.893   1.848  14.561 -0.3024 -0.1762 -0.5488
  856MPD2    C112620   1.938   1.963  14.498  0.2701 -0.2392  0.9086
  856MPD2    C212621   1.849   2.036  14.421 -0.5472 -0.3031  0.3589
  856MPD2    C312622   1.715   1.991  14.399 -0.1542 -0.1347  0.7240
  856MPD2    C412623   1.685   1.869  14.444 -0.0983 -0.8060 -0.2942
  856MPD2    C512624   1.774   1.796  14.523  0.1873 -0.3953  0.5346
  856MPD2     H12625   1.887   2.129  14.381  2.1006 -1.5442  0.0218
  856MPD2    H112626   1.586   1.829  14.425 -0.8820  1.1484 -0.3713
  856MPD2    H212627   1.960   1.792  14.625  0.9131  2.0976  0.1821
  856MPD2    H312628   1.744   1.700  14.562  0.1894 -0.0237  1.4519
  856MPD2     N12629   1.608   2.072  14.355 -0.1834  0.0244  0.7626
  856MPD2    H512630   1.513   2.046  14.379 -0.6384  0.3944 -0.6677
  856MPD2    N112631   2.080   2.009  14.507  0.4280  0.2419 -0.4406
  856MPD2    H712632   2.106   2.093  14.458  1.2008 -0.5982 -1.4619
  857MPD2     C12633   3.117   3.738  13.300  0.3044 -0.2325 -0.4317
  857MPD2    C112634   3.207   3.811  13.216 -0.2184  0.1964  0.8023
  857MPD2    C212635   3.306   3.878  13.278 -0.0548 -0.2298 -0.2275
  857MPD2    C312636   3.310   3.893  13.416  0.4462  0.1934  0.0510
  857MPD2    C412637   3.207   3.842  13.491  0.5893 -0.4263  0.5394
  857MPD2    C512638   3.113   3.764  13.434  0.3722 -0.0233  0.9732
  857MPD2     H12639   3.386   3.922  13.218  1.3978 -0.6234  1.4144
  857MPD2    H112640   3.201   3.870  13.596 -0.4820  0.5651  0.2099
  857MPD2    H212641   3.049   3.664  13.260  0.1637 -0.1986 -0.2574
  857MPD2    H312642   3.045   3.709  13.498  1.2812 -1.9747  0.2708
  857MPD2     N12643   3.414   3.975  13.461 -0.9805  0.2264  0.3699
  857MPD2    H512644   3.467   4.016  13.385  0.1859  0.5137  1.3347
  857MPD2    N112645   3.198   3.782  13.077  0.0109  1.1007 -0.9376
  857MPD2    H712646   3.129   3.724  13.031 -0.7817  1.3147 -0.0050
  858MPD2     C12647   4.027   3.432  16.613 -0.1380 -0.1171  0.1335
  858MPD2    C112648   4.103   3.318  16.640  0.0349 -0.2377  1.1834
  858MPD2    C212649   4.153   3.288  16.767  0.1018  0.0272  0.6564
  858MPD2    C312650   4.106   3.358  16.881  0.2135  0.3392  1.3228
  858MPD2    C412651   4.028   3.464  16.852  0.1584 -0.7000 -0.2477
  858MPD2    C512652   3.992   3.502  16.727  0.5840 -0.2623 -0.5134
  858MPD2     H12653   4.214   3.200  16.782  0.2438 -0.0293 -0.2512
  858MPD2    H112654   3.986   3.519  16.936 -0.5470 -1.7283  0.0833
  858MPD2    H212655   3.984   3.447  16.514  0.2426 -2.1163 -0.3360
  858MPD2    H312656   3.919   3.579  16.705  1.6965  1.2514  1.1486
  858MPD2     N12657   4.121   3.322  17.022 -0.6494  0.0411  0.0929
  858MPD2    H512658   4.067   3.372  17.091  1.4490  0.8015  1.1780
  858MPD2    N112659   4.125   3.235  16.529 -0.2725  0.4980 -0.4721
  858MPD2    H712660   4.063   3.250  16.451 -1.0133  1.0797  0.2220
  859MPD2     C12661   2.707   0.764  16.144  0.2099  0.6797 -0.0572
  859MPD2    C112662   2.680   0.701  16.031  0.2022  0.4026 -0.4371
  859MPD2    C212663   2.639   0.574  16.043 -0.2832  0.0419  0.5136
  859MPD2    C312664   2.619   0.508  16.160 -0.1652 -0.4381  1.0894
  859MPD2    C412665   2.627   0.581  16.276 -0.0863  0.2169 -0.0056
  859MPD2    C512666   2.671   0.712  16.263  0.3689  0.0781 -0.0704
  859MPD2     H12667   2.632   0.513  15.953  1.7692  1.0819 -0.3391
  859MPD2    H112668   2.608   0.546  16.377  0.0936 -0.6748 -0.2886
  859MPD2    H212669   2.744   0.866  16.140 -0.6754  0.9887 -0.2485
  859MPD2    H312670   2.663   0.777  16.349 -2.4413  1.0496 -1.0473
  859MPD2     N12671   2.609   0.370  16.171  0.6879 -0.6814 -0.2070
  859MPD2    H512672   2.617   0.332  16.264  1.4858 -0.0951 -0.0389
  859MPD2    N112673   2.712   0.772  15.910 -0.5534  0.3380  0.3255
  859MPD2    H712674   2.761   0.859  15.926  1.8267 -1.1765  1.3789
  860MPD2     C12675   0.348   0.592  11.844 -0.0325  0.6524  0.6924
  860MPD2    C112676   0.368   0.658  11.962  0.0837 -0.3021  0.1242
  860MPD2    C212677   0.259   0.681  12.042 -0.1862  0.0792 -0.3839
  860MPD2    C312678   0.137   0.624  12.012 -0.4681  0.3606  0.1000
  860MPD2    C412679   0.120   0.560  11.886 -0.0565  0.0308 -0.5776
  860MPD2    C512680   0.227   0.546  11.803 -0.0711  0.0184  0.1848
  860MPD2     H12681   0.278   0.726  12.138 -2.7376 -0.9916  0.6127
  860MPD2    H112682   0.021   0.540  11.849 -0.2564 -2.4697  1.3294
  860MPD2    H212683   0.429   0.570  11.775 -0.7369 -0.4156  0.2069
  860MPD2    H312684   0.226   0.497  11.706  0.3383  0.2570  0.0582
  860MPD2     N12685   0.030   0.642  12.106 -0.1956  0.3754 -0.1415
  860MPD2    H512686   0.042   0.711  12.179  1.1505 -0.2465  0.2340
  860MPD2    N112687   0.493   0.693  12.020 -0.3532  0.6733 -0.0725
  860MPD2    H712688   0.491   0.749  12.105  1.1043 -1.2760  1.2572
  861MPD2     C12689   4.164   4.052  11.045 -0.7287  0.7048  0.1421
  861MPD2    C112690   4.045   3.984  11.071 -0.0275 -0.6825  0.2981
  861MPD2    C212691   3.928   4.035  11.027  0.3708  0.3561 -0.0902
  861MPD2    C312692   3.924   4.155  10.952 -0.7403  0.4709  0.1132
  861MPD2    C412693   4.042   4.223  10.936  0.0057 -0.6435 -0.1789
  861MPD2    C512694   4.155   4.175  10.980 -0.4127 -0.6002  0.3212
  861MPD2     H12695   3.834   3.987  11.052  0.2362  0.3347 -0.6468
  861MPD2    H112696   4.043   4.310  10.871 -0.2958  0.1426  0.8679
  861MPD2    H212697   4.259   4.018  11.085 -0.8190  1.8353  1.3112
  861MPD2    H312698   4.248   4.231  10.976  0.6044 -2.3806 -0.8126
  861MPD2     N12699   3.805   4.206  10.902 -0.1731 -0.5344  0.5256
  861MPD2    H512700   3.809   4.305  10.879 -0.2537 -0.8489 -0.8229
  861MPD2    N112701   4.035   3.864  11.143  0.0760  0.2553 -0.1099
  861MPD2    H712702   3.948   3.828  11.180  1.5293 -1.2606  1.7981
  862MPD2     C12703   3.088   3.920  10.589  0.1288  0.4160 -0.6113
  862MPD2    C112704   3.215   3.894  10.638 -0.4781 -0.6683 -0.1266
  862MPD2    C212705   3.276   3.769  10.613 -0.6236 -0.6681 -0.1913
  862MPD2    C312706   3.209   3.682  10.523  0.2486  0.2154  0.1548
  862MPD2    C412707   3.089   3.721  10.469 -0.2099  0.0394 -0.0059
  862MPD2    C512708   3.030   3.834  10.499 -0.3144  1.0342 -0.6472
  862MPD2     H12709   3.382   3.752  10.634 -0.5430  0.2620  0.1453
  862MPD2    H112710   3.039   3.672  10.386 -0.2774  1.0873 -0.5891
  862MPD2    H212711   3.038   4.016  10.600  1.9278  1.2125  0.7389
  862MPD2    H312712   2.940   3.869  10.448 -3.0295 -1.4630  2.4484
  862MPD2     N12713   3.262   3.563  10.474  0.5174  0.3979 -0.1385
  862MPD2    H512714   3.215   3.520  10.395 -1.0593 -0.9100  1.5140
  862MPD2    N112715   3.294   3.988  10.706  0.0043 -0.4459 -0.0164
  862MPD2    H712716   3.383   3.953  10.740  0.5599  0.1070 -0.8782
  863MPD2     C12717   2.293   2.538  17.192  0.2342 -0.0068  0.5786
  863MPD2    C112718   2.271   2.407  17.161  0.4520  0.0581  0.2483
  863MPD2    C212719   2.337   2.302  17.231 -0.8211  0.2608 -0.6771
  863MPD2    C312720   2.417   2.338  17.339 -0.6022 -0.5921 -0.4305
  863MPD2    C412721   2.443   2.470  17.368  0.0847  0.4506 -0.1267
  863MPD2    C512722   2.384   2.571  17.287 -0.5612  0.1696  0.3988
  863MPD2     H12723   2.333   2.197  17.206  3.8850  0.2097 -1.2004
  863MPD2    H112724   2.517   2.495  17.443 -0.0265  2.0579 -0.5496
  863MPD2    H212725   2.253   2.615  17.127  1.7590 -1.3272 -1.9213
  863MPD2    H312726   2.409   2.676  17.297 -0.4351  0.1426  0.3601
  863MPD2     N12727   2.490   2.242  17.413 -0.4792  0.2394 -0.0994
  863MPD2    H512728   2.557   2.279  17.480  0.4502 -0.0461 -0.8710
  863MPD2    N112729   2.190   2.384  17.046 -0.1939  0.3620 -0.0519
  863MPD2    H712730   2.139   2.462  17.009 -0.4802 -1.0705 -2.6659
  864MPD2     C12731   2.334   3.345  15.737 -0.2219 -0.2322 -0.4058
  864MPD2    C112732   2.445   3.281  15.790  0.0633 -0.0385  1.0171
  864MPD2    C212733   2.561   3.348  15.779  0.0931  0.2204  0.0089
  864MPD2    C312734   2.575   3.465  15.707 -0.0188 -0.1420  0.9289
  864MPD2    C412735   2.460   3.536  15.677 -0.7605  0.5844  0.4061
  864MPD2    C512736   2.342   3.469  15.689  0.0121 -0.7646  0.1071
  864MPD2     H12737   2.654   3.318  15.827  0.2924 -0.0810 -0.5737
  864MPD2    H112738   2.467   3.639  15.645  2.0356  0.7664  1.5478
  864MPD2    H212739   2.233   3.305  15.744  0.0144 -0.6821  0.4336
  864MPD2    H312740   2.248   3.519  15.668 -0.4337 -1.7915 -0.3320
  864MPD2     N12741   2.703   3.523  15.670 -0.4330  0.3877 -0.0792
  864MPD2    H512742   2.697   3.613  15.622 -2.2984  0.8308  0.9868
  864MPD2    N112743   2.449   3.159  15.854  0.8278 -0.1833 -0.3673
  864MPD2    H712744   2.530   3.126  15.904  0.6920  0.2096  0.1137
  865MPD2     C12745   2.970   3.341  15.194  0.6916  0.1665 -0.0298
  865MPD2    C112746   3.054   3.380  15.295 -0.7354 -0.4433 -0.2500
  865MPD2    C212747   3.058   3.513  15.324  0.8025 -0.6297 -1.0079
  865MPD2    C312748   2.983   3.613  15.270  0.6254  0.0634 -0.2695
  865MPD2    C412749   2.899   3.573  15.171  0.8752 -0.0366 -0.2868
  865MPD2    C512750   2.889   3.441  15.136  0.2758 -0.1667  0.4063
  865MPD2     H12751   3.137   3.550  15.389 -1.7760  0.9723  1.1992
  865MPD2    H112752   2.835   3.637  15.111 -0.1582  0.1159  0.9921
  865MPD2    H212753   2.956   3.236  15.170  1.6955 -0.1767  0.9068
  865MPD2    H312754   2.807   3.428  15.067 -0.5658  2.6611  0.8793
  865MPD2     N12755   2.978   3.748  15.310  0.0591  0.1517 -0.0623
  865MPD2    H512756   2.952   3.812  15.235 -0.8958 -0.9517 -0.6592
  865MPD2    N112757   3.121   3.287  15.367 -0.3937 -0.3934 -0.1284
  865MPD2    H712758   3.100   3.190  15.344  1.5327  0.2251 -4.5887
  866MPD2     C12759   4.578   3.913  11.474  0.2746 -0.6700 -0.6204
  866MPD2    C112760   4.531   3.976  11.362 -0.0503  0.0126  0.1972
  866MPD2    C212761   4.420   4.059  11.374 -0.2069 -0.5732  0.2854
  866MPD2    C312762   4.350   4.066  11.495 -0.6343 -0.3315  0.5446
  866MPD2    C412763   4.391   3.989  11.596  0.2412 -0.2367  0.1614
  866MPD2    C512764   4.504   3.920  11.588  0.3365  0.0838 -0.2432
  866MPD2     H12765   4.375   4.104  11.286  0.0216 -0.7202  0.0917
  866MPD2    H112766   4.343   3.989  11.693 -2.4135  0.9376 -1.1465
  866MPD2    H212767   4.667   3.850  11.475 -1.2857 -2.8206  1.6468
  866MPD2    H312768   4.532   3.871  11.681 -3.9003 -0.1823  0.8726
  866MPD2     N12769   4.226   4.133  11.511 -0.3683  0.3765  0.0547
  866MPD2    H512770   4.162   4.116  11.587 -0.5294  1.5413  0.1909
  866MPD2    N112771   4.599   3.947  11.238  0.1517 -0.0707  0.8628
  866MPD2    H712772   4.673   3.878  11.234  0.7515  0.5413  1.4809
  867MPD2     C12773   1.642   3.274  16.857 -0.2278  0.1191  0.6748
  867MPD2    C112774   1.686   3.273  16.990  0.6191 -0.0112 -0.7906
  867MPD2    C212775   1.682   3.394  17.064  0.0647  0.6831  0.0264
  867MPD2    C312776   1.643   3.511  17.006 -0.0606 -0.2962 -0.2231
  867MPD2    C412777   1.603   3.510  16.878  0.5235  0.1597 -0.1607
  867MPD2    C512778   1.588   3.390  16.808  0.0257  0.0824 -0.7352
  867MPD2     H12779   1.716   3.389  17.167  1.9284 -1.6450 -0.7036
  867MPD2    H112780   1.578   3.603  16.829  1.9558  0.6831  0.0852
  867MPD2    H212781   1.638   3.187  16.793 -0.9637  0.6536 -0.0041
  867MPD2    H312782   1.544   3.403  16.710  0.6658 -0.9688 -1.1526
  867MPD2     N12783   1.618   3.630  17.072  0.4290 -0.4961  0.6614
  867MPD2    H512784   1.600   3.711  17.012 -0.5986  0.6775  2.5731
  867MPD2    N112785   1.737   3.152  17.037  0.0863  0.2193  0.1344
  867MPD2    H712786   1.723   3.065  16.986 -0.3083 -1.0126  2.3467
  868MPD2     C12787   3.627   2.118  12.806 -0.1431 -0.3534  0.3341
  868MPD2    C112788   3.692   2.057  12.911  0.5083  0.0475 -0.0534
  868MPD2    C212789   3.628   2.058  13.031 -0.2602  0.2774  0.5046
  868MPD2    C312790   3.501   2.117  13.045 -0.1409  0.2100  0.3185
  868MPD2    C412791   3.444   2.170  12.936  0.4535  0.2376 -0.7684
  868MPD2    C512792   3.516   2.181  12.821  0.6579  0.4697  0.0083
  868MPD2     H12793   3.679   2.012  13.114 -0.4993  1.7903  1.4763
  868MPD2    H112794   3.343   2.209  12.943  0.4660 -0.0207  0.8482
  868MPD2    H212795   3.679   2.126  12.711  0.3976 -1.6044  0.5196
  868MPD2    H312796   3.462   2.223  12.737 -1.4549 -0.2264  1.0082
  868MPD2     N12797   3.445   2.120  13.181 -0.1540  0.0508 -0.1511
  868MPD2    H512798   3.508   2.078  13.249  1.0506 -0.0145 -1.3032
  868MPD2    N112799   3.820   2.002  12.896  0.5447 -0.0613  0.4783
  868MPD2    H712800   3.862   2.025  12.806 -0.3018 -0.4679 -0.0242
  869MPD2     C12801   4.443   0.829   1.494  0.5233 -0.0290  0.4792
  869MPD2    C112802   4.511   0.918   1.420 -0.0774 -0.3482  1.1619
  869MPD2    C212803   4.646   0.940   1.461  0.3308 -0.4736 -0.4736
  869MPD2    C312804   4.703   0.861   1.557  0.3053 -0.1974  0.3991
  869MPD2    C412805   4.631   0.765   1.619  0.1786  0.3907 -0.7753
  869MPD2    C512806   4.496   0.761   1.601  0.1083 -0.4224  0.8288
  869MPD2     H12807   4.712   1.012   1.414  1.0249 -0.1132  1.0536
  869MPD2    H112808   4.670   0.704   1.700  0.2639 -0.9731 -1.8354
  869MPD2    H212809   4.340   0.808   1.466  0.2830  3.1935 -1.0638
  869MPD2    H312810   4.439   0.684   1.652 -0.2796 -0.8061 -0.1860
  869MPD2     N12811   0.109   0.885   1.572 -0.3941 -0.2069  0.2258
  869MPD2    H512812   0.136   0.973   1.530 -1.3180  0.4053  0.8978
  869MPD2    N112813   4.442   0.989   1.313  0.4430  0.0283  0.0204
  869MPD2    H712814   4.342   0.971   1.308  0.7467 -1.4403 -0.5801
  870MPD2     C12815   0.602   3.610   1.512  0.2503 -0.2761  0.0558
  870MPD2    C112816   0.472   3.581   1.530 -0.3502 -0.3286  0.9413
  870MPD2    C212817   0.384   3.692   1.559  0.5089  0.0871 -0.4376
  870MPD2    C312818   0.436   3.822   1.568 -0.1623 -0.2301  0.0182
  870MPD2    C412819   0.568   3.844   1.560  0.0899 -0.1175  0.2141
  870MPD2    C512820   0.652   3.740   1.538  0.0561 -0.8083  0.2678
  870MPD2     H12821   0.278   3.671   1.567  0.2175  1.3499 -1.0236
  870MPD2    H112822   0.616   3.941   1.570  0.8798 -0.6424  1.4924
  870MPD2    H212823   0.684   3.548   1.477  0.9639  1.3231 -1.1033
  870MPD2    H312824   0.755   3.767   1.517 -0.8299  1.4728 -1.0898
  870MPD2     N12825   0.348   3.928   1.597  0.4927  0.6457 -0.8105
  870MPD2    H512826   0.248   3.911   1.601  0.1902  2.6295  0.3018
  870MPD2    N112827   0.430   3.443   1.530 -0.0934 -0.4797  0.3149
  870MPD2    H712828   0.494   3.370   1.500  0.4221  0.0676  0.0821
  871MPD2     C12829   0.897   3.645  16.548  0.3242  0.3517  0.7614
  871MPD2    C112830   0.902   3.576  16.665 -0.0738  0.3623  0.0900
  871MPD2    C212831   0.912   3.441  16.678 -0.2939 -0.1093 -0.3465
  871MPD2    C312832   0.904   3.359  16.566  0.0787 -0.5452  0.6598
  871MPD2    C412833   0.889   3.429  16.451 -0.4869  0.2077 -0.6323
  871MPD2    C512834   0.887   3.567  16.437  0.6726  0.4771  0.9749
  871MPD2     H12835   0.910   3.390  16.774 -1.2923  0.3398 -0.1258
  871MPD2    H112836   0.877   3.375  16.357 -0.9454 -0.2613 -0.3104
  871MPD2    H212837   0.891   3.753  16.542  0.2849  0.2209 -1.5881
  871MPD2    H312838   0.885   3.605  16.335 -1.0976  0.0277  0.8300
  871MPD2     N12839   0.908   3.215  16.580 -0.6451  0.4364  0.8777
  871MPD2    H512840   0.912   3.177  16.675  1.5328  1.7886  1.3258
  871MPD2    N112841   0.877   3.653  16.788 -0.1556  0.3160 -0.2419
  871MPD2    H712842   0.877   3.754  16.788  1.3632  0.3118 -0.6640
  872MPD2     C12843   1.500   1.049  14.847  0.2320  0.1995  0.6421
  872MPD2    C112844   1.464   1.137  14.750 -0.1955  0.3383  1.0708
  872MPD2    C212845   1.329   1.167  14.737 -0.1655  0.1627  0.4244
  872MPD2    C312846   1.237   1.119  14.830 -0.2959 -0.1216  0.3360
  872MPD2    C412847   1.279   1.034  14.935 -0.2042  0.3215  0.1306
  872MPD2    C512848   1.410   1.006  14.943 -0.0577 -0.5063  0.0366
  872MPD2     H12849   1.298   1.231  14.654 -2.0396 -1.4755 -0.1338
  872MPD2    H112850   1.220   1.000  15.020 -0.2498  1.2585  0.4741
  872MPD2    H212851   1.605   1.024  14.857  0.4432  1.0457  0.5757
  872MPD2    H312852   1.452   0.942  15.020  2.0935 -0.6985 -1.2685
  872MPD2     N12853   1.093   1.151  14.830 -0.7414 -0.3489  0.3062
  872MPD2    H512854   1.031   1.120  14.903 -1.8436  0.3471 -0.3403
  872MPD2    N112855   1.558   1.174  14.651 -0.0319 -0.0156  0.1926
  872MPD2    H712856   1.523   1.226  14.571 -0.2202 -0.9740 -0.3490
  873MPD2     C12857   3.563   0.689   1.476 -0.4087  0.2186 -0.5616
  873MPD2    C112858   3.537   0.746   1.353  0.8772  0.9721  0.0599
  873MPD2    C212859   3.449   0.689   1.270 -0.2511  0.1118 -0.7249
  873MPD2    C312860   3.376   0.577   1.308 -0.3882 -0.5640 -0.0385
  873MPD2    C412861   3.417   0.504   1.424  0.4202 -0.6752  0.2597
  873MPD2    C512862   3.512   0.565   1.505  0.5783  0.0247  0.2591
  873MPD2     H12863   3.427   0.728   1.171 -1.3872 -0.6405 -0.7698
  873MPD2    H112864   3.369   0.414   1.459  0.6180 -0.2220  1.7262
  873MPD2    H212865   3.619   0.744   1.550 -1.1606 -0.4024  0.4708
  873MPD2    H312866   3.525   0.535   1.608  0.4496  0.0111  0.2717
  873MPD2     N12867   3.280   0.514   1.227 -0.1833  0.1870  0.7921
  873MPD2    H512868   3.239   0.428   1.260 -0.2184 -0.6904 -1.5334
  873MPD2    N112869   3.593   0.872   1.317 -0.4910 -0.3243  0.1617
  873MPD2    H712870   3.663   0.911   1.378 -0.1209  0.0553 -0.5056
  874MPD2     C12871   2.840   0.986  16.427  0.1600  0.5310  1.0015
  874MPD2    C112872   2.915   0.891  16.486  0.6343  0.8765 -0.9031
  874MPD2    C212873   3.051   0.907  16.462 -0.7123 -0.4938 -0.6004
  874MPD2    C312874   3.105   1.015  16.404 -0.1172  0.2810  0.5148
  874MPD2    C412875   3.027   1.108  16.345  0.1118 -0.4509  0.5439
  874MPD2    C512876   2.892   1.094  16.364 -0.3047  0.1861 -0.7951
  874MPD2     H12877   3.121   0.837  16.506 -1.8570 -2.1694 -1.4414
  874MPD2    H112878   3.072   1.201  16.313  0.1474 -1.3756 -2.1527
  874MPD2    H212879   2.732   0.988  16.431  0.0355  0.6351 -1.9963
  874MPD2    H312880   2.826   1.177  16.340  0.1921  0.2874 -1.8335
  874MPD2     N12881   3.247   1.020  16.411 -0.1222 -0.1830  0.4235
  874MPD2    H512882   3.290   0.945  16.465  0.4826 -0.1133  0.0281
  874MPD2    N112883   2.864   0.791  16.566 -0.1594  0.4311  0.7310
  874MPD2    H712884   2.764   0.776  16.557  0.1870 -0.7296 -1.1771
  875MPD2     C12885   4.625   4.239  14.603 -0.0817 -0.8113  0.1104
  875MPD2    C112886   4.505   4.234  14.677 -0.0418 -0.5595 -0.1074
  875MPD2    C212887   4.495   4.279  14.812  0.0283 -0.0828  0.4088
  875MPD2    C312888   4.613   4.326  14.872  0.0606 -0.0675  0.5764
  875MPD2    C412889   4.724   4.344  14.795 -0.0741  0.4300 -0.1089
  875MPD2    C512890   0.001   4.285  14.668  0.0372 -0.1992 -0.4281
  875MPD2     H12891   4.403   4.267  14.868  1.3361  0.4204  2.6484
  875MPD2    H112892   0.081   4.377  14.840 -0.3718 -0.2015  0.9676
  875MPD2    H212893   4.641   4.205  14.502  1.9999 -1.9054  0.8156
  875MPD2    H312894   0.083   4.302  14.600  0.7465  0.3588  0.5642
  875MPD2     N12895   4.630   4.379  14.995  0.4852 -0.5013  0.0810
  875MPD2    H512896   4.719   4.421  15.022  0.6679 -0.4294 -0.6256
  875MPD2    N112897   4.383   4.192  14.613  0.6910  0.0649  0.4592
  875MPD2    H712898   4.297   4.200  14.666  0.7820  1.0894  0.4608
  876MPD2     C12899   2.997   0.532  15.981  0.4524  1.0420  0.0902
  876MPD2    C112900   3.112   0.568  16.040 -0.1622  0.2971 -0.0361
  876MPD2    C212901   3.185   0.476  16.111  0.2588 -0.3938  0.7848
  876MPD2    C312902   3.145   0.344  16.122 -0.2371  0.0374  0.2287
  876MPD2    C412903   3.025   0.312  16.056 -0.8803  0.1507  0.2860
  876MPD2    C512904   2.949   0.405  15.993 -0.2691  1.4373 -0.7086
  876MPD2     H12905   3.267   0.507  16.175 -0.3689  0.7666  1.0464
  876MPD2    H112906   2.985   0.211  16.051 -1.5369  0.4048  0.4185
  876MPD2    H212907   2.931   0.606  15.938 -1.1601  0.7082  1.9764
  876MPD2    H312908   2.850   0.373  15.962  0.3225 -0.6156 -0.4761
  876MPD2     N12909   3.215   0.259  16.200  0.0942 -0.0466 -0.9575
  876MPD2    H512910   3.312   0.277  16.223  0.0907 -0.8324 -0.3192
  876MPD2    N112911   3.131   0.708  16.033 -0.1139 -0.3105  0.2202
  876MPD2    H712912   3.071   0.758  15.968 -1.3228 -0.6633  1.0607
  877MPD2     C12913   2.765   1.189  15.712  0.2485 -0.7352 -0.2354
  877MPD2    C112914   2.892   1.239  15.719  0.1454 -0.2002 -0.3342
  877MPD2    C212915   2.938   1.323  15.618 -0.3902  0.9688  0.5370
  877MPD2    C312916   2.859   1.346  15.503  0.3879 -0.2073  0.6643
  877MPD2    C412917   2.735   1.292  15.492 -0.2381 -0.5050 -0.5416
  877MPD2    C512918   2.689   1.222  15.602  0.2920 -0.4621  0.3086
  877MPD2     H12919   3.034   1.371  15.632 -0.7571  1.5473  1.1039
  877MPD2    H112920   2.673   1.318  15.407  0.0583 -0.3235 -0.7038
  877MPD2    H212921   2.721   1.130  15.792  0.4309 -2.1421 -1.1699
  877MPD2    H312922   2.582   1.201  15.604 -0.0382  1.3726  1.3006
  877MPD2     N12923   2.900   1.413  15.384 -0.4024  0.3304 -0.1159
  877MPD2    H512924   2.832   1.407  15.309 -0.4229  0.1580 -0.0849
  877MPD2    N112925   2.982   1.210  15.823  0.2894  0.1922 -0.6011
  877MPD2    H712926   3.059   1.275  15.822  0.8435 -0.4275  1.8946
  878MPD2     C12927   2.994   0.093  13.693 -0.4139  0.6444 -0.1511
  878MPD2    C112928   2.907   0.190  13.729 -0.4132 -0.1051 -0.2843
  878MPD2    C212929   2.856   0.193  13.862  0.0521 -0.5768  0.9893
  878MPD2    C312930   2.892   0.093  13.949  0.1136 -0.0913  0.3333
  878MPD2    C412931   2.974   4.725  13.905  0.2456  0.2727  0.6203
  878MPD2    C512932   3.021   4.727  13.775  0.2559  0.0715  0.2043
  878MPD2     H12933   2.782   0.268  13.887 -0.4674 -0.6150 -0.4190
  878MPD2    H112934   2.984   4.633  13.961  0.5984  0.5985  1.0985
  878MPD2    H212935   3.036   0.087  13.593 -0.0046 -1.1733  0.1428
  878MPD2    H312936   3.080   4.642  13.739 -0.4061 -0.0499 -0.6022
  878MPD2     N12937   2.840   0.104  14.075 -1.0131  0.3118 -0.1844
  878MPD2    H512938   2.775   0.181  14.081 -2.5898 -0.8627 -2.2530
  878MPD2    N112939   2.869   0.275  13.629  0.4978 -0.7993 -0.3130
  878MPD2    H712940   2.897   0.247  13.535  0.0855 -1.5194 -0.2147
  879MPD2     C12941   3.250   1.147  17.677 -0.1707  0.4356 -0.0362
  879MPD2    C112942   3.313   1.198  17.568  0.6357 -0.3888 -0.2029
  879MPD2    C212943   3.263   1.166  17.441  0.0733  0.0833  0.6098
  879MPD2    C312944   3.151   1.077  17.430  0.0823  0.3923  0.7173
  879MPD2    C412945   3.097   1.014  17.540  0.4281  0.3064  0.7992
  879MPD2    C512946   3.150   1.041  17.659 -0.1441 -0.2759  0.5593
  879MPD2     H12947   3.311   1.203  17.351 -1.9024 -1.0666 -0.9086
  879MPD2    H112948   3.021   0.937  17.529 -1.0318  1.8402  0.3091
  879MPD2    H212949   3.293   1.154   0.034 -0.3209  1.2994 -0.0375
  879MPD2    H312950   3.129   0.973  17.740  0.2152 -0.3957  0.5548
  879MPD2     N12951   3.087   1.047  17.306  0.1883 -0.1795 -0.4750
  879MPD2    H512952   3.008   0.982  17.306  0.6740 -0.7637 -2.8110
  879MPD2    N112953   3.420   1.289  17.596  0.5069  0.0312 -0.5307
  879MPD2    H712954   3.456   1.299  17.691 -0.1850 -0.7438 -0.1894
  880MPD2     C12955   4.316   3.375   0.471 -0.3225  0.3965  0.7369
  880MPD2    C112956   4.379   3.439   0.575  0.0846  0.1760  0.0659
  880MPD2    C212957   4.452   3.359   0.662  0.4512 -0.0413  0.7121
  880MPD2    C312958   4.476   3.230   0.641  0.2451  0.0697  0.2318
  880MPD2    C412959   4.423   3.167   0.530 -0.2175  0.3793 -0.1508
  880MPD2    C512960   4.336   3.242   0.456 -0.3259 -0.9823 -0.5020
  880MPD2     H12961   4.503   3.401   0.748 -2.5749  0.2654  2.3376
  880MPD2    H112962   4.440   3.065   0.497 -1.9322  0.0832 -0.1419
  880MPD2    H212963   4.260   3.430   0.396 -1.2933 -2.0924 -0.3848
  880MPD2    H312964   4.288   3.197   0.370  1.6334 -3.4574 -0.2968
  880MPD2     N12965   4.554   3.170   0.739 -0.2873 -0.1663 -0.4993
  880MPD2    H512966   4.581   3.228   0.817 -1.3058 -1.4394  0.8121
  880MPD2    N112967   4.372   3.580   0.585 -0.0632  0.1386 -0.1193
  880MPD2    H712968   4.302   3.624   0.526  0.1313 -0.1247 -0.5409
  881MPD2     C12969   4.337   4.465   0.124  1.4120  0.2085 -0.4189
  881MPD2    C112970   4.390   4.343   0.103 -0.7501  0.3190 -0.1090
  881MPD2    C212971   4.401   4.260   0.211 -0.7941 -0.0286 -0.3487
  881MPD2    C312972   4.327   4.277   0.322 -0.2783 -0.5752 -0.3403
  881MPD2    C412973   4.261   4.398   0.336 -0.1153 -0.1072  0.1443
  881MPD2    C512974   4.265   4.494   0.236  0.0038  0.1359  0.9753
  881MPD2     H12975   4.461   4.170   0.205  0.1095  0.5242  0.5555
  881MPD2    H112976   4.228   4.428   0.435  0.3629  0.3331  0.1731
  881MPD2    H212977   4.339   4.541   0.046 -1.3444 -0.4928 -1.1995
  881MPD2    H312978   4.222   4.593   0.252 -1.4500 -0.2034 -0.8770
  881MPD2     N12979   4.336   4.193   0.439  0.2005 -0.3174 -0.2568
  881MPD2    H512980   4.305   4.228   0.529  1.0966 -1.0872  0.3501
  881MPD2    N112981   4.476   4.339  17.732 -0.0309 -0.0051  0.2559
  881MPD2    H712982   4.478   4.416  17.666  1.1962 -2.3898 -2.4999
  882MPD2     C12983   2.969   1.274  14.622 -0.1980  0.1384 -0.1249
  882MPD2    C112984   2.896   1.341  14.720  0.5936 -0.6376  0.4520
  882MPD2    C212985   2.763   1.327  14.718  0.5680  0.1068  0.8357
  882MPD2    C312986   2.700   1.244  14.621  0.9058 -0.2287  0.2821
  882MPD2    C412987   2.769   1.160  14.534  0.1791 -0.0972 -0.1579
  882MPD2    C512988   2.907   1.196  14.527  0.1206 -0.8767 -0.1291
  882MPD2     H12989   2.705   1.378  14.793 -0.5921 -1.4605  1.0132
  882MPD2    H112990   2.736   1.098  14.452  0.6675 -0.6236  0.0441
  882MPD2    H212991   3.077   1.277  14.613 -0.2347 -0.7003 -0.8926
  882MPD2    H312992   2.967   1.154  14.446 -0.1655 -0.1328 -0.7283
  882MPD2     N12993   2.554   1.223  14.614 -0.3225  0.1508 -0.8156
  882MPD2    H512994   2.522   1.149  14.552  1.8586  0.3901 -2.2214
  882MPD2    N112995   2.976   1.405  14.818  0.4565  0.6367  0.8023
  882MPD2    H712996   3.077   1.397  14.808  0.2420 -0.2641 -0.7081
  883MPD2     C12997   0.118   1.654  16.791  0.1756 -0.2013  0.1667
  883MPD2    C112998   0.205   1.583  16.710  0.6619  0.3623  0.1029
  883MPD2    C212999   0.339   1.593  16.733 -0.6473 -0.4264  0.0311
  883MPD2    C313000   0.384   1.680  16.830 -0.1485  0.1512 -0.4539
  883MPD2    C413001   0.296   1.739  16.911 -0.1256  0.1116  0.4827
  883MPD2    C513002   0.161   1.736  16.891 -1.1412 -0.1705 -0.3753
  883MPD2     H13003   0.406   1.535  16.671 -1.2149 -0.2643 -0.7383
  883MPD2    H113004   0.319   1.809  16.991  0.4521  2.6923 -1.9375
  883MPD2    H213005   0.014   1.660  16.761 -0.1165 -3.4851  0.4789
  883MPD2    H313006   0.091   1.794  16.949 -0.9709 -0.7220  0.3904
  883MPD2     N13007   0.525   1.694  16.834 -0.0942  0.4337 -0.2236
  883MPD2    H513008   0.575   1.661  16.753  0.4503  0.1013  0.2536
  883MPD2    N113009   0.165   1.507  16.593 -0.2036  0.5107 -0.0529
  883MPD2    H713010   0.233   1.455  16.538  0.2380  1.3469 -0.2901
  884MPD2     C13011   2.249   1.842  15.294  0.6097 -0.1640  0.7063
  884MPD2    C113012   2.256   1.972  15.334  0.2965  0.1456  0.2602
  884MPD2    C213013   2.143   2.024  15.391  0.3132  0.8292  0.2984
  884MPD2    C313014   2.032   1.949  15.409 -0.0022  0.0638 -0.3150
  884MPD2    C413015   2.023   1.819  15.365 -0.7048  0.1427  0.2975
  884MPD2    C513016   2.133   1.770  15.306 -0.3071 -0.1899 -0.5706
  884MPD2     H13017   2.140   2.129  15.416  0.2602  1.0347 -0.5917
  884MPD2    H113018   1.941   1.750  15.355  0.1288 -0.6159 -1.2814
  884MPD2    H213019   2.322   1.796  15.229 -0.2808 -1.1973  0.4365
  884MPD2    H313020   2.128   1.669  15.266  2.0857  0.0694 -1.5403
  884MPD2     N13021   1.926   2.011  15.478  0.6416  0.3962  0.2077
  884MPD2    H513022   1.935   2.112  15.492  0.9719  0.4123 -0.1040
  884MPD2    N113023   2.368   2.055  15.315 -0.2484  0.1225 -0.2254
  884MPD2    H713024   2.366   2.153  15.343  1.2711  0.8234 -2.5181
  885MPD2     C13025   0.285   2.524   0.535 -0.6009 -0.4780 -0.0782
  885MPD2    C113026   0.337   2.396   0.539  0.7234  0.4174 -0.5623
  885MPD2    C213027   0.366   2.331   0.421 -0.0215  0.4570 -0.2460
  885MPD2    C313028   0.339   2.387   0.301 -0.4461  0.0286  0.3854
  885MPD2    C413029   0.291   2.518   0.302 -0.1494 -0.0722 -0.1596
  885MPD2    C513030   0.267   2.585   0.418 -0.5875 -0.0391  0.0902
  885MPD2     H13031   0.412   2.233   0.417  1.9862  1.3909  0.2961
  885MPD2    H113032   0.280   2.577   0.212  1.4377  1.8404  0.9035
  885MPD2    H213033   0.260   2.576   0.627 -1.4507 -1.3302  0.1629
  885MPD2    H313034   0.234   2.688   0.425  0.7596  0.2785  1.9660
  885MPD2     N13035   0.358   2.313   0.176  0.1754  0.5035 -0.0863
  885MPD2    H513036   0.412   2.227   0.178  0.0821  0.4550  0.3675
  885MPD2    N113037   0.378   2.344   0.667  0.4088  0.2235  0.2645
  885MPD2    H713038   0.344   2.397   0.747 -0.8257  0.4144 -0.3706
  886MPD2     C13039   2.057   0.412  15.349  0.1350  0.0515 -0.6556
  886MPD2    C113040   2.015   0.476  15.462 -0.1065 -0.6415 -0.5408
  886MPD2    C213041   1.912   0.571  15.441 -0.6635  0.3657 -0.0850
  886MPD2    C313042   1.858   0.603  15.314  0.2874  0.1570  0.1867
  886MPD2    C413043   1.918   0.542  15.204  0.1827 -0.0886  0.3769
  886MPD2    C513044   2.010   0.442  15.222  0.7779 -0.0155 -0.0624
  886MPD2     H13045   1.875   0.625  15.527  1.9362 -0.1596  1.3517
  886MPD2    H113046   1.889   0.566  15.102  2.1000  0.8961  0.0650
  886MPD2    H213047   2.130   0.332  15.354 -1.7083 -1.5890  0.1225
  886MPD2    H313048   2.052   0.390  15.137 -2.5272  1.1446 -2.4040
  886MPD2     N13049   1.765   0.697  15.296 -0.4780 -0.0048 -0.2136
  886MPD2    H513050   1.757   0.741  15.205 -0.9921 -0.1967 -0.2630
  886MPD2    N113051   2.055   0.435  15.590 -0.3211  0.5287  0.3064
  886MPD2    H713052   2.009   0.487  15.664 -1.4492  0.9774 -0.7034
  887MPD2     C13053   2.276   0.771  16.252 -0.0406  0.2668  0.3229
  887MPD2    C113054   2.311   0.756  16.120  0.0482  0.0628 -0.1139
  887MPD2    C213055   2.378   0.859  16.048  0.1262  0.6219  0.0317
  887MPD2    C313056   2.435   0.964  16.123  0.6851 -0.2758  0.1290
  887MPD2    C413057   2.427   0.958  16.260  0.4864 -0.8092  0.3272
  887MPD2    C513058   2.332   0.874  16.323 -0.3223  0.8604  0.0738
  887MPD2     H13059   2.384   0.855  15.940 -2.1104 -2.5631  0.0058
  887MPD2    H113060   2.479   1.023  16.330  0.1816  1.6207 -1.6815
  887MPD2    H213061   2.210   0.701  16.303 -1.0784  1.9908  1.3692
  887MPD2    H313062   2.310   0.861  16.428  1.6440  1.9754  0.6163
  887MPD2     N13063   2.497   1.071  16.056  0.0841  0.0877  0.4990
  887MPD2    H513064   2.489   1.078  15.955  1.2553  0.8055  0.4654
  887MPD2    N113065   2.267   0.645  16.035  0.6750 -0.0535 -0.0740
  887MPD2    H713066   2.299   0.646  15.939 -3.7283  1.9848 -1.4853
  888MPD2     C13067   3.693   0.559  15.207  0.1753 -0.5898 -0.9228
  888MPD2    C113068   3.711   0.616  15.324 -0.8576  0.8487 -0.1464
  888MPD2    C213069   3.770   0.743  15.328 -0.1406  0.8788 -0.1447
  888MPD2    C313070   3.798   0.814  15.211 -0.8421  0.7051 -0.6017
  888MPD2    C413071   3.771   0.754  15.092 -0.1857 -0.2827 -0.1416
  888MPD2    C513072   3.707   0.631  15.088  0.2117 -0.1637  0.3996
  888MPD2     H13073   3.792   0.783  15.426  2.3036 -1.7871  0.3832
  888MPD2    H113074   3.770   0.810  14.999 -1.2204  2.8936  1.8166
  888MPD2    H213075   3.630   0.472  15.188 -0.8560  0.1242 -0.7961
  888MPD2    H313076   3.682   0.583  14.993  0.8034  1.5056 -0.5923
  888MPD2     N13077   3.840   0.945  15.227 -0.1221  0.6628 -0.3150
  888MPD2    H513078   3.831   0.989  15.318 -1.3909 -0.8437  0.2932
  888MPD2    N113079   3.693   0.554  15.449 -0.2532  0.1730 -0.2076
  888MPD2    H713080   3.728   0.610  15.527  1.3356  0.7086 -1.2920
  889MPD2     C13081   3.616   4.551  14.072  0.2946 -0.4047  0.3403
  889MPD2    C113082   3.723   4.544  13.980 -0.5707 -0.8692 -0.0403
  889MPD2    C213083   3.805   4.656  13.982 -0.0961  0.3415 -0.0512
  889MPD2    C313084   3.792   0.023  14.076  0.2648  0.3715  0.4934
  889MPD2    C413085   3.690   0.024  14.165  0.1112  1.2276 -0.0651
  889MPD2    C513086   3.607   4.654  14.159 -0.1868 -0.8300 -0.2563
  889MPD2     H13087   3.889   4.677  13.918  0.0430 -1.2393 -0.3981
  889MPD2    H113088   3.667   0.107  14.230 -0.9389  0.4335  0.5841
  889MPD2    H213089   3.525   4.491  14.071 -1.6341  2.5600 -0.5149
  889MPD2    H313090   3.523   4.650  14.227 -1.5433  4.9408 -1.5957
  889MPD2     N13091   3.883   0.124  14.070 -0.1501 -0.4033 -0.2529
  889MPD2    H513092   3.950   0.117  13.995 -1.4959  0.7871 -1.5526
  889MPD2    N113093   3.712   4.467  13.862 -0.2159 -0.1656 -0.3748
  889MPD2    H713094   3.770   4.491  13.783  0.9313 -0.4334  0.3859
  890MPD2     C13095   3.129   1.973  14.655 -0.3945 -0.4433  0.1729
  890MPD2    C113096   3.261   1.946  14.642  0.6827  0.0196 -0.3633
  890MPD2    C213097   3.337   1.886  14.744 -0.0932 -0.1083 -0.5529
  890MPD2    C313098   3.274   1.848  14.863 -0.1207 -0.1113  0.1584
  890MPD2    C413099   3.141   1.885  14.871 -0.4284 -0.1750 -0.0645
  890MPD2    C513100   3.070   1.939  14.768  0.3906 -0.3320  0.1366
  890MPD2     H13101   3.442   1.861  14.732  0.5748  1.2286  2.2806
  890MPD2    H113102   3.080   1.864  14.959  0.6224 -1.5640  0.3287
  890MPD2    H213103   3.072   2.036  14.588 -0.9097 -0.5964  0.4612
  890MPD2    H313104   2.969   1.961  14.801  0.1759  2.7046 -2.6279
  890MPD2     N13105   3.351   1.796  14.971  0.2560 -0.0801 -0.3136
  890MPD2    H513106   3.440   1.763  14.938  0.1055 -1.6396  0.8515
  890MPD2    N113107   3.313   1.974  14.513  0.1807 -0.2657 -0.5386
  890MPD2    H713108   3.251   2.007  14.440  1.1147 -1.3115 -1.8186
  891MPD2     C13109   1.514   0.950  17.125 -0.3962  0.2331 -0.0826
  891MPD2    C113110   1.387   0.907  17.162 -0.0441  0.0122 -0.6100
  891MPD2    C213111   1.370   0.789  17.232 -0.6787  0.5089  0.1392
  891MPD2    C313112   1.486   0.713  17.256  0.2364  0.4872 -1.0556
  891MPD2    C413113   1.613   0.756  17.212  0.1362  0.4357  0.0169
  891MPD2    C513114   1.621   0.872  17.143 -0.0051  0.0240  0.0024
  891MPD2     H13115   1.279   0.760  17.283 -0.8766  0.9290  0.0269
  891MPD2    H113116   1.705   0.703  17.236 -1.0436 -1.3501  0.5488
  891MPD2    H213117   1.522   1.041  17.068 -2.1529  2.2481  2.9022
  891MPD2    H313118   1.717   0.911  17.112  0.3013 -2.4413 -2.1118
  891MPD2     N13119   1.465   0.595  17.326 -0.2427 -0.3705 -0.2613
  891MPD2    H513120   1.370   0.569  17.351 -0.0258 -0.0155  0.9558
  891MPD2    N113121   1.281   0.981  17.109 -0.2679 -0.1731 -0.3374
  891MPD2    H713122   1.307   1.057  17.047  3.8705 -1.2142  0.1287
  892MPD2     C13123   2.047   1.423  15.401  0.4417  1.0747  0.4551
  892MPD2    C113124   1.942   1.435  15.309 -0.1949  0.6323  0.3285
  892MPD2    C213125   1.975   1.432  15.169 -0.0696  0.0176  0.3259
  892MPD2    C313126   2.108   1.409  15.134 -0.0529 -0.3688 -0.0383
  892MPD2    C413127   2.207   1.396  15.231 -0.1721  0.0313  0.2278
  892MPD2    C513128   2.177   1.405  15.362  0.2785 -0.5175 -0.0779
  892MPD2     H13129   1.899   1.446  15.093  0.8883 -1.4861 -0.9172
  892MPD2    H113130   2.311   1.372  15.210  0.4742  1.8840  1.3150
  892MPD2    H213131   2.028   1.446  15.505 -2.1627 -0.1916  0.2653
  892MPD2    H313132   2.257   1.390  15.434 -0.4747  2.3680  1.3531
  892MPD2     N13133   2.144   1.389  15.004 -0.4275  0.6473 -0.4148
  892MPD2    H513134   2.243   1.374  14.985 -0.4165  0.4017 -0.1650
  892MPD2    N113135   1.814   1.469  15.356  0.7700  0.5106 -0.6231
  892MPD2    H713136   1.752   1.515  15.291 -1.5693 -0.5350  0.8647
  893MPD2     C13137   3.239   0.046   1.480  0.3350  0.7699 -0.2643
  893MPD2    C113138   3.279   0.082   1.352  0.6916  0.7845 -0.3484
  893MPD2    C213139   3.190   0.081   1.248 -0.1594 -0.3062 -0.0458
  893MPD2    C313140   3.058   0.045   1.274 -0.0561 -0.4723 -0.8271
  893MPD2    C413141   3.021   0.010   1.401 -0.2139 -0.5602  0.3962
  893MPD2    C513142   3.113   0.007   1.502  0.5378  0.0066  0.3636
  893MPD2     H13143   3.227   0.105   1.148  0.0098 -1.1353 -0.1847
  893MPD2    H113144   2.920   4.713   1.423 -0.3192 -0.9417 -0.6389
  893MPD2    H213145   3.309   0.029   1.561 -0.1812 -1.1737 -0.2343
  893MPD2    H313146   3.074   4.696   1.592  1.3191 -1.9647 -0.3124
  893MPD2     N13147   2.959   0.035   1.176  0.2155 -0.5917  0.1571
  893MPD2    H513148   2.869   0.006   1.213 -0.7037  2.8049  0.6041
  893MPD2    N113149   3.413   0.128   1.344 -0.3328  0.4479  0.4421
  893MPD2    H713150   3.478   0.117   1.421 -0.3890  1.5562  0.6522
  894MPD2     C13151   1.833   2.068   1.252 -0.0551 -0.0290  0.1219
  894MPD2    C113152   1.853   2.132   1.370 -0.2274  0.2167  1.0267
  894MPD2    C213153   1.889   2.268   1.374  0.5314 -0.0111  0.2101
  894MPD2    C313154   1.908   2.335   1.259  0.6525 -0.1249 -0.2285
  894MPD2    C413155   1.902   2.274   1.141  0.1361 -0.1004 -0.0507
  894MPD2    C513156   1.868   2.142   1.140  0.1212 -0.6323  0.1982
  894MPD2     H13157   1.905   2.325   1.464  0.4557  1.3709 -0.6463
  894MPD2    H113158   1.923   2.329   1.049  0.8969  1.2021  0.8896
  894MPD2    H213159   1.800   1.966   1.238  2.2272 -1.1289  2.7391
  894MPD2    H313160   1.865   2.081   1.050  2.1582 -1.0642  0.4278
  894MPD2     N13161   1.946   2.470   1.273  0.1582  0.1560  0.0286
  894MPD2    H513162   1.953   2.504   1.368 -1.7120  2.0299 -0.5172
  894MPD2    N113163   1.830   2.078   1.496  0.0534  0.0182  0.2659
  894MPD2    H713164   1.842   2.138   1.577 -1.1306 -0.4868  0.8139
  895MPD2     C13165   1.183   0.441  14.015  0.0102  0.6615 -0.3603
  895MPD2    C113166   1.098   0.512  13.921  0.2653 -0.3767 -0.5902
  895MPD2    C213167   1.067   0.451  13.802 -0.8615 -0.4234 -0.2746
  895MPD2    C313168   1.113   0.330  13.764  0.6244  0.1047 -0.0391
  895MPD2    C413169   1.195   0.261  13.850 -0.0126 -0.0020  0.5461
  895MPD2    C513170   1.227   0.318  13.975 -0.2770 -0.4508  0.1322
  895MPD2     H13171   1.010   0.506  13.729  0.6728 -0.7974 -1.7471
  895MPD2    H113172   1.253   0.173  13.826  1.4191  0.9013  0.6509
  895MPD2    H213173   1.202   0.480  14.115 -0.2314  0.4865 -0.2455
  895MPD2    H313174   1.289   0.259  14.042  1.3281  0.6210 -0.4177
  895MPD2     N13175   1.099   0.284  13.632 -0.0797 -0.2181 -0.3850
  895MPD2    H513176   1.036   0.340  13.576 -0.2051  1.2268  1.2143
  895MPD2    N113177   1.043   0.637  13.947  0.2896  0.3164 -0.3627
  895MPD2    H713178   0.974   0.673  13.882  0.3578  1.4107  0.1694
  896MPD2     C13179   3.630   2.931   1.807  0.6440  0.0015  0.2746
  896MPD2    C113180   3.592   2.992   1.691  0.0442  0.0299  0.1619
  896MPD2    C213181   3.459   3.004   1.659  0.0809  0.8887 -0.0208
  896MPD2    C313182   3.366   2.965   1.748  0.3384 -1.0057 -0.6918
  896MPD2    C413183   3.402   2.897   1.864 -0.1691 -0.1720 -0.4776
  896MPD2    C513184   3.533   2.874   1.890 -0.5913  0.2951  0.3572
  896MPD2     H13185   3.433   3.049   1.564 -3.3092  0.6827  0.8308
  896MPD2    H113186   3.327   2.842   1.920  1.6448 -0.7159  1.4082
  896MPD2    H213187   3.737   2.931   1.824  0.7238  0.0628 -0.2221
  896MPD2    H313188   3.558   2.809   1.973 -0.3705 -0.6320 -0.4313
  896MPD2     N13189   3.233   2.962   1.695  0.5515 -0.2436 -0.6814
  896MPD2    H513190   3.222   3.009   1.606  0.2662 -0.5588 -0.8140
  896MPD2    N113191   3.702   3.030   1.611  0.2031  0.1398  0.0812
  896MPD2    H713192   3.795   3.000   1.640  0.4487 -1.0042 -1.9539
  897MPD2     C13193   0.108   0.277  10.589  0.6782 -0.0427 -0.9581
  897MPD2    C113194   4.725   0.306  10.527 -0.5147  0.2957  0.4978
  897MPD2    C213195   4.605   0.279  10.582  0.3965 -0.1702 -0.3601
  897MPD2    C313196   4.593   0.231  10.715  0.1008  0.1087  0.4608
  897MPD2    C413197   4.713   0.192  10.778 -0.5891  0.6661  0.3567
  897MPD2    C513198   0.100   0.208  10.710 -0.6848  0.0901 -0.3333
  897MPD2     H13199   4.517   0.317  10.533  1.6223  1.7486 -1.0637
  897MPD2    H113200   4.718   0.154  10.879  4.3839  1.2608  0.3585
  897MPD2    H213201   0.207   0.304  10.553  0.1114  1.3402 -1.4698
  897MPD2    H313202   0.191   0.185  10.765 -1.3565  0.0790  0.7759
  897MPD2     N13203   4.467   0.238  10.776 -0.0690 -1.0808 -0.1500
  897MPD2    H513204   4.392   0.267  10.714  0.7298  0.5051 -0.3871
  897MPD2    N113205   4.734   0.386  10.410  0.0202  0.6967  0.2261
  897MPD2    H713206   0.074   0.453  10.401 -0.8844  1.6099 -0.5907
  898MPD2     C13207   1.775   0.652  17.681 -0.6335 -0.2863 -0.3237
  898MPD2    C113208   1.817   0.674   0.070  0.0251 -0.5780  0.1160
  898MPD2    C213209   1.794   0.796   0.129  0.2258 -0.7208  0.2933
  898MPD2    C313210   1.736   0.902   0.058  0.8515  0.0435 -0.2695
  898MPD2    C413211   1.697   0.875  17.668  0.0647 -0.6956 -0.0528
  898MPD2    C513212   1.708   0.749  17.613 -0.3489 -1.0756  0.5032
  898MPD2     H13213   1.835   0.813   0.228  0.8837 -2.1539  0.2671
  898MPD2    H113214   1.645   0.944  17.603  0.3776 -1.3503 -0.9884
  898MPD2    H213215   1.786   0.562  17.622  2.1605 -0.1059 -0.0735
  898MPD2    H313216   1.672   0.738  17.511 -0.0921 -0.1747  0.3161
  898MPD2     N13217   1.728   1.028   0.128  0.2027  0.1599  0.1791
  898MPD2    H513218   1.770   1.032   0.220 -0.1651 -1.4119  0.4199
  898MPD2    N113219   1.857   0.567   0.155  0.3515  0.0383  0.8001
  898MPD2    H713220   1.886   0.586   0.250  2.2502  2.3685 -0.2307
  899MPD2     C13221   2.463   1.411  17.408  0.4287  0.2834  0.3231
  899MPD2    C113222   2.525   1.484  17.501 -0.0472  0.2867  0.3441
  899MPD2    C213223   2.523   1.432  17.630 -0.2847  0.0857  0.2399
  899MPD2    C313224   2.454   1.319  17.670  0.8602 -0.6158 -0.0782
  899MPD2    C413225   2.397   1.247  17.570 -1.4177 -0.1853 -1.1391
  899MPD2    C513226   2.399   1.294  17.443 -0.6430 -0.0514 -0.4491
  899MPD2     H13227   2.577   1.483  17.708 -1.9724  0.7320  0.9827
  899MPD2    H113228   2.346   1.158  17.604  1.3267 -1.2131  0.2809
  899MPD2    H213229   2.469   1.444  17.305 -2.6781 -1.4172 -0.3870
  899MPD2    H313230   2.338   1.238  17.372  0.5945 -0.4738 -1.1831
  899MPD2     N13231   2.434   1.274   0.061  0.4656  0.0929 -0.1886
  899MPD2    H513232   2.407   1.177   0.073  0.5960  0.2227  1.1540
  899MPD2    N113233   2.582   1.615  17.466  0.1481 -0.2917  0.3716
  899MPD2    H713234   2.567   1.648  17.371  0.0632  1.0201  0.8473
  900MPD2     C13235   2.280   2.700  12.483  0.1936 -0.9910 -0.2906
  900MPD2    C113236   2.182   2.694  12.575  0.3054 -0.3954  0.0550
  900MPD2    C213237   2.046   2.699  12.542  0.3225 -0.5509 -0.1115
  900MPD2    C313238   2.012   2.723  12.409 -0.0897 -0.1006 -0.2148
  900MPD2    C413239   2.115   2.726  12.316 -0.9367 -0.4273 -0.1174
  900MPD2    C513240   2.246   2.718  12.351 -0.1021 -0.5059  0.4123
  900MPD2     H13241   1.965   2.678  12.610  0.2327 -1.0642 -0.3750
  900MPD2    H113242   2.092   2.736  12.210  0.2047  1.3157 -0.1898
  900MPD2    H213243   2.383   2.704  12.516 -0.1790  0.0602  0.7533
  900MPD2    H313244   2.326   2.739  12.281 -1.2321  0.9120 -0.4322
  900MPD2     N13245   1.884   2.745  12.361 -0.8487 -0.6876 -0.7477
  900MPD2    H513246   1.874   2.771  12.263 -1.7693  0.2214 -0.4084
  900MPD2    N113247   2.214   2.683  12.714  0.3910 -0.4101  0.5051
  900MPD2    H713248   2.312   2.664  12.731  1.0953  0.6262 -2.4636
  901MPD2     C13249   2.039   2.001  13.342 -0.2279 -0.2955 -0.4512
  901MPD2    C113250   2.171   2.004  13.288  0.3517  0.5442  0.3000
  901MPD2    C213251   2.230   2.126  13.269 -0.1950 -0.7038  0.6925
  901MPD2    C313252   2.159   2.241  13.283  0.5259  0.7230  0.1506
  901MPD2    C413253   2.038   2.237  13.346  0.2193  0.4537 -0.1780
  901MPD2    C513254   1.977   2.115  13.367 -0.4913  0.1839 -0.7092
  901MPD2     H13255   2.331   2.129  13.231 -1.6181 -1.2854 -3.1457
  901MPD2    H113256   1.978   2.325  13.369  1.3970  1.1846  0.1348
  901MPD2    H213257   1.989   1.911  13.377 -0.8849 -0.7648 -2.5496
  901MPD2    H313258   1.873   2.114  13.399 -0.2873 -0.9068 -0.1134
  901MPD2     N13259   2.224   2.356  13.234  0.2880 -0.2538  0.0839
  901MPD2    H513260   2.316   2.340  13.194 -0.1229  0.7280 -1.2311
  901MPD2    N113261   2.233   1.879  13.282  0.0488  0.3349  0.1726
  901MPD2    H713262   2.174   1.796  13.282  0.2356  0.2077  1.3657
  902MPD2     C13263   1.794   0.982  13.094 -1.1646  0.3801 -0.5673
  902MPD2    C113264   1.721   1.033  12.986  0.0657  0.8712  0.1726
  902MPD2    C213265   1.738   0.970  12.862 -0.2920  0.0550  0.3145
  902MPD2    C313266   1.826   0.865  12.847  0.3018  0.2891 -0.4719
  902MPD2    C413267   1.902   0.827  12.958  0.2206  0.0596  0.5131
  902MPD2    C513268   1.887   0.882  13.078  0.2778 -1.0535 -0.7420
  902MPD2     H13269   1.673   0.996  12.779  2.4685  0.7829 -1.6219
  902MPD2    H113270   1.977   0.750  12.952  2.5029  2.1785  1.9246
  902MPD2    H213271   1.794   1.027  13.192 -2.5202 -2.2310  0.6199
  902MPD2    H313272   1.943   0.839  13.160  0.4201  0.1126 -0.2283
  902MPD2     N13273   1.822   0.795  12.724 -0.1033 -0.8173  0.1743
  902MPD2    H513274   1.760   0.831  12.652  0.3084  1.0136  0.7227
  902MPD2    N113275   1.631   1.140  13.013 -0.0086 -0.3957  0.2039
  902MPD2    H713276   1.628   1.169  13.111 -0.4957 -1.2619  0.4462
  903MPD2     C13277   1.538   0.535  11.976  0.2987  0.0294  0.5583
  903MPD2    C113278   1.506   0.525  12.106  0.0981  0.7972 -0.1353
  903MPD2    C213279   1.377   0.555  12.141  0.5628 -0.3494 -0.7032
  903MPD2    C313280   1.283   0.592  12.044 -0.2339  0.0192  0.0847
  903MPD2    C413281   1.316   0.588  11.913  0.0898  0.0149  0.1492
  903MPD2    C513282   1.445   0.574  11.880  0.9484 -0.0934  0.8425
  903MPD2     H13283   1.344   0.546  12.244  1.3314 -0.3037 -0.4519
  903MPD2    H113284   1.250   0.603  11.828  1.3700 -0.5502 -0.9612
  903MPD2    H213285   1.641   0.521  11.945 -0.3749 -1.9138 -0.8026
  903MPD2    H313286   1.472   0.594  11.777 -0.7699  0.1526  0.4451
  903MPD2     N13287   1.162   0.648  12.085 -0.1965 -0.4191  0.4993
  903MPD2    H513288   1.135   0.625  12.180 -0.4673  0.8204  0.7195
  903MPD2    N113289   1.612   0.507  12.196  0.4578 -0.2579 -0.0334
  903MPD2    H713290   1.698   0.472  12.155  2.0173  1.3144  1.8851
  904MPD2     C13291   1.254   4.638  14.199  0.6035  0.4308 -0.2757
  904MPD2    C113292   1.232   0.010  14.273  0.1808  0.8242  0.7757
  904MPD2    C213293   1.332   0.055  14.355  0.6210 -0.0960  0.1050
  904MPD2    C313294   1.448   4.716  14.366 -0.2226 -0.3645  0.1502
  904MPD2    C413295   1.470   4.600  14.290 -0.0471 -0.5458  0.0531
  904MPD2    C513296   1.369   4.562  14.214  0.0521 -0.1883 -0.2932
  904MPD2     H13297   1.331   0.153  14.402 -2.2360  0.3900 -0.9831
  904MPD2    H113298   1.559   4.539  14.301  0.7727  0.3264 -1.7820
  904MPD2    H213299   1.190   4.608  14.117  2.9589 -1.5576 -1.3760
  904MPD2    H313300   1.386   4.479  14.146 -0.7015 -0.3619 -0.2648
  904MPD2     N13301   1.553   0.025  14.444 -0.1496  0.2974  0.1335
  904MPD2    H513302   1.637   4.704  14.442 -0.0287  0.4153  2.5108
  904MPD2    N113303   1.128   0.100  14.260 -0.5100  0.2029 -0.5426
  904MPD2    H713304   1.144   0.185  14.314  1.1229  0.2025 -1.0290
  905MPD2     C13305   0.589   0.558  13.647 -0.3299  0.4952 -0.9974
  905MPD2    C113306   0.683   0.468  13.677 -0.3240 -0.0856 -0.3794
  905MPD2    C213307   0.757   0.407  13.579 -0.3009  0.1490  0.9709
  905MPD2    C313308   0.742   0.448  13.448 -0.2055 -0.8139 -0.4573
  905MPD2    C413309   0.653   0.548  13.416 -0.7712  0.8733 -0.4564
  905MPD2    C513310   0.568   0.597  13.521  0.7281 -0.4120  1.0698
  905MPD2     H13311   0.830   0.330  13.601  0.5674  0.9506  0.9176
  905MPD2    H113312   0.635   0.590  13.318  0.0244  1.9134 -0.1585
  905MPD2    H213313   0.523   0.590  13.727 -0.4192  1.2507 -1.3686
  905MPD2    H313314   0.489   0.664  13.489  0.8438  0.6708  3.1064
  905MPD2     N13315   0.833   0.405  13.341 -0.2306 -0.2703 -0.2178
  905MPD2    H513316   0.867   0.466  13.267 -0.0167 -0.8620 -0.6041
  905MPD2    N113317   0.696   0.432  13.812 -0.5142 -0.2973  0.1486
  905MPD2    H713318   0.644   0.480  13.885  0.0749  1.7166 -0.7585
  906MPD2     C13319   3.285   0.623  11.030 -0.2154 -0.0971  0.6018
  906MPD2    C113320   3.263   0.506  10.956  0.0068 -0.3092 -0.4169
  906MPD2    C213321   3.275   0.385  11.028  0.0790  0.2106  0.5830
  906MPD2    C313322   3.317   0.379  11.160  0.4209  0.3616  0.0392
  906MPD2    C413323   3.362   0.498  11.222 -0.6769  0.3114 -0.4521
  906MPD2    C513324   3.346   0.614  11.156  0.2532  0.3856 -1.4926
  906MPD2     H13325   3.233   0.297  10.981  0.0915  0.0449  0.8800
  906MPD2    H113326   3.403   0.497  11.322 -1.2375  0.0216 -0.2273
  906MPD2    H213327   3.280   0.726  10.995 -0.1578 -1.2058 -2.6469
  906MPD2    H313328   3.385   0.702  11.206 -1.9894  0.3023  0.3957
  906MPD2     N13329   3.320   0.256  11.234  0.4001  0.3915 -0.5144
  906MPD2    H513330   3.354   0.262  11.329 -0.9755 -1.8691  0.1203
  906MPD2    N113331   3.218   0.494  10.820 -0.7509 -0.0329  0.4125
  906MPD2    H713332   3.199   0.403  10.780 -1.9314 -0.1748  1.2844
  907MPD2     C13333   1.935   4.469  16.295 -0.5056  0.8464 -0.2859
  907MPD2    C113334   1.988   4.361  16.222 -0.4111  0.1042  0.1182
  907MPD2    C213335   2.069   4.273  16.292 -0.3044 -0.1683 -0.2397
  907MPD2    C313336   2.107   4.288  16.423 -0.4034 -0.2419 -0.2935
  907MPD2    C413337   2.059   4.392  16.485 -0.0958  0.7747 -0.4225
  907MPD2    C513338   1.972   4.482  16.428 -0.2881 -0.1553 -0.3275
  907MPD2     H13339   2.105   4.186  16.239 -1.1660 -0.6067 -0.0983
  907MPD2    H113340   2.089   4.407  16.588  1.3181  0.3736 -0.7748
  907MPD2    H213341   1.887   4.553  16.246  1.4811  1.0891 -1.7865
  907MPD2    H313342   1.954   4.574  16.482 -0.1150  0.3865 -1.1976
  907MPD2     N13343   2.205   4.202  16.476 -0.0636  0.9627 -0.1864
  907MPD2    H513344   2.236   4.130  16.411 -0.6092  0.7698 -0.2328
  907MPD2    N113345   1.971   4.338  16.081 -0.3972  0.2330 -0.8063
  907MPD2    H713346   2.027   4.263  16.042 -0.9423 -0.5985  0.0013
  908MPD2     C13347   3.957   0.534   9.825 -0.2136 -0.2673 -0.3999
  908MPD2    C113348   4.023   0.420   9.852 -0.1633  0.7934 -0.9074
  908MPD2    C213349   4.155   0.432   9.901  0.5261 -0.3850  0.5177
  908MPD2    C313350   4.200   0.557   9.936 -0.0035 -1.2611 -0.2394
  908MPD2    C413351   4.126   0.671   9.915 -0.0013 -0.4731  0.0609
  908MPD2    C513352   4.006   0.655   9.853  0.3815  0.2594  0.0518
  908MPD2     H13353   4.224   0.349   9.913  2.2127  0.8590 -0.6912
  908MPD2    H113354   4.164   0.770   9.939 -0.8657  0.1438 -1.0695
  908MPD2    H213355   3.853   0.530   9.798 -0.5292 -1.3669  0.9649
  908MPD2    H313356   3.946   0.740   9.822 -1.0463 -1.0813 -0.9057
  908MPD2     N13357   4.335   0.564   9.979 -0.6509  0.0708  0.2716
  908MPD2    H513358   4.388   0.481  10.003 -0.5877 -0.1162 -0.5084
  908MPD2    N113359   3.951   0.300   9.837  0.3586  0.6815 -0.8528
  908MPD2    H713360   3.851   0.304   9.819  0.7267  1.6464 -2.6604
  909MPD2     C13361   0.006   2.826  12.012 -0.0811 -0.6847  0.4659
  909MPD2    C113362   0.025   2.963  12.005 -0.6897 -0.1782  0.1537
  909MPD2    C213363   4.700   3.049  12.097 -0.4125  0.0127 -0.2640
  909MPD2    C313364   4.606   2.996  12.188 -0.2359 -0.7595 -0.3664
  909MPD2    C413365   4.595   2.864  12.201 -0.4421  0.0767  0.2578
  909MPD2    C513366   4.663   2.782  12.115  0.0492  0.0781 -0.3985
  909MPD2     H13367   4.717   3.156  12.094 -1.5714  0.1869 -0.7926
  909MPD2    H113368   4.525   2.818  12.270 -0.9907 -0.6155 -0.7562
  909MPD2    H213369   0.050   2.751  11.948  0.3986 -0.5798  0.6720
  909MPD2    H313370   4.654   2.675  12.127  1.7009  0.0085  0.2205
  909MPD2     N13371   4.522   3.086  12.253 -0.1552  0.4573  0.0351
  909MPD2    H513372   4.514   3.185  12.232  0.5131  0.4369 -0.3134
  909MPD2    N113373   0.111   3.027  11.915 -0.3732  0.3571  0.1345
  909MPD2    H713374   0.132   3.124  11.935  0.9709  0.0325  0.2932
  910MPD2     C13375   1.557   0.064  16.634 -0.6365 -0.7976 -0.4522
  910MPD2    C113376   1.610   4.727  16.530 -0.0572 -0.3838  0.2241
  910MPD2    C213377   1.595   0.032  16.405 -0.2975 -0.7566  0.0030
  910MPD2    C313378   1.532   0.151  16.381 -0.5395 -0.1957  0.4523
  910MPD2    C413379   1.475   0.219  16.482 -0.3971 -0.1765 -0.0114
  910MPD2    C513380   1.498   0.182  16.609 -0.5463 -0.1170 -0.2576
  910MPD2     H13381   1.650   4.707  16.335 -0.6863 -1.6444  0.4676
  910MPD2    H113382   1.438   0.317  16.453 -2.5466 -0.8219  0.6215
  910MPD2    H213383   1.553   0.022  16.734  0.2899  2.3627  0.8808
  910MPD2    H313384   1.461   0.230  16.699 -1.7181 -1.3836 -0.0640
  910MPD2     N13385   1.504   0.193  16.252 -0.5129  0.3642 -0.1970
  910MPD2    H513386   1.447   0.275  16.237 -0.7533  0.0786 -0.8437
  910MPD2    N113387   1.649   4.594  16.551 -0.0586 -0.2870 -0.0044
  910MPD2    H713388   1.675   4.543  16.467 -0.1481  2.3285 -1.6246
  911MPD2     C13389   4.156   0.737  16.890 -0.2861 -0.3934  0.2841
  911MPD2    C113390   4.240   0.841  16.861 -0.8096  0.2009 -0.1729
  911MPD2    C213391   4.203   0.937  16.770  0.3800  0.6260 -0.7777
  911MPD2    C313392   4.081   0.918  16.703 -0.4797  0.1369  0.5171
  911MPD2    C413393   4.002   0.801  16.721 -0.7561  0.7843  0.5696
  911MPD2    C513394   4.043   0.710  16.819 -0.4754 -0.4760 -0.0747
  911MPD2     H13395   4.271   1.018  16.746  1.8481 -0.2469  0.4019
  911MPD2    H113396   3.913   0.767  16.668 -0.0036 -0.8202  0.3522
  911MPD2    H213397   4.189   0.666  16.965 -0.5546  0.6328  1.3802
  911MPD2    H313398   3.983   0.624  16.847  1.2732 -0.8573  2.4685
  911MPD2     N13399   4.040   0.991  16.591  1.0086  0.8165 -0.0856
  911MPD2    H513400   3.971   0.942  16.535 -0.0913  4.0701 -1.5547
  911MPD2    N113401   4.370   0.839  16.924  0.1677  0.3077 -0.0548
  911MPD2    H713402   4.391   0.754  16.975 -0.8866  0.1860  0.1782
  912MPD2     C13403   3.638   0.663  16.090  0.1397  0.0832  0.5103
  912MPD2    C113404   3.723   0.702  16.189 -0.2427 -0.2479  0.2029
  912MPD2    C213405   3.741   0.616  16.294 -0.1034 -0.0085  0.0416
  912MPD2    C313406   3.678   0.486  16.298  0.2261 -0.0748  0.9599
  912MPD2    C413407   3.593   0.453  16.199  0.5196  0.1656 -0.1119
  912MPD2    C513408   3.565   0.543  16.100 -0.6035  0.4524  0.4447
  912MPD2     H13409   3.812   0.636  16.374 -1.6625  0.8406  1.2190
  912MPD2    H113410   3.551   0.354  16.187  1.8536 -0.5601  1.2759
  912MPD2    H213411   3.615   0.721  16.001 -0.8336  0.5556  1.0750
  912MPD2    H313412   3.500   0.513  16.018  0.4879 -2.1392  0.5282
  912MPD2     N13413   3.703   0.404  16.404  0.4213 -0.0645 -0.2496
  912MPD2    H513414   3.769   0.428  16.477 -1.1397 -2.0695  1.8311
  912MPD2    N113415   3.796   0.826  16.181 -0.4896 -0.1975  0.0142
  912MPD2    H713416   3.788   0.883  16.097  2.0199 -0.0994 -0.1757
  913MPD2     C13417   0.170   2.303  10.476 -0.0480  0.2860 -0.5672
  913MPD2    C113418   0.082   2.239  10.392  0.0831 -0.1433 -0.4032
  913MPD2    C213419   0.048   2.294  10.269  0.3549 -0.1167  0.3187
  913MPD2    C313420   0.122   2.404  10.231  0.3373  1.2516 -0.3186
  913MPD2    C413421   0.224   2.463  10.306 -0.2179 -0.5182 -0.3475
  913MPD2    C513422   0.240   2.420  10.437  0.1075  0.1826 -0.5604
  913MPD2     H13423   4.710   2.257  10.198 -0.5653  2.1621  0.0758
  913MPD2    H113424   0.277   2.545  10.260  0.6698  1.5825  4.4097
  913MPD2    H213425   0.189   2.262  10.574 -2.9600  0.6873  0.1450
  913MPD2    H313426   0.313   2.469  10.499 -0.5675  0.9206 -0.3546
  913MPD2     N13427   0.102   2.471  10.104  0.0453 -0.1172  0.5906
  913MPD2    H513428   0.165   2.548  10.085 -0.0821 -0.4594 -1.2483
  913MPD2    N113429   0.016   2.126  10.452 -0.0330 -0.3433  1.4212
  913MPD2    H713430   0.056   2.098  10.541  1.1709  0.6410  1.1999
  914MPD2     C13431   2.207   1.617  12.561  0.5216  0.4084 -0.0641
  914MPD2    C113432   2.243   1.731  12.626 -0.2925  0.3366  0.7203
  914MPD2    C213433   2.307   1.718  12.751 -0.9032  1.0251  0.1283
  914MPD2    C313434   2.311   1.593  12.815 -0.6187 -0.1431 -0.3970
  914MPD2    C413435   2.263   1.485  12.745 -0.3238  0.0020  0.6892
  914MPD2    C513436   2.213   1.497  12.616  0.0755 -0.4418 -0.1230
  914MPD2     H13437   2.341   1.811  12.795 -0.8850  1.5111 -0.9032
  914MPD2    H113438   2.272   1.382  12.778 -1.1543 -1.2572 -2.9701
  914MPD2    H213439   2.166   1.618  12.461 -0.7756 -2.6585  0.4531
  914MPD2    H313440   2.162   1.418  12.562  0.9122  0.0983 -1.7223
  914MPD2     N13441   2.354   1.592  12.946  1.2056  0.1838 -0.1131
  914MPD2    H513442   2.392   1.678  12.984 -0.8071 -0.0336  2.4192
  914MPD2    N113443   2.222   1.856  12.561 -0.9749  0.3172 -0.3061
  914MPD2    H713444   2.160   1.851  12.481  0.2505  1.2166 -1.3202
  915MPD2     C13445   4.396   1.603  15.811  0.3896 -0.2901  0.4850
  915MPD2    C113446   4.517   1.656  15.756 -0.3104 -0.1141  0.8121
  915MPD2    C213447   4.606   1.718  15.842  0.4142  0.0301 -0.5033
  915MPD2    C313448   4.579   1.733  15.975 -0.3670  0.0693 -0.5720
  915MPD2    C413449   4.467   1.672  16.030  0.4078  0.3002  0.5634
  915MPD2    C513450   4.373   1.621  15.945  0.0188 -0.5444  0.4823
  915MPD2     H13451   4.699   1.756  15.801 -0.1853  0.7842 -1.1496
  915MPD2    H113452   4.434   1.681  16.133 -1.7887  1.6496 -0.2395
  915MPD2    H213453   4.320   1.553  15.752  0.8618  0.1055 -0.4566
  915MPD2    H313454   4.282   1.576  15.982 -0.2291 -1.2090 -0.9197
  915MPD2     N13455   4.674   1.804  16.048  0.1601  0.7343 -0.1365
  915MPD2    H513456   0.016   1.849  16.002 -0.3898  0.5247 -1.2653
  915MPD2    N113457   4.542   1.620  15.624  0.0388 -0.4074  0.5790
  915MPD2    H713458   4.462   1.566  15.590  0.0862 -0.9683  1.3363
  916MPD2     C13459   3.773   0.080  16.105 -0.9091 -0.0321  0.0871
  916MPD2    C113460   3.691   4.711  16.092 -0.5835  0.1934 -0.2629
  916MPD2    C213461   3.725   4.605  16.009 -1.3440  0.1692 -0.0449
  916MPD2    C313462   3.836   4.615  15.934  0.1112  0.6829 -0.4112
  916MPD2    C413463   3.935   4.714  15.954  0.3173 -0.5560  0.2452
  916MPD2    C513464   3.897   0.085  16.039 -0.3667 -0.5075  0.1164
  916MPD2     H13465   3.665   4.515  16.004 -1.3173  0.2354 -1.3609
  916MPD2    H113466   4.029   4.716  15.899 -0.1861  1.4715 -0.5495
  916MPD2    H213467   3.755   0.147  16.189  3.3443 -1.7053  2.3395
  916MPD2    H313468   3.966   0.165  16.065 -2.5879  1.9195 -1.4233
  916MPD2     N13469   3.858   4.511  15.839  0.4362 -0.3607  0.6360
  916MPD2    H513470   3.821   4.417  15.849 -0.3220 -0.1678 -0.3850
  916MPD2    N113471   3.576   4.701  16.175 -0.0254  0.5188  0.7398
  916MPD2    H713472   3.556   0.054  16.220 -0.3539  0.1424  1.3280
  917MPD2     C13473   3.501   2.453  11.297  0.5171  0.1041 -0.1172
  917MPD2    C113474   3.567   2.490  11.416  0.4626  0.1537  0.0486
  917MPD2    C213475   3.685   2.556  11.414 -0.2267 -0.1351 -0.2875
  917MPD2    C313476   3.728   2.606  11.288  0.0203 -0.1454  0.6849
  917MPD2    C413477   3.657   2.582  11.169  0.0182  0.9913  0.5182
  917MPD2    C513478   3.545   2.502  11.177  0.4899  0.5162  0.4612
  917MPD2     H13479   3.744   2.578  11.502  1.6401 -3.2279 -0.8004
  917MPD2    H113480   3.683   2.622  11.071 -1.3015  0.6144  0.0029
  917MPD2    H213481   3.404   2.406  11.295  0.6434 -0.1162 -1.0050
  917MPD2    H313482   3.485   2.473  11.091  1.2554 -3.4425  1.2231
  917MPD2     N13483   3.838   2.692  11.285  0.3730 -0.2832  0.0397
  917MPD2    H513484   3.839   2.755  11.205  1.4380 -3.0911 -2.1170
  917MPD2    N113485   3.503   2.446  11.536 -0.2768  0.4508 -0.1596
  917MPD2    H713486   3.418   2.392  11.524 -1.3971  1.3510  3.6619
  918MPD2     C13487   3.446   2.800  12.474  0.2501 -0.4693  0.5323
  918MPD2    C113488   3.549   2.782  12.387 -0.2618 -0.1303 -0.5415
  918MPD2    C213489   3.524   2.729  12.262  0.1065 -0.3666  0.1966
  918MPD2    C313490   3.400   2.677  12.232  0.5078 -0.0113  0.2059
  918MPD2    C413491   3.300   2.677  12.329  0.2703 -0.0863  0.4093
  918MPD2    C513492   3.324   2.741  12.448  0.1874 -0.1843 -0.5602
  918MPD2     H13493   3.601   2.731  12.186 -1.6476 -2.4437 -1.6095
  918MPD2    H113494   3.204   2.631  12.312 -0.1614  1.3376 -1.0502
  918MPD2    H213495   3.452   2.851  12.569  1.7077  0.2457  0.0599
  918MPD2    H313496   3.247   2.751  12.523  0.7390 -0.5972  0.0659
  918MPD2     N13497   3.391   2.618  12.103 -0.7185  0.0947 -0.0848
  918MPD2    H513498   3.472   2.622  12.042  0.1191 -1.2328  0.9355
  918MPD2    N113499   3.682   2.822  12.410 -0.2244 -0.0871 -0.7792
  918MPD2    H713500   3.751   2.788  12.344 -1.3316  2.3322 -3.1776
  919MPD2     C13501   4.314   1.568  11.812  0.4098  0.2042  0.4778
  919MPD2    C113502   4.362   1.451  11.758 -0.0052 -0.4131 -0.5039
  919MPD2    C213503   4.381   1.456  11.624  0.1282  0.0907 -0.3343
  919MPD2    C313504   4.345   1.562  11.540 -0.5731  0.2318  0.7023
  919MPD2    C413505   4.288   1.678  11.594 -0.6613  0.4903  0.0732
  919MPD2    C513506   4.285   1.680  11.730  0.4331  0.2528  0.4002
  919MPD2     H13507   4.429   1.371  11.579 -1.8186 -0.4394 -1.3811
  919MPD2    H113508   4.270   1.754  11.519 -0.7285 -0.0981 -0.5131
  919MPD2    H213509   4.291   1.568  11.918  1.3481  2.8900  0.6978
  919MPD2    H313510   4.244   1.768  11.778 -3.0933  0.7046 -3.4393
  919MPD2     N13511   4.362   1.561  11.399  0.2546 -0.3971  0.5453
  919MPD2    H513512   4.315   1.637  11.352 -1.6029  0.8177  4.3183
  919MPD2    N113513   4.378   1.332  11.824 -0.5108  0.4555 -0.4359
  919MPD2    H713514   4.392   1.252  11.763  0.1907  0.0487  0.2632
  920MPD2     C13515   4.293   2.132  10.578  0.3752 -0.0781 -0.1458
  920MPD2    C113516   4.187   2.050  10.586  0.6655 -0.3110 -0.3601
  920MPD2    C213517   4.182   1.946  10.678 -0.1376  0.5591  0.1740
  920MPD2    C313518   4.291   1.925  10.754  1.0805  0.4798  0.2992
  920MPD2    C413519   4.393   2.011  10.754 -0.2033  0.7270 -0.9891
  920MPD2    C513520   4.400   2.110  10.664  0.2859 -0.2316  0.4685
  920MPD2     H13521   4.089   1.892  10.687 -0.5777  1.2875 -0.0629
  920MPD2    H113522   4.487   1.995  10.807  0.3842  1.5377 -1.7874
  920MPD2    H213523   4.294   2.217  10.510 -2.1193 -0.3204 -0.4574
  920MPD2    H313524   4.487   2.175  10.661  0.4750 -0.4854  0.3796
  920MPD2     N13525   4.296   1.808  10.835 -0.3827  0.5031  0.2204
  920MPD2    H513526   4.212   1.753  10.828 -0.0868  0.4370 -3.2661
  920MPD2    N113527   4.071   2.063  10.508  0.2976  0.2436  0.0562
  920MPD2    H713528   3.983   2.023  10.538  0.4570 -0.3244 -0.2357
  921MPD2     C13529   0.474   1.399  17.109  0.0071 -0.0148  0.8332
  921MPD2    C113530   0.514   1.267  17.091 -0.0590  0.8366  0.0372
  921MPD2    C213531   0.416   1.170  17.092  0.8811 -0.2000  0.2596
  921MPD2    C313532   0.280   1.204  17.109 -0.2523  0.2465  0.3932
  921MPD2    C413533   0.239   1.337  17.125 -0.3012 -0.2571  0.5246
  921MPD2    C513534   0.339   1.432  17.126  0.1055 -0.5587  0.4510
  921MPD2     H13535   0.438   1.065  17.073 -0.4376 -0.4126 -0.1200
  921MPD2    H113536   0.135   1.365  17.126 -0.0065  0.7885  2.0687
  921MPD2    H213537   0.543   1.482  17.096 -0.4508  0.2793  0.2927
  921MPD2    H313538   0.309   1.536  17.126 -1.0436 -0.8841 -1.1805
  921MPD2     N13539   0.171   1.111  17.098  0.2996 -0.0867 -0.7801
  921MPD2    H513540   0.072   1.133  17.098  0.5424  0.9946 -2.8284
  921MPD2    N113541   0.650   1.239  17.067  0.6231  0.2399  0.2794
  921MPD2    H713542   0.709   1.322  17.068  1.1495 -0.1350  0.5238
  922MPD2     C13543   0.910   2.990  17.373  0.6703  0.4397  0.0360
  922MPD2    C113544   0.853   3.076  17.464  0.1264  0.1204 -0.3735
  922MPD2    C213545   0.722   3.065  17.492 -0.6505 -1.2184  0.3906
  922MPD2    C313546   0.638   2.961  17.443  0.0795  0.1303 -0.6379
  922MPD2    C413547   0.702   2.879  17.352 -0.1934  0.1203 -0.3252
  922MPD2    C513548   0.827   2.900  17.312 -0.1543 -0.0534 -0.1418
  922MPD2     H13549   0.683   3.131  17.569 -2.5069 -1.3874 -0.4098
  922MPD2    H113550   0.643   2.804  17.300 -1.7209  1.4530 -0.5120
  922MPD2    H213551   1.014   2.995  17.345  0.7870 -1.0296  0.2003
  922MPD2    H313552   0.868   2.835  17.236  1.5335  0.2728  0.4966
  922MPD2     N13553   0.502   2.943  17.483 -0.0961  0.1436  0.2001
  922MPD2    H513554   0.473   3.026  17.535 -1.9801 -0.8231  0.7105
  922MPD2    N113555   0.923   3.169  17.541  0.0192 -0.0553 -0.2833
  922MPD2    H713556   0.867   3.221  17.608  0.3577  2.3284 -1.8520
  923MPD2     C13557   1.708   0.593  10.041 -0.4345 -0.6935 -0.3030
  923MPD2    C113558   1.782   0.696   9.992  0.0088 -0.3182  0.2150
  923MPD2    C213559   1.907   0.668   9.946 -0.1565 -0.1612 -0.5615
  923MPD2    C313560   1.968   0.548   9.966 -0.0831 -0.6038  0.5411
  923MPD2    C413561   1.892   0.446  10.014  0.0201 -0.1037  0.5720
  923MPD2    C513562   1.760   0.470  10.053 -0.6467  0.2267 -0.4625
  923MPD2     H13563   1.972   0.744   9.904 -1.7591  0.6087 -1.6572
  923MPD2    H113564   1.944   0.352  10.031  0.1456 -0.2240 -0.4878
  923MPD2    H213565   1.602   0.605  10.064  0.1582  1.2558  1.5042
  923MPD2    H313566   1.707   0.385  10.095  1.1560 -0.1181  1.1358
  923MPD2     N13567   2.103   0.523   9.939 -0.4370  0.3162  0.5065
  923MPD2    H513568   2.137   0.430   9.963 -1.7362 -0.6126 -1.2251
  923MPD2    N113569   1.713   0.821   9.977  0.2834 -0.0320  0.2643
  923MPD2    H713570   1.613   0.813   9.994  0.2024 -2.4973 -1.4146
  924MPD2     C13571   2.520   3.785  15.950  0.1439 -0.1386  0.5109
  924MPD2    C113572   2.497   3.700  16.053  0.1090 -0.6849  0.4265
  924MPD2    C213573   2.520   3.736  16.187 -0.1019  0.2187 -1.0092
  924MPD2    C313574   2.542   3.872  16.218  0.5748 -0.4415  0.6390
  924MPD2    C413575   2.555   3.955  16.107  0.0745  0.4119 -0.7149
  924MPD2    C513576   2.554   3.916  15.976 -0.4389 -0.0391 -0.5829
  924MPD2     H13577   2.504   3.669  16.270  0.5840  0.6590 -0.5183
  924MPD2    H113578   2.571   4.060  16.128  1.2252  0.2966 -1.0360
  924MPD2    H213579   2.522   3.757  15.845 -1.6142 -3.0818  1.2330
  924MPD2    H313580   2.576   3.985  15.895 -2.3480  2.5277  1.0955
  924MPD2     N13581   2.544   3.936  16.340 -0.9051  0.0381 -0.0206
  924MPD2    H513582   2.518   4.034  16.332  0.7136  0.6398  2.2934
  924MPD2    N113583   2.453   3.562  16.032  0.6980  0.8044 -0.0878
  924MPD2    H713584   2.417   3.542  15.940 -1.0933 -2.4748  1.3579
  925MPD2     C13585   0.628   1.283  15.392  0.0086 -0.2080  0.4131
  925MPD2    C113586   0.594   1.190  15.297 -0.3652 -0.1263 -0.4512
  925MPD2    C213587   0.487   1.111  15.333 -0.1960 -0.2040 -0.2999
  925MPD2    C313588   0.407   1.130  15.447 -0.4172  0.2327  0.1548
  925MPD2    C413589   0.438   1.230  15.531  0.5271  0.2506 -0.5101
  925MPD2    C513590   0.557   1.298  15.503 -0.5065 -0.2156 -0.5506
  925MPD2     H13591   0.469   1.026  15.268  2.5599 -1.8069  1.0070
  925MPD2    H113592   0.387   1.244  15.625  0.5281 -1.0519 -0.3121
  925MPD2    H213593   0.713   1.346  15.369  0.7624 -1.4082 -0.1179
  925MPD2    H313594   0.590   1.369  15.578 -0.5688  0.5515 -1.2532
  925MPD2     N13595   0.309   1.038  15.485 -0.2893  0.2375 -0.3977
  925MPD2    H513596   0.283   1.062  15.580  1.8019  0.2809  0.1525
  925MPD2    N113597   0.658   1.159  15.172 -0.2410  0.6412  0.3680
  925MPD2    H713598   0.642   1.075  15.117  1.0208  2.1789 -2.3590
  926MPD2     C13599   4.601   3.843  13.245 -0.5291  0.4452 -0.1966
  926MPD2    C113600   4.560   3.954  13.175  0.1060  0.6784 -0.3588
  926MPD2    C213601   4.603   3.982  13.048  0.9665 -0.4889 -0.6457
  926MPD2    C313602   4.704   3.899  12.998  0.0395  0.0414 -0.6801
  926MPD2    C413603   0.012   3.784  13.068 -0.4615  0.4367 -0.0470
  926MPD2    C513604   4.699   3.758  13.192  0.2266 -0.0891  0.1640
  926MPD2     H13605   4.566   4.069  12.996  2.8564 -0.7671 -2.4773
  926MPD2    H113606   0.087   3.714  13.034  0.5535  2.5287 -2.1264
  926MPD2    H213607   4.581   3.822  13.349  0.3841  1.0629  0.1045
  926MPD2    H313608   0.006   3.678  13.251 -0.7140 -1.3596 -0.8902
  926MPD2     N13609   0.023   3.923  12.868  0.0089 -0.1880 -0.3727
  926MPD2    H513610   0.100   3.864  12.838  0.8051  0.0997  1.1129
  926MPD2    N113611   4.467   4.045  13.225 -0.5918 -0.4443 -0.3491
  926MPD2    H713612   4.442   4.116  13.156  0.0340 -0.1552 -0.2855
  927MPD2     C13613   4.138   1.745  17.717 -0.8178 -0.2387 -0.1552
  927MPD2    C113614   4.232   1.835   0.007  0.5160 -0.0793  0.8673
  927MPD2    C213615   4.361   1.805  17.713  0.7551 -0.4824  0.0325
  927MPD2    C313616   4.386   1.696  17.633  0.5052  0.1969  0.0799
  927MPD2    C413617   4.281   1.618  17.583  0.6877 -0.0863  0.3201
  927MPD2    C513618   4.154   1.641  17.632 -0.7953  0.5447  0.4679
  927MPD2     H13619   4.448   1.867  17.733  0.8140 -0.7561  0.6346
  927MPD2    H113620   4.298   1.536  17.514 -0.0538  0.6285 -0.7103
  927MPD2    H213621   4.038   1.751   0.016 -0.5979 -1.5654  0.5596
  927MPD2    H313622   4.068   1.584  17.600  0.3407 -1.5086  1.1165
  927MPD2     N13623   4.520   1.673  17.607 -0.5111  0.1735  0.3511
  927MPD2    H513624   4.589   1.734  17.649 -2.2936  1.6741  1.1255
  927MPD2    N113625   4.187   1.935   0.097  0.1095  0.7704 -0.2651
  927MPD2    H713626   4.088   1.934   0.119  0.1078 -0.5409 -0.3320
  928MPD2     C13627   2.144   0.026   1.624  0.1483 -0.1922  0.3073
  928MPD2    C113628   2.120   0.159   1.587  0.0230 -0.1261  0.3772
  928MPD2    C213629   2.174   0.210   1.468  0.0406  0.2660 -0.2070
  928MPD2    C313630   2.252   0.129   1.387 -0.2527  0.1443 -0.0702
  928MPD2    C413631   2.263   4.730   1.417  0.0202 -0.9351  0.0592
  928MPD2    C513632   2.217   4.680   1.536  0.1413 -0.4661 -0.1722
  928MPD2     H13633   2.162   0.312   1.436  3.4700  0.2964 -1.4070
  928MPD2    H113634   2.315   4.663   1.350  1.9636  2.2056 -1.5927
  928MPD2    H213635   2.114   4.729   1.723  0.5475 -1.1838  0.0922
  928MPD2    H313636   2.225   4.575   1.564  0.6465 -0.2199  0.5949
  928MPD2     N13637   2.307   0.180   1.269  0.4852  0.0699  0.1416
  928MPD2    H513638   2.357   0.116   1.208  2.3105  1.0236  0.6618
  928MPD2    N113639   2.036   0.242   1.673 -0.0099 -0.2138  0.1365
  928MPD2    H713640   1.977   0.189   1.735  0.0182  0.9978  1.2066
  929MPD2     C13641   2.638   0.032  10.937  0.0093 -0.6103  0.1153
  929MPD2    C113642   2.503   0.011  10.961  0.1099 -0.8004  0.3471
  929MPD2    C213643   2.416   4.734  10.857 -0.2480 -0.0663  0.1715
  929MPD2    C313644   2.458   0.034  10.735  0.1505  0.0484 -0.7780
  929MPD2    C413645   2.593   0.059  10.706  0.8472 -0.2477 -0.1504
  929MPD2    C513646   2.684   0.056  10.807 -0.5134 -0.0728  1.2326
  929MPD2     H13647   2.313   4.713  10.880 -0.2171 -0.1211  0.2620
  929MPD2    H113648   2.628   0.095  10.610 -2.7698 -0.0280 -1.3461
  929MPD2    H213649   2.708   4.730  11.010  1.9108  0.9435 -0.9045
  929MPD2    H313650   2.788   0.065  10.778 -0.8170  2.8580  1.0890
  929MPD2     N13651   2.366   0.044  10.627  0.3597 -0.5285  0.0184
  929MPD2    H513652   2.410   0.090  10.548 -1.4577  2.6633  0.8580
  929MPD2    N113653   2.462   4.717  11.099 -0.1089  0.2151 -0.5695
  929MPD2    H713654   2.369   4.680  11.114  0.0181 -0.5306 -1.6349
  930MPD2     C13655   4.241   2.315  13.943  0.3161  0.0065  0.1091
  930MPD2    C113656   4.361   2.289  13.872  0.0121 -1.1199  0.3950
  930MPD2    C213657   4.370   2.175  13.795  0.0774 -0.0541  0.3580
  930MPD2    C313658   4.264   2.093  13.776  1.5836 -0.2546 -0.0092
  930MPD2    C413659   4.146   2.119  13.837  0.3552 -0.0690 -0.4870
  930MPD2    C513660   4.136   2.223  13.918  0.3419  0.0868  0.3273
  930MPD2     H13661   4.460   2.147  13.741  0.2526  3.8681 -1.3728
  930MPD2    H113662   4.064   2.048  13.831  0.4257 -0.1930  0.0243
  930MPD2    H213663   4.216   2.396  14.010  2.2040  0.5113  0.2102
  930MPD2    H313664   4.048   2.241  13.979  0.3155  1.7054 -0.1826
  930MPD2     N13665   4.271   1.984  13.687 -0.2839  0.3301  0.0198
  930MPD2    H513666   4.182   1.945  13.655 -1.9332  2.7570  1.6775
  930MPD2    N113667   4.483   2.364  13.898 -0.8153  0.4578 -0.3304
  930MPD2    H713668   4.562   2.339  13.840 -1.3164  0.1486 -0.8788
  931MPD2     C13669   4.240   2.330   0.930 -0.1207 -0.0889  0.4006
  931MPD2    C113670   4.294   2.231   0.851 -0.0827  0.3073 -0.2213
  931MPD2    C213671   4.382   2.137   0.908  0.4234  0.0837 -0.0908
  931MPD2    C313672   4.391   2.121   1.043 -0.0295  0.9213 -0.1722
  931MPD2    C413673   4.315   2.208   1.118  0.4923  1.0161  0.5256
  931MPD2    C513674   4.248   2.317   1.064 -0.8155 -0.5645 -0.0709
  931MPD2     H13675   4.412   2.053   0.848  3.2966 -0.2067  1.7543
  931MPD2    H113676   4.309   2.193   1.225 -1.7537 -2.1252 -0.0437
  931MPD2    H213677   4.223   2.427   0.884 -1.2093  1.0007  3.0755
  931MPD2    H313678   4.215   2.398   1.128  1.1992 -1.9544  2.7439
  931MPD2     N13679   4.462   2.009   1.108 -0.8409 -0.2799 -0.5241
  931MPD2    H513680   4.460   2.020   1.209 -0.6665 -3.0657 -0.2352
  931MPD2    N113681   4.267   2.238   0.711  0.4099  0.2324  0.5912
  931MPD2    H713682   4.191   2.303   0.691 -0.2856 -1.3738 -1.9654
  932MPD2     C13683   1.317   0.669  11.540 -0.2714 -0.3650 -0.8530
  932MPD2    C113684   1.440   0.699  11.493 -0.2863  0.6994  0.2038
  932MPD2    C213685   1.531   0.596  11.471  0.3209 -0.3021  0.4474
  932MPD2    C313686   1.498   0.469  11.519 -0.1923 -0.7293 -0.9082
  932MPD2    C413687   1.370   0.444  11.562  0.1592 -0.2564  0.3869
  932MPD2    C513688   1.283   0.543  11.577  0.5675  0.3696  0.4101
  932MPD2     H13689   1.631   0.627  11.446  0.8599 -1.2944  1.3493
  932MPD2    H113690   1.340   0.343  11.588 -2.8468  0.7076  0.6218
  932MPD2    H213691   1.233   0.737  11.544  1.0926  1.1035  2.4606
  932MPD2    H313692   1.183   0.522  11.615  1.5485 -1.4071  2.0100
  932MPD2     N13693   1.585   0.364  11.514 -0.0546 -0.0220 -0.0871
  932MPD2    H513694   1.564   0.283  11.571 -2.1913 -0.0589 -0.9222
  932MPD2    N113695   1.472   0.829  11.444 -1.0444 -0.3812 -0.3970
  932MPD2    H713696   1.559   0.826  11.393  0.2522  2.2095  1.6942
  933MPD2     C13697   1.390   0.745   2.040  0.1163  0.3664 -0.5355
  933MPD2    C113698   1.504   0.783   1.964  0.3133  0.0164  0.0002
  933MPD2    C213699   1.490   0.899   1.887  0.2216  0.0279 -1.1954
  933MPD2    C313700   1.379   0.980   1.889  0.1449 -1.0175  0.4624
  933MPD2    C413701   1.268   0.937   1.959 -0.5425 -0.8818  0.9253
  933MPD2    C513702   1.283   0.825   2.040 -0.3932 -0.6307 -0.4724
  933MPD2     H13703   1.581   0.919   1.830  0.4686  2.5402  0.0851
  933MPD2    H113704   1.173   0.987   1.965 -0.8047 -1.2468 -0.0885
  933MPD2    H213705   1.395   0.671   2.119  1.1978  1.1101  0.0916
  933MPD2    H313706   1.199   0.811   2.108 -0.9398 -2.3948 -1.4991
  933MPD2     N13707   1.376   1.094   1.811 -0.1349  1.0203 -0.0340
  933MPD2    H513708   1.460   1.103   1.755 -0.8142 -0.5333 -1.3116
  933MPD2    N113709   1.609   0.687   1.956 -0.6010 -0.1319  0.4528
  933MPD2    H713710   1.600   0.612   2.025  2.6228  0.4190  1.4843
  934MPD2     C13711   3.430   2.550   2.110 -0.1735  0.0226  0.1012
  934MPD2    C113712   3.481   2.538   1.980 -0.1024 -0.1811 -0.2043
  934MPD2    C213713   3.395   2.550   1.872  0.1483 -0.3336 -0.1750
  934MPD2    C313714   3.258   2.562   1.886 -0.1101  0.0772  0.3542
  934MPD2    C413715   3.219   2.582   2.015  0.1175  0.1584  0.3917
  934MPD2    C513716   3.298   2.576   2.128  0.3255 -0.0372  0.1698
  934MPD2     H13717   3.430   2.553   1.770 -0.9258  1.9027 -0.4773
  934MPD2    H113718   3.115   2.592   2.045 -0.4907 -0.3083 -1.5831
  934MPD2    H213719   3.500   2.558   2.193 -0.1539 -2.3828  0.3183
  934MPD2    H313720   3.252   2.582   2.226  1.8543 -2.8879  1.0202
  934MPD2     N13721   3.164   2.555   1.782  0.8128 -0.1445 -0.1457
  934MPD2    H513722   3.068   2.554   1.814  0.2492 -0.3609 -1.8609
  934MPD2    N113723   3.620   2.517   1.955  0.2950  0.0631 -0.7475
  934MPD2    H713724   3.653   2.520   1.859  0.3088  0.2441 -0.7366
  935MPD2     C13725   3.405   2.088   0.961  0.5860  0.8543  0.3789
  935MPD2    C113726   3.284   2.049   1.004 -0.1401 -0.1312 -0.0925
  935MPD2    C213727   3.209   2.123   1.094  0.2706 -0.2756  0.0795
  935MPD2    C313728   3.262   2.246   1.136  0.2318  0.4372 -0.2564
  935MPD2    C413729   3.382   2.284   1.098 -0.1457 -0.5825 -0.1855
  935MPD2    C513730   3.448   2.211   1.002  0.6552 -0.3393 -0.0919
  935MPD2     H13731   3.112   2.082   1.121 -0.5073  1.8447  0.4488
  935MPD2    H113732   3.423   2.373   1.143  2.0900 -1.1923 -1.0219
  935MPD2    H213733   3.462   2.045   0.880 -1.3087  0.8134 -0.9416
  935MPD2    H313734   3.548   2.236   0.969  0.1968 -0.6365 -1.7206
  935MPD2     N13735   3.193   2.335   1.217  0.1193  0.6951 -0.5651
  935MPD2    H513736   3.227   2.426   1.247 -0.2640  1.0201 -1.1201
  935MPD2    N113737   3.235   1.924   0.963 -0.3546 -0.2697  0.7734
  935MPD2    H713738   3.150   1.901   1.013  0.5730 -0.7799  2.1258
  936MPD2     C13739   1.832   3.528  12.378 -0.1746 -0.0127 -0.4264
  936MPD2    C113740   1.956   3.464  12.389 -0.1428  0.4856 -0.1657
  936MPD2    C213741   2.068   3.545  12.398 -0.1623  0.3379  0.7704
  936MPD2    C313742   2.062   3.686  12.382  0.2455 -0.2180 -0.3670
  936MPD2    C413743   1.938   3.747  12.371 -0.6505 -0.3285 -0.3952
  936MPD2    C513744   1.820   3.668  12.368 -0.3585  0.3304  0.0791
  936MPD2     H13745   2.162   3.497  12.421  0.0127  1.3241  2.1287
  936MPD2    H113746   1.921   3.853  12.354  1.0346 -0.1199 -0.7059
  936MPD2    H213747   1.741   3.470  12.366 -0.0358 -0.3962  0.3315
  936MPD2    H313748   1.725   3.720  12.363 -1.1365 -1.3052 -2.1388
  936MPD2     N13749   2.186   3.756  12.377 -0.4122  0.2571 -0.5370
  936MPD2    H513750   2.269   3.698  12.388 -0.9883 -0.8548 -2.1559
  936MPD2    N113751   1.971   3.329  12.405  1.3285  0.0199  1.0429
  936MPD2    H713752   2.055   3.296  12.452  1.6804 -0.7572 -0.1196
  937MPD2     C13753   4.622   0.676  11.631 -0.3364 -0.3555 -0.1916
  937MPD2    C113754   4.664   0.801  11.677 -0.0860 -0.1504 -0.2184
  937MPD2    C213755   0.021   0.869  11.606  0.9622 -0.3109 -0.1538
  937MPD2    C313756   0.077   0.820  11.486 -0.2284 -0.3281  0.3883
  937MPD2    C413757   0.044   0.691  11.445 -0.1502 -0.0598 -0.1871
  937MPD2    C513758   4.691   0.620  11.521  0.1459 -0.0303  0.2004
  937MPD2     H13759   0.040   0.971  11.639  5.6868 -1.2969  0.2046
  937MPD2    H113760   0.093   0.647  11.359 -0.4538  0.0279 -0.4031
  937MPD2    H213761   4.536   0.623  11.670 -0.4416  2.3651  3.2254
  937MPD2    H313762   4.647   0.528  11.484  0.1234  0.6810 -1.5250
  937MPD2     N13763   0.159   0.910  11.413  0.2510  0.3352 -0.1702
  937MPD2    H513764   0.183   0.995  11.463 -0.6448  0.9928 -0.8592
  937MPD2    N113765   4.588   0.877  11.769  0.2877 -0.0047 -0.1828
  937MPD2    H713766   4.602   0.977  11.763 -0.3578  0.1727  1.4162
  938MPD2     C13767   2.070   2.150   0.683 -0.4507  0.4055  0.4756
  938MPD2    C113768   2.119   2.203   0.807 -0.0535 -0.1278  0.5068
  938MPD2    C213769   2.171   2.114   0.902  1.1102  0.2281  0.2201
  938MPD2    C313770   2.159   1.972   0.886 -0.3952 -0.5007  0.8891
  938MPD2    C413771   2.102   1.923   0.767  0.1212  0.6641  0.6839
  938MPD2    C513772   2.064   2.012   0.672  0.5637  0.2246  0.3261
  938MPD2     H13773   2.209   2.157   0.994  1.5512 -0.7940  0.5203
  938MPD2    H113774   2.077   1.820   0.743 -1.6689  1.2483  0.0947
  938MPD2    H213775   2.033   2.219   0.608 -1.1881 -1.9236 -1.2965
  938MPD2    H313776   2.024   1.966   0.583  0.0786  2.9802 -0.8614
  938MPD2     N13777   2.205   1.878   0.980 -0.5170 -0.3157  0.0865
  938MPD2    H513778   2.200   1.778   0.960  0.8449 -0.2321 -0.6915
  938MPD2    N113779   2.125   2.345   0.828  0.4950  0.0218 -0.3802
  938MPD2    H713780   2.176   2.377   0.910  0.9058  0.1984 -0.7061
  939MPD2     C13781   3.524   3.273   0.822 -0.1618  0.5882 -0.2468
  939MPD2    C113782   3.428   3.274   0.725 -0.1898  0.0029  0.1867
  939MPD2    C213783   3.424   3.170   0.634 -0.6208 -0.2669  0.5878
  939MPD2    C313784   3.516   3.069   0.637  0.5555  0.1573  0.1876
  939MPD2    C413785   3.615   3.071   0.738 -1.1436 -0.4995  0.1303
  939MPD2    C513786   3.615   3.171   0.829  0.2310  0.2352 -0.2852
  939MPD2     H13787   3.366   3.171   0.543  0.8541 -0.9912 -0.3515
  939MPD2    H113788   3.674   2.981   0.746 -0.2325  0.0183 -0.8972
  939MPD2    H213789   3.528   3.348   0.900  2.1509  2.1283 -1.8568
  939MPD2    H313790   3.693   3.156   0.902 -0.1242 -1.9760 -0.3598
  939MPD2     N13791   3.501   2.970   0.542 -0.4935  0.6170  0.2551
  939MPD2    H513792   3.417   2.968   0.485  0.3140  0.0911 -0.9205
  939MPD2    N113793   3.357   3.388   0.702 -0.2523 -0.7853  0.3567
  939MPD2    H713794   3.364   3.468   0.764 -5.0177  0.8380 -1.1940
  940MPD2     C13795   3.041   4.041  12.859 -0.7078 -0.3939  0.5351
  940MPD2    C113796   2.938   3.960  12.852  0.5206  0.2548 -0.0015
  940MPD2    C213797   2.917   3.889  12.732  0.4034 -0.2515 -0.2870
  940MPD2    C313798   3.014   3.889  12.628 -0.1793 -1.5188  0.3578
  940MPD2    C413799   3.118   3.977  12.643 -0.2610 -0.7474  0.0264
  940MPD2    C513800   3.127   4.056  12.758  0.6225 -0.3842 -0.3176
  940MPD2     H13801   2.830   3.828  12.713 -0.3242  0.9621 -0.8804
  940MPD2    H113802   3.180   3.996  12.557 -1.1623 -2.0242 -0.9033
  940MPD2    H213803   3.060   4.100  12.948  0.1647  2.5988 -1.6486
  940MPD2    H313804   3.191   4.143  12.748  0.6711 -0.5814 -1.7568
  940MPD2     N13805   3.005   3.809  12.510 -0.1793 -0.6280  0.7600
  940MPD2    H513806   3.071   3.819  12.434  0.2472 -0.7376  1.1151
  940MPD2    N113807   2.844   3.957  12.957 -1.1054  0.4681 -0.5262
  940MPD2    H713808   2.755   3.912  12.937 -1.6319  3.0574 -4.0953
  941MPD2     C13809   1.742   3.267   9.841  0.0333 -0.4242  0.7760
  941MPD2    C113810   1.831   3.347   9.907 -0.8873  0.3513  0.1689
  941MPD2    C213811   1.858   3.330  10.040 -0.4918 -0.5270 -0.0700
  941MPD2    C313812   1.792   3.229  10.112  1.0058 -0.3095  0.9834
  941MPD2    C413813   1.709   3.144  10.044  0.1060 -0.4087  0.2298
  941MPD2    C513814   1.688   3.156   9.910 -0.4146  0.0765  1.3100
  941MPD2     H13815   1.921   3.400  10.093 -1.5347 -0.3588  0.9726
  941MPD2    H113816   1.647   3.073  10.097  2.6573 -3.1161 -0.4386
  941MPD2    H213817   1.717   3.281   9.736  0.3317  0.1980  0.7855
  941MPD2    H313818   1.620   3.086   9.862  0.6862 -1.3885  1.9122
  941MPD2     N13819   1.819   3.198  10.249  0.3681  0.1440  0.3612
  941MPD2    H513820   1.758   3.131  10.294 -1.4827  1.3224 -0.4061
  941MPD2    N113821   1.872   3.468   9.852  0.0570  0.6661 -0.1107
  941MPD2    H713822   1.926   3.526   9.914  0.3001  0.4846 -0.1530
  942MPD2     C13823   1.349   0.194  10.358  0.2945 -0.0441  0.6588
  942MPD2    C113824   1.236   0.173  10.287  0.5634 -0.6276  0.4810
  942MPD2    C213825   1.196   0.274  10.196  0.1636 -0.0358  0.4453
  942MPD2    C313826   1.281   0.372  10.156 -1.0572  0.0469  0.4896
  942MPD2    C413827   1.402   0.387  10.222  0.0585  0.5260 -1.0488
  942MPD2    C513828   1.434   0.297  10.328 -0.6355  0.3832  0.4581
  942MPD2     H13829   1.104   0.259  10.142  0.8470 -4.4392  0.4840
  942MPD2    H113830   1.466   0.472  10.202  1.0442  0.2418  0.8796
  942MPD2    H213831   1.376   0.127  10.439  0.2330 -0.1262  0.6119
  942MPD2    H313832   1.523   0.316  10.388 -0.4535 -0.0583  0.3246
  942MPD2     N13833   1.246   0.483  10.077 -0.4526 -0.2842  0.1054
  942MPD2    H513834   1.303   0.567  10.078 -0.1915 -0.4588 -0.1213
  942MPD2    N113835   1.153   0.060  10.296 -1.0061  0.3986 -0.2234
  942MPD2    H713836   1.068   0.067  10.240 -1.4568  1.5027  0.5941
  943MPD2     C13837   1.167   3.685   9.970 -0.1660 -0.2031  0.4322
  943MPD2    C113838   1.044   3.631  10.005  0.6982  0.5516  0.4118
  943MPD2    C213839   0.947   3.707  10.068  0.9593 -0.3650 -0.0179
  943MPD2    C313840   0.969   3.841  10.101 -0.0729  0.2608  0.0919
  943MPD2    C413841   1.092   3.895  10.067 -0.2675 -0.0240 -0.7135
  943MPD2    C513842   1.189   3.817  10.009 -0.6699 -0.4888 -0.3489
  943MPD2     H13843   0.856   3.661  10.105 -0.2893  1.4555 -0.8740
  943MPD2    H113844   1.114   3.999  10.087 -1.9406  0.2131 -0.0881
  943MPD2    H213845   1.243   3.633   9.912 -1.3721 -1.2829 -0.1771
  943MPD2    H313846   1.286   3.864  10.000 -1.1831  0.6112 -0.1603
  943MPD2     N13847   0.876   3.927  10.167 -0.3697 -0.7366 -0.2410
  943MPD2    H513848   0.912   4.013  10.209 -1.3395  0.3299 -1.5934
  943MPD2    N113849   1.017   3.499   9.961  0.1691 -0.1166 -0.9909
  943MPD2    H713850   1.078   3.469   9.886  2.5790  1.6707  0.2447
  944MPD2     C13851   0.234   2.968  11.174  0.5473  0.3452 -0.7223
  944MPD2    C113852   0.162   2.885  11.257 -1.0470 -0.3327 -0.6558
  944MPD2    C213853   0.081   2.942  11.359  0.4999 -0.1546  0.5354
  944MPD2    C313854   0.079   3.071  11.395 -0.3666 -0.4658 -0.5843
  944MPD2    C413855   0.161   3.151  11.317 -0.2958  0.0971  0.4433
  944MPD2    C513856   0.228   3.100  11.203 -0.2000 -0.3819 -0.0399
  944MPD2     H13857   0.001   2.884  11.403 -0.7165 -1.3980 -3.3367
  944MPD2    H113858   0.174   3.257  11.330  0.5317 -0.1251  1.3752
  944MPD2    H213859   0.282   2.933  11.083 -0.8341 -1.4012 -0.7872
  944MPD2    H313860   0.269   3.178  11.141  0.2580 -2.0648 -1.8340
  944MPD2     N13861   4.729   3.117  11.501  0.7488 -0.0439 -0.1385
  944MPD2    H513862   4.679   3.045  11.554  0.1552  1.1930  0.9788
  944MPD2    N113863   0.151   2.755  11.209  0.8550 -0.0548 -0.0933
  944MPD2    H713864   0.201   2.744  11.122  0.7954 -0.8311 -0.0319
    1TMC1    C113865   3.646   2.878  14.762 -0.4643 -0.2703  0.0208
    1TMC1    C213866   3.637   2.857  14.623 -0.2161 -0.4345  0.2732
    1TMC1    C313867   3.594   2.737  14.575  0.0190 -0.2777  0.1853
    1TMC1    C413868   3.634   2.772  14.838  0.5746 -0.0433 -0.1084
    1TMC1    C513869   3.605   2.650  14.787 -0.6888 -0.1261  0.3323
    1TMC1    C613870   3.574   2.631  14.655  0.7971  0.0143  0.6735
    1TMC1     C13871   3.706   2.999  14.813 -0.6357  0.1909  0.6854
    1TMC1     O13872   3.773   2.992  14.913 -0.1812 -0.0857 -0.1126
    1TMC1     H13873   3.675   2.937  14.560  0.5835  0.4422  1.8761
    1TMC1    H113874   3.642   2.780  14.946  1.0971 -1.2246 -0.0625
    1TMC1    H213875   3.567   2.538  14.599 -0.2509  0.0067  0.8202
    1TMC1    C713876   3.566   2.550  14.878  0.4732 -0.0547  0.9332
    1TMC1    C813877   3.595   2.714  14.430  0.3286 -0.6419  0.0418
    1TMC1    O113878   3.609   2.521  14.990 -0.1410  0.0735 -0.5319
    1TMC1    O213879   3.605   2.605  14.374  0.0690 -0.5309 -0.1418
    1TMC1    O313880   3.469   2.479  14.813  0.3358 -0.7526 -0.2811
    1TMC1    H313881   3.426   2.526  14.739  1.9289  2.7666  1.0242
    1TMC1    O513882   3.579   2.838  14.372  0.3709 -0.4229  0.2164
    1TMC1    H513883   3.566   2.908  14.440  3.7280 -1.1473  1.6195
    2MPD2     C13884   3.669   3.510  14.899 -0.1581  0.0562  0.1966
    2MPD2    C113885   3.587   3.471  14.797  0.3629  0.1158 -0.1523
    2MPD2    C213886   3.592   3.342  14.745 -0.6214 -0.2962 -0.2548
    2MPD2    C313887   3.664   3.239  14.805  0.6108 -0.4492 -0.9679
    2MPD2    C413888   3.750   3.281  14.906  0.0703 -0.1927  0.3646
    2MPD2    C513889   3.753   3.411  14.943 -0.1691 -0.9098  0.8085
    2MPD2     H13890   3.530   3.315  14.660  0.3977 -1.9903 -0.4658
    2MPD2    H113891   3.810   3.214  14.966 -3.2733 -3.0180  0.5624
    2MPD2    H213892   3.684   3.613  14.930 -0.9528  0.6133 -1.2639
    2MPD2    H313893   3.827   3.434  15.019 -0.6890  3.5317 -0.0248
    2MPD2     N13894   3.652   3.107  14.753  0.0781 -0.6521 -0.0227
    2MPD2    H513895   3.593   3.095  14.671 -1.8147 -1.2387  1.4401
    2MPD2    N113896   3.503   3.578  14.740 -1.3310  0.5381  0.1934
    2MPD2    H713897   3.518   3.671  14.777  0.2297  0.6625 -0.7664
    3TMC2    C113898   3.369   3.691  14.580 -0.1284 -0.0368  0.2183
    3TMC2    C213899   3.416   3.810  14.637 -0.0706  0.0962 -0.5632
    3TMC2    C313900   3.404   3.922  14.562  0.6479  0.1933 -1.0576
    3TMC2    C413901   3.307   3.681  14.457  0.4397  0.1020 -0.7636
    3TMC2    C513902   3.310   3.802  14.385 -0.3211 -0.3325 -0.8491
    3TMC2    C613903   3.359   3.929  14.434  0.1328  0.0052  0.0111
    3TMC2     C13904   3.417   3.559  14.634 -0.8013 -0.0824 -0.0571
    3TMC2     O13905   3.383   3.460  14.572 -0.5820  0.1148  0.0705
    3TMC2     H13906   3.435   3.820  14.744 -1.0191 -0.6004 -0.3334
    3TMC2    H113907   3.272   3.587  14.418  3.1662 -0.8191 -1.0029
    3TMC2    H213908   3.369   4.019  14.374  1.3737  0.3413  0.7239
    3TMC2    C713909   3.234   3.793  14.267 -0.4718  0.8332 -0.0200
    3TMC2    C813910   3.448   4.046  14.626  0.6430  0.2053 -0.0994
    3TMC2    O113911   3.229   3.682  14.215 -0.4859 -0.5347 -0.8984
    3TMC2    O213912   3.514   4.054  14.728  0.0567  0.0113 -0.0701
    3TMC2    O513913   3.394   4.153  14.557 -0.0560 -0.0601 -0.6459
    3TMC2    H513914   3.326   4.119  14.495 -0.1399  0.5159 -0.8673
    4TMC2    C113915   2.616   4.552  13.985 -0.1315  0.4704 -0.6887
    4TMC2    C213916   2.615   4.583  13.855 -0.1761  0.1139  0.3874
    4TMC2    C313917   2.686   4.503  13.773 -0.3132  0.0080  0.7617
    4TMC2    C413918   2.709   4.466  14.041  0.1846 -0.7581  0.1267
    4TMC2    C513919   2.792   4.393  13.955  0.3119 -0.7404 -0.1426
    4TMC2    C613920   2.780   4.418  13.818  0.7021  0.0615  0.0032
    4TMC2     C13921   2.509   4.601  14.070 -0.2010  0.1330  0.6357
    4TMC2     O13922   2.521   4.564  14.187  0.7641  0.0078 -0.0437
    4TMC2     H13923   2.562   4.665  13.807  1.4061  0.8089 -0.1780
    4TMC2    H113924   2.718   4.444  14.147  2.4970 -0.4671 -0.0092
    4TMC2    H213925   2.849   4.371  13.749 -0.3772 -0.6878 -0.5690
    4TMC2    C713926   2.873   4.297  14.017  0.0738  0.0784 -0.2018
    4TMC2    C813927   2.708   4.531  13.636 -0.1987 -0.0831 -0.6638
    4TMC2    O113928   2.888   4.300  14.138 -0.1155 -0.3441 -0.7350
    4TMC2    O213929   2.814   4.527  13.578 -0.3791 -0.3880 -0.0664
    4TMC2    O513930   2.591   4.571  13.591  0.2106  0.1246 -0.4987
    4TMC2    H513931   2.522   4.537  13.652  1.2544  0.0737  0.6485
    5MPD2     C13932   2.025   0.048  14.146 -0.2147 -0.1046 -0.4094
    5MPD2    C113933   2.055   0.037  14.009 -0.1949 -0.8144 -0.1205
    5MPD2    C213934   2.179   4.732  13.975 -0.1972  0.2660  0.1446
    5MPD2    C313935   2.272   4.685  14.064 -0.3269 -0.4172  0.2248
    5MPD2    C413936   2.241   4.709  14.198  0.1625 -0.6055 -0.3018
    5MPD2    C513937   2.121   0.029  14.236 -0.7594  0.3093  0.2650
    5MPD2     H13938   2.220   0.000  13.875  0.7194 -0.5113  0.4902
    5MPD2    H113939   2.310   4.674  14.274  1.0028  0.5186 -0.5328
    5MPD2    H213940   1.931   0.084  14.186 -0.7310 -1.7279 -0.1718
    5MPD2    H313941   2.101   0.053  14.339 -1.6355 -0.1638  0.2029
    5MPD2     N13942   2.400   4.643  14.001 -0.5544 -0.8422  0.2182
    5MPD2    H513943   2.406   4.634  13.900  0.1737  1.5555  0.0492
    5MPD2    N113944   1.956   0.092  13.915  0.5036  0.0360  0.2080
    5MPD2    H713945   1.869   0.132  13.951  0.7335  0.4482  0.3048
    6MPD1     C13946   1.124   1.256  12.534  0.0312 -0.1937  0.7001
    6MPD1    C113947   1.238   1.194  12.491 -0.3486  0.4642  0.4674
    6MPD1    C213948   1.298   1.105  12.574 -1.2614 -0.4094  0.5794
    6MPD1    C313949   1.226   1.054  12.684  0.5669  0.1111 -0.8720
    6MPD1    C413950   1.109   1.115  12.724 -0.2680 -0.4370  0.4093
    6MPD1    C513951   1.055   1.216  12.641  0.6762  0.4386  0.3896
    6MPD1     H13952   1.403   1.083  12.557 -1.2250 -1.4076  2.0272
    6MPD1    H113953   1.051   1.090  12.813 -1.8645  1.1899 -0.1872
    6MPD1    H213954   1.079   1.337  12.479  1.0338  0.0250  0.2031
    6MPD1    H313955   0.958   1.262  12.656 -0.2264 -0.8981 -1.3595
    6MPD1     N13956   1.280   0.966  12.775  0.6468 -0.1969  0.2668
    6MPD1    H513957   1.233   0.955  12.864 -0.1440  1.1367  0.0108
    6MPD1    N113958   1.310   1.243  12.377 -0.5094 -0.4617 -0.3414
    6MPD1    H613959   1.363   1.161  12.350 -2.4844 -1.7046 -0.4838
    6MPD1    H713960   1.245   1.270  12.303 -0.3035  0.7499 -0.0788
    7MPD2     C13961   1.360   0.720  13.511 -0.0184  0.4017 -0.2792
    7MPD2    C113962   1.398   0.616  13.428 -0.4367  0.4862 -0.5446
    7MPD2    C213963   1.438   0.496  13.483  1.0069  0.1995 -0.1504
    7MPD2    C313964   1.438   0.476  13.615 -0.2512  0.0990  0.2118
    7MPD2    C413965   1.394   0.577  13.698 -0.5360  0.8267  0.3641
    7MPD2    C513966   1.359   0.700  13.648 -0.3983  0.1904  0.8229
    7MPD2     H13967   1.462   0.424  13.406 -0.2546  0.9485 -1.2425
    7MPD2    H113968   1.381   0.558  13.804  2.2475 -2.7055  0.0800
    7MPD2    H213969   1.325   0.816  13.476 -2.3158  0.3359  1.8066
    7MPD2    H313970   1.316   0.777  13.711  2.4515  2.0628  0.4814
    7MPD2     N13971   1.492   0.352  13.654 -0.2116 -0.2343 -0.4246
    7MPD2    H513972   1.514   0.302  13.569  0.4668 -1.1097  0.2649
    7MPD2    N113973   1.406   0.630  13.288  0.6854 -0.1931 -0.9686
    7MPD2    H713974   1.431   0.549  13.231  0.1623 -1.1215  0.1290
    8TMC3    C113975   1.614   0.184  13.762  0.5321  0.0943 -0.2138
    8TMC3    C213976   1.742   0.177  13.814  0.0849 -0.0918  0.3662
    8TMC3    C313977   1.844   0.141  13.727 -0.6919  0.8751  0.0441
    8TMC3    C413978   1.589   0.124  13.643 -0.2393  0.2185 -0.2852
    8TMC3    C513979   1.689   0.086  13.559  0.2155 -0.9873 -0.8256
    8TMC3    C613980   1.824   0.103  13.594  0.5927  0.3459 -0.3045
    8TMC3     C13981   1.534   0.306  13.778  0.6931  0.4307 -0.0980
    8TMC3     O13982   1.544   0.372  13.879 -0.5394 -0.2519  0.1601
    8TMC3     H13983   1.753   0.225  13.910 -1.3131 -1.9043  1.4204
    8TMC3    H113984   1.489   0.107  13.605  0.1327 -0.6270 -0.9006
    8TMC3    H213985   1.902   0.084  13.522  1.3845  3.4121 -0.2706
    8TMC3    C713986   1.648   0.112  13.423  1.3095  0.1946 -0.2340
    8TMC3    C813987   1.965   0.089  13.780  0.0269 -0.5730  0.9043
    8TMC3    O113988   1.551   0.191  13.411 -0.4173  0.4993  0.0303
    8TMC3    O213989   2.030   0.021  13.708 -0.3093  0.0400  0.6798
    9TMC3    C113990   1.406   0.777  12.845  0.6203 -0.3548 -0.4029
    9TMC3    C213991   1.488   0.673  12.814  0.0566  1.3797 -0.1316
    9TMC3    C313992   1.536   0.593  12.910  0.4131  0.2077 -0.2107
    9TMC3    C413993   1.375   0.799  12.977 -0.2750 -0.0405  0.6226
    9TMC3    C513994   1.428   0.714  13.074 -0.1256 -0.1511 -0.2617
    9TMC3    C613995   1.515   0.615  13.047 -0.2792 -0.5023 -0.1603
    9TMC3     C13996   1.377   0.877  12.742 -0.2014  0.0727  0.4162
    9TMC3     O13997   1.440   0.867  12.636  0.6320  0.0827  0.2076
    9TMC3     H13998   1.505   0.637  12.713  0.2236 -0.5493  0.5756
    9TMC3    H113999   1.298   0.873  12.998 -2.8221 -2.1130 -1.3723
    9TMC3    H214000   1.571   0.559  13.121  1.8981  0.3160 -1.2024
    9TMC3    C714001   1.391   0.743  13.211 -0.1525  0.3675  0.2007
    9TMC3    C814002   1.612   0.478  12.877 -0.2677 -0.4025 -0.0512
    9TMC3    O114003   1.350   0.857  13.237 -0.4487 -0.4703  0.0520
    9TMC3    O214004   1.672   0.467  12.769  0.0865  0.3972  0.2440
   10MPD2     C14005   1.875   0.101  13.121 -1.2485 -0.0765 -0.1820
   10MPD2    C114006   1.760   0.125  13.196 -0.2519  0.1499  0.1437
   10MPD2    C214007   1.667   0.214  13.144  0.0655 -0.0368 -0.8261
   10MPD2    C314008   1.687   0.275  13.018  0.3565 -0.1902 -0.5751
   10MPD2    C414009   1.796   0.239  12.940 -0.5340  0.4546 -0.3431
   10MPD2    C514010   1.891   0.150  12.992 -0.1886  0.6914  0.2300
   10MPD2     H14011   1.579   0.252  13.194  1.4526 -0.0270  1.6634
   10MPD2    H114012   1.811   0.282  12.842  0.8285  0.7105 -0.0308
   10MPD2    H214013   1.951   0.034  13.158 -1.0913 -1.1890 -2.5304
   10MPD2    H314014   1.981   0.129  12.934 -1.1283 -1.5259 -0.4085
   10MPD2     N14015   1.607   0.386  12.982 -0.0122  0.0464  0.3796
   10MPD2    H514016   1.551   0.424  13.058 -1.2729 -0.8268 -0.0974
   10MPD2    N114017   1.751   0.082  13.327  0.6553 -0.2735 -0.0944
   10MPD2    H714018   1.827   0.019  13.352  0.0566 -1.6512 -1.7523
   11MPD2     C14019   3.126   3.838  13.999  0.4933  1.0250  0.0167
   11MPD2    C114020   3.117   3.928  14.106  0.0610  0.0379 -0.2129
   11MPD2    C214021   3.052   4.048  14.080 -0.2604 -0.4393 -0.8675
   11MPD2    C314022   2.999   4.080  13.956  0.3142 -0.3931  0.3388
   11MPD2    C414023   3.007   3.988  13.853  1.1979 -0.5791 -0.1460
   11MPD2    C514024   3.086   3.882  13.876  0.1328 -0.6026  0.5692
   11MPD2     H14025   3.052   4.126  14.155 -0.3805  1.5081 -2.8933
   11MPD2    H114026   2.968   4.011  13.754 -0.3868 -0.2983  0.5428
   11MPD2    H214027   3.177   3.742  13.997 -2.7604 -0.7235  0.7038
   11MPD2    H314028   3.095   3.813  13.793 -2.2153  0.1411 -0.3083
   11MPD2     N14029   2.928   4.204  13.929 -0.1688  0.2607  0.7863
   11MPD2    H514030   2.894   4.201  13.834  1.3345  2.6439  0.1812
   11MPD2    N114031   3.181   3.913  14.228  0.0980 -0.6828 -0.6318
   11MPD2    H714032   3.202   3.997  14.281  1.2713  0.1463 -2.3941
    1MPD1     C14033   1.853   0.732  16.852  0.4899 -0.2026 -0.1568
    1MPD1    C114034   1.926   0.849  16.838 -0.4457  0.6801 -0.4414
    1MPD1    C214035   2.039   0.858  16.925 -0.0929  0.0265 -0.1666
    1MPD1    C314036   2.071   0.763  17.021 -0.2018 -0.0700 -0.5816
    1MPD1    C414037   1.992   0.641  17.028  0.1114 -0.3672 -0.6713
    1MPD1    C514038   1.888   0.632  16.940  0.0749 -0.2932  0.2188
    1MPD1     H14039   2.115   0.927  16.889  0.1336 -1.2440 -2.1036
    1MPD1    H114040   2.007   0.565  17.104  0.1283  0.9527  0.6506
    1MPD1    H214041   1.772   0.709  16.783 -0.2336  0.3112  0.5255
    1MPD1    H314042   1.817   0.550  16.945 -0.4930  0.2143  0.4587
    1MPD1     N14043   2.172   0.777  17.121 -0.6090  0.6400 -0.5143
    1MPD1    H514044   2.181   0.696  17.182  0.6587  0.1349 -1.3733
    1MPD1    N114045   1.902   0.934  16.727  0.7490 -0.1090  0.4571
    1MPD1    H614046   1.924   1.029  16.758  0.6560 -0.2835  1.0387
    1MPD1    H714047   1.802   0.934  16.706  1.2223 -2.9052 -1.8641
    2MPD1     C14048   2.254   0.303   0.098 -0.3902  0.2112  0.0722
    2MPD1    C114049   2.216   0.292  17.705 -0.3429 -0.3373  0.6878
    2MPD1    C214050   2.233   0.400  17.614  0.6767  0.6366  0.1125
    2MPD1    C314051   2.288   0.518  17.661 -0.5606 -0.6065 -0.1842
    2MPD1    C414052   2.320   0.525   0.055 -0.1440 -0.9230  0.7040
    2MPD1    C514053   2.303   0.427   0.141  0.3165  0.3761  0.6953
    2MPD1     H14054   2.222   0.384  17.508  1.6561  2.1719 -0.2219
    2MPD1    H114055   2.354   0.616   0.103  0.7898 -1.5891  1.3005
    2MPD1    H214056   2.247   0.220   0.167 -3.1080 -0.7288 -1.3779
    2MPD1    H314057   2.346   0.445   0.239  3.7300 -0.1685 -0.6738
    2MPD1     N14058   2.307   0.621  17.569  0.6562 -0.1893  0.1087
    2MPD1    H514059   2.269   0.601  17.477  0.5873  2.2759 -0.3885
    2MPD1    N114060   2.175   0.159  17.655 -0.0763  0.2390 -0.2964
    2MPD1    H614061   2.112   0.171  17.575  0.1642  0.2245 -0.4897
    2MPD1    H714062   2.133   0.112  17.735  0.4209  1.1154  0.4752
    3TMC3    C114063   2.383   0.827  17.479  0.0205 -0.1357 -0.6927
    3TMC3    C214064   2.489   0.913  17.477  0.1627  0.3887 -0.2012
    3TMC3    C314065   2.526   0.971  17.355  0.5761  0.5041 -0.0705
    3TMC3    C414066   2.303   0.811  17.360  0.2250 -0.3041  0.4294
    3TMC3    C514067   2.338   0.887  17.249  0.1748 -0.4405  0.3566
    3TMC3    C614068   2.450   0.961  17.239 -0.3603  0.3297  0.0583
    3TMC3     C14069   2.371   0.740  17.595  0.2530  0.3573 -0.3369
    3TMC3     O14070   2.438   0.772  17.695  0.2196  0.5855  0.4292
    3TMC3     H14071   2.548   0.939  17.564  0.1389 -1.1307  0.2705
    3TMC3    H114072   2.211   0.754  17.364 -0.0622  0.2149  1.1790
    3TMC3    H214073   2.486   1.005  17.146 -1.5872 -0.3732 -0.7527
    3TMC3    C714074   2.254   0.891  17.128  0.4265 -0.4914 -0.0114
    3TMC3    C814075   2.645   1.061  17.358 -0.5924  0.2153 -0.4149
    3TMC3    O114076   2.263   0.989  17.056  0.2166  0.4400  0.1434
    3TMC3    O214077   2.739   1.029  17.434  0.0617 -0.7775  0.2804
    4MPD1     C14078   2.950   1.432  17.206 -0.1795 -0.7201 -0.3107
    4MPD1    C114079   2.872   1.396  17.099 -0.2870  0.1976  0.8363
    4MPD1    C214080   2.764   1.318  17.124  0.2569  0.0973 -0.1993
    4MPD1    C314081   2.740   1.268  17.252  0.0039  0.1696  0.7069
    4MPD1    C414082   2.823   1.300  17.358 -0.9708 -0.9217 -0.0992
    4MPD1    C514083   2.928   1.381  17.328  0.6392  0.2686 -0.0130
    4MPD1     H14084   2.718   1.276  17.036  0.8422  3.0611 -1.9199
    4MPD1    H114085   2.827   1.257  17.457 -0.6042  0.4510  0.4886
    4MPD1    H214086   3.035   1.499  17.197  0.7512 -1.7549  0.7995
    4MPD1    H314087   2.995   1.409  17.409  1.2485  0.2352 -0.5061
    4MPD1     N14088   2.645   1.160  17.267 -0.2188  0.2180 -0.3095
    4MPD1    H514089   2.571   1.155  17.197 -1.7730  2.1998  1.1971
    4MPD1    N114090   2.897   1.451  16.971 -0.0467 -0.2642  0.0745
    4MPD1    H614091   2.853   1.390  16.902  0.7269  0.2577 -0.8643
    4MPD1    H714092   2.997   1.456  16.952 -0.4192 -2.3847 -2.5164
    1TCq1    O114093   2.782   0.558  11.776 -0.7664 -0.5564 -0.0624
    1TCq1    C114094   2.718   0.524  11.891 -0.0005 -0.0651  1.0210
    1TCq1    O214095   2.745   0.556  12.007  0.4433 -0.3478  0.2311
    1TCq1    C214096   2.579   0.486  11.864 -0.3162  0.5503 -0.1346
    1TCq1    C314097   2.553   0.416  11.751  0.4804  0.7605 -0.4062
    1TCq1    C414098   2.427   0.399  11.705 -0.1082  0.2029 -0.0540
    1TCq1    C514099   2.327   0.452  11.784 -0.3330 -0.1511  0.2553
    1TCq1    C614100   2.356   0.519  11.897 -0.0278  0.4887  0.5710
    1TCq1    C714101   2.485   0.541  11.947 -0.3684  0.1897 -0.1360
    1TCq1    C814102   2.248   0.589  11.965 -0.2371 -0.3188 -0.2061
    1TCq1    O414103   2.248   0.599  12.086  0.0781 -0.5717 -0.1399
    1TCq1    C914104   2.400   0.273  11.647 -0.1346  0.5657  0.7184
    1TCq1    O514105   2.499   0.207  11.602  0.3552  0.0583 -0.5882
    1TCq1    O614106   2.283   0.222  11.665  0.4179 -0.3514  0.1066
    1TCq1    H114107   2.725   0.546  11.697 -3.3154  0.3546  1.6577
    1TCq1    H214108   2.637   0.359  11.712 -1.8157 -2.3329 -0.8198
    1TCq1    H314109   2.225   0.416  11.773 -0.0498 -0.6916 -0.5758
    1TCq1    H414110   2.512   0.601  12.033  1.8503  0.5637 -1.0831
    2MPD1     C14111   1.759   0.765  11.947 -0.3526 -0.2845 -0.2211
    2MPD1    C114112   1.807   0.748  11.817  0.2032  0.3027  0.7564
    2MPD1    C214113   1.941   0.701  11.803 -0.4945 -0.3142  0.0175
    2MPD1    C314114   2.024   0.682  11.908 -0.6088 -0.2043 -0.2668
    2MPD1    C414115   1.981   0.707  12.034 -0.4644 -0.3084 -0.4329
    2MPD1    C514116   1.848   0.748  12.052 -0.0254  0.5478  0.0835
    2MPD1     H14117   1.971   0.666  11.705 -2.4253 -0.6710 -0.4535
    2MPD1    H114118   2.050   0.710  12.118 -2.2501  1.0536  0.9848
    2MPD1    H214119   1.655   0.792  11.953 -0.7808 -1.8836 -0.3305
    2MPD1    H314120   1.812   0.759  12.153  2.9579  0.6888  1.1095
    2MPD1     N14121   2.146   0.628  11.871 -0.1592 -0.0427 -0.0197
    2MPD1    H514122   2.170   0.619  11.773  3.5670  1.1200  0.7652
    2MPD1    N114123   1.720   0.766  11.709 -0.2427  0.6518  0.9907
    2MPD1    H614124   1.769   0.806  11.629  1.3026  0.9469  2.0863
    2MPD1    H714125   1.641   0.824  11.739 -0.3612  0.6071  0.7717
    1TMC1    C114126   4.577   3.822  17.299  0.1899 -0.2258  0.3209
    1TMC1    C214127   4.619   3.713  17.359 -0.0286  0.4237 -0.2369
    1TMC1    C314128   4.702   3.629  17.285 -0.2224 -0.6057 -0.2534
    1TMC1    C414129   4.609   3.856  17.168  0.2846  0.5965  0.5275
    1TMC1    C514130   4.686   3.772  17.096 -0.5758  0.6583 -0.6644
    1TMC1    C614131   0.005   3.662  17.160 -0.6084 -0.3158  0.2163
    1TMC1     C14132   4.491   3.913  17.370  0.7740  0.9533 -0.1661
    1TMC1     O14133   4.478   3.891  17.488 -0.2073 -0.1877 -0.0379
    1TMC1     H14134   4.591   3.686  17.460 -2.1562  1.3509 -0.5831
    1TMC1    H114135   4.604   3.953  17.120 -1.2637  0.5727  0.6422
    1TMC1    H214136   0.093   3.622  17.112 -0.5225 -0.9491  0.8873
    1TMC1    C714137   4.730   3.791  16.959 -0.0213 -0.4763  0.3925
    1TMC1    C814138   0.034   3.541  17.373  0.9073  0.1346 -0.3581
    1TMC1    O114139   0.012   3.901  16.909  0.0538 -0.1102 -0.4827
    1TMC1    O214140   0.026   3.552  17.493  0.0325  0.0986  0.0389
    1TMC1    O314141   4.736   3.676  16.898 -0.0175  0.2621  0.1476
    1TMC1    H314142   0.001   3.597  16.957  0.0996 -0.5778 -0.9809
    1TMC1    O514143   0.083   3.442  17.302  0.1279 -0.0981  0.0856
    1TMC1    H514144   0.074   3.448  17.204 -1.3615 -0.0039  0.2246
    2MPD1     C14145   4.157   4.297  17.448 -0.7585  0.5968 -0.4399
    2MPD1    C114146   4.169   4.274  17.311 -0.1084  0.5713 -0.3086
    2MPD1    C214147   4.266   4.186  17.264  0.4901 -0.0482  0.5139
    2MPD1    C314148   4.338   4.113  17.348 -0.3941  0.2551  0.4713
    2MPD1    C414149   4.318   4.137  17.487 -0.0609  0.5311  0.1698
    2MPD1    C514150   4.231   4.231  17.539  0.7394  0.1524 -0.0296
    2MPD1     H14151   4.279   4.154  17.161  1.2772 -0.4167  0.7260
    2MPD1    H114152   4.391   4.103  17.559 -0.0252 -1.2800 -0.7180
    2MPD1    H214153   4.085   4.365  17.493 -1.8873 -2.5435  2.4631
    2MPD1    H314154   4.217   4.249  17.645 -1.7504  0.5056 -0.4166
    2MPD1     N14155   4.421   4.008  17.299  0.1814 -0.4495 -0.1231
    2MPD1    H514156   4.443   4.009  17.200  0.2199 -2.0706 -0.1199
    2MPD1    N114157   4.109   4.357  17.218  0.1697 -0.2659  0.3181
    2MPD1    H614158   4.028   4.408  17.255 -1.7370 -3.4125  0.4426
    2MPD1    H714159   4.068   4.299  17.145  0.7649 -1.4113  0.9144
    1MPD1     C14160   3.247   1.394  11.329 -0.4561  0.1839  0.1138
    1MPD1    C114161   3.362   1.467  11.350  0.0602  0.2444  0.1211
    1MPD1    C214162   3.438   1.448  11.462  0.3910  0.2332  0.2722
    1MPD1    C314163   3.398   1.362  11.560  0.0252 -0.1460  0.0805
    1MPD1    C414164   3.280   1.300  11.551 -0.0697  0.0053  0.5924
    1MPD1    C514165   3.210   1.311  11.431 -0.0573  0.3741  0.3016
    1MPD1     H14166   3.528   1.506  11.480  1.0485 -0.4743 -0.7741
    1MPD1    H114167   3.247   1.221  11.617 -0.4071 -0.3786 -0.0384
    1MPD1    H214168   3.193   1.385  11.236  1.4430 -0.7518 -0.8966
    1MPD1    H314169   3.119   1.256  11.410 -0.1294  0.3944  0.5562
    1MPD1     N14170   3.483   1.341  11.670  0.4527 -0.2253  0.6793
    1MPD1    H514171   3.567   1.397  11.674  0.7148 -0.6230  0.7344
    1MPD1    N114172   3.409   1.544  11.242 -0.0212 -0.0316  0.0911
    1MPD1    H614173   3.474   1.613  11.278 -3.0247  2.3600  0.8790
    1MPD1    H714174   3.336   1.594  11.193 -0.4473  0.1708  0.9241
    2MPD1     C14175   4.027   1.573  11.364 -0.3600  0.2682 -0.0723
    2MPD1    C114176   4.044   1.615  11.233  0.5359 -0.7595 -0.5915
    2MPD1    C214177   4.028   1.521  11.134  0.6950  0.2220 -0.3468
    2MPD1    C314178   3.972   1.396  11.162  0.0476  0.2958 -0.6034
    2MPD1    C414179   3.935   1.366  11.290  0.4762  0.2622 -0.7809
    2MPD1    C514180   3.963   1.454  11.386  0.3580 -0.4448 -0.5283
    2MPD1     H14181   4.058   1.547  11.033 -1.3464  1.0191 -0.7502
    2MPD1    H114182   3.901   1.268  11.319 -0.4596  0.0200 -2.6876
    2MPD1    H214183   4.043   1.631  11.454 -2.7540  1.8633 -0.6615
    2MPD1    H314184   3.937   1.434  11.489 -0.5417  0.6343 -0.5441
    2MPD1     N14185   3.950   1.293  11.059  0.0666 -0.5196  0.0385
    2MPD1    H514186   3.932   1.199  11.092  0.0579  0.2294  2.1614
    2MPD1    N114187   4.109   1.737  11.210 -0.5750  0.3710  0.4874
    2MPD1    H614188   4.109   1.814  11.276 -0.0818 -0.4353  1.4236
    2MPD1    H714189   4.098   1.772  11.115 -2.1315  0.1813  0.5929
    3MPD1     C14190   3.365   1.341  10.254  0.2024 -0.4544  0.1668
    3MPD1    C114191   3.462   1.431  10.295  0.2876  0.7274  0.9672
    3MPD1    C214192   3.566   1.386  10.381  0.1780 -0.7056  0.7843
    3MPD1    C314193   3.579   1.254  10.425  0.5772 -0.4615  0.3489
    3MPD1    C414194   3.475   1.176  10.376  0.1962 -0.9007  0.3844
    3MPD1    C514195   3.377   1.216  10.293 -0.3018  0.4128  0.4891
    3MPD1     H14196   3.627   1.465  10.423  0.7077 -1.2875  1.0985
    3MPD1    H114197   3.467   1.073  10.408  1.1447 -1.8157 -2.3446
    3MPD1    H214198   3.282   1.371  10.190 -1.0814 -0.8433  1.6569
    3MPD1    H314199   3.299   1.142  10.282 -0.6800  1.0286 -0.9722
    3MPD1     N14200   3.679   1.216  10.518  0.1560  0.6816  0.3274
    3MPD1    H514201   3.757   1.280  10.531  0.4444  0.3938  0.0299
    3MPD1    N114202   3.469   1.561  10.242 -0.1816 -0.1846 -0.4769
    3MPD1    H614203   3.532   1.617  10.299  1.2148 -0.4307 -1.7888
    3MPD1    H714204   3.373   1.596  10.252 -1.3517 -2.9905 -1.8351
    4MPD2     C14205   4.134   1.239  11.620 -0.0362  0.3240  0.1214
    4MPD2    C114206   4.084   1.155  11.715 -0.0506 -0.1387 -0.5192
    4MPD2    C214207   4.124   1.019  11.718  0.5796  0.8087  0.2423
    4MPD2    C314208   4.206   0.973  11.616  0.3320  0.3526  0.2474
    4MPD2    C414209   4.258   1.054  11.525 -0.0379 -0.4440  0.4232
    4MPD2    C514210   4.222   1.186  11.528 -0.9721 -0.0939  0.3418
    4MPD2     H14211   4.088   0.947  11.791  0.0749  2.0808  1.2486
    4MPD2    H114212   4.305   1.016  11.435 -0.0282 -1.4906  0.8738
    4MPD2    H214213   4.111   1.344  11.607  1.0231  0.5932  0.4340
    4MPD2    H314214   4.270   1.250  11.455  0.7583 -0.6966  0.9586
    4MPD2     N14215   4.237   0.833  11.605  0.3317 -1.1842  0.5754
    4MPD2    H514216   4.299   0.822  11.526  2.0039 -1.0482  1.8882
    4MPD2    N114217   3.988   1.190  11.814 -0.5697  0.5828 -0.7610
    4MPD2    H714218   3.955   1.116  11.875 -0.7032  1.6451  0.4421
    5TMC3    C114219   3.806   1.301  11.910  0.3611  0.3330 -0.4291
    5TMC3    C214220   3.689   1.329  11.845  0.0975 -0.3053  0.9260
    5TMC3    C314221   3.586   1.240  11.859 -0.0794  0.5822  0.9692
    5TMC3    C414222   3.804   1.193  12.000  0.0795  0.0189  0.7027
    5TMC3    C514223   3.707   1.101  12.007 -0.3258 -0.6105 -1.0310
    5TMC3    C614224   3.586   1.132  11.948 -0.6566  0.2246  0.4117
    5TMC3     C14225   3.913   1.302  11.815 -0.0168  0.0452  0.0604
    5TMC3     O14226   3.919   1.404  11.744  0.2031 -0.2839 -0.1649
    5TMC3     H14227   3.686   1.413  11.776 -3.7738 -0.7467  0.5308
    5TMC3    H114228   3.901   1.167  12.042 -0.2720  2.9851  3.3361
    5TMC3    H214229   3.503   1.064  11.961 -0.9098 -0.2929 -3.8833
    5TMC3    C714230   3.753   0.972  11.971 -0.0114 -0.0647 -0.3645
    5TMC3    C814231   3.474   1.242  11.765 -0.0095 -0.5675 -0.3921
    5TMC3    O114232   3.861   0.973  11.919 -0.5226 -0.1680  0.3382
    5TMC3    O214233   3.406   1.141  11.763 -0.4187 -0.3956 -0.0398
    6TMC3    C114234   3.924   1.191  10.847  0.0644 -0.8972  0.2209
    6TMC3    C214235   3.838   1.211  10.742  0.1777  0.9152  0.0769
    6TMC3    C314236   3.790   1.094  10.680  0.8268  0.2399  0.1260
    6TMC3    C414237   3.955   1.073  10.901 -0.9485  0.2997 -0.3925
    6TMC3    C514238   3.895   0.964  10.848  0.7705  0.3807  1.3057
    6TMC3    C614239   3.812   0.973  10.741 -0.4921 -0.8837  0.5705
    6TMC3     C14240   3.968   1.307  10.923 -0.1957 -1.1004  0.1187
    6TMC3     O14241   3.983   1.411  10.856 -0.2685  0.7398  0.1764
    6TMC3     H14242   3.801   1.308  10.711 -0.8522  0.3884 -0.3474
    6TMC3    H114243   4.030   1.071  10.979 -0.1250 -0.7646 -1.2151
    6TMC3    H214244   3.762   0.882  10.710 -1.6010  0.2083 -0.9166
    6TMC3    C714245   3.925   0.840  10.911 -0.0868 -0.5358  0.0213
    6TMC3    C814246   3.679   1.106  10.594 -0.4569  0.0574 -0.3288
    6TMC3    O114247   4.046   0.823  10.932  0.1696 -0.1451  0.0643
    6TMC3    O214248   3.595   1.015  10.580 -0.8349 -0.1031 -0.2477
    7MPD2     C14249   3.674   0.500  11.786 -0.4142  0.5449 -0.1635
    7MPD2    C114250   3.788   0.573  11.793 -0.5486  0.0271 -0.3036
    7MPD2    C214251   3.783   0.703  11.845 -0.5594 -0.2634  0.3445
    7MPD2    C314252   3.666   0.758  11.891  0.2803 -0.7182  0.0053
    7MPD2    C414253   3.552   0.675  11.892 -0.2723 -0.2536 -0.4278
    7MPD2    C514254   3.560   0.550  11.844  0.2860  0.1851  0.5041
    7MPD2     H14255   3.874   0.761  11.848 -0.4670 -0.5110  2.0513
    7MPD2    H114256   3.454   0.715  11.912  0.1157  0.6473 -0.3190
    7MPD2    H214257   3.674   0.399  11.745 -0.1185  1.1867 -1.7376
    7MPD2    H314258   3.468   0.493  11.838 -1.2415  2.7299 -0.3356
    7MPD2     N14259   3.652   0.879  11.960  0.5538 -0.3637 -0.2168
    7MPD2    H514260   3.561   0.901  12.000  0.8605 -0.1475  0.3634
    7MPD2    N114261   3.914   0.523  11.752 -0.1105 -0.0171  0.6003
    7MPD2    H714262   3.983   0.597  11.756  0.0742 -0.2112  1.0118
    8TMC3    C114263   4.073   0.399  11.658  0.2387  0.6850 -1.0368
    8TMC3    C214264   4.058   0.385  11.525 -0.4920 -0.5494  0.4205
    8TMC3    C314265   4.123   0.479  11.441  0.2359 -0.0715 -0.5932
    8TMC3    C414266   4.149   0.497  11.708  0.2541  0.6555  0.4137
    8TMC3    C514267   4.207   0.597  11.627 -0.8028 -0.3653 -0.2214
    8TMC3    C614268   4.194   0.583  11.495 -0.8137  0.5267 -0.0304
    8TMC3     C14269   3.954   0.398  11.728 -0.2970  0.1360 -0.1945
    8TMC3     O14270   3.885   0.299  11.737  0.4614  0.4665  0.8338
    8TMC3     H14271   3.995   0.309  11.480  1.1381 -1.4163 -0.3671
    8TMC3    H114272   4.157   0.497  11.816  0.9213 -0.6766  0.3696
    8TMC3    H214273   4.235   0.662  11.432  0.8045 -0.1553  0.1622
    8TMC3    C714274   4.183   0.731  11.683 -0.1311 -0.3348 -0.5528
    8TMC3    C814275   4.086   0.507  11.303 -0.3852 -0.7230  0.1668
    8TMC3    O114276   4.119   0.741  11.790  0.1635  0.0802 -0.1284
    8TMC3    O214277   4.160   0.566  11.225  0.2363 -0.2422 -0.0930
    9MPD2     C14278   3.760   0.422  11.162 -0.7944  0.2060  0.0776
    9MPD2    C114279   3.870   0.501  11.183 -0.0754 -0.0848 -0.5097
    9MPD2    C214280   3.895   0.603  11.097  0.3316  0.2052 -0.2110
    9MPD2    C314281   3.802   0.642  11.000  0.6588 -0.3597 -0.3964
    9MPD2    C414282   3.688   0.568  10.978  0.3353  0.2682 -0.4281
    9MPD2    C514283   3.673   0.449  11.061  0.2766  0.3987  0.6699
    9MPD2     H14284   3.989   0.656  11.105  0.8038 -0.5572 -0.6163
    9MPD2    H114285   3.610   0.603  10.911  1.1819  0.1897 -1.4566
    9MPD2    H214286   3.747   0.338  11.229  1.3200 -0.1523  0.0293
    9MPD2    H314287   3.574   0.406  11.065 -0.0377  0.9758 -1.2564
    9MPD2     N14288   3.810   0.766  10.935  0.1043 -0.6457  0.2853
    9MPD2    H514289   3.718   0.796  10.905  0.1685 -2.4456 -1.7227
    9MPD2    N114290   3.962   0.459  11.281  0.1692 -0.5128 -0.5959
    9MPD2    H714291   3.925   0.394  11.348 -0.0072 -0.8418 -1.0155
    1MPD1     C14292   3.643   4.140  15.040  0.3914  0.4136 -0.0202
    1MPD1    C114293   3.548   4.232  15.067  0.1521 -0.5152  0.3872
    1MPD1    C214294   3.578   4.360  15.049 -0.4510  0.1721  0.1351
    1MPD1    C314295   3.701   4.403  14.995  1.4054 -0.0313  0.5840
    1MPD1    C414296   3.791   4.302  14.956  0.0345 -0.1971  0.2201
    1MPD1    C514297   3.756   4.174  14.975  0.7412  0.7283  0.0743
    1MPD1     H14298   3.506   4.426  15.094  1.7449  1.7926  1.2919
    1MPD1    H114299   3.886   4.322  14.909  0.1062 -0.0097  0.4440
    1MPD1    H214300   3.634   4.034  15.060 -4.3230  1.0954  1.4032
    1MPD1    H314301   3.826   4.100  14.937  1.4394  1.2001  0.4281
    1MPD1     N14302   3.732   4.537  14.971  0.2243  0.1765 -0.1901
    1MPD1    H514303   3.825   4.556  14.937  1.3052 -2.6856  1.1572
    1MPD1    N114304   3.443   4.199  15.150  0.4878  0.0125 -0.5712
    1MPD1    H614305   3.360   4.258  15.139 -0.3146 -1.2048 -1.1046
    1MPD1    H714306   3.411   4.103  15.142 -2.6804  0.9631  0.6411
    2TMC2    C114307   3.876   0.191  14.969 -0.0201 -0.4630 -0.5178
    2TMC2    C214308   3.790   0.287  14.921 -0.2366 -0.1313 -0.3763
    2TMC2    C314309   3.664   0.252  14.878  0.3287 -0.2319 -0.1922
    2TMC2    C414310   3.824   0.068  14.975 -0.5803  0.2016  0.1199
    2TMC2    C514311   3.702   0.032  14.928 -0.3159  0.3319 -0.4631
    2TMC2    C614312   3.618   0.125  14.883  0.3541  0.5779  0.0149
    2TMC2     C14313   4.004   0.218  15.023 -0.3525 -0.0708  0.5665
    2TMC2     O14314   4.072   0.127  15.066  0.0059  0.2293 -0.4173
    2TMC2     H14315   3.832   0.386  14.904 -0.1417  0.0920  1.1406
    2TMC2    H114316   3.886   0.003  15.036 -1.9641 -0.0804  1.2328
    2TMC2    H214317   3.517   0.099  14.853  0.1006 -0.0855  1.4258
    2TMC2    C714318   3.641   4.641  14.974  0.5864  0.3751 -0.2261
    2TMC2    C814319   3.572   0.356  14.863  1.4738 -0.6030  0.1483
    2TMC2    O114320   3.518   4.642  14.970 -0.3477  0.5213 -0.0868
    2TMC2    O214321   3.600   0.466  14.816 -0.1726  0.2069 -0.0250
    2TMC2    O514322   3.479   0.324  14.958  0.3061  0.0449  0.5851
    2TMC2    H514323   3.501   0.238  15.001  2.6074 -0.0135 -0.7179
    3MPD1     C14324   4.307   0.549  15.270  0.1223 -0.1793  0.5329
    3MPD1    C114325   4.190   0.612  15.234 -0.5304  0.0057  0.1570
    3MPD1    C214326   4.088   0.541  15.175  0.1642 -0.3005  0.6117
    3MPD1    C314327   4.104   0.410  15.145  0.4376 -0.0447  0.5104
    3MPD1    C414328   4.222   0.346  15.172  0.4688  0.1242  0.7674
    3MPD1    C514329   4.323   0.416  15.236 -0.3321 -0.7598  0.6255
    3MPD1     H14330   3.995   0.583  15.138 -0.4074 -2.4501 -0.3994
    3MPD1    H114331   4.251   0.244  15.147 -1.1718  0.1034 -1.0026
    3MPD1    H214332   4.389   0.591  15.327 -0.9158  2.2479  0.2213
    3MPD1    H314333   4.412   0.362  15.265 -0.5425 -1.9377 -0.9203
    3MPD1     N14334   4.004   0.346  15.068 -0.1703  0.5312  0.2214
    3MPD1    H514335   3.930   0.410  15.042 -2.1412 -2.2017 -0.8703
    3MPD1    N114336   4.161   0.740  15.285 -0.3173  0.6570  0.3920
    3MPD1    H614337   4.099   0.781  15.215  0.3926  0.0990 -0.5651
    3MPD1    H714338   4.251   0.785  15.296 -0.2805  0.7177 -0.1512
    1TMC1    C114339   2.426   3.555  13.211 -0.2280 -1.2708  0.1742
    1TMC1    C214340   2.350   3.446  13.177 -0.5879  0.7894 -1.1822
    1TMC1    C314341   2.327   3.435  13.044  0.3424  0.6011  0.1584
    1TMC1    C414342   2.479   3.636  13.111  0.0357 -0.6286 -0.3048
    1TMC1    C514343   2.460   3.616  12.976  0.1689 -0.6782  0.8925
    1TMC1    C614344   2.371   3.515  12.946 -0.4522 -0.1791 -0.6098
    1TMC1     C14345   2.426   3.628  13.340  0.2332 -0.4708  0.2330
    1TMC1     O14346   2.427   3.749  13.333  0.3840 -0.3733  0.0260
    1TMC1     H14347   2.295   3.394  13.255  0.2911 -1.6140 -2.1832
    1TMC1    H114348   2.549   3.714  13.138 -0.6022  0.1166 -0.7758
    1TMC1    H214349   2.359   3.484  12.842  0.5625  1.1880 -1.1301
    1TMC1    C714350   2.542   3.684  12.879 -0.9109  0.2680 -0.0942
    1TMC1    C814351   2.273   3.308  13.001  0.3285 -0.1268  0.0245
    1TMC1    O114352   2.648   3.737  12.902  0.0210 -0.2770 -0.4966
    1TMC1    O214353   2.224   3.285  12.891 -0.2837  0.3161 -0.2151
    1TMC1    O314354   2.456   3.724  12.786  0.2993  0.4062 -0.1958
    1TMC1    H314355   2.386   3.656  12.773  0.6285 -0.0152  0.2276
    1TMC1    O514356   2.341   3.222  13.079  0.2184 -0.2557 -0.0042
    1TMC1    H514357   2.395   3.267  13.148 -1.4722  1.7946 -0.0306
    2MPD2     C14358   2.418   3.710  13.631 -0.0035 -0.1862  0.4556
    2MPD2    C114359   2.445   3.582  13.586  0.3933  0.1254  0.5208
    2MPD2    C214360   2.477   3.480  13.677  0.0026  1.1274  0.3309
    2MPD2    C314361   2.470   3.507  13.814 -0.7778  0.1189 -0.5084
    2MPD2    C414362   2.444   3.639  13.857 -0.6400  0.2889  0.3305
    2MPD2    C514363   2.423   3.736  13.765 -0.1461 -0.3160 -0.7854
    2MPD2     H14364   2.501   3.381  13.640 -0.7033  0.6305  1.1816
    2MPD2    H114365   2.452   3.672  13.960  1.9395  3.3411 -0.8451
    2MPD2    H214366   2.382   3.783  13.560  2.1785 -1.0660 -1.5585
    2MPD2    H314367   2.413   3.840  13.796 -0.6300 -1.4908  2.9264
    2MPD2     N14368   2.511   3.407  13.903  0.0447 -0.3949 -0.0649
    2MPD2    H514369   2.536   3.319  13.859  1.5842 -0.3089  0.6559
    2MPD2    N114370   2.435   3.545  13.449  0.1493  0.3352 -0.2107
    2MPD2    H714371   2.457   3.449  13.424  0.3375  0.6286 -1.1619
    3TCq1    O114372   2.699   2.975  13.930  0.3321  0.3340  0.7546
    3TCq1    C114373   2.732   2.981  14.058 -0.4209  0.0912 -0.1323
    3TCq1    O214374   2.757   2.884  14.125 -0.0639 -0.1571 -0.3811
    3TCq1    C214375   2.663   3.093  14.123  0.3284  0.8378 -0.5981
    3TCq1    C314376   2.619   3.078  14.250  0.2833  0.0758  0.1588
    3TCq1    C414377   2.551   3.181  14.316  0.4805 -0.6456 -0.3306
    3TCq1    C514378   2.504   3.287  14.240 -0.0375 -0.4348 -0.6255
    3TCq1    C614379   2.540   3.295  14.107 -0.3972 -0.1409 -0.0942
    3TCq1    C714380   2.627   3.210  14.044 -0.6762 -0.3124  0.5215
    3TCq1    C814381   2.490   3.413  14.042 -0.0054  0.5664  0.2281
    3TCq1    O414382   2.419   3.486  14.104  0.2158  0.1442 -0.3102
    3TCq1    C914383   2.508   3.162  14.453 -0.2515  0.2896  0.0116
    3TCq1    O514384   2.413   3.238  14.493 -0.1397  0.0583  0.2250
    3TCq1    O614385   2.590   3.087  14.517 -0.2724  0.0643 -0.1232
    3TCq1    H114386   2.648   3.045  13.883 -0.4518 -1.1572 -0.6371
    3TCq1    H214387   2.672   3.004  14.310  0.0862 -0.3999 -0.2598
    3TCq1    H314388   2.434   3.356  14.286  0.6669  1.9136 -3.0417
    3TCq1    H414389   2.670   3.231  13.947 -1.7229  1.6038  0.4603
    1MPD2     C14390   0.962   4.734  15.529  0.3404  0.1188  0.7173
    1MPD2    C114391   0.947   4.670  15.407  0.1616  0.9730 -0.6066
    1MPD2    C214392   1.024   4.560  15.390 -0.5901 -0.8428 -0.2873
    1MPD2    C314393   1.102   4.505  15.483 -0.1516  0.3496 -0.0748
    1MPD2    C414394   1.110   4.561  15.607 -0.2862  0.9760 -0.0666
    1MPD2    C514395   1.043   4.680  15.627 -0.0491 -0.2653  0.3704
    1MPD2     H14396   1.014   4.500  15.300  0.5823 -2.8894  0.9473
    1MPD2    H114397   1.146   4.517  15.700  0.1935 -0.6828 -1.0338
    1MPD2    H214398   0.897   0.083  15.548 -0.6870 -0.6542  0.6593
    1MPD2    H314399   1.045   4.721  15.727 -1.3751 -1.4610  0.8733
    1MPD2     N14400   1.163   4.386  15.447 -0.6847  0.2796 -0.1468
    1MPD2    H514401   1.130   4.344  15.361 -0.0787 -1.9052  0.6891
    1MPD2    N114402   0.855   4.721  15.310 -0.0914 -0.1156 -0.4969
    1MPD2    H714403   0.818   0.077  15.330 -2.0017 -0.8828 -0.4851
    2TMC3    C114404   0.733   4.730  15.108 -0.6567 -0.2350  0.1178
    2TMC3    C214405   0.656   4.640  15.044  1.1617 -0.7268 -0.0458
    2TMC3    C314406   0.644   4.643  14.911 -0.2026 -0.0274 -0.0749
    2TMC3    C414407   0.804   0.092  15.045 -0.0597 -0.3009  0.1561
    2TMC3    C514408   0.770   0.108  14.916 -0.0262  0.3093 -0.0597
    2TMC3    C614409   0.703   0.013  14.841  0.1550  0.2381 -0.0153
    2TMC3     C14410   0.823   4.664  15.198  0.7616 -1.3126 -0.5108
    2TMC3     O14411   0.846   4.550  15.165 -0.5743 -0.2119  0.2968
    2TMC3     H14412   0.607   4.555  15.091 -0.1168 -0.3437 -0.6832
    2TMC3    H114413   0.887   0.133  15.102  0.9516 -1.3019 -0.6115
    2TMC3    H214414   0.695   0.025  14.734  2.4907  4.1948  0.2714
    2TMC3    C714415   0.758   0.247  14.860  0.4811 -0.2119 -0.1406
    2TMC3    C814416   0.656   4.507  14.850 -0.1411 -0.1923  0.0657
    2TMC3    O114417   0.732   0.255  14.739 -0.6630 -0.0912  0.3072
    2TMC3    O214418   0.600   4.482  14.743 -0.4973 -0.4380 -0.8411
    3TCq1    O114419   0.749   0.872  15.553 -0.3524  0.6275  0.0518
    3TCq1    C114420   0.796   1.000  15.568  0.4094 -0.1753 -0.2011
    3TCq1    O214421   0.810   1.056  15.673 -0.1698 -0.1585  0.8331
    3TCq1    C214422   0.895   1.017  15.456  0.0884  0.6688 -0.0534
    3TCq1    C314423   0.940   1.150  15.454 -0.1812 -0.1086  0.1201
    3TCq1    C414424   1.003   1.195  15.345  0.3696 -0.3900 -0.0535
    3TCq1    C514425   1.023   1.113  15.237 -0.1605 -0.1100  0.2502
    3TCq1    C614426   0.975   0.983  15.236 -0.0398  0.3428 -0.4046
    3TCq1    C714427   0.912   0.937  15.346  0.1387  0.1830 -0.1167
    3TCq1    C814428   0.953   0.915  15.106 -0.1427 -0.1689 -0.6331
    3TCq1    O414429   0.973   0.978  15.000  1.0227  0.2719 -0.7587
    3TCq1    C914430   1.067   1.326  15.339 -0.1343  0.4208  0.2400
    3TCq1    O514431   1.055   1.397  15.441 -0.3300 -0.0361  0.1039
    3TCq1    O614432   1.143   1.351  15.240  0.2500 -0.1824  0.0004
    3TCq1    H114433   0.732   0.864  15.457  0.4406 -2.5305  0.1723
    3TCq1    H214434   0.914   1.224  15.529 -2.5772 -0.4837 -0.3616
    3TCq1    H314435   1.071   1.152  15.148 -1.7178  1.0218 -0.0768
    3TCq1    H414436   0.886   0.832  15.344 -0.4053  0.2897  1.7250
    4MPD2     C14437   0.813   0.764  14.893 -0.0646 -0.5054  0.0905
    4MPD2    C114438   0.864   0.704  15.008  0.2937  0.6835 -0.6753
    4MPD2    C214439   0.858   0.563  15.022  0.4469 -0.8583 -0.7981
    4MPD2    C314440   0.809   0.486  14.919 -0.3470 -0.1790 -0.1570
    4MPD2    C414441   0.747   0.551  14.817 -0.4162 -1.0825  0.8290
    4MPD2    C514442   0.754   0.685  14.794  0.0894 -0.1554  0.0352
    4MPD2     H14443   0.904   0.504  15.101  0.7968 -0.3264 -0.6077
    4MPD2    H114444   0.711   0.498  14.729 -1.1296 -2.0368  1.7017
    4MPD2    H214445   0.814   0.872  14.877 -1.7418 -0.3286  1.1450
    4MPD2    H314446   0.705   0.732  14.709  2.5827  0.9710 -0.7628
    4MPD2     N14447   0.807   0.344  14.941  0.1853 -0.2500  0.7885
    4MPD2    H514448   0.861   0.311  15.020 -0.3062 -2.7691  0.0571
    4MPD2    N114449   0.927   0.782  15.111 -0.3312 -0.2801  0.4708
    4MPD2    H714450   0.942   0.736  15.200 -0.3553 -0.6074  0.3082
    5TMC2    C114451   1.222   4.108  15.227 -0.3528  0.4924 -0.5723
    5TMC2    C214452   1.187   3.989  15.285 -1.0863  0.1558  0.2171
    5TMC2    C314453   1.222   3.970  15.416  0.3687  0.8517  0.0239
    5TMC2    C414454   1.280   4.213  15.305 -0.4363 -0.4542 -0.1783
    5TMC2    C514455   1.296   4.194  15.440  0.5856  0.2961 -0.2300
    5TMC2    C614456   1.270   4.071  15.500 -0.4109  0.0221  0.9826
    5TMC2     C14457   1.118   4.176  15.147 -0.1753  0.0517  0.4695
    5TMC2     O14458   1.114   4.298  15.166 -0.0505  0.1922 -0.7584
    5TMC2     H14459   1.147   3.914  15.218 -2.9585  2.1368 -0.8971
    5TMC2    H114460   1.310   4.307  15.261  1.6770 -3.0744 -4.3346
    5TMC2    H214461   1.288   4.055  15.606 -1.2602  0.2742  1.1622
    5TMC2    C714462   1.247   4.308  15.521 -0.2178 -0.5663 -0.3278
    5TMC2    C814463   1.267   3.839  15.447 -0.3206  0.2180  0.4646
    5TMC2    O114464   1.299   4.308  15.634  0.0821  0.2772 -0.3022
    5TMC2    O214465   1.284   3.748  15.368 -0.4587 -0.4196  0.0856
    5TMC2    O514466   1.239   3.820  15.577  0.3236  0.1515  0.0169
    5TMC2    H514467   1.232   3.903  15.629  0.8214  2.0990 -3.0428
    6MPD2     C14468   0.750   4.217  14.797  0.1605  0.0064  0.6700
    6MPD2    C114469   0.790   4.304  14.903  0.2581  0.2787 -0.2106
    6MPD2    C214470   0.879   4.257  14.996  0.0829  0.0288 -0.5477
    6MPD2    C314471   0.938   4.132  14.991 -0.7533  0.5235 -0.0941
    6MPD2    C414472   0.901   4.051  14.888 -0.7558 -0.2112  0.3147
    6MPD2    C514473   0.803   4.085  14.800  0.5745  0.6377  0.0003
    6MPD2     H14474   0.911   4.324  15.076  2.7589  1.0770 -2.5063
    6MPD2    H114475   0.946   3.953  14.871 -1.4088 -0.2325 -1.2498
    6MPD2    H214476   0.681   4.248  14.719  2.1745 -0.1229 -1.1568
    6MPD2    H314477   0.783   4.013  14.721  2.3781 -0.1183  0.2556
    6MPD2     N14478   1.048   4.094  15.070 -0.3179  0.3691  0.0547
    6MPD2    H514479   1.079   4.000  15.049 -1.6819  0.6114 -3.0165
    6MPD2    N114480   0.738   4.436  14.927  0.1113 -0.0241  0.6134
    6MPD2    H714481   0.785   4.482  15.004  1.1764 -1.5232  0.8672
  945NH4     N114482   2.835   0.388  12.762  1.0027  0.1289  0.6312
  945NH4     H214483   2.807   0.347  12.854 -0.4836 -2.1252 -0.8320
  945NH4     H314484   2.829   0.322  12.682  2.5780  0.1509  0.4912
  945NH4     H414485   2.933   0.415  12.783  0.9336  1.2919 -0.6005
  945NH4     H514486   2.777   0.465  12.723  1.3456 -0.0647 -0.2541
  946SOD     NA14487   0.328   1.142   6.219  0.0086 -0.3508 -0.4196
  947SOD     NA14488   2.282   1.575  16.640  0.1456 -0.0447 -0.4147
  948SOD     NA14489   2.877   0.656  12.155  0.2899  0.0443 -0.1929
  949SOD     NA14490   4.730   3.767  15.610  0.4335 -0.7947  0.2002
  950SOD     NA14491   3.489   1.680  16.450 -0.7350  0.2854  0.3613
  951SOD     NA14492   3.009   3.528   4.717  0.4480 -0.3507 -0.5036
  952SOD     NA14493   1.791   3.930   7.447  0.0739  0.3658 -0.6145
  953SOL     OW14494   3.750   4.375  16.370 -0.6359 -0.2923  0.1761
  953SOL    HW114495   3.676   4.430  16.346 -0.1070 -1.2926 -3.8163
  953SOL    HW214496   3.758   4.316  16.295 -0.0222 -0.6801  0.5386
  954SOL     OW14497   1.304   2.881  16.232 -0.0853  0.5213 -0.1700
  954SOL    HW114498   1.363   2.951  16.259  0.7864 -0.1764 -0.2667
  954SOL    HW214499   1.288   2.893  16.139  1.8396  1.7417 -0.3269
  955SOL     OW14500   3.863   1.112   2.443  0.1309  0.4278 -0.3030
  955SOL    HW114501   3.873   1.017   2.433  0.8735  0.5085 -0.3740
  955SOL    HW214502   3.887   1.119   2.536 -0.7931  0.4390 -0.0697
  956SOL     OW14503   0.502   1.147   1.175  1.1538 -0.1418  0.0412
  956SOL    HW114504   0.482   1.237   1.149  3.0827  0.1089 -0.5415
  956SOL    HW214505   0.590   1.154   1.211  0.2501  4.6330  1.2697
  957SOL     OW14506   4.688   0.957   8.611 -0.1555 -0.3147 -0.3820
  957SOL    HW114507   4.654   0.973   8.523 -1.4666  0.6992  0.3152
  957SOL    HW214508   4.674   1.039   8.658 -0.7266 -0.6119 -0.0336
  958SOL     OW14509   2.243   2.875   5.956  0.0104  0.0693  0.3872
  958SOL    HW114510   2.331   2.862   5.991  0.4573  0.2145 -0.6941
  958SOL    HW214511   2.205   2.796   5.995 -0.3894  0.5565  0.9776
  959SOL     OW14512   3.618   1.264   2.376 -0.3988  0.1413  0.1731
  959SOL    HW114513   3.703   1.253   2.419 -0.8294 -0.6787  0.8165
  959SOL    HW214514   3.596   1.171   2.365 -0.5158  0.1424  0.3885
  960SOL     OW14515   2.342   3.015   4.459 -0.1423 -0.2184 -0.0606
  960SOL    HW114516   2.394   3.058   4.391  1.5425 -0.8810  0.8105
  960SOL    HW214517   2.354   2.925   4.429  0.5409  0.2816 -1.2662
  961SOL     OW14518   1.022   0.576   4.439  0.0921 -0.0129  0.1441
  961SOL    HW114519   1.053   0.582   4.348  2.8706  2.4136  1.2786
  961SOL    HW214520   1.093   0.528   4.481  1.2788 -0.5378 -2.4306
  962SOL     OW14521   4.114   4.245   4.770 -0.2581  0.1290 -0.0513
  962SOL    HW114522   4.171   4.286   4.835  0.1410  2.1667 -1.6605
  962SOL    HW214523   4.108   4.316   4.706  1.2209  0.0354 -0.2947
  963SOL     OW14524   4.699   0.529   6.924 -0.2860 -0.0807  0.1785
  963SOL    HW114525   4.643   0.476   6.866 -0.8579 -0.3468  0.9808
  963SOL    HW214526   4.668   0.531   7.014  0.8204  1.2724  0.5347
  964SOL     OW14527   3.772   3.792   0.471 -0.5733  0.0826 -0.0903
  964SOL    HW114528   3.786   3.803   0.565 -2.0180  3.0954 -0.2524
  964SOL    HW214529   3.736   3.703   0.473 -0.5387 -0.0110 -3.2562
  965SOL     OW14530   0.672   4.236   7.328  0.2616  0.2166  0.0244
  965SOL    HW114531   0.598   4.178   7.312  0.5970  0.1778 -1.4690
  965SOL    HW214532   0.747   4.201   7.278 -0.4198 -1.7135  0.3574
  966SOL     OW14533   2.691   4.188   9.884  0.2877 -0.2039 -0.2030
  966SOL    HW114534   2.710   4.216   9.795  1.5731 -2.2264 -0.5767
  966SOL    HW214535   2.624   4.121   9.871  2.5187 -1.8979 -2.9947
  967SOL     OW14536   3.154   1.473   5.637  0.0040  0.6448 -0.8720
  967SOL    HW114537   3.087   1.517   5.585 -0.4246  0.3285 -0.5866
  967SOL    HW214538   3.230   1.516   5.598  1.2091 -2.1065 -1.5598
  968SOL     OW14539   2.838   2.236  11.664 -0.3385  0.3852  0.0232
  968SOL    HW114540   2.901   2.289  11.712  0.5685 -0.0541 -0.6871
  968SOL    HW214541   2.753   2.243  11.708 -0.0984  0.5297  0.4666
  969SOL     OW14542   2.443   3.139   8.767  0.4443  0.6008  0.3926
  969SOL    HW114543   2.390   3.135   8.846 -0.2275 -1.3634 -0.1493
  969SOL    HW214544   2.527   3.172   8.799  0.5191 -1.6847  2.4905
  970SOL     OW14545   0.504   2.311   1.621  0.1439 -0.3987  0.3631
  970SOL    HW114546   0.428   2.355   1.658  1.2530  1.6558  0.1788
  970SOL    HW214547   0.572   2.357   1.669  0.5427 -1.5901  0.9217
  971SOL     OW14548   0.180   0.675   8.904  0.2110  0.3349 -0.1737
  971SOL    HW114549   0.201   0.632   8.821  0.2138 -1.2733  0.6504
  971SOL    HW214550   0.090   0.702   8.886 -0.7753 -2.2769  0.7932
  972SOL     OW14551   2.958   2.032   8.788 -0.1109  0.3999  0.0315
  972SOL    HW114552   2.927   2.046   8.698  1.5418 -0.4946 -0.6786
  972SOL    HW214553   2.960   2.123   8.815 -0.8940  1.0658 -2.1338
  973SOL     OW14554   1.876   2.382   1.713  0.4348  0.2885 -0.0105
  973SOL    HW114555   1.896   2.441   1.786 -2.7788  0.4396  0.7274
  973SOL    HW214556   1.875   2.307   1.773  1.2441 -0.2918 -0.7214
  974SOL     OW14557   1.751   3.967   2.045  0.1704 -0.1562  0.5015
  974SOL    HW114558   1.729   4.057   2.020 -0.9444 -0.2303  1.2030
  974SOL    HW214559   1.760   3.976   2.139  2.2005  0.9470  0.1983
  975SOL     OW14560   1.001   1.187  11.541 -0.1898 -0.4727  0.4204
  975SOL    HW114561   0.918   1.140  11.544 -0.8779  0.6806 -0.6660
  975SOL    HW214562   1.047   1.160  11.620 -1.4616  1.2244  1.7473
  976SOL     OW14563   0.000   1.025  15.136  0.4827 -0.2693 -0.1558
  976SOL    HW114564   4.711   1.070  15.056 -0.0065 -2.1214 -1.0550
  976SOL    HW214565   0.092   1.053  15.135 -0.9225  4.3640 -1.3235
  977SOL     OW14566   0.547   0.118   4.699 -0.2826 -0.4385  0.4223
  977SOL    HW114567   0.593   0.173   4.762 -3.8658  0.1456  2.5303
  977SOL    HW214568   0.554   0.036   4.749  1.0184 -1.5120 -1.5128
  978SOL     OW14569   4.390   2.295   9.983  0.0289  0.2676  0.1902
  978SOL    HW114570   4.467   2.348  10.004 -0.6142  0.5925  1.7098
  978SOL    HW214571   4.407   2.293   9.889 -1.1201  1.0071 -0.0320
  979SOL     OW14572   3.233   3.514   5.868  0.2751  0.1274  0.2480
  979SOL    HW114573   3.236   3.433   5.920 -0.0505 -0.4789 -0.6799
  979SOL    HW214574   3.178   3.577   5.913 -1.0488  1.0822 -2.6956
  980SOL     OW14575   2.375   3.962   3.121 -0.7774  0.0304 -0.3971
  980SOL    HW114576   2.467   3.972   3.096 -0.5609 -0.3355  0.2798
  980SOL    HW214577   2.368   3.870   3.146  0.1494 -0.0581 -0.4775
  981SOL     OW14578   0.612   2.032   7.459  0.6622  0.1100 -0.1085
  981SOL    HW114579   0.669   1.961   7.431  1.3800  0.0414  1.5734
  981SOL    HW214580   0.565   1.981   7.525  1.4744 -0.2681  0.1773
  982SOL     OW14581   1.926   4.488   5.527 -0.3607  0.0907  0.1632
  982SOL    HW114582   1.974   4.407   5.507  0.8552  0.5216  1.3514
  982SOL    HW214583   1.865   4.455   5.592 -1.1019 -1.8953 -1.5510
  983SOL     OW14584   1.982   3.133  13.582  0.5036  0.1612 -0.1096
  983SOL    HW114585   2.009   3.057  13.634  1.0429  0.8109  0.5640
  983SOL    HW214586   2.064   3.165  13.543 -0.6911 -2.2179 -4.5715
  984SOL     OW14587   2.686   1.229   8.029  0.3246 -0.2622  0.7513
  984SOL    HW114588   2.676   1.324   8.024  1.4791 -0.0956  1.7403
  984SOL    HW214589   2.632   1.212   7.951  0.4095  0.2648  0.5790
  985SOL     OW14590   4.699   4.345  11.329 -0.0837 -0.1381  0.8308
  985SOL    HW114591   4.703   4.274  11.393  0.8932 -0.4452  0.4326
  985SOL    HW214592   4.610   4.337  11.294 -0.7447  3.0723  1.7068
  986SOL     OW14593   3.198   0.250   4.652  0.5337  0.5524  0.4834
  986SOL    HW114594   3.123   0.224   4.597  0.3896 -1.5504  1.6937
  986SOL    HW214595   3.242   0.315   4.597 -1.4293  0.0594 -1.7099
  987SOL     OW14596   0.682   4.581   8.127 -0.0869 -0.2622 -0.0843
  987SOL    HW114597   0.605   4.545   8.170  0.3339  1.1210  1.8614
  987SOL    HW214598   0.670   4.602   8.035 -0.6943 -0.0180  0.0488
  988SOL     OW14599   4.453   1.547   8.709  0.1544  0.2272  0.3051
  988SOL    HW114600   4.424   1.483   8.774  1.4330  0.1175  0.7626
  988SOL    HW214601   4.428   1.513   8.623  0.4778 -0.1410  0.3557
  989SOL     OW14602   1.235   0.501   6.464  0.2976 -0.2764 -0.0333
  989SOL    HW114603   1.228   0.563   6.391  0.2747  1.0536  1.1042
  989SOL    HW214604   1.240   0.422   6.411  1.5128 -0.3590  0.1906
  990SOL     OW14605   2.019   1.101   8.300 -0.1445 -0.0086 -0.3518
  990SOL    HW114606   1.926   1.079   8.293 -0.3650  0.3398  1.6658
  990SOL    HW214607   2.053   1.023   8.256  1.6346  0.3009  0.4785
  991SOL     OW14608   0.012   0.049  15.676 -0.1985  0.2141 -0.4050
  991SOL    HW114609   0.071   4.714  15.649  1.6413  0.9351  1.7907
  991SOL    HW214610   0.066   0.126  15.660  0.2391 -0.1504 -0.6882
  992SOL     OW14611   2.717   2.948  17.506  0.2199  0.3371  0.0199
  992SOL    HW114612   2.724   2.927  17.413 -2.2981 -1.3607  0.2179
  992SOL    HW214613   2.767   2.875  17.543 -0.4290 -0.4181 -0.5949
  993SOL     OW14614   0.074   4.130  17.058  0.0371  0.1773 -0.2213
  993SOL    HW114615   0.066   4.169  16.971 -0.1166  1.0256  0.1840
  993SOL    HW214616   0.053   4.042  17.025 -0.1570 -0.4922  1.7206
  994SOL     OW14617   3.612   0.975  15.750  0.0157 -0.8884 -0.1556
  994SOL    HW114618   3.539   1.006  15.696 -0.5945 -0.7342  0.7535
  994SOL    HW214619   3.654   0.908  15.697  1.2467 -3.1738  3.6986
  995SOL     OW14620   0.545   2.657  12.598  0.4405  0.2514 -0.0118
  995SOL    HW114621   0.545   2.574  12.646 -1.4161  0.5540  0.5085
  995SOL    HW214622   0.584   2.714  12.664  1.1958 -0.8559  0.5088
  996SOL     OW14623   1.916   1.558   8.502  0.6609  0.1286 -0.0950
  996SOL    HW114624   1.861   1.483   8.521  1.5879 -1.5353 -4.0124
  996SOL    HW214625   1.992   1.518   8.542  0.2274 -0.9269 -0.3435
  997SOL     OW14626   3.660   1.482   2.976  0.2935 -0.0100  0.2492
  997SOL    HW114627   3.727   1.432   2.931 -1.1645 -0.2236 -1.6745
  997SOL    HW214628   3.618   1.505   2.893 -0.8262 -0.2388  0.7478
  998SOL     OW14629   3.335   0.824   9.579  0.2360  0.5141 -0.6247
  998SOL    HW114630   3.315   0.738   9.616 -1.3776  0.5376 -1.4382
  998SOL    HW214631   3.388   0.810   9.501  0.2687 -1.6920 -0.2048
  999SOL     OW14632   0.412   0.296  11.770 -0.0167  0.5355  0.1273
  999SOL    HW114633   0.451   0.383  11.763  0.9142 -0.0869 -2.3297
  999SOL    HW214634   0.449   0.256  11.691 -0.1310 -0.4320  0.5631
 1000SOL     OW14635   1.802   2.427   3.526 -0.0253 -0.1030 -0.3447
 1000SOL    HW114636   1.746   2.493   3.566  0.6664  0.1884  0.1467
 1000SOL    HW214637   1.864   2.488   3.483 -2.3188  1.7695 -0.9996
 1001SOL     OW14638   3.483   0.329   3.958  0.1076  0.6622 -0.5024
 1001SOL    HW114639   3.400   0.281   3.960  0.2250  0.5628  1.5432
 1001SOL    HW214640   3.527   0.287   3.884 -2.0053 -1.0532 -0.7950
 1002SOL     OW14641   2.735   1.717  15.356 -0.6761  0.3603 -0.5748
 1002SOL    HW114642   2.800   1.783  15.382 -1.3256  0.8569 -0.1997
 1002SOL    HW214643   2.667   1.775  15.322 -0.3505  1.4059  0.5478
 1003SOL     OW14644   1.339   4.524   2.319  0.3049  0.1566 -0.2943
 1003SOL    HW114645   1.262   4.530   2.375 -0.9873 -1.8102 -1.8583
 1003SOL    HW214646   1.394   4.470   2.375 -1.3510 -1.2144  0.0092
 1004SOL     OW14647   0.227   0.977   8.629  0.2511 -0.2378 -0.0066
 1004SOL    HW114648   0.268   1.041   8.571  0.3900 -1.5472 -1.3314
 1004SOL    HW214649   0.134   0.979   8.609  0.1731 -1.4247  0.2526
 1005SOL     OW14650   1.909   0.987  16.145 -0.4356 -0.4331  0.5860
 1005SOL    HW114651   1.923   0.900  16.107  0.3763  0.3189 -0.8002
 1005SOL    HW214652   1.969   1.037  16.091  0.3394 -2.9047 -0.8395
 1006SOL     OW14653   4.705   2.781   7.020 -0.1002 -0.6634 -0.4285
 1006SOL    HW114654   0.012   2.757   7.102  0.5936  0.9520 -0.3056
 1006SOL    HW214655   4.693   2.876   7.031 -0.8845 -0.7962 -0.1159
 1007SOL     OW14656   2.735   2.656   8.079 -0.0461 -0.4822  0.3390
 1007SOL    HW114657   2.807   2.677   8.138  0.1459 -0.1997  0.0055
 1007SOL    HW214658   2.656   2.692   8.119 -0.5055 -2.3810  1.1260
 1008SOL     OW14659   0.063   2.731   3.198  0.0568  0.0485 -0.0095
 1008SOL    HW114660   0.028   2.799   3.255  2.0990 -0.4763  1.9259
 1008SOL    HW214661   0.125   2.775   3.139 -2.2157  3.7414  0.3850
 1009SOL     OW14662   2.038   2.423  11.766 -0.4249  0.0702 -0.4939
 1009SOL    HW114663   2.099   2.419  11.693 -1.8281  3.1878 -1.8341
 1009SOL    HW214664   2.038   2.338  11.811  1.0190 -0.1404 -0.9075
 1010SOL     OW14665   1.728   0.050   4.006  0.2178 -0.3713 -0.2660
 1010SOL    HW114666   1.651   0.014   3.962  0.0721 -0.1644 -0.1815
 1010SOL    HW214667   1.727   0.135   3.962  3.0289 -0.3438 -0.2403
 1011SOL     OW14668   3.847   4.066   7.342  0.3161  0.5897 -0.1321
 1011SOL    HW114669   3.815   4.155   7.336 -1.8395 -0.2159 -0.6322
 1011SOL    HW214670   3.885   4.062   7.255  1.1145  1.5922  0.1796
 1012SOL     OW14671   0.806   0.588   6.462 -0.0841 -0.3424  0.0777
 1012SOL    HW114672   0.760   0.512   6.426  0.4545 -1.0494  0.8836
 1012SOL    HW214673   0.852   0.543   6.533  1.1789  2.4530  1.0023
 1013SOL     OW14674   3.754   0.455   8.818 -0.5112 -0.1298 -0.5334
 1013SOL    HW114675   3.800   0.422   8.741  1.1367 -1.1873  0.9027
 1013SOL    HW214676   3.819   0.424   8.882 -2.3712 -2.2743  0.3130
 1014SOL     OW14677   1.959   1.327   6.549 -0.2349  0.6319 -0.0208
 1014SOL    HW114678   1.903   1.302   6.623 -1.6556 -0.6252 -1.5186
 1014SOL    HW214679   1.990   1.415   6.572  3.5403 -1.7480  4.0156
 1015SOL     OW14680   0.710   4.497   4.607 -0.2817  0.5000 -0.0745
 1015SOL    HW114681   0.788   4.545   4.578  1.3906 -0.8385  2.2824
 1015SOL    HW214682   0.690   4.444   4.530 -0.2144  0.9219 -0.3844
 1016SOL     OW14683   0.176   1.728   2.040 -0.5868 -0.2463 -0.0016
 1016SOL    HW114684   0.177   1.632   2.035 -1.0625 -0.3120  1.0204
 1016SOL    HW214685   0.248   1.748   1.980  0.7723 -1.6010  1.1775
 1017SOL     OW14686   0.075   3.848  14.143 -0.4885  1.0730  0.0021
 1017SOL    HW114687   0.120   3.904  14.206 -1.5438  1.6294  0.2659
 1017SOL    HW214688   4.722   3.882  14.138 -0.9376  0.2340  2.1382
 1018SOL     OW14689   4.169   4.524   0.842 -0.4757 -0.0305 -0.0094
 1018SOL    HW114690   4.209   4.584   0.779  0.6189 -0.4954  0.2373
 1018SOL    HW214691   4.166   4.581   0.919 -0.0209  2.6749 -1.9604
 1019SOL     OW14692   4.418   1.224   9.272  0.1071 -0.2090 -0.5491
 1019SOL    HW114693   4.422   1.306   9.320  1.5259 -0.0481 -0.9158
 1019SOL    HW214694   4.390   1.175   9.349  2.0229  0.8442  0.8223
 1020SOL     OW14695   0.557   4.500   0.484 -0.0815  0.2218 -0.2394
 1020SOL    HW114696   0.634   4.457   0.447 -0.8505 -1.1770 -0.1886
 1020SOL    HW214697   0.490   4.441   0.449 -0.1970  0.1910  0.0367
 1021SOL     OW14698   3.582   2.741   4.852  1.0475  0.0405  1.1223
 1021SOL    HW114699   3.525   2.665   4.843  0.2256  0.6777  0.8857
 1021SOL    HW214700   3.663   2.692   4.856  0.6821 -0.5805  0.8488
 1022SOL     OW14701   1.925   0.286   9.278 -0.1779  0.1117 -0.0803
 1022SOL    HW114702   1.901   0.379   9.271  1.4184  0.2689 -3.5333
 1022SOL    HW214703   1.839   0.253   9.305 -1.0372  0.4127 -2.4421
 1023SOL     OW14704   3.716   4.129   6.983 -0.3088  0.3755  0.7374
 1023SOL    HW114705   3.650   4.062   7.001  1.3015 -1.4013  0.1516
 1023SOL    HW214706   3.670   4.182   6.919 -0.0404 -1.2724 -0.8249
 1024SOL     OW14707   2.205   3.915   4.368  0.1980 -0.6017 -0.2053
 1024SOL    HW114708   2.120   3.871   4.370 -0.3480  0.4913  0.5078
 1024SOL    HW214709   2.183   4.001   4.334 -1.2285  0.2050  2.8235
 1025SOL     OW14710   0.743   2.356   3.177 -0.0230  0.1277  0.0711
 1025SOL    HW114711   0.775   2.329   3.091  0.2250 -0.9547  0.4983
 1025SOL    HW214712   0.652   2.379   3.162  0.0645  0.3392 -0.1413
 1026SOL     OW14713   2.189   2.023   2.078  0.2619  0.1184 -0.1307
 1026SOL    HW114714   2.214   1.942   2.122 -1.1491  0.7532  1.8528
 1026SOL    HW214715   2.132   2.059   2.146  1.4365 -0.3608  1.0974
 1027SOL     OW14716   2.335   3.915   8.904  0.2196 -0.5168 -0.4065
 1027SOL    HW114717   2.361   3.866   8.983 -1.8983  2.1304  1.9176
 1027SOL    HW214718   2.412   3.970   8.889 -1.3530  1.0702 -2.5790
 1028SOL     OW14719   4.642   2.042   9.588  0.2199 -0.8222 -0.4156
 1028SOL    HW114720   4.664   1.994   9.508 -2.0895 -0.0230 -1.5441
 1028SOL    HW214721   4.584   1.982   9.635 -0.9547 -0.4437 -1.3844
 1029SOL     OW14722   1.570   0.099   2.669  0.1466 -0.8868 -0.0608
 1029SOL    HW114723   1.629   0.030   2.698 -3.2386 -3.7587  0.0700
 1029SOL    HW214724   1.607   0.176   2.712 -0.4407  0.6865 -2.3759
 1030SOL     OW14725   3.074   2.247   2.683 -0.1659 -0.0212 -0.8984
 1030SOL    HW114726   3.059   2.153   2.687 -1.4219  0.2051 -0.2267
 1030SOL    HW214727   3.141   2.264   2.749 -0.6225  0.2662 -0.5096
 1031SOL     OW14728   1.906   1.541   3.687  0.1675  0.4513  0.3166
 1031SOL    HW114729   1.973   1.509   3.747 -0.1763 -3.9814 -1.6723
 1031SOL    HW214730   1.823   1.513   3.725 -0.8760  1.1669 -1.4506
 1032SOL     OW14731   1.159   3.575   4.328  0.0671  0.0179 -0.1526
 1032SOL    HW114732   1.137   3.618   4.411  1.9782  0.6573  0.0190
 1032SOL    HW214733   1.083   3.520   4.308  1.3793 -1.2872 -1.4852
 1033SOL     OW14734   3.150   3.041   7.405  0.0396 -0.3968  0.2284
 1033SOL    HW114735   3.059   3.036   7.435  0.1675 -0.5431  0.5902
 1033SOL    HW214736   3.143   3.108   7.338 -0.3707  1.0255  1.6885
 1034SOL     OW14737   2.434   1.532   5.452 -0.3580  0.5195 -0.3485
 1034SOL    HW114738   2.340   1.524   5.469  0.3639 -2.6344  2.2937
 1034SOL    HW214739   2.463   1.583   5.528 -3.0894 -0.3649  1.2822
 1035SOL     OW14740   1.597   4.114   7.035 -0.4431  0.0898  0.7534
 1035SOL    HW114741   1.503   4.118   7.052 -0.4658 -1.4813  1.0485
 1035SOL    HW214742   1.605   4.200   6.993  1.1322  0.1922  1.2660
 1036SOL     OW14743   2.086   3.056   8.530  0.2368 -0.2194 -0.2536
 1036SOL    HW114744   2.118   3.146   8.523 -1.4284  0.4636  0.8998
 1036SOL    HW214745   1.998   3.074   8.497  0.8669  1.9554 -0.7871
 1037SOL     OW14746   4.292   1.802   1.734  0.4872  0.4637 -0.0938
 1037SOL    HW114747   4.374   1.755   1.751  0.1200  0.3134  1.2303
 1037SOL    HW214748   4.247   1.801   1.818  1.4372  2.6881  0.4316
 1038SOL     OW14749   4.319   3.923  12.399  0.2122 -0.7567 -0.3787
 1038SOL    HW114750   4.404   3.922  12.355 -0.3447  0.1406 -1.4863
 1038SOL    HW214751   4.297   4.013  12.374  2.3965 -0.1529 -0.1844
 1039SOL     OW14752   3.219   1.692  16.775 -0.4840 -0.1569  0.5214
 1039SOL    HW114753   3.153   1.726  16.715  1.1147 -0.9058 -1.6353
 1039SOL    HW214754   3.183   1.708  16.863 -0.6397  0.3390  0.3646
 1040SOL     OW14755   1.966   4.207   4.073  0.4415  0.1870  0.2259
 1040SOL    HW114756   1.923   4.238   4.152  1.2471 -0.0604  0.7592
 1040SOL    HW214757   1.927   4.270   4.013 -0.6011 -0.7112 -0.0427
 1041SOL     OW14758   3.975   2.685   4.573 -0.4426  0.2748  0.1398
 1041SOL    HW114759   3.934   2.701   4.658 -1.4153  0.9929 -0.4634
 1041SOL    HW214760   4.063   2.722   4.578 -0.0967 -0.8540  2.2935
 1042SOL     OW14761   2.253   2.300   8.101 -0.4180  0.6851 -0.5801
 1042SOL    HW114762   2.274   2.218   8.147  0.0180  0.0617 -1.8911
 1042SOL    HW214763   2.190   2.265   8.038  0.7629  0.2534 -1.5124
 1043SOL     OW14764   1.475   3.113  17.340  0.6695 -0.0481  0.1144
 1043SOL    HW114765   1.511   3.202  17.350  1.5465 -0.2200 -1.4138
 1043SOL    HW214766   1.386   3.136  17.364  0.9020  1.4632 -0.4173
 1044SOL     OW14767   2.551   3.887  15.148  0.0068 -0.0056  0.4106
 1044SOL    HW114768   2.520   3.814  15.202 -2.5086  1.9077  1.5360
 1044SOL    HW214769   2.609   3.927  15.213 -1.7599  0.8402  1.4740
 1045SOL     OW14770   1.294   4.293  13.509  0.1932 -0.2697  0.3156
 1045SOL    HW114771   1.237   4.368  13.493  0.2686  0.3484  2.8461
 1045SOL    HW214772   1.257   4.227  13.451 -2.7166  1.8208 -0.2230
 1046SOL     OW14773   1.969   3.611   3.812 -0.0955  0.0322  0.0683
 1046SOL    HW114774   1.992   3.680   3.875 -2.3652  1.3842 -0.5956
 1046SOL    HW214775   2.010   3.535   3.854  1.4613  0.7064 -0.2112
 1047SOL     OW14776   0.627   1.698   4.379  0.6743  0.0405  0.0897
 1047SOL    HW114777   0.680   1.724   4.454 -0.1480  0.9661  0.3455
 1047SOL    HW214778   0.694   1.705   4.311 -0.7821 -0.3881 -1.4172
 1048SOL     OW14779   3.150   3.464  13.075 -0.4853  0.1457 -0.1394
 1048SOL    HW114780   3.133   3.401  13.145  1.2060  0.2227  0.3283
 1048SOL    HW214781   3.230   3.505  13.106 -0.4483  0.3236 -0.4755
 1049SOL     OW14782   0.113   0.263  11.581  0.3582  0.7480 -0.0977
 1049SOL    HW114783   0.057   0.250  11.504 -0.0090 -1.6660  0.5685
 1049SOL    HW214784   0.201   0.284  11.549  0.1467 -1.0612 -1.9040
 1050SOL     OW14785   3.262   1.550   8.573  0.1394  0.1537 -0.5987
 1050SOL    HW114786   3.268   1.456   8.593  0.0607  0.2484 -0.1428
 1050SOL    HW214787   3.231   1.576   8.660  0.3156  1.2658 -0.8696
 1051SOL     OW14788   2.905   1.539  12.988  0.6726 -0.3378 -0.1593
 1051SOL    HW114789   2.896   1.488  13.069 -2.1787  0.6173  0.1518
 1051SOL    HW214790   2.997   1.522  12.970  0.9491  0.7551  0.2015
 1052SOL     OW14791   2.124   3.154  17.076  0.0729  0.3283  0.2607
 1052SOL    HW114792   2.156   3.166  17.166  0.0557  0.0659  0.3013
 1052SOL    HW214793   2.124   3.243  17.040  0.7668  0.5819  0.8666
 1053SOL     OW14794   2.685   1.143  10.897  0.5945 -0.7207  0.0941
 1053SOL    HW114795   2.645   1.179  10.976 -1.0121 -0.3868 -0.8902
 1053SOL    HW214796   2.780   1.149  10.909  0.4558 -0.1113  0.8672
 1054SOL     OW14797   3.367   4.476  14.383  0.3185  0.0326 -0.4574
 1054SOL    HW114798   3.375   4.409  14.315 -1.1453 -1.4631  0.8261
 1054SOL    HW214799   3.453   4.490  14.421  0.8030  0.3969 -1.6776
 1055SOL     OW14800   4.125   1.580   0.711  0.3452 -0.3734 -0.3601
 1055SOL    HW114801   4.048   1.530   0.738 -0.1378  0.3067 -0.4588
 1055SOL    HW214802   4.183   1.590   0.786  0.1390  2.9809 -0.6418
 1056SOL     OW14803   0.624   4.393   2.746  0.1327  0.5849  0.2197
 1056SOL    HW114804   0.603   4.441   2.826 -2.7089 -0.4269  0.0663
 1056SOL    HW214805   0.629   4.307   2.786 -1.0576  0.5028  0.1788
 1057SOL     OW14806   4.199   2.686   2.786 -0.2986  0.0734  0.2195
 1057SOL    HW114807   4.134   2.651   2.726  0.3286 -4.5525  2.2654
 1057SOL    HW214808   4.242   2.608   2.823 -1.8831 -0.7863  0.2070
 1058SOL     OW14809   4.129   1.410   3.163 -0.0219 -0.7055 -0.2401
 1058SOL    HW114810   4.078   1.464   3.223 -2.1085 -0.6981 -2.0575
 1058SOL    HW214811   4.206   1.467   3.172 -1.0241  0.7372 -0.7815
 1059SOL     OW14812   1.908   4.168   7.145 -0.0008  0.2918 -0.5287
 1059SOL    HW114813   1.891   4.088   7.096 -0.2607  0.6431 -1.0065
 1059SOL    HW214814   1.981   4.196   7.089  1.2065  0.9255  1.3593
 1060SOL     OW14815   4.434   3.501   4.788  0.1087 -0.6614  0.7868
 1060SOL    HW114816   4.404   3.436   4.724 -0.6319 -0.2812  0.7382
 1060SOL    HW214817   4.400   3.464   4.870 -0.3811 -1.1435  0.3681
 1061SOL     OW14818   1.503   4.591   4.330 -0.2932 -0.0125  0.3975
 1061SOL    HW114819   1.484   4.657   4.263  1.9479 -1.9294 -2.0939
 1061SOL    HW214820   1.593   4.611   4.353 -1.0378  4.1695 -0.3389
 1062SOL     OW14821   0.356   3.516   8.218 -0.2126  0.5571  0.0315
 1062SOL    HW114822   0.442   3.474   8.223 -0.2977  0.2849 -0.7834
 1062SOL    HW214823   0.326   3.483   8.134 -1.6475 -1.7222  1.4500
 1063SOL     OW14824   0.780   3.980   3.349  0.2598  0.5832 -0.4327
 1063SOL    HW114825   0.711   4.000   3.285 -0.3265  1.0230  0.3462
 1063SOL    HW214826   0.744   4.028   3.424  0.7693  1.2690 -0.6225
 1064SOL     OW14827   3.081   3.708   5.516 -0.3504  0.1688 -0.3201
 1064SOL    HW114828   3.038   3.682   5.435  1.6132 -2.4162 -0.5215
 1064SOL    HW214829   3.103   3.620   5.546 -0.2267  0.5065  0.5933
 1065SOL     OW14830   1.908   2.373   7.906  0.1922  0.0610 -0.2168
 1065SOL    HW114831   1.923   2.457   7.951 -1.5860  0.9402 -1.2596
 1065SOL    HW214832   1.825   2.380   7.860  0.6194 -1.7533 -1.2396
 1066SOL     OW14833   3.852   3.212   5.036 -0.7648 -0.7975 -0.0857
 1066SOL    HW114834   3.820   3.277   4.973 -0.7401 -0.9188 -0.2221
 1066SOL    HW214835   3.904   3.276   5.085 -1.4043 -0.9930  0.8365
 1067SOL     OW14836   2.184   2.189  16.357  0.0490  0.1398 -0.4668
 1067SOL    HW114837   2.091   2.208  16.347 -0.1110 -1.0927 -1.3326
 1067SOL    HW214838   2.175   2.116  16.418  0.8946  0.2505 -0.2061
 1068SOL     OW14839   2.418   3.729   6.722 -0.8180 -0.2430  0.1534
 1068SOL    HW114840   2.456   3.757   6.806  0.6022  0.9537 -0.8972
 1068SOL    HW214841   2.349   3.794   6.715 -0.7839 -0.1532  0.6553
 1069SOL     OW14842   1.709   0.131   6.029 -0.1464  0.1211 -0.6736
 1069SOL    HW114843   1.627   0.170   5.999 -0.3988  0.4091  0.3797
 1069SOL    HW214844   1.690   0.040   6.051  2.9606 -0.2711  0.4592
 1070SOL     OW14845   3.233   0.725  13.795 -0.1819 -0.3192 -0.3906
 1070SOL    HW114846   3.179   0.666  13.846 -2.6842  2.8167  0.6345
 1070SOL    HW214847   3.324   0.695  13.797 -1.1566 -2.9035  3.4717
 1071SOL     OW14848   4.624   0.046  12.253 -0.6140  0.1107 -0.2329
 1071SOL    HW114849   4.667   0.077  12.333 -0.0158  0.6792 -0.7751
 1071SOL    HW214850   4.669   0.103  12.192 -1.3942 -1.0619 -1.9069
 1072SOL     OW14851   4.452   0.684   8.461  0.7613  0.6177 -0.2314
 1072SOL    HW114852   4.474   0.603   8.415  1.3825  1.7008 -1.8385
 1072SOL    HW214853   4.450   0.669   8.556 -0.0284 -1.1435 -0.5133
 1073SOL     OW14854   3.621   0.183  15.195  0.4928 -0.0010 -0.7188
 1073SOL    HW114855   3.618   0.250  15.262 -2.7430 -0.5689 -0.2587
 1073SOL    HW214856   3.707   0.142  15.202  1.4103  2.1310  0.2631
 1074SOL     OW14857   2.435   4.334   0.376  0.1000 -0.6511  0.0009
 1074SOL    HW114858   2.494   4.298   0.309 -0.3399 -1.9775  0.3290
 1074SOL    HW214859   2.350   4.348   0.334 -0.0396 -1.5193 -0.0024
 1075SOL     OW14860   3.707   0.345   0.479 -0.6861  0.7133  0.2906
 1075SOL    HW114861   3.757   0.306   0.550  0.1704  0.9055 -0.2096
 1075SOL    HW214862   3.701   0.261   0.433 -0.7254  0.8808 -0.0080
 1076SOL     OW14863   1.027   2.032   6.946 -0.3387  0.0152 -0.0370
 1076SOL    HW114864   1.003   1.968   6.880  2.1619  1.5184 -2.3952
 1076SOL    HW214865   1.114   2.061   6.919 -0.2192  0.2775  0.6176
 1077SOL     OW14866   1.064   2.260   9.834 -0.8032  0.4853 -0.3914
 1077SOL    HW114867   1.152   2.239   9.865  0.1864  3.9790 -0.8695
 1077SOL    HW214868   1.020   2.183   9.871  3.1832 -0.1962  2.9601
 1078SOL     OW14869   4.204   2.208   2.822  0.6784 -0.0584 -0.3946
 1078SOL    HW114870   4.244   2.154   2.754  1.2508  1.0950 -0.9611
 1078SOL    HW214871   4.231   2.161   2.901  0.6894  0.2682 -0.2081
 1079SOL     OW14872   1.399   3.099   9.962 -0.0603  1.0419  0.3978
 1079SOL    HW114873   1.338   3.109   9.888 -1.1579  1.5110  1.3538
 1079SOL    HW214874   1.442   3.182   9.946  1.1436  0.3884  0.2191
 1080SOL     OW14875   4.133   2.841  14.139  0.1802 -0.1194 -0.0796
 1080SOL    HW114876   4.157   2.927  14.103 -3.1624  2.5054  3.9221
 1080SOL    HW214877   4.217   2.797  14.134 -0.5298 -1.5146  0.2132
 1081SOL     OW14878   0.288   3.846   3.015  0.0390 -0.2246  0.0165
 1081SOL    HW114879   0.259   3.760   2.985  2.0076 -1.7896  2.6500
 1081SOL    HW214880   0.212   3.870   3.067  0.6525  0.6582  0.5043
 1082SOL     OW14881   0.132   4.084  13.167 -0.1484 -0.0565  0.4137
 1082SOL    HW114882   0.107   3.993  13.184  1.0149 -0.3188  0.6891
 1082SOL    HW214883   0.201   4.065  13.104 -0.4156 -0.2200  0.1688
 1083SOL     OW14884   2.272   4.611  13.381 -0.3744  0.4610 -0.3747
 1083SOL    HW114885   2.278   4.520  13.353 -2.6590  0.2741 -0.2556
 1083SOL    HW214886   2.357   4.651  13.361 -0.0496  1.0908  2.3241
 1084SOL     OW14887   3.874   2.195   6.865  0.5822  0.0689  0.1473
 1084SOL    HW114888   3.907   2.157   6.783  1.2153 -0.2514  0.5552
 1084SOL    HW214889   3.794   2.238   6.836  0.5420 -0.7430 -0.9480
 1085SOL     OW14890   2.756   4.065   4.776 -0.9088 -0.0961 -0.8595
 1085SOL    HW114891   2.783   4.141   4.723  3.0633 -2.0046 -1.5311
 1085SOL    HW214892   2.660   4.075   4.770 -0.7891 -1.3480 -5.0556
 1086SOL     OW14893   4.728   3.033   9.498  0.0322  0.2698  0.1018
 1086SOL    HW114894   4.686   3.066   9.419  1.8748 -0.9999 -1.4209
 1086SOL    HW214895   4.663   3.050   9.565  0.6531  0.5255  0.6440
 1087SOL     OW14896   1.325   3.891   3.529 -0.6317  0.0693  0.2014
 1087SOL    HW114897   1.399   3.934   3.487 -0.4771 -0.0940  0.3052
 1087SOL    HW214898   1.344   3.920   3.619  0.8294  1.0625 -0.4295
 1088SOL     OW14899   4.095   1.020   4.884  0.4002  0.1090 -0.3637
 1088SOL    HW114900   4.090   1.012   4.979 -1.6862 -0.3610 -0.5219
 1088SOL    HW214901   4.006   1.036   4.853  0.3467  1.0260  0.2586
 1089SOL     OW14902   3.487   4.402   8.137 -0.0437  0.2701  0.1804
 1089SOL    HW114903   3.527   4.354   8.211 -0.9645 -2.1772 -0.8950
 1089SOL    HW214904   3.470   4.327   8.079  0.9768  1.1054 -1.2015
 1090SOL     OW14905   1.444   2.305   0.828  0.1661 -0.6030 -0.0598
 1090SOL    HW114906   1.537   2.325   0.816 -0.0930 -0.0556 -1.0931
 1090SOL    HW214907   1.420   2.241   0.762  1.3590  1.6785 -2.7027
 1091SOL     OW14908   0.002   1.865  12.122 -0.3822  0.1006 -0.3022
 1091SOL    HW114909   0.069   1.828  12.179 -1.1213  0.9107  1.1026
 1091SOL    HW214910   0.048   1.947  12.105  3.0816 -1.4898  1.5012
 1092SOL     OW14911   0.216   4.694   2.168  0.5269  0.2222 -0.0346
 1092SOL    HW114912   0.172   0.019   2.108 -1.4661 -0.3393  0.8517
 1092SOL    HW214913   0.263   0.029   2.213  2.9746 -0.4199 -1.5879
 1093SOL     OW14914   3.893   3.048   2.314 -0.0151 -0.2415 -0.1669
 1093SOL    HW114915   3.956   2.991   2.269 -0.3256 -2.5316  2.2980
 1093SOL    HW214916   3.945   3.110   2.364 -0.4266  0.6141 -0.7876
 1094SOL     OW14917   2.487   0.743   5.720 -0.1760  0.2083  0.2147
 1094SOL    HW114918   2.508   0.820   5.667 -0.3311 -0.4671 -0.8239
 1094SOL    HW214919   2.452   0.785   5.799  1.1088  0.8739  0.4253
 1095SOL     OW14920   2.663   3.590   5.268 -0.1904 -0.3709 -0.2473
 1095SOL    HW114921   2.739   3.631   5.229 -0.2457  1.0475  1.1157
 1095SOL    HW214922   2.612   3.669   5.288  3.7643  1.6878  1.6383
 1096SOL     OW14923   3.249   1.068   0.713 -0.8825  0.1620  0.2037
 1096SOL    HW114924   3.273   1.014   0.788  0.7373 -2.5630 -2.3200
 1096SOL    HW214925   3.164   1.101   0.742 -0.9230  0.0938  0.1633
 1097SOL     OW14926   4.571   0.272  11.238  0.5353 -0.1305 -0.5183
 1097SOL    HW114927   4.540   0.203  11.179  0.3460 -1.1906  0.8250
 1097SOL    HW214928   4.553   0.241  11.327  1.3425  2.5961  0.5937
 1098SOL     OW14929   3.525   1.962   0.651 -0.1951 -0.7924 -0.1248
 1098SOL    HW114930   3.442   2.003   0.627 -0.8139 -1.3277  1.0750
 1098SOL    HW214931   3.483   1.900   0.711 -0.5371 -1.9298 -1.5411
 1099SOL     OW14932   3.860   4.048   2.471 -0.4225  0.5688  0.9978
 1099SOL    HW114933   3.787   4.088   2.424 -0.4886 -2.2825 -1.3159
 1099SOL    HW214934   3.921   4.043   2.398 -0.3953  1.0175  0.9932
 1100SOL     OW14935   1.690   1.096   5.499  0.1697 -0.1093 -0.2474
 1100SOL    HW114936   1.767   1.041   5.509  0.9642  1.2261  0.9421
 1100SOL    HW214937   1.657   1.075   5.412 -1.5891  0.9252  0.1449
 1101SOL     OW14938   1.456   1.525   9.191  0.3977 -0.5539 -0.0213
 1101SOL    HW114939   1.424   1.573   9.267  0.8764  0.3685 -0.4003
 1101SOL    HW214940   1.542   1.492   9.215  0.9161 -0.0597 -1.1429
 1102SOL     OW14941   2.242   4.163  12.741  0.1959 -0.0834  0.1421
 1102SOL    HW114942   2.175   4.201  12.684  0.0626 -0.6429 -0.0695
 1102SOL    HW214943   2.188   4.097  12.784 -0.1301 -2.2683 -3.6839
 1103SOL     OW14944   2.129   0.222   2.679  0.0198 -0.5431  0.4364
 1103SOL    HW114945   2.142   0.231   2.585  0.9255 -1.5736  0.4692
 1103SOL    HW214946   2.122   0.313   2.708 -0.3667 -0.2208 -0.6732
 1104SOL     OW14947   1.172   3.421   8.789 -0.6545  0.1884  0.4586
 1104SOL    HW114948   1.082   3.396   8.807 -0.5316 -2.3461 -2.4369
 1104SOL    HW214949   1.160   3.515   8.807 -0.9360  0.6083 -1.9643
 1105SOL     OW14950   2.343   4.054   2.081  0.7774  0.7709  0.0528
 1105SOL    HW114951   2.398   3.987   2.040  1.9056  1.7420 -0.0144
 1105SOL    HW214952   2.390   4.136   2.063  0.3289  0.9989 -0.0639
 1106SOL     OW14953   2.124   1.860   2.839  0.4641  0.1830 -0.1952
 1106SOL    HW114954   2.212   1.854   2.875 -0.5559  0.2678  2.3241
 1106SOL    HW214955   2.110   1.775   2.797  1.7873  0.2977 -0.8743
 1107SOL     OW14956   3.882   0.828  13.148  0.3056  0.1280  0.4287
 1107SOL    HW114957   3.869   0.797  13.058  1.3409 -1.0857  0.7010
 1107SOL    HW214958   3.794   0.818  13.185  1.3827  0.0753  2.9061
 1108SOL     OW14959   0.916   0.078  10.122 -1.0741 -0.0738  0.0660
 1108SOL    HW114960   0.938   0.029  10.043 -0.0795 -0.9654  0.9049
 1108SOL    HW214961   0.851   0.139  10.086 -3.0120 -1.1957  1.6390
 1109SOL     OW14962   3.862   3.822   2.627 -0.4545 -0.0621 -0.4287
 1109SOL    HW114963   3.928   3.782   2.570  0.8909  0.4865  0.7407
 1109SOL    HW214964   3.859   3.907   2.584  1.7432 -0.3242 -1.1106
 1110SOL     OW14965   0.293   3.112  16.028 -0.1136  0.2759  0.1797
 1110SOL    HW114966   0.238   3.056  16.082  1.3888 -1.5081 -0.1590
 1110SOL    HW214967   0.382   3.107  16.063 -0.6530  3.7496  2.1502
 1111SOL     OW14968   3.543   1.754   9.709 -0.2766  0.1598  0.4050
 1111SOL    HW114969   3.624   1.776   9.663 -0.6341  1.7231  0.5270
 1111SOL    HW214970   3.496   1.836   9.724 -0.6837  0.1750 -0.9988
 1112SOL     OW14971   4.022   1.329   1.882 -0.2585  0.5103 -0.5981
 1112SOL    HW114972   3.933   1.352   1.854 -1.2806 -0.2483  1.9922
 1112SOL    HW214973   4.074   1.382   1.821 -0.0171 -0.2836 -1.0801
 1113SOL     OW14974   3.232   0.736   5.162  0.0196 -0.1409  0.0951
 1113SOL    HW114975   3.259   0.825   5.184 -1.1746  0.4377 -0.7516
 1113SOL    HW214976   3.299   0.678   5.197 -0.1254 -0.0522  0.5093
 1114SOL     OW14977   3.759   2.640   4.399 -0.3039  0.6249 -0.5546
 1114SOL    HW114978   3.694   2.710   4.402 -0.6161  0.2563  1.3696
 1114SOL    HW214979   3.830   2.681   4.449 -1.5404 -0.0065  1.7090
 1115SOL     OW14980   1.303   0.406   3.482  0.1944 -0.3262  0.0541
 1115SOL    HW114981   1.242   0.394   3.554  1.3998 -0.0179  1.1123
 1115SOL    HW214982   1.370   0.448   3.534 -0.2378  1.8488 -1.1538
 1116SOL     OW14983   2.808   1.213  17.704  0.2536 -0.1639  0.2712
 1116SOL    HW114984   2.745   1.235  17.635  0.3252 -0.9310 -0.0369
 1116SOL    HW214985   2.848   1.136  17.663 -3.5811 -2.6105  1.1309
 1117SOL     OW14986   1.965   4.273  12.597  0.3413  0.2426  0.2063
 1117SOL    HW114987   1.921   4.212  12.656  2.0728 -1.0871  0.1249
 1117SOL    HW214988   1.952   4.243  12.507  1.1381  0.4446  0.0202
 1118SOL     OW14989   1.160   4.531   1.417  0.1988 -0.2511 -0.4285
 1118SOL    HW114990   1.228   4.598   1.418  0.6463 -0.7249  0.2704
 1118SOL    HW214991   1.106   4.574   1.350  3.1643  0.1384 -2.5304
 1119SOL     OW14992   2.993   1.148   6.353 -0.2730  0.1214  0.0654
 1119SOL    HW114993   2.906   1.177   6.329 -1.5130 -2.0551  1.9145
 1119SOL    HW214994   2.995   1.163   6.448 -0.0868 -1.7946  0.3713
 1120SOL     OW14995   2.860   3.116   6.802  0.0016  0.1052  0.6680
 1120SOL    HW114996   2.893   3.204   6.785 -0.9823  0.2070 -0.7050
 1120SOL    HW214997   2.765   3.125   6.794  0.3705 -0.6382 -4.4427
 1121SOL     OW14998   1.562   1.047   7.846 -0.6674  0.0254  0.3253
 1121SOL    HW114999   1.509   1.025   7.923 -1.7967 -0.9810 -0.7395
 1121SOL    HW215000   1.505   1.109   7.801  1.7029  0.4244 -2.1428
 1122SOL     OW15001   1.924   3.377  14.650 -0.3881  0.6642  0.0449
 1122SOL    HW115002   2.017   3.385  14.629 -0.3946  0.6420  0.0074
 1122SOL    HW215003   1.911   3.283  14.658  0.5904  0.5436  0.2821
 1123SOL     OW15004   0.830   3.227   0.359 -0.6952 -0.2280 -0.4713
 1123SOL    HW115005   0.856   3.307   0.313  0.7519 -1.3506 -1.6138
 1123SOL    HW215006   0.804   3.252   0.447  1.8379 -1.7880  0.6841
 1124SOL     OW15007   2.136   1.372   4.527  0.1860 -0.4149  0.3317
 1124SOL    HW115008   2.138   1.282   4.560 -1.1762 -1.4211 -2.3245
 1124SOL    HW215009   2.217   1.375   4.476  1.1353  0.4885  1.8574
 1125SOL     OW15010   0.495   2.902   2.301  0.2875 -0.1816 -0.2874
 1125SOL    HW115011   0.433   2.831   2.321  2.9524 -2.4578 -0.0278
 1125SOL    HW215012   0.487   2.901   2.206  0.3945 -0.0432 -0.2969
 1126SOL     OW15013   3.206   3.573   7.047  0.7609 -0.1767 -0.8348
 1126SOL    HW115014   3.217   3.660   7.084 -1.3727  0.1746 -1.0416
 1126SOL    HW215015   3.295   3.565   7.011  0.9432 -0.7506 -0.2494
 1127SOL     OW15016   3.150   2.109  16.690  0.7211 -0.2047  0.1911
 1127SOL    HW115017   3.242   2.136  16.700  0.4565  0.0875  1.6994
 1127SOL    HW215018   3.098   2.186  16.714  0.8671  0.5339 -1.8090
 1128SOL     OW15019   4.583   0.587   6.509  0.4968 -0.2696  0.2953
 1128SOL    HW115020   4.526   0.515   6.537  0.3032  0.2989  1.3704
 1128SOL    HW215021   4.522   0.658   6.530 -0.0649 -0.6696  0.0199
 1129SOL     OW15022   2.040   4.057   7.691  0.1312  0.5191 -0.7286
 1129SOL    HW115023   2.028   3.977   7.743  2.0301  1.4287  1.1246
 1129SOL    HW215024   2.006   4.029   7.606 -0.9043  0.0991 -0.1853
 1130SOL     OW15025   3.406   2.544  10.764 -0.3768  0.2259  0.5957
 1130SOL    HW115026   3.374   2.508  10.681  1.2651  2.8001 -1.1915
 1130SOL    HW215027   3.437   2.467  10.811 -1.5633 -0.1308  0.7807
 1131SOL     OW15028   2.302   3.226   7.088 -0.4731 -0.2123 -0.6506
 1131SOL    HW115029   2.273   3.166   7.019 -0.7392 -0.6248 -0.1806
 1131SOL    HW215030   2.389   3.189   7.103  0.7303  2.5775 -0.8194
 1132SOL     OW15031   0.606   1.989   2.049 -0.2971 -0.3548 -0.5228
 1132SOL    HW115032   0.629   1.911   2.099 -1.3753 -0.9111 -0.9165
 1132SOL    HW215033   0.606   1.955   1.960 -0.2781  0.1069 -0.6985
 1133SOL     OW15034   2.719   2.467   6.756  0.3255  0.1646 -0.6498
 1133SOL    HW115035   2.771   2.387   6.748 -0.1461 -0.1187 -0.8794
 1133SOL    HW215036   2.691   2.453   6.847  0.0781  0.5110 -0.6721
 1134SOL     OW15037   2.236   4.035  11.152  0.9415 -0.2132  0.1562
 1134SOL    HW115038   2.153   3.994  11.175  1.0720 -0.2651  0.5391
 1134SOL    HW215039   2.283   4.049  11.234  1.2429 -1.9892  0.2859
 1135SOL     OW15040   4.314   3.068   5.615 -0.1088  0.7583  0.2505
 1135SOL    HW115041   4.248   3.076   5.684 -0.3948  0.5806 -0.0043
 1135SOL    HW215042   4.300   3.148   5.564  0.7441  1.2796  0.8229
 1136SOL     OW15043   3.569   0.680  14.680 -0.3213 -0.3853 -0.5086
 1136SOL    HW115044   3.570   0.597  14.728  0.4880  0.3807  0.8013
 1136SOL    HW215045   3.510   0.729  14.737  2.9103  2.5149  0.3324
 1137SOL     OW15046   3.436   3.848   1.062 -0.3415  0.0953 -0.8772
 1137SOL    HW115047   3.367   3.901   1.021  1.8447  0.6961 -3.7596
 1137SOL    HW215048   3.411   3.867   1.153  1.3058  0.3567 -0.4797
 1138SOL     OW15049   3.446   3.032  14.506  0.5446  0.4311  0.5857
 1138SOL    HW115050   3.392   3.111  14.506 -1.6653 -1.0659  1.9934
 1138SOL    HW215051   3.385   2.973  14.551  0.3314 -0.7042 -1.2057
 1139SOL     OW15052   0.353   3.754   5.681 -0.3504  0.5246  0.0017
 1139SOL    HW115053   0.431   3.745   5.736 -0.5534  0.2875  0.2503
 1139SOL    HW215054   0.290   3.784   5.746  0.7863  1.5365  0.6293
 1140SOL     OW15055   2.465   1.022   7.518  0.4217  0.2228  0.2512
 1140SOL    HW115056   2.498   1.071   7.594  0.1080 -0.0994  0.5921
 1140SOL    HW215057   2.525   1.052   7.449 -0.3806  0.3329 -0.3991
 1141SOL     OW15058   0.744   4.337   5.604 -0.4251  0.0738  0.2585
 1141SOL    HW115059   0.727   4.279   5.530  0.7657 -3.3834  2.7069
 1141SOL    HW215060   0.791   4.407   5.559 -0.2476  0.8016  1.5505
 1142SOL     OW15061   1.306   3.797  13.755 -0.6621  0.0698  0.1543
 1142SOL    HW115062   1.284   3.721  13.808 -2.5926  0.4418 -0.1039
 1142SOL    HW215063   1.226   3.803  13.703  0.4263  1.6181 -1.3498
 1143SOL     OW15064   2.630   0.114   1.657 -0.2530  0.0419 -0.4238
 1143SOL    HW115065   2.612   0.063   1.737  1.5813  1.7162  1.0407
 1143SOL    HW215066   2.542   0.148   1.638  0.7189  1.8695 -1.5978
 1144SOL     OW15067   3.026   0.675  13.151  0.2837  0.0522  0.1561
 1144SOL    HW115068   3.046   0.600  13.096  0.1314 -1.1980  1.8055
 1144SOL    HW215069   3.071   0.652  13.232 -2.3492 -1.9976  1.0325
 1145SOL     OW15070   2.874   4.663   7.667 -0.4757  0.5192  0.0493
 1145SOL    HW115071   2.815   4.733   7.695 -1.7562 -0.5981  0.1827
 1145SOL    HW215072   2.943   4.711   7.622  0.7592  0.1504  1.5413
 1146SOL     OW15073   1.476   2.268   9.134 -0.2200 -0.5526  0.5064
 1146SOL    HW115074   1.474   2.297   9.226 -0.1834  1.0417  0.0078
 1146SOL    HW215075   1.553   2.318   9.107  0.5288 -0.7915  2.1846
 1147SOL     OW15076   0.362   2.707   4.890 -0.0161 -0.4351 -0.2096
 1147SOL    HW115077   0.446   2.718   4.934  0.2908  0.9709 -1.1541
 1147SOL    HW215078   0.344   2.794   4.854 -1.8277 -1.7123 -2.4113
 1148SOL     OW15079   3.045   2.833   8.481  0.0234 -0.4267 -0.1957
 1148SOL    HW115080   3.089   2.915   8.461 -0.7522 -0.9733 -4.0889
 1148SOL    HW215081   3.092   2.816   8.563 -0.9231  0.5110  0.5341
 1149SOL     OW15082   3.149   3.528  10.190 -0.9969 -0.0839 -0.2097
 1149SOL    HW115083   3.225   3.580  10.163 -2.7260  0.9470 -2.9756
 1149SOL    HW215084   3.083   3.597  10.187 -0.0062  0.9580  1.7138
 1150SOL     OW15085   2.948   1.455   7.517  0.2992 -0.4132 -0.2707
 1150SOL    HW115086   2.864   1.440   7.474 -0.8501 -1.6666  2.4662
 1150SOL    HW215087   2.911   1.468   7.604 -3.3081 -0.5385 -1.8118
 1151SOL     OW15088   4.122   2.320  10.042 -0.4238 -0.6861 -0.1628
 1151SOL    HW115089   4.117   2.266  10.121 -0.7597  2.1362  1.7440
 1151SOL    HW215090   4.215   2.311  10.024 -0.2366  1.9693 -0.5429
 1152SOL     OW15091   3.916   3.109  12.018  0.3267 -0.6775 -0.1544
 1152SOL    HW115092   3.990   3.106  12.079  0.6776 -0.6816 -0.5840
 1152SOL    HW215093   3.960   3.080  11.939  0.8852 -1.0906  0.3164
 1153SOL     OW15094   0.537   1.497   2.487 -0.1701 -0.0779 -0.2884
 1153SOL    HW115095   0.562   1.432   2.553 -0.0077  0.5698  0.2958
 1153SOL    HW215096   0.616   1.511   2.436 -0.1458 -0.2183 -0.2880
 1154SOL     OW15097   2.377   0.481   6.387  0.1983 -0.1964  0.1768
 1154SOL    HW115098   2.366   0.386   6.379 -1.2083  0.1252 -1.7348
 1154SOL    HW215099   2.357   0.501   6.296  0.9997  1.6184  0.3903
 1155SOL     OW15100   0.309   0.371   2.029 -0.5967  0.3366 -0.5283
 1155SOL    HW115101   0.249   0.306   1.993 -2.6666  1.8090  0.2717
 1155SOL    HW215102   0.272   0.453   1.996  1.8088  1.2175 -1.0269
 1156SOL     OW15103   1.744   3.132   2.605  0.4388 -0.0381 -0.0448
 1156SOL    HW115104   1.765   3.197   2.538 -1.1221  0.1279 -0.3681
 1156SOL    HW215105   1.789   3.169   2.681 -2.6440  0.2606  1.6196
 1157SOL     OW15106   2.804   3.806   8.111  0.7339 -0.0521  0.7989
 1157SOL    HW115107   2.769   3.878   8.165 -0.8719  1.0322 -1.6885
 1157SOL    HW215108   2.817   3.750   8.187  0.7201  0.5159  1.2214
 1158SOL     OW15109   0.121   4.465   4.301 -0.1381  0.4578  0.0516
 1158SOL    HW115110   0.124   4.370   4.312 -2.2778  0.3561 -0.2123
 1158SOL    HW215111   0.095   4.485   4.391 -1.7787 -0.7929 -0.1490
 1159SOL     OW15112   1.147   4.140  14.269 -0.7931 -0.0744 -0.5605
 1159SOL    HW115113   1.201   4.214  14.297 -0.9190 -0.1279 -0.1855
 1159SOL    HW215114   1.063   4.177  14.242 -1.3969 -1.9653 -1.2119
 1160SOL     OW15115   4.003   1.597   4.881 -0.0289 -0.3479 -0.2061
 1160SOL    HW115116   4.097   1.613   4.883 -0.7283  3.5748 -0.1509
 1160SOL    HW215117   3.985   1.621   4.790 -1.9674 -1.9360 -0.2595
 1161SOL     OW15118   4.208   1.170   3.362  0.4822 -0.0927  1.0455
 1161SOL    HW115119   4.239   1.169   3.272  0.2811  2.3457  0.9677
 1161SOL    HW215120   4.287   1.163   3.415  0.5059 -1.5769  0.8216
 1162SOL     OW15121   1.594   0.985  14.361  0.2667 -0.1068  0.4416
 1162SOL    HW115122   1.645   0.914  14.323 -1.4803 -0.0579 -2.0202
 1162SOL    HW215123   1.552   0.947  14.438  0.5676 -0.7152  0.3017
 1163SOL     OW15124   2.780   1.195   3.924 -0.8336  0.4149 -0.0374
 1163SOL    HW115125   2.761   1.244   4.004  1.9000 -0.4992  1.1860
 1163SOL    HW215126   2.840   1.124   3.948 -0.0655  0.4078 -1.9702
 1164SOL     OW15127   4.417   0.056   1.927  0.2443  0.0015 -0.5194
 1164SOL    HW115128   4.472   0.024   1.999  1.3841 -0.8818 -1.7746
 1164SOL    HW215129   4.481   0.050   1.856 -0.7887  2.1237 -1.6485
 1165SOL     OW15130   0.266   4.436   0.445 -0.2320  0.2770 -0.4005
 1165SOL    HW115131   0.307   4.357   0.482  0.0394  1.4949  1.8852
 1165SOL    HW215132   0.253   4.497   0.517  1.2906  0.6284 -0.4261
 1166SOL     OW15133   4.045   0.786   1.877  0.2232  0.2930 -0.2016
 1166SOL    HW115134   4.027   0.739   1.794  2.8669 -0.1120 -0.5264
 1166SOL    HW215135   4.063   0.876   1.850  1.4961  0.7516  2.2307
 1167SOL     OW15136   2.782   3.754   1.178  0.5016 -0.0871  0.2395
 1167SOL    HW115137   2.811   3.683   1.234 -0.8856 -1.6964 -1.0864
 1167SOL    HW215138   2.706   3.709   1.142  0.6467 -1.8936  2.2113
 1168SOL     OW15139   0.705   0.799   6.598 -0.4149 -0.6164 -0.3933
 1168SOL    HW115140   0.756   0.736   6.548 -0.0988  0.7362 -1.7718
 1168SOL    HW215141   0.736   0.884   6.567  0.3170 -0.6726  0.1978
 1169SOL     OW15142   0.611   3.544  10.249  0.0301 -0.3759 -0.5033
 1169SOL    HW115143   0.528   3.529  10.205 -0.1290 -0.0058 -0.3326
 1169SOL    HW215144   0.643   3.631  10.223  2.1946 -1.4814 -1.5805
 1170SOL     OW15145   2.999   2.322  16.812 -0.3822 -0.4426  0.2357
 1170SOL    HW115146   2.913   2.360  16.797  0.4662  1.4606  0.1605
 1170SOL    HW215147   3.008   2.351  16.903 -0.6066  2.6317 -0.7283
 1171SOL     OW15148   1.665   2.352   2.924 -0.2236  0.4226  0.0267
 1171SOL    HW115149   1.740   2.391   2.970 -0.3627  1.5223 -0.6876
 1171SOL    HW215150   1.705   2.290   2.864 -0.6937 -1.3721  1.5729
 1172SOL     OW15151   2.895   3.716   5.144 -0.1930  0.4607 -0.3519
 1172SOL    HW115152   2.979   3.673   5.159 -1.2093 -0.9362  1.3611
 1172SOL    HW215153   2.911   3.748   5.055 -0.3566  2.6815  0.3979
 1173SOL     OW15154   2.874   3.060  11.629  0.2935 -0.1031 -0.0051
 1173SOL    HW115155   2.928   3.027  11.557 -1.1016 -1.5655 -0.3929
 1173SOL    HW215156   2.930   3.072  11.706  1.7567 -3.4445 -0.5406
 1174SOL     OW15157   0.878   1.283   8.848 -0.2242  0.4453  0.1656
 1174SOL    HW115158   0.835   1.204   8.815  1.3651 -0.0314 -0.7596
 1174SOL    HW215159   0.807   1.297   8.910  0.2626 -0.2831  0.8931
 1175SOL     OW15160   3.475   2.870   3.340 -0.1667 -0.4406 -0.2093
 1175SOL    HW115161   3.485   2.799   3.276 -0.9299 -0.2744 -0.5162
 1175SOL    HW215162   3.482   2.944   3.279  0.8431 -0.3036  0.0690
 1176SOL     OW15163   0.443   4.721   8.314  0.3086 -0.7073 -0.4423
 1176SOL    HW115164   0.488   0.068   8.297 -1.9289  0.3774 -1.0098
 1176SOL    HW215165   0.357   0.005   8.278 -0.3301 -2.9043 -0.1266
 1177SOL     OW15166   1.720   0.303   2.784  0.5849  0.1624 -0.2972
 1177SOL    HW115167   1.767   0.351   2.717  1.8463 -0.9904 -0.2295
 1177SOL    HW215168   1.789   0.248   2.821  0.3718  1.6653  2.3071
 1178SOL     OW15169   3.016   4.063   3.563 -0.5564  0.0661 -0.6483
 1178SOL    HW115170   3.044   4.149   3.595  1.0013 -0.6173 -0.1694
 1178SOL    HW215171   2.985   4.022   3.644 -1.9817  0.2159 -1.1159
 1179SOL     OW15172   3.657   0.590  11.455  0.9132 -0.4399 -0.4639
 1179SOL    HW115173   3.733   0.636  11.490 -0.0570  1.2965 -0.6647
 1179SOL    HW215174   3.697   0.503  11.450 -1.0600 -1.5614  2.4513
 1180SOL     OW15175   3.626   2.222   9.645  0.5196 -0.3929  0.5137
 1180SOL    HW115176   3.622   2.279   9.722  1.6153 -2.1634  1.8995
 1180SOL    HW215177   3.665   2.145   9.688  0.0929 -1.2633 -0.6448
 1181SOL     OW15178   3.683   0.361   7.520 -0.2074  0.4185 -0.3756
 1181SOL    HW115179   3.767   0.315   7.511  0.2274  0.8478  1.5223
 1181SOL    HW215180   3.657   0.369   7.612  0.6540 -1.1722 -0.0033
 1182SOL     OW15181   0.527   4.210   4.671 -0.1468 -0.1164 -0.1749
 1182SOL    HW115182   0.497   4.188   4.759  1.7019  1.7358  0.9202
 1182SOL    HW215183   0.445   4.221   4.623  0.1130 -0.8012 -0.7938
 1183SOL     OW15184   2.571   2.895   3.872  0.3379 -0.9911  0.3888
 1183SOL    HW115185   2.648   2.902   3.929  1.0377 -1.2855 -0.5225
 1183SOL    HW215186   2.562   2.800   3.864  2.6502 -1.1575 -0.3397
 1184SOL     OW15187   2.620   1.562   1.542  0.1746  0.4737  0.3023
 1184SOL    HW115188   2.535   1.588   1.578 -0.3286  0.3722 -0.8108
 1184SOL    HW215189   2.675   1.627   1.584 -0.5946  2.2539 -1.4462
 1185SOL     OW15190   2.000   2.092   9.369 -0.4133  0.2369  0.4300
 1185SOL    HW115191   1.907   2.071   9.371 -0.4506  0.5296  1.4154
 1185SOL    HW215192   2.017   2.118   9.459 -0.3332  2.6911 -0.2873
 1186SOL     OW15193   0.157   2.005   4.585 -0.2572  0.4735  0.9120
 1186SOL    HW115194   0.179   2.042   4.671 -1.7475  0.5064  1.2751
 1186SOL    HW215195   0.240   1.987   4.540  1.3293  0.6468  3.7632
 1187SOL     OW15196   2.029   3.335   7.505  0.1752 -0.0290 -0.4757
 1187SOL    HW115197   1.940   3.303   7.492  1.0110 -2.6789  0.3941
 1187SOL    HW215198   2.061   3.348   7.416  0.3325 -1.6794 -0.6518
 1188SOL     OW15199   0.140   2.569   5.571  0.5102  0.0943 -0.2968
 1188SOL    HW115200   0.147   2.574   5.666 -2.3246 -1.3254 -0.0209
 1188SOL    HW215201   0.102   2.654   5.549  0.6644 -0.1952 -1.7123
 1189SOL     OW15202   1.141   2.405   8.292 -0.6640 -0.4189 -0.0317
 1189SOL    HW115203   1.089   2.414   8.372 -1.1501  0.2477 -0.4174
 1189SOL    HW215204   1.085   2.344   8.244  0.7374 -0.9741 -0.9719
 1190SOL     OW15205   0.988   0.535   7.494  0.3210  0.3676 -0.1849
 1190SOL    HW115206   0.992   0.440   7.508 -3.5966  0.1390 -0.6267
 1190SOL    HW215207   0.996   0.578   7.579 -0.2019  1.5950 -0.7598
 1191SOL     OW15208   2.239   4.407  15.630 -0.2967  0.0119 -0.3313
 1191SOL    HW115209   2.319   4.459  15.630 -0.9479  1.0076  0.0349
 1191SOL    HW215210   2.259   4.358  15.710  0.0818  1.0514  0.2083
 1192SOL     OW15211   2.117   3.718   3.201 -0.1819  0.4943  0.9954
 1192SOL    HW115212   2.165   3.740   3.281  1.5265  0.0851  0.0670
 1192SOL    HW215213   2.184   3.690   3.140  0.2153  2.1404  0.6832
 1193SOL     OW15214   0.415   2.868   2.030 -0.1923  0.9908 -0.4459
 1193SOL    HW115215   0.342   2.856   1.968 -2.4602  1.8904  2.0433
 1193SOL    HW215216   0.465   2.797   1.990  0.2451  2.2221 -2.0786
 1194SOL     OW15217   1.358   2.940  17.567 -0.3537  0.1563 -0.4138
 1194SOL    HW115218   1.303   3.004  17.521 -0.5622 -0.0977 -0.5131
 1194SOL    HW215219   1.290   2.896  17.617  0.2191 -1.3147 -0.9474
 1195SOL     OW15220   4.627   2.877  11.657  0.3102  0.0118 -0.3846
 1195SOL    HW115221   4.695   2.840  11.715  0.8455 -0.9524 -1.6254
 1195SOL    HW215222   4.588   2.798  11.620  0.1994 -0.2372  0.2519
 1196SOL     OW15223   2.342   0.893   2.743  0.1627  0.4785 -0.4090
 1196SOL    HW115224   2.265   0.897   2.686 -1.5210 -1.5725  1.7008
 1196SOL    HW215225   2.385   0.978   2.736  0.3235  0.4135 -0.2079
 1197SOL     OW15226   0.451   2.959   9.144 -0.2136 -0.6373 -0.2621
 1197SOL    HW115227   0.451   2.868   9.115  0.0195 -0.4244 -0.9164
 1197SOL    HW215228   0.510   2.961   9.220 -0.7608 -2.7920  0.2328
 1198SOL     OW15229   0.764   2.624   9.693  0.0824 -0.2158 -0.3924
 1198SOL    HW115230   0.699   2.678   9.738  0.2640 -0.0920 -0.2800
 1198SOL    HW215231   0.792   2.574   9.770 -0.4104 -1.3916 -0.9784
 1199SOL     OW15232   0.744   3.626   3.693 -0.0903 -0.3176 -0.1141
 1199SOL    HW115233   0.714   3.693   3.632  0.1561 -0.7259 -0.6787
 1199SOL    HW215234   0.661   3.579   3.697  0.3189 -1.0967 -1.0091
 1200SOL     OW15235   0.586   0.408   5.395 -0.1565 -0.1881  1.0108
 1200SOL    HW115236   0.517   0.421   5.460  0.2631  0.9048  1.2362
 1200SOL    HW215237   0.563   0.464   5.321  0.5393  0.0378  0.9641
 1201SOL     OW15238   0.956   4.605   5.127  0.5998 -0.0639  0.3846
 1201SOL    HW115239   1.047   4.633   5.113  0.2665  1.3875  1.1458
 1201SOL    HW215240   0.931   4.557   5.048 -0.4258  0.7335  0.2295
 1202SOL     OW15241   2.546   4.248  17.460 -0.2891  0.2625 -0.5900
 1202SOL    HW115242   2.613   4.232  17.526  0.3422  0.6157 -1.1378
 1202SOL    HW215243   2.475   4.278  17.516 -0.5134  0.3232 -0.9053
 1203SOL     OW15244   4.075   1.587   2.921 -0.0024  0.5731 -0.1546
 1203SOL    HW115245   4.158   1.572   2.968 -1.2802  0.6730  2.1366
 1203SOL    HW215246   3.997   1.576   2.976  0.2990  0.5577  0.2707
 1204SOL     OW15247   0.167   3.730   5.471 -0.2339 -0.3869 -0.6028
 1204SOL    HW115248   0.230   3.760   5.536  0.6658 -0.8048 -1.2744
 1204SOL    HW215249   0.199   3.641   5.454  1.8903  0.3607 -0.4979
 1205SOL     OW15250   0.214   3.351   5.185  1.0522 -0.1519  0.1924
 1205SOL    HW115251   0.193   3.260   5.203 -0.3415 -0.0727 -1.0492
 1205SOL    HW215252   0.227   3.341   5.091  0.5358 -0.5455  0.1674
 1206SOL     OW15253   2.235   0.982   6.794  0.2241  0.0394  0.3589
 1206SOL    HW115254   2.296   0.909   6.802 -1.2542 -1.1807  0.4160
 1206SOL    HW215255   2.166   0.962   6.856 -0.2637  2.2498  0.5352
 1207SOL     OW15256   3.053   1.098  12.876  0.3661  0.5176 -0.1436
 1207SOL    HW115257   3.103   1.149  12.940 -0.5197  1.8546 -0.4966
 1207SOL    HW215258   3.047   1.167  12.809 -0.2555  2.2698  1.7129
 1208SOL     OW15259   0.698   0.542   7.696  0.4132  0.6790  0.2545
 1208SOL    HW115260   0.634   0.583   7.637 -0.9623 -2.1239 -0.2246
 1208SOL    HW215261   0.661   0.556   7.783  0.7616 -0.5573  0.5952
 1209SOL     OW15262   1.587   0.304  12.571 -0.3624  0.6658  0.0929
 1209SOL    HW115263   1.609   0.376  12.630  1.5081 -0.9754  1.4197
 1209SOL    HW215264   1.534   0.252  12.632 -1.2026  1.4524  0.0228
 1210SOL     OW15265   0.391   1.803   6.566 -0.0181 -0.2493  0.8299
 1210SOL    HW115266   0.436   1.792   6.650 -0.0009  0.0705  0.8609
 1210SOL    HW215267   0.397   1.717   6.523 -0.4448  1.1617 -2.0289
 1211SOL     OW15268   2.885   4.439  11.610  0.1102  0.1760  0.2860
 1211SOL    HW115269   2.898   4.345  11.620 -1.6424  0.0284  1.1600
 1211SOL    HW215270   2.794   4.452  11.638  0.6488 -0.0383  2.1826
 1212SOL     OW15271   2.443   0.831   4.911 -0.3513  0.1455  0.4116
 1212SOL    HW115272   2.350   0.846   4.926 -0.2935  0.9603 -0.0176
 1212SOL    HW215273   2.473   0.858   4.998  2.1668 -2.0616  0.2285
 1213SOL     OW15274   4.226   4.194   4.029  0.4525 -0.0911 -0.3260
 1213SOL    HW115275   4.271   4.170   4.110 -0.6921 -0.0764  0.3312
 1213SOL    HW215276   4.233   4.289   4.037  0.1058 -0.0448 -0.5665
 1214SOL     OW15277   4.063   4.189  16.741 -0.7382 -0.6649  0.3052
 1214SOL    HW115278   4.036   4.182  16.833 -2.4759  0.8057 -0.1108
 1214SOL    HW215279   3.988   4.231  16.700 -0.2761 -1.1555 -1.0304
 1215SOL     OW15280   1.117   4.496   1.048 -0.1609  0.1930  0.5536
 1215SOL    HW115281   1.106   4.459   0.960 -2.5286  0.0951  0.9100
 1215SOL    HW215282   1.133   4.416   1.099 -1.0436  0.0389  0.5916
 1216SOL     OW15283   3.640   3.504   7.616  0.1041  0.2463  0.3562
 1216SOL    HW115284   3.590   3.422   7.612 -0.1918  0.4154  0.6299
 1216SOL    HW215285   3.564   3.559   7.597  2.0126  3.0156  0.9056
 1217SOL     OW15286   4.196   2.638   7.660 -0.2170 -0.0618 -0.1352
 1217SOL    HW115287   4.273   2.590   7.628  0.4518  1.0673 -0.2279
 1217SOL    HW215288   4.134   2.636   7.588 -0.3610  0.8536 -0.0352
 1218SOL     OW15289   3.621   2.345   9.881  0.1271  0.1106 -0.6723
 1218SOL    HW115290   3.691   2.384   9.933 -0.2414  1.5682 -1.2796
 1218SOL    HW215291   3.586   2.280   9.943  0.1270  0.2647 -0.5108
 1219SOL     OW15292   3.862   2.786   7.173  0.4720  0.0298 -0.0946
 1219SOL    HW115293   3.857   2.707   7.226  2.9404 -1.4797 -2.1179
 1219SOL    HW215294   3.956   2.796   7.161  1.0200 -1.7042  2.7531
 1220SOL     OW15295   4.080   4.716   2.537 -0.2177  0.1348 -0.2919
 1220SOL    HW115296   3.996   4.670   2.543 -0.6097  0.7744 -0.8645
 1220SOL    HW215297   4.057   0.030   2.458 -0.2938  0.2894 -0.1708
 1221SOL     OW15298   0.378   2.622  10.052 -0.2180  0.1799 -0.5293
 1221SOL    HW115299   0.379   2.709  10.013 -1.2062  1.0085  1.2803
 1221SOL    HW215300   0.472   2.604  10.045 -0.2638  0.0296 -0.7379
 1222SOL     OW15301   1.711   3.761  16.623  0.1206  0.1478 -0.1123
 1222SOL    HW115302   1.651   3.734  16.554  1.0631  1.3328 -1.4044
 1222SOL    HW215303   1.782   3.704  16.593 -0.5406 -0.2578 -0.9311
 1223SOL     OW15304   0.185   2.361   6.019  0.3936 -0.0110 -0.0429
 1223SOL    HW115305   0.279   2.348   6.026  0.3973  1.6980  3.0459
 1223SOL    HW215306   0.160   2.272   5.995 -0.9339  0.0043  1.2292
 1224SOL     OW15307   3.647   3.371  12.027  0.8242  0.2503 -0.2426
 1224SOL    HW115308   3.730   3.390  12.070  0.5678 -0.8868  0.7608
 1224SOL    HW215309   3.644   3.280  12.057 -1.4117  1.0157  1.8829
 1225SOL     OW15310   4.116   4.028   3.828 -0.1986  0.0894  0.5339
 1225SOL    HW115311   4.027   4.058   3.811 -0.1124 -0.0951 -0.2352
 1225SOL    HW215312   4.143   4.078   3.906 -1.4406  1.8313 -0.1563
 1226SOL     OW15313   3.726   3.981   2.133 -0.3393 -0.3599  0.0509
 1226SOL    HW115314   3.752   3.924   2.205  1.4506 -0.4776 -0.6918
 1226SOL    HW215315   3.635   3.951   2.131 -0.8767  1.3452 -1.1261
 1227SOL     OW15316   0.494   4.034   9.178 -0.3738  0.0398 -0.2422
 1227SOL    HW115317   0.524   4.016   9.089  0.1521  0.5015 -0.1553
 1227SOL    HW215318   0.415   4.084   9.159 -0.8609 -1.2553 -1.5859
 1228SOL     OW15319   1.773   3.273   1.968  0.0630  0.4183 -0.1181
 1228SOL    HW115320   1.807   3.349   1.920 -1.1677  0.4174 -0.9735
 1228SOL    HW215321   1.737   3.322   2.043 -1.7163  0.8821 -1.2948
 1229SOL     OW15322   0.686   0.920   7.124 -0.3249  0.2599  0.0298
 1229SOL    HW115323   0.591   0.906   7.128 -0.2445  0.3326  1.8168
 1229SOL    HW215324   0.702   0.876   7.040  1.3447  2.0495 -0.5998
 1230SOL     OW15325   0.964   0.709   1.443 -0.7443 -0.4466 -0.4957
 1230SOL    HW115326   1.023   0.753   1.382  0.2094 -0.8005  0.1724
 1230SOL    HW215327   0.878   0.747   1.421 -0.5464  0.8585  0.9541
 1231SOL     OW15328   1.288   3.847   6.546 -0.1166 -0.3621  0.3632
 1231SOL    HW115329   1.224   3.897   6.597  0.3760  0.3883  0.2610
 1231SOL    HW215330   1.292   3.891   6.461  0.0244 -0.5276  0.2850
 1232SOL     OW15331   0.038   0.069   0.761  0.1351 -0.2705 -0.5597
 1232SOL    HW115332   4.727   0.045   0.841  0.5039  0.1500 -0.2155
 1232SOL    HW215333   4.705   0.068   0.695 -0.0688  0.7304 -0.3716
 1233SOL     OW15334   2.205   1.192  16.736 -0.1622  0.1011  0.2806
 1233SOL    HW115335   2.211   1.181  16.641 -1.7680  1.1564  0.0742
 1233SOL    HW215336   2.266   1.120  16.751  1.0083  1.5386  2.3622
 1234SOL     OW15337   1.689   2.757   9.932 -0.2333  0.3875  0.8298
 1234SOL    HW115338   1.675   2.662   9.928  3.5596 -0.1440  0.3887
 1234SOL    HW215339   1.598   2.787   9.928  0.0666  0.8407 -2.7321
 1235SOL     OW15340   0.279   3.595   2.889  0.2070 -0.8326 -0.2619
 1235SOL    HW115341   0.289   3.507   2.924 -0.8054 -0.7175  0.2885
 1235SOL    HW215342   0.188   3.597   2.859  1.2017 -0.8600 -3.3216
 1236SOL     OW15343   1.828   1.518   5.519  0.1559  0.3568  0.0022
 1236SOL    HW115344   1.861   1.592   5.571 -0.8129  0.1928  0.8404
 1236SOL    HW215345   1.848   1.550   5.431 -1.8078  1.4774 -0.0497
 1237SOL     OW15346   1.467   1.695   4.653  0.2735 -0.3004  0.5452
 1237SOL    HW115347   1.411   1.619   4.640 -0.6333  0.5749 -0.5925
 1237SOL    HW215348   1.463   1.737   4.567 -2.0700 -2.3236 -0.3380
 1238SOL     OW15349   3.016   2.479   7.548 -0.2604  0.3033  1.1076
 1238SOL    HW115350   3.020   2.479   7.452 -2.6898  0.7758  1.0082
 1238SOL    HW215351   3.064   2.561   7.558 -2.4530  1.6038  1.0052
 1239SOL     OW15352   4.355   3.834   7.945  0.8101 -0.0418 -0.0604
 1239SOL    HW115353   4.296   3.842   8.021 -1.8423  2.2418 -2.3654
 1239SOL    HW215354   4.325   3.908   7.892 -1.0289 -1.0824 -0.4564
 1240SOL     OW15355   3.302   3.921   3.908 -0.4620 -0.8247 -0.0559
 1240SOL    HW115356   3.285   3.856   3.839 -0.7451 -2.7387  1.8095
 1240SOL    HW215357   3.367   3.978   3.867  1.2536 -2.9508 -0.3439
 1241SOL     OW15358   3.063   4.274   1.910 -0.4321  0.0024 -0.0526
 1241SOL    HW115359   3.066   4.256   2.004  0.2192  2.0699  0.3063
 1241SOL    HW215360   2.971   4.257   1.888 -0.5620  0.7994 -0.1377
 1242SOL     OW15361   2.390   3.458   5.836  0.4408  0.3177  0.0275
 1242SOL    HW115362   2.483   3.436   5.831  0.6245  1.1534 -0.3269
 1242SOL    HW215363   2.359   3.391   5.897 -1.5202  1.7567  0.6100
 1243SOL     OW15364   4.557   1.550  10.170  0.2187 -0.4613 -0.4674
 1243SOL    HW115365   4.541   1.492  10.096 -1.7435 -2.4757  1.5186
 1243SOL    HW215366   4.600   1.487  10.229 -0.0228 -0.4826 -0.3110
 1244SOL     OW15367   3.351   3.461  11.730 -0.1310  0.1987  0.4348
 1244SOL    HW115368   3.427   3.408  11.753 -0.5614 -0.3968  0.4723
 1244SOL    HW215369   3.326   3.430  11.643  0.6641  1.0770 -0.1119
 1245SOL     OW15370   2.733   3.451   2.122  0.0040  0.0891 -0.6261
 1245SOL    HW115371   2.822   3.477   2.100  0.8169 -0.7219  1.6659
 1245SOL    HW215372   2.729   3.376   2.063  0.7563 -1.6002  1.4421
 1246SOL     OW15373   0.112   1.678   1.716  0.1838 -0.2390  0.1697
 1246SOL    HW115374   0.121   1.749   1.652  0.8045 -0.3343  0.1569
 1246SOL    HW215375   0.161   1.722   1.785  1.1966  1.1405 -1.4129
 1247SOL     OW15376   1.169   2.020  12.769 -0.1438 -0.4185  0.3593
 1247SOL    HW115377   1.202   1.933  12.744 -0.2213 -0.6345  0.9857
 1247SOL    HW215378   1.170   2.015  12.865  0.0959 -0.9938  0.3316
 1248SOL     OW15379   4.371   3.095   6.078 -0.1358  0.0262  0.5077
 1248SOL    HW115380   4.365   3.027   6.145 -0.5827  0.2788  0.7203
 1248SOL    HW215381   4.369   3.175   6.130 -0.1806 -0.3920  1.1459
 1249SOL     OW15382   1.712   4.023   7.655 -0.2293  0.1913 -0.0504
 1249SOL    HW115383   1.670   3.976   7.728  0.7356 -0.7926 -0.1316
 1249SOL    HW215384   1.651   4.097   7.650 -0.4502  0.1363  1.9341
 1250SOL     OW15385   0.141   1.411   7.332  0.3150 -0.0077  0.1274
 1250SOL    HW115386   0.156   1.503   7.354 -1.1177  0.3905 -0.5213
 1250SOL    HW215387   0.153   1.417   7.237 -3.4311 -0.4719 -0.4050
 1251SOL     OW15388   2.053   0.124   2.137 -0.0448  0.1273  0.0390
 1251SOL    HW115389   2.073   0.069   2.213 -3.6310  0.0217  0.9115
 1251SOL    HW215390   1.961   0.135   2.162  0.2538  0.3039  1.0701
 1252SOL     OW15391   3.033   1.330   3.110 -0.6073  0.0799 -0.0947
 1252SOL    HW115392   3.088   1.367   3.179 -0.0375  1.2337 -1.1684
 1252SOL    HW215393   3.034   1.404   3.049  2.0298  0.6913  0.6692
 1253SOL     OW15394   1.128   1.812  14.427  0.2848 -1.0485 -0.2798
 1253SOL    HW115395   1.111   1.723  14.398 -1.0924 -1.3180  1.3557
 1253SOL    HW215396   1.082   1.814  14.511 -1.1304  0.6343 -1.0713
 1254SOL     OW15397   0.330   3.958   5.131 -0.2297 -0.0401 -0.0348
 1254SOL    HW115398   0.419   3.977   5.161  0.2748 -1.4282 -0.6466
 1254SOL    HW215399   0.335   3.863   5.124 -0.7624  0.0295 -1.2721
 1255SOL     OW15400   1.846   0.730   5.826  0.2323 -0.5668 -0.0871
 1255SOL    HW115401   1.759   0.713   5.790 -1.0211  0.9609  2.2463
 1255SOL    HW215402   1.900   0.659   5.788  1.7051  1.0502 -1.0175
 1256SOL     OW15403   0.846   1.262   6.935 -0.3565 -0.2308  0.5290
 1256SOL    HW115404   0.829   1.219   6.851 -1.1213 -1.2975  1.2321
 1256SOL    HW215405   0.937   1.288   6.924  0.0665 -0.8145  2.6335
 1257SOL     OW15406   3.637   2.550  14.113  0.3363  0.6606 -0.4091
 1257SOL    HW115407   3.634   2.570  14.207 -2.4210  1.1858 -0.6268
 1257SOL    HW215408   3.712   2.490  14.118 -0.2322  0.0767  1.1398
 1258SOL     OW15409   3.121   0.294   5.728  0.1618 -0.4033  0.1707
 1258SOL    HW115410   3.125   0.205   5.693  0.7770  0.1183 -1.1058
 1258SOL    HW215411   3.036   0.293   5.772  0.1784 -1.0301  0.1848
 1259SOL     OW15412   2.160   1.142   2.998  0.3090  0.3771  0.1546
 1259SOL    HW115413   2.212   1.126   2.918  0.5756  1.8505  0.0428
 1259SOL    HW215414   2.226   1.177   3.058 -0.1882 -1.2692  1.6614
 1260SOL     OW15415   3.751   0.136   3.291 -0.2273 -0.1533  0.0568
 1260SOL    HW115416   3.659   0.152   3.310 -0.5416 -0.7984 -0.8844
 1260SOL    HW215417   3.738   0.090   3.208  0.7697  2.0620 -1.3039
 1261SOL     OW15418   2.355   1.376  16.543 -0.5036  1.0329 -0.5171
 1261SOL    HW115419   2.324   1.298  16.496  1.6765 -0.8267  1.1066
 1261SOL    HW215420   2.444   1.352  16.567  0.4059  2.5143 -2.4865
 1262SOL     OW15421   1.034   1.741   4.689  0.4277 -0.0193 -0.3121
 1262SOL    HW115422   1.100   1.702   4.631 -0.3396 -2.1994  0.2631
 1262SOL    HW215423   1.089   1.781   4.756  0.2702  1.6790 -1.2090
 1263SOL     OW15424   3.934   2.284   7.445 -0.2998 -0.0011 -0.2886
 1263SOL    HW115425   3.871   2.228   7.490 -0.3708 -0.2702 -0.7241
 1263SOL    HW215426   4.008   2.228   7.468 -0.7044 -0.4953 -0.2001
 1264SOL     OW15427   3.732   3.821   3.929  0.0484  0.1235 -0.0226
 1264SOL    HW115428   3.717   3.852   3.839 -0.4382  1.2062  0.4294
 1264SOL    HW215429   3.816   3.861   3.950  0.3829 -0.0678 -0.9785
 1265SOL     OW15430   0.721   4.327   2.494 -0.2481 -0.1014 -0.6619
 1265SOL    HW115431   0.693   4.376   2.571  2.0717 -2.5146  1.6958
 1265SOL    HW215432   0.804   4.374   2.483 -0.7368  0.7593 -0.6559
 1266SOL     OW15433   4.166   1.337   9.220 -0.0653  0.2723  0.0509
 1266SOL    HW115434   4.181   1.427   9.190 -1.6719  1.3289  2.4342
 1266SOL    HW215435   4.253   1.318   9.255  0.2402  0.4822 -0.5895
 1267SOL     OW15436   0.535   2.578   8.020 -0.7797 -0.3789 -0.0291
 1267SOL    HW115437   0.533   2.561   8.114  0.3610 -1.9708 -0.2835
 1267SOL    HW215438   0.559   2.490   7.990  1.2526 -0.1389  0.9027
 1268SOL     OW15439   1.414   2.512  15.871 -0.1391 -0.0001  0.2399
 1268SOL    HW115440   1.504   2.545  15.869  0.2317 -0.9684  0.9359
 1268SOL    HW215441   1.404   2.525  15.965  1.5487 -2.8219  0.8255
 1269SOL     OW15442   0.061   3.905  16.003 -0.4339 -0.0925  0.8869
 1269SOL    HW115443   0.043   3.814  15.979  0.9081  0.1945 -1.1773
 1269SOL    HW215444   0.120   3.903  16.078 -0.3354 -3.4062  0.7041
 1270SOL     OW15445   0.979   1.001   1.726 -0.0530  0.6202  0.1381
 1270SOL    HW115446   1.043   1.047   1.781 -1.3554  1.1677  1.2047
 1270SOL    HW215447   0.996   1.033   1.637 -0.3863  4.1587  1.3766
 1271SOL     OW15448   4.289   3.161   7.027 -0.0557 -0.4426  0.0678
 1271SOL    HW115449   4.228   3.114   7.085  0.4822 -0.2434  0.7981
 1271SOL    HW215450   4.275   3.117   6.943  2.1489 -2.7559  0.9119
 1272SOL     OW15451   1.505   3.865  14.184 -0.8772  0.1330 -0.2453
 1272SOL    HW115452   1.476   3.897  14.098 -2.8333 -2.2978 -0.4968
 1272SOL    HW215453   1.564   3.804  14.138 -0.3144  0.2843  0.2748
 1273SOL     OW15454   0.808   3.109  11.608  0.0736  0.4279 -0.2273
 1273SOL    HW115455   0.769   3.023  11.597 -0.1886  0.7584 -1.9674
 1273SOL    HW215456   0.748   3.162  11.556 -0.9239 -0.6604 -0.1741
 1274SOL     OW15457   0.701   1.813   5.704  0.0477  0.2769  0.0764
 1274SOL    HW115458   0.656   1.868   5.768 -0.5801  0.8496 -0.8570
 1274SOL    HW215459   0.732   1.742   5.760  1.1896  0.2352 -0.6095
 1275SOL     OW15460   2.317   0.290   5.176 -0.2789  0.1196 -0.5874
 1275SOL    HW115461   2.305   0.383   5.155 -0.5992  0.0343 -0.7697
 1275SOL    HW215462   2.404   0.270   5.141 -0.4522  1.2709 -1.6665
 1276SOL     OW15463   3.092   2.971  16.864  0.1215 -0.5597 -0.1959
 1276SOL    HW115464   3.001   2.997  16.853  0.7067  1.5669 -0.0642
 1276SOL    HW215465   3.084   2.895  16.806 -0.4119 -2.9324  2.9561
 1277SOL     OW15466   3.877   2.059   9.491  0.1235  0.1887  0.1728
 1277SOL    HW115467   3.810   2.103   9.543 -1.2332 -1.6615 -0.0050
 1277SOL    HW215468   3.814   2.000   9.450 -1.7757  3.0353 -0.9902
 1278SOL     OW15469   1.343   2.329  10.075 -0.3624  0.0534  0.0107
 1278SOL    HW115470   1.285   2.340  10.150 -0.4066  0.5499 -0.0941
 1278SOL    HW215471   1.426   2.352  10.117 -0.4003  2.0456 -0.9937
 1279SOL     OW15472   4.259   4.637   9.933 -0.2871  0.0222  0.3668
 1279SOL    HW115473   4.225   4.727   9.927  1.0552  0.5388  0.5895
 1279SOL    HW215474   4.340   4.656   9.980  0.6568 -2.9418 -0.1085
 1280SOL     OW15475   0.108   0.548   8.181  0.2885  0.7858 -0.2130
 1280SOL    HW115476   0.109   0.601   8.261 -1.5890 -1.3263  1.2213
 1280SOL    HW215477   0.152   0.612   8.126  0.0095  1.7507  0.6774
 1281SOL     OW15478   4.045   3.819   5.387  0.1138  0.4181  0.1536
 1281SOL    HW115479   4.048   3.796   5.480  0.4465 -1.8837 -0.4292
 1281SOL    HW215480   3.950   3.816   5.380  0.0055  0.3925  1.5297
 1282SOL     OW15481   1.502   0.111   7.046  0.7635  0.7869 -0.0038
 1282SOL    HW115482   1.418   0.072   7.022  0.1894  2.4143 -0.6145
 1282SOL    HW215483   1.491   0.099   7.141 -0.7429  0.6940 -0.1939
 1283SOL     OW15484   4.168   0.913   1.319  0.3912 -0.9526 -0.8047
 1283SOL    HW115485   4.093   0.957   1.360 -0.0629 -1.4759 -1.0872
 1283SOL    HW215486   4.166   0.828   1.362 -1.0032 -0.2610  0.5313
 1284SOL     OW15487   4.149   0.505   3.053 -0.2615 -0.2619  0.1511
 1284SOL    HW115488   4.069   0.557   3.046 -0.8533 -1.1949 -0.0203
 1284SOL    HW215489   4.123   0.435   2.993  0.3198 -0.8680  0.6051
 1285SOL     OW15490   3.158   3.941   5.692 -0.3064 -0.5922 -0.4458
 1285SOL    HW115491   3.094   3.892   5.744 -0.3630 -0.6277 -0.5484
 1285SOL    HW215492   3.238   3.899   5.721  0.2402  1.3664  0.8670
 1286SOL     OW15493   3.626   3.393   3.110  0.5624 -0.3465  0.2147
 1286SOL    HW115494   3.640   3.312   3.062 -3.7046 -0.8567 -0.1661
 1286SOL    HW215495   3.703   3.443   3.081  0.5204  0.4443  1.4758
 1287SOL     OW15496   1.919   0.859   6.831  0.2510 -0.5263  0.0565
 1287SOL    HW115497   1.851   0.907   6.785  1.4191  1.0373 -0.0273
 1287SOL    HW215498   1.907   0.889   6.921  0.3684 -0.0072 -0.1035
 1288SOL     OW15499   3.102   4.049   1.451 -0.0825 -0.1893  0.0830
 1288SOL    HW115500   3.167   3.982   1.470 -0.2871 -0.7900 -1.3524
 1288SOL    HW215501   3.119   4.108   1.524 -1.7328  0.7816 -0.3259
 1289SOL     OW15502   1.750   2.927   5.500  0.3769  0.0144 -0.1340
 1289SOL    HW115503   1.770   2.913   5.593  0.5303 -1.1234 -0.3459
 1289SOL    HW215504   1.750   2.840   5.462  0.0274 -0.3255  0.6383
 1290SOL     OW15505   1.497   2.944   7.971 -0.5608 -0.6388 -0.1190
 1290SOL    HW115506   1.408   2.933   7.935 -0.6589  1.6990 -0.6208
 1290SOL    HW215507   1.549   2.871   7.940  0.1195  0.5668 -1.8453
 1291SOL     OW15508   0.170   2.184   7.129 -0.5867 -0.4681 -0.1030
 1291SOL    HW115509   0.107   2.135   7.077 -1.8577  0.7378  0.2993
 1291SOL    HW215510   0.237   2.200   7.063  2.3480 -0.8515  2.7735
 1292SOL     OW15511   4.259   0.053   5.728 -0.5119  0.4842  0.5072
 1292SOL    HW115512   4.326   0.016   5.786 -0.8507  0.5247  0.9293
 1292SOL    HW215513   4.310   0.132   5.709  0.4772 -0.1310  0.6276
 1293SOL     OW15514   4.055   3.545   7.752 -0.1862  0.6844  0.4350
 1293SOL    HW115515   3.993   3.607   7.792  1.1392  2.0377  0.3841
 1293SOL    HW215516   4.001   3.499   7.687  0.9829  0.6690 -0.5153
 1294SOL     OW15517   0.715   2.382   5.196 -0.6161 -0.7638  0.1273
 1294SOL    HW115518   0.757   2.318   5.254  0.3293 -3.1340 -3.2231
 1294SOL    HW215519   0.642   2.407   5.254 -0.0790 -1.8370  1.2597
 1295SOL     OW15520   2.919   2.492  15.167 -0.2581 -0.4378  0.3749
 1295SOL    HW115521   2.837   2.525  15.203 -0.8012  0.9181 -2.1630
 1295SOL    HW215522   2.968   2.454  15.241 -0.0371 -0.6805  0.1062
 1296SOL     OW15523   2.311   2.249   3.141  0.5385  0.6184 -0.1533
 1296SOL    HW115524   2.218   2.259   3.120  0.3178 -0.6698  0.2519
 1296SOL    HW215525   2.339   2.341   3.134  2.0533  0.1126 -0.7474
 1297SOL     OW15526   3.549   0.851   7.058 -0.3281  0.5471 -0.5454
 1297SOL    HW115527   3.545   0.782   6.992 -0.9721  0.5666 -0.5298
 1297SOL    HW215528   3.471   0.821   7.106 -0.1077  2.4554  0.9989
 1298SOL     OW15529   1.742   1.210   9.396 -0.0052  0.1218  0.1963
 1298SOL    HW115530   1.750   1.185   9.488  0.2263  1.4815  0.5458
 1298SOL    HW215531   1.796   1.143   9.354  0.3323  0.6261 -0.1735
 1299SOL     OW15532   2.811   3.859   8.960 -0.0675  0.3115  0.2242
 1299SOL    HW115533   2.899   3.830   8.935  0.4960  1.5461  0.7196
 1299SOL    HW215534   2.816   3.843   9.055 -3.0619 -0.9559  0.1420
 1300SOL     OW15535   1.658   1.386   5.853 -0.2203 -0.4921 -0.7330
 1300SOL    HW115536   1.587   1.328   5.824  1.0021 -1.3866 -1.9641
 1300SOL    HW215537   1.661   1.373   5.948 -0.7749  1.1774 -0.4831
 1301SOL     OW15538   4.618   1.118  11.343 -0.3228  0.1566  0.0227
 1301SOL    HW115539   4.596   1.060  11.270  1.5142  2.3479 -2.2780
 1301SOL    HW215540   4.554   1.187  11.324 -0.2073  1.2068  3.4932
 1302SOL     OW15541   2.628   1.098   4.188  0.0965 -0.0808  0.0038
 1302SOL    HW115542   2.724   1.101   4.191  0.0781 -1.4005  2.0969
 1302SOL    HW215543   2.608   1.122   4.279 -1.1949 -0.9028 -0.0675
 1303SOL     OW15544   0.756   3.518  12.665 -0.4847 -0.2988  0.3852
 1303SOL    HW115545   0.743   3.558  12.751  1.7256 -0.2889  0.7187
 1303SOL    HW215546   0.773   3.601  12.622 -0.9603  0.6931  2.1261
 1304SOL     OW15547   1.549   1.248   2.998  0.3965  0.2313  0.1278
 1304SOL    HW115548   1.510   1.189   3.062  0.7333 -0.2314 -0.0994
 1304SOL    HW215549   1.619   1.192   2.965  0.7085  0.2982  0.6590
 1305SOL     OW15550   1.508   1.695  17.218 -0.6439 -0.2378 -0.0020
 1305SOL    HW115551   1.492   1.604  17.245 -1.7574  0.2730  1.0593
 1305SOL    HW215552   1.569   1.676  17.147 -1.8088  0.0442 -1.0795
 1306SOL     OW15553   4.242   3.914   6.778  0.0048  0.1593 -0.4218
 1306SOL    HW115554   4.325   3.954   6.750  0.1357 -0.4152 -0.8778
 1306SOL    HW215555   4.231   3.860   6.699 -1.6029 -0.3269  0.1360
 1307SOL     OW15556   0.248   3.406   9.173 -0.5838  0.0445 -0.3606
 1307SOL    HW115557   0.250   3.499   9.147 -0.5099  0.1264 -0.0555
 1307SOL    HW215558   0.217   3.408   9.263 -0.2008 -0.2501 -0.2209
 1308SOL     OW15559   2.829   3.183   5.787 -0.1410 -0.1717 -0.1659
 1308SOL    HW115560   2.909   3.220   5.748  0.6957 -2.5578 -0.7268
 1308SOL    HW215561   2.836   3.092   5.756  1.4340 -1.1955  3.1679
 1309SOL     OW15562   1.705   4.082  14.239 -0.2075 -0.1006 -0.1419
 1309SOL    HW115563   1.642   4.009  14.242  3.4091 -3.1972  0.8854
 1309SOL    HW215564   1.760   4.057  14.164 -1.2850 -4.2140  0.4025
 1310SOL     OW15565   3.451   1.799   6.794  0.4862 -0.7110  0.2807
 1310SOL    HW115566   3.478   1.750   6.872  1.9493  0.6929  0.6674
 1310SOL    HW215567   3.518   1.867   6.798  0.7853 -1.0119  0.3500
 1311SOL     OW15568   3.575   2.895  16.224  0.3022  0.1928 -0.7384
 1311SOL    HW115569   3.653   2.931  16.267  0.2509  0.7193 -1.0856
 1311SOL    HW215570   3.509   2.961  16.246 -1.9490 -1.8912 -1.2657
 1312SOL     OW15571   1.400   2.237  13.383  0.4903  0.3321  0.1698
 1312SOL    HW115572   1.441   2.233  13.469 -0.7072 -1.2654  0.6689
 1312SOL    HW215573   1.306   2.223  13.397 -0.1515  2.4997 -1.7769
 1313SOL     OW15574   2.487   4.302  11.781 -0.3752 -0.5920 -1.0228
 1313SOL    HW115575   2.513   4.338  11.866  0.3070  0.8534 -1.8462
 1313SOL    HW215576   2.556   4.345  11.730 -0.2556  0.2678 -0.1360
 1314SOL     OW15577   1.392   3.954   4.716 -0.5402  0.6142 -0.3881
 1314SOL    HW115578   1.305   3.973   4.752  0.0450 -0.0130  1.3089
 1314SOL    HW215579   1.389   3.999   4.631 -0.8648  0.3458 -0.5186
 1315SOL     OW15580   0.882   2.915   8.630  0.3276 -0.4016 -0.0133
 1315SOL    HW115581   0.972   2.942   8.647  0.0722  0.4814 -0.0487
 1315SOL    HW215582   0.839   2.925   8.715 -2.3707 -0.3772 -1.4026
 1316SOL     OW15583   0.107   2.604   4.700 -0.2953  0.3400 -0.3338
 1316SOL    HW115584   0.187   2.655   4.704  0.3850 -0.8855  1.6596
 1316SOL    HW215585   0.041   2.672   4.712  1.1397  1.4101  1.5188
 1317SOL     OW15586   3.973   1.460   4.490  0.0989  0.1259  0.4224
 1317SOL    HW115587   4.036   1.527   4.515 -2.4380  3.9867 -3.3797
 1317SOL    HW215588   3.998   1.384   4.542  1.0238  0.5103  0.5307
 1318SOL     OW15589   2.773   2.517   4.844  0.2015 -0.9046  0.3757
 1318SOL    HW115590   2.757   2.424   4.860  0.4452 -0.8393  0.9946
 1318SOL    HW215591   2.865   2.505   4.820 -0.1392 -0.0255 -1.4286
 1319SOL     OW15592   2.687   0.515  15.262 -0.7153  0.1979 -0.2967
 1319SOL    HW115593   2.601   0.473  15.260 -0.4268 -0.3283 -1.4401
 1319SOL    HW215594   2.699   0.503  15.356  0.1547  1.2419 -0.2729
 1320SOL     OW15595   0.113   0.150   9.567 -0.0752  0.1325  0.0768
 1320SOL    HW115596   0.175   0.208   9.524  0.3196  0.0397  0.5235
 1320SOL    HW215597   0.058   0.122   9.494 -0.3018 -1.0742  0.7074
 1321SOL     OW15598   4.435   1.070   6.290  0.1509  0.3437  0.0627
 1321SOL    HW115599   4.432   1.146   6.349 -0.2597  0.1612  0.2801
 1321SOL    HW215600   4.379   1.008   6.337  0.3768 -0.2473 -0.4566
 1322SOL     OW15601   1.519   3.022  13.824 -0.7047  0.5535 -0.5283
 1322SOL    HW115602   1.562   3.056  13.746 -0.5913  1.1687 -0.1985
 1322SOL    HW215603   1.535   3.083  13.896 -2.5991  1.0028 -0.4687
 1323SOL     OW15604   4.676   1.689   4.189 -0.2125 -0.4799  0.2583
 1323SOL    HW115605   4.667   1.613   4.246  1.1389 -1.3894 -0.7450
 1323SOL    HW215606   4.712   1.759   4.243  1.5278 -0.3853 -1.0017
 1324SOL     OW15607   1.445   3.956  13.936 -0.3883 -0.5050  0.1144
 1324SOL    HW115608   1.398   3.911  13.866  2.1579 -0.8785 -1.3974
 1324SOL    HW215609   1.416   4.047  13.923 -0.0792 -0.2592  1.1494
 1325SOL     OW15610   2.676   2.173   6.160 -0.7521 -1.1594 -0.2623
 1325SOL    HW115611   2.721   2.096   6.193  1.9282  1.4776  2.1478
 1325SOL    HW215612   2.746   2.207   6.104 -0.0408  0.5845  1.6862
 1326SOL     OW15613   1.637   3.277   5.950  0.8930  0.2384  0.1861
 1326SOL    HW115614   1.698   3.351   5.951 -0.8694  1.7225 -1.2106
 1326SOL    HW215615   1.579   3.297   5.876 -0.6499  2.5627  2.0191
 1327SOL     OW15616   3.324   2.212   6.356 -0.9800 -0.0456 -0.1664
 1327SOL    HW115617   3.370   2.172   6.430 -0.0988 -1.2070 -1.3358
 1327SOL    HW215618   3.295   2.298   6.387  1.8523 -0.1569  2.7927
 1328SOL     OW15619   1.700   2.327   5.099  0.7607 -0.3508  0.0685
 1328SOL    HW115620   1.728   2.237   5.117 -1.4778 -1.1643 -0.5035
 1328SOL    HW215621   1.682   2.310   5.006  0.8539  0.8275 -0.1593
 1329SOL     OW15622   2.591   0.187  12.754 -0.2857 -0.0448  0.1209
 1329SOL    HW115623   2.627   0.178  12.842 -0.8632 -1.0239  0.2569
 1329SOL    HW215624   2.529   0.259  12.767 -0.6937 -0.2413 -0.7353
 1330SOL     OW15625   0.168   2.948   2.436 -0.7456 -0.5193  0.1701
 1330SOL    HW115626   0.235   2.975   2.373 -1.8988  2.3296  0.1086
 1330SOL    HW215627   0.107   3.023   2.433 -0.8955 -0.5038  4.9951
 1331SOL     OW15628   0.647   4.552   3.592 -0.4948  0.3242 -0.1028
 1331SOL    HW115629   0.582   4.603   3.544 -0.7480 -0.4403 -0.5796
 1331SOL    HW215630   0.594   4.476   3.616  0.7965 -0.4063  0.4255
 1332SOL     OW15631   3.104   1.980   9.431 -0.2894  0.5451 -0.2135
 1332SOL    HW115632   3.020   1.934   9.437 -0.3072  0.6983  0.8246
 1332SOL    HW215633   3.153   1.955   9.353  1.0255  2.4636  0.0097
 1333SOL     OW15634   1.963   3.771   6.434  0.6898  0.7066  0.2977
 1333SOL    HW115635   1.905   3.786   6.509  0.5896 -2.1955  0.8071
 1333SOL    HW215636   1.958   3.675   6.435 -0.3302  0.7228 -2.2457
 1334SOL     OW15637   0.704   4.700  11.727 -0.7635  0.0215  0.4396
 1334SOL    HW115638   0.745   4.617  11.754  1.5177  0.7517 -0.8292
 1334SOL    HW215639   0.769   0.026  11.761 -0.3031 -0.2897  0.1323
 1335SOL     OW15640   0.066   4.085   6.874  0.6936 -0.1195 -0.0545
 1335SOL    HW115641   4.722   4.044   6.905 -0.0024  2.0527  1.0350
 1335SOL    HW215642   0.130   4.037   6.925  2.0759  2.6156  0.8143
 1336SOL     OW15643   4.585   3.961  16.636  0.3291 -0.5520  0.8264
 1336SOL    HW115644   4.655   3.982  16.699  0.9491  2.3019 -0.8346
 1336SOL    HW215645   4.567   3.870  16.660  1.6256 -1.3521 -1.2226
 1337SOL     OW15646   3.420   0.859   3.104  0.5631  0.6402  0.1801
 1337SOL    HW115647   3.375   0.914   3.168  0.5957 -1.1257  1.6926
 1337SOL    HW215648   3.404   0.908   3.022 -0.8008 -2.7377 -1.5664
 1338SOL     OW15649   4.448   4.656   6.539  0.4087  0.4004 -0.5503
 1338SOL    HW115650   4.410   4.631   6.624  0.2592  2.0202 -0.1422
 1338SOL    HW215651   4.518   4.704   6.582 -0.4227  0.5714  0.6295
 1339SOL     OW15652   0.104   4.667   4.082 -0.2004 -0.4885  0.5634
 1339SOL    HW115653   0.134   4.587   4.126  0.5730  0.1008  1.1112
 1339SOL    HW215654   0.044   4.703   4.147  1.5577  0.5617  1.6080
 1340SOL     OW15655   1.373   4.426   4.540 -0.4198  0.1755  0.3758
 1340SOL    HW115656   1.298   4.376   4.506 -0.6779  0.0608  1.1141
 1340SOL    HW215657   1.423   4.467   4.470 -0.4961  2.9625  1.9716
 1341SOL     OW15658   3.811   1.072  13.780  0.4073  0.0121 -0.2372
 1341SOL    HW115659   3.779   1.112  13.861 -1.8080  1.6625 -1.9475
 1341SOL    HW215660   3.741   1.014  13.749 -0.3439  2.5484 -3.2260
 1342SOL     OW15661   4.704   2.862   9.255  0.6855  0.1390 -0.0509
 1342SOL    HW115662   4.733   2.875   9.345 -0.2146  1.1922  0.0932
 1342SOL    HW215663   0.004   2.778   9.225 -2.9781 -1.6925  0.6568
 1343SOL     OW15664   3.319   2.217  16.091 -0.1682 -0.1425 -0.1725
 1343SOL    HW115665   3.385   2.185  16.152  1.4487 -1.7462 -2.7904
 1343SOL    HW215666   3.325   2.308  16.121  1.9464 -0.5768  0.6812
 1344SOL     OW15667   0.909   4.606  14.607 -0.0475 -0.4579  0.1071
 1344SOL    HW115668   0.975   4.673  14.624 -0.1872 -0.5092  0.8595
 1344SOL    HW215669   0.938   4.553  14.681  2.3257  0.2278 -0.3375
 1345SOL     OW15670   4.297   3.447   3.663 -0.2388  0.1980 -0.1992
 1345SOL    HW115671   4.380   3.451   3.711 -1.0381  0.6963  1.1202
 1345SOL    HW215672   4.304   3.370   3.606  0.8626 -0.3149  0.6223
 1346SOL     OW15673   1.973   0.106  16.556  0.4128 -0.3487 -0.4154
 1346SOL    HW115674   1.980   0.126  16.463  0.0741 -2.0520 -0.8072
 1346SOL    HW215675   2.053   0.056  16.571 -0.7421 -1.5605  1.6776
 1347SOL     OW15676   0.143   3.328  13.234 -0.5765  0.1976  0.1397
 1347SOL    HW115677   0.106   3.239  13.230 -0.0944  0.0754 -1.4409
 1347SOL    HW215678   0.095   3.361  13.310 -0.8736 -0.5386  0.2810
 1348SOL     OW15679   2.288   0.731  16.657  0.1072  0.0777 -0.2689
 1348SOL    HW115680   2.371   0.685  16.648  0.4836  0.5832  0.6608
 1348SOL    HW215681   2.232   0.677  16.601 -1.9875  0.7497  1.1657
 1349SOL     OW15682   4.253   1.484   3.715  0.7644 -0.1933 -0.8269
 1349SOL    HW115683   4.272   1.510   3.805  3.0831 -0.0111 -1.3856
 1349SOL    HW215684   4.162   1.503   3.692  0.7406  2.2237  1.2074
 1350SOL     OW15685   0.462   3.095  12.522  0.0104 -0.0854 -0.0161
 1350SOL    HW115686   0.509   3.176  12.542 -0.7803  0.6201 -1.0395
 1350SOL    HW215687   0.533   3.032  12.534  2.3562  2.4939 -0.3610
 1351SOL     OW15688   3.018   0.030   4.805 -0.2815  0.7450  0.0996
 1351SOL    HW115689   3.048   0.087   4.734  0.1255  0.0362 -0.2977
 1351SOL    HW215690   2.941   0.079   4.833 -0.5250  0.6856 -0.4601
 1352SOL     OW15691   2.896   1.821   2.634 -0.6694 -0.0622  0.8428
 1352SOL    HW115692   2.890   1.914   2.654  1.6407  0.6793 -2.0055
 1352SOL    HW215693   2.825   1.781   2.684  0.5066 -2.2502  0.7515
 1353SOL     OW15694   1.535   4.377   4.752 -0.4295 -0.7609 -0.5090
 1353SOL    HW115695   1.487   4.355   4.673  0.2408 -3.4527 -0.1698
 1353SOL    HW215696   1.628   4.354   4.744 -0.0545  0.5658 -0.1232
 1354SOL     OW15697   0.280   0.332   8.021 -0.9626 -0.0314  0.2694
 1354SOL    HW115698   0.225   0.289   8.086 -1.1509  1.5845  1.1730
 1354SOL    HW215699   0.223   0.401   7.989 -0.7041  0.7119  1.4357
 1355SOL     OW15700   0.868   3.817   7.910  1.0716 -0.0445 -0.2990
 1355SOL    HW115701   0.890   3.736   7.957  0.2381  0.5792  1.1458
 1355SOL    HW215702   0.902   3.887   7.966  2.9395 -1.8636  0.8700
 1356SOL     OW15703   2.112   3.542   1.850 -0.0475 -0.2700  0.0421
 1356SOL    HW115704   2.022   3.514   1.869 -1.0427  0.8302 -2.9368
 1356SOL    HW215705   2.107   3.549   1.754  0.0877 -0.2267  0.0389
 1357SOL     OW15706   2.091   2.155   6.902 -0.2518  0.1291  0.0275
 1357SOL    HW115707   2.037   2.085   6.940 -0.1487  0.7439  1.2916
 1357SOL    HW215708   2.104   2.207   6.981 -0.8673 -0.5531  0.5823
 1358SOL     OW15709   0.699   0.569   6.129  0.1978 -0.0526  0.2486
 1358SOL    HW115710   0.714   0.497   6.191 -2.9561  0.4431  1.6014
 1358SOL    HW215711   0.785   0.575   6.088 -0.6959 -1.2315 -1.8047
 1359SOL     OW15712   2.666   1.834   7.641  0.1547  0.5004 -0.4928
 1359SOL    HW115713   2.632   1.886   7.714 -0.0269 -2.6682  1.6733
 1359SOL    HW215714   2.692   1.756   7.689 -1.2891  0.4164  0.1562
 1360SOL     OW15715   0.883   3.280   4.900 -0.1939  0.0093  0.0120
 1360SOL    HW115716   0.911   3.371   4.894  0.2536 -0.0821  0.6521
 1360SOL    HW215717   0.968   3.237   4.911 -0.6569 -0.4499  1.7418
 1361SOL     OW15718   1.214   4.570  12.769 -0.0024  0.0246  0.1335
 1361SOL    HW115719   1.293   4.610  12.805 -1.6817  2.6352  0.8754
 1361SOL    HW215720   1.212   4.617  12.685  0.4410  1.4893  0.9583
 1362SOL     OW15721   0.037   3.385   8.402  0.5207 -0.8062 -0.2345
 1362SOL    HW115722   0.094   3.402   8.478  0.3847 -3.2495  0.4156
 1362SOL    HW215723   0.102   3.354   8.339  0.9186 -0.9444  0.2447
 1363SOL     OW15724   3.890   1.842  16.423 -0.4720  0.6901  0.1096
 1363SOL    HW115725   3.958   1.776  16.411 -1.3424 -0.3459  0.8715
 1363SOL    HW215726   3.926   1.921  16.382 -0.1481  0.3508 -0.2615
 1364SOL     OW15727   4.538   4.219   9.616 -0.2902  0.6386  0.5257
 1364SOL    HW115728   4.553   4.146   9.555 -0.3604  0.1718  1.0737
 1364SOL    HW215729   4.622   4.263   9.627  0.8217 -1.6492  1.1707
 1365SOL     OW15730   1.887   0.442   2.608 -0.2587  0.0550 -0.1262
 1365SOL    HW115731   1.981   0.432   2.623 -0.4019  0.0082  0.7404
 1365SOL    HW215732   1.877   0.536   2.599  0.7122  0.1619 -0.0388
 1366SOL     OW15733   3.601   1.006  12.897  0.0503 -0.0521 -0.3320
 1366SOL    HW115734   3.618   1.066  12.970  1.7786  1.0050 -1.5971
 1366SOL    HW215735   3.629   0.923  12.936 -1.8997 -0.2714  0.5707
 1367SOL     OW15736   3.745   1.011   9.715 -0.1570 -0.6420  0.2369
 1367SOL    HW115737   3.698   1.082   9.670 -1.9961 -1.1854  1.2880
 1367SOL    HW215738   3.714   1.037   9.802  1.2650  0.4615  0.4103
 1368SOL     OW15739   3.452   0.855  11.665  0.3931 -0.1280  0.1606
 1368SOL    HW115740   3.416   0.943  11.666  0.9158  0.0688  1.8460
 1368SOL    HW215741   3.546   0.871  11.674  0.4963  0.1957 -1.4446
 1369SOL     OW15742   2.826   2.936   2.538  0.0427 -0.0125 -0.4390
 1369SOL    HW115743   2.737   2.955   2.567  0.0727 -2.5743  1.3746
 1369SOL    HW215744   2.867   2.953   2.623 -1.4740 -1.3498  0.5820
 1370SOL     OW15745   3.548   4.487   2.188 -0.4855 -0.8170 -0.4036
 1370SOL    HW115746   3.559   4.527   2.102 -0.6313 -1.4170 -0.7043
 1370SOL    HW215747   3.589   4.556   2.240  0.3039 -1.3990 -0.2636
 1371SOL     OW15748   2.447   1.860   5.107 -0.3156 -0.5901 -0.4805
 1371SOL    HW115749   2.384   1.788   5.105 -1.4907  0.4514 -0.9441
 1371SOL    HW215750   2.471   1.855   5.199 -0.7159  2.1432 -0.2059
 1372SOL     OW15751   0.738   2.602   8.931 -0.0235 -0.7576  0.3648
 1372SOL    HW115752   0.793   2.657   8.988  0.2167  0.1686 -0.7687
 1372SOL    HW215753   0.666   2.582   8.992  0.8775 -2.5669  0.8221
 1373SOL     OW15754   0.061   2.390   2.401 -0.0296  0.0372  0.0892
 1373SOL    HW115755   0.022   2.376   2.488  0.6872  0.1747  0.4343
 1373SOL    HW215756   0.111   2.308   2.396  3.0742  1.9577 -0.5467
 1374SOL     OW15757   3.075   1.204   5.732 -0.3081  0.4026  0.6742
 1374SOL    HW115758   3.074   1.266   5.659 -0.9405 -0.5026 -0.0862
 1374SOL    HW215759   2.985   1.172   5.729  0.5798 -2.0490  0.5874
 1375SOL     OW15760   1.240   0.465   2.199  0.1587 -0.1057  0.1063
 1375SOL    HW115761   1.174   0.474   2.130 -0.4027 -1.7003  0.4263
 1375SOL    HW215762   1.239   0.547   2.248 -0.1127  0.1870 -0.3933
 1376SOL     OW15763   0.455   0.644   0.560  0.6417 -0.2903  0.2686
 1376SOL    HW115764   0.433   0.566   0.508  0.3685  1.3599 -2.0840
 1376SOL    HW215765   0.413   0.625   0.644 -1.2830 -1.3333 -0.9234
 1377SOL     OW15766   4.717   2.024  10.983 -0.5805 -0.3885 -0.3728
 1377SOL    HW115767   4.706   1.956  10.916 -1.9117 -0.6312  0.0961
 1377SOL    HW215768   4.722   1.988  11.071  3.6529 -1.0309 -0.8802
 1378SOL     OW15769   3.256   3.680   8.836 -0.2870 -0.1308 -0.3035
 1378SOL    HW115770   3.288   3.756   8.787  0.8643  0.6437  1.6582
 1378SOL    HW215771   3.326   3.617   8.819  0.8357  1.1439 -0.4898
 1379SOL     OW15772   2.757   4.577   6.998 -0.3033  0.5104 -0.0394
 1379SOL    HW115773   2.686   4.634   6.969  0.2117  1.1907  0.0326
 1379SOL    HW215774   2.837   4.628   7.010 -0.4961  0.4509  1.4364
 1380SOL     OW15775   2.626   3.751  17.525 -0.5259 -0.7171 -0.0303
 1380SOL    HW115776   2.600   3.660  17.534  3.1974 -1.7117  0.6481
 1380SOL    HW215777   2.543   3.798  17.527 -1.4164 -2.3067  0.1394
 1381SOL     OW15778   3.768   0.531   5.980 -0.2457  0.1525 -0.2554
 1381SOL    HW115779   3.694   0.581   5.945 -0.6855 -1.2799 -1.3764
 1381SOL    HW215780   3.736   0.441   5.971  0.0148  0.0771 -0.4378
 1382SOL     OW15781   1.809   1.512   3.172  0.7102 -0.0705  0.0451
 1382SOL    HW115782   1.888   1.541   3.126  0.2184  0.5353 -0.4156
 1382SOL    HW215783   1.736   1.536   3.115  1.2148 -0.5706 -0.8122
 1383SOL     OW15784   4.655   0.644   8.665  0.0569  0.3775 -0.3567
 1383SOL    HW115785   4.659   0.694   8.747 -1.6149  0.1180 -0.1059
 1383SOL    HW215786   4.680   0.718   8.609  0.4360  1.8936  1.8158
 1384SOL     OW15787   2.892   0.826   5.189  0.0328 -0.3066  0.1947
 1384SOL    HW115788   2.980   0.790   5.192 -0.6215 -1.9045  0.3556
 1384SOL    HW215789   2.848   0.774   5.121 -1.9849  1.8147 -0.1180
 1385SOL     OW15790   2.835   3.680  17.708  0.4918  0.4794 -0.3787
 1385SOL    HW115791   2.761   3.698  17.649  0.2135 -1.1696 -0.5150
 1385SOL    HW215792   2.873   3.767  17.723  2.5688 -0.4191 -0.4567
 1386SOL     OW15793   2.253   4.225   0.675  0.4621  0.2915 -0.3025
 1386SOL    HW115794   2.252   4.148   0.732 -2.4026 -0.1631 -0.9662
 1386SOL    HW215795   2.177   4.207   0.620 -0.7026 -2.2424  2.1726
 1387SOL     OW15796   1.835   4.401   9.254  0.0697 -0.5425  0.5560
 1387SOL    HW115797   1.809   4.411   9.346  1.4701  0.3881  0.8602
 1387SOL    HW215798   1.889   4.322   9.251  1.6578  0.5477  0.7873
 1388SOL     OW15799   4.436   4.548  15.954  0.0728  0.3504  0.0979
 1388SOL    HW115800   4.373   4.620  15.953 -0.7761 -0.3662  1.7593
 1388SOL    HW215801   4.425   4.512  15.866 -0.0429 -0.1930  0.3335
 1389SOL     OW15802   1.310   3.332  13.963 -0.6719 -0.2777 -0.0665
 1389SOL    HW115803   1.351   3.308  13.881 -0.4936  0.2096 -0.1185
 1389SOL    HW215804   1.334   3.424  13.970 -1.6330 -0.2233  2.7754
 1390SOL     OW15805   4.536   1.368   5.629  0.4175  0.2215  0.5229
 1390SOL    HW115806   4.626   1.378   5.598 -0.2112  0.0863 -1.3785
 1390SOL    HW215807   4.539   1.363   5.724  0.5762  1.0064  0.5573
 1391SOL     OW15808   2.330   1.762  11.469  0.0859 -0.3970 -0.1300
 1391SOL    HW115809   2.371   1.681  11.501 -0.9307 -2.0010 -2.8720
 1391SOL    HW215810   2.393   1.792  11.404  2.0842  0.3918  2.1474
 1392SOL     OW15811   4.256   1.447  10.189 -0.0420 -0.3129  0.5354
 1392SOL    HW115812   4.240   1.491  10.105  1.0916 -4.1901 -1.6682
 1392SOL    HW215813   4.251   1.528  10.241  0.2091  1.1676 -1.7445
 1393SOL     OW15814   0.841   0.028  17.406 -0.1458 -0.2301 -0.2214
 1393SOL    HW115815   0.906   4.698  17.429  0.8364  1.5219  1.9680
 1393SOL    HW215816   0.892   0.102  17.438 -0.9037  0.1925  0.0011
 1394SOL     OW15817   3.874   2.137  12.183  0.0450  0.5974 -0.0341
 1394SOL    HW115818   3.849   2.175  12.099  1.1713  0.0639 -0.6073
 1394SOL    HW215819   3.858   2.045  12.164  2.9482  0.0075  0.4430
 1395SOL     OW15820   0.601   0.199   3.964 -0.0716 -0.9084 -0.2815
 1395SOL    HW115821   0.560   0.284   3.949 -2.1662 -1.6882  0.9599
 1395SOL    HW215822   0.540   0.142   4.011  2.1969 -1.1283  2.4450
 1396SOL     OW15823   0.898   0.009  13.592  0.6061 -0.2376  0.3710
 1396SOL    HW115824   0.879   0.067  13.666 -0.3679 -0.4731  0.3067
 1396SOL    HW215825   0.861   0.054  13.516 -2.9220 -0.5845  1.8860
 1397SOL     OW15826   2.236   1.139   7.462  0.1414 -0.0996  0.3566
 1397SOL    HW115827   2.306   1.096   7.511 -0.2581  2.6998  3.4298
 1397SOL    HW215828   2.282   1.190   7.395 -0.1808  1.1073  1.0440
 1398SOL     OW15829   3.158   0.336   9.738  0.4136 -0.0142  0.3606
 1398SOL    HW115830   3.169   0.250   9.779  0.2967 -0.6237 -0.8857
 1398SOL    HW215831   3.141   0.304   9.649 -1.2825  1.3750  0.1828
 1399SOL     OW15832   0.540   2.061   4.477 -0.0919 -0.4772 -0.0445
 1399SOL    HW115833   0.512   2.140   4.523 -0.3996 -0.9435  0.5777
 1399SOL    HW215834   0.611   2.044   4.540 -0.8090 -0.6141  0.7317
 1400SOL     OW15835   4.274   0.201   9.183  0.2872  0.0165 -0.0530
 1400SOL    HW115836   4.306   0.119   9.146  0.3856  0.4249 -0.8810
 1400SOL    HW215837   4.247   0.244   9.102  0.5185  2.3878  1.1302
 1401SOL     OW15838   2.476   3.244  13.358 -0.1164 -0.7745  0.4774
 1401SOL    HW115839   2.402   3.205  13.405 -1.5192  0.4303 -0.7100
 1401SOL    HW215840   2.540   3.227  13.427  1.0951  1.2314 -0.1305
 1402SOL     OW15841   3.485   4.516   5.114 -0.2204 -0.0306  0.3397
 1402SOL    HW115842   3.562   4.572   5.113 -0.8406  0.8197  1.1527
 1402SOL    HW215843   3.416   4.575   5.144 -0.3968 -0.0844  0.0486
 1403SOL     OW15844   1.088   2.335   1.385 -0.2670  0.5705  0.2684
 1403SOL    HW115845   1.014   2.349   1.444 -2.6097  0.6221 -2.6853
 1403SOL    HW215846   1.147   2.397   1.429 -0.4055  2.7706 -2.6224
 1404SOL     OW15847   2.784   4.391   6.795 -0.1706 -0.2232  0.2184
 1404SOL    HW115848   2.807   4.474   6.753 -1.4495  0.4438  0.8581
 1404SOL    HW215849   2.766   4.429   6.881 -1.5567 -3.5673  1.3971
 1405SOL     OW15850   2.165   0.314   9.079  0.1485 -0.1535 -0.0731
 1405SOL    HW115851   2.095   0.323   9.144 -0.3233 -1.0169 -0.4680
 1405SOL    HW215852   2.129   0.321   8.991  1.3067 -0.8114 -0.5971
 1406SOL     OW15853   3.760   3.986  16.473  0.1124  0.0329  0.4237
 1406SOL    HW115854   3.750   4.072  16.514 -0.9444  0.7060 -1.2410
 1406SOL    HW215855   3.749   4.006  16.380 -0.8981 -0.7910  0.3705
 1407SOL     OW15856   1.003   1.425   6.295 -0.3072  0.4886 -0.1340
 1407SOL    HW115857   1.066   1.396   6.229 -1.5597 -1.2021 -0.6014
 1407SOL    HW215858   0.955   1.345   6.317 -0.1360  0.0745 -1.2942
 1408SOL     OW15859   4.267   2.498   4.370 -0.0650 -0.1623 -0.2502
 1408SOL    HW115860   4.253   2.432   4.302 -0.7008 -0.6156  0.3223
 1408SOL    HW215861   4.197   2.473   4.431  0.7817 -0.0057  0.7946
 1409SOL     OW15862   3.208   1.561   6.690 -0.6152  0.1819 -0.2011
 1409SOL    HW115863   3.147   1.509   6.742 -0.6602  0.2859 -0.1519
 1409SOL    HW215864   3.167   1.646   6.701  1.6302  1.6337 -3.0082
 1410SOL     OW15865   0.038   3.050   4.011 -0.2980 -0.3267  0.1450
 1410SOL    HW115866   0.124   3.011   3.993 -0.8900 -0.5590 -2.2063
 1410SOL    HW215867   0.037   3.053   4.107  0.7826  0.0640  0.1543
 1411SOL     OW15868   1.356   2.385   8.125  0.1179 -0.2807 -0.4298
 1411SOL    HW115869   1.276   2.406   8.172 -0.8762 -1.4617 -1.6073
 1411SOL    HW215870   1.407   2.351   8.199 -0.2266 -1.1922 -0.6100
 1412SOL     OW15871   3.691   4.697   5.212  0.4638 -0.2117  0.4571
 1412SOL    HW115872   3.679   0.048   5.253 -0.5636 -0.7945  1.4006
 1412SOL    HW215873   3.764   4.673   5.268  0.0668  0.3603  1.2301
 1413SOL     OW15874   2.105   2.696   3.775  0.2113  0.4887  0.3843
 1413SOL    HW115875   2.108   2.777   3.724  1.2975  0.0551 -0.2396
 1413SOL    HW215876   2.100   2.738   3.861 -1.1802  0.3994  0.3392
 1414SOL     OW15877   1.988   1.799  11.963 -0.1836 -0.3090 -0.7464
 1414SOL    HW115878   1.952   1.714  11.988  0.2500  0.2462  1.7272
 1414SOL    HW215879   1.913   1.858  11.969 -1.3868 -1.8828 -0.4918
 1415SOL     OW15880   2.356   3.827  17.118  0.5445 -0.4683  0.2446
 1415SOL    HW115881   2.272   3.857  17.151  1.3260  0.1237  1.7089
 1415SOL    HW215882   2.420   3.877  17.170  0.7613 -0.5240  0.0349
 1416SOL     OW15883   2.539   4.259   6.322 -0.1499 -0.2060  0.0176
 1416SOL    HW115884   2.595   4.196   6.277  2.8072  2.5131 -0.0834
 1416SOL    HW215885   2.500   4.291   6.241  0.5651  1.3730  0.2959
 1417SOL     OW15886   0.744   4.306   8.297 -0.1941 -0.1263 -0.5116
 1417SOL    HW115887   0.779   4.219   8.278  0.1490  0.1693 -1.2309
 1417SOL    HW215888   0.709   4.341   8.215 -1.7633 -1.5837 -0.4538
 1418SOL     OW15889   3.061   4.270   0.914 -0.1579  0.6565  0.0252
 1418SOL    HW115890   3.038   4.357   0.946  2.5414  0.9025  1.2472
 1418SOL    HW215891   3.145   4.258   0.958 -0.3401 -0.1567  0.1630
 1419SOL     OW15892   1.018   0.575   9.320  0.2457  0.2529 -0.0552
 1419SOL    HW115893   1.044   0.608   9.234  0.0096  1.5015  0.3482
 1419SOL    HW215894   1.106   0.549   9.349  0.1814  0.3092  0.1961
 1420SOL     OW15895   4.566   1.062  10.870  0.0769  0.6039 -0.1649
 1420SOL    HW115896   4.479   1.097  10.891 -0.4383 -0.0183 -1.2681
 1420SOL    HW215897   4.557   1.069  10.775 -2.1660 -0.4862 -0.0402
 1421SOL     OW15898   0.511   1.779  16.479 -0.1794  0.3158 -0.5910
 1421SOL    HW115899   0.555   1.857  16.446  1.1592 -0.9936 -1.9473
 1421SOL    HW215900   0.433   1.813  16.522  1.2622  2.0990  0.6046
 1422SOL     OW15901   0.718   3.548  14.182 -0.0452 -0.4654 -0.2496
 1422SOL    HW115902   0.631   3.565  14.145  0.0404 -0.1283 -0.2953
 1422SOL    HW215903   0.776   3.556  14.106 -0.4667  1.7354 -0.3464
 1423SOL     OW15904   0.265   2.048   6.069  0.0803  0.6193  0.4221
 1423SOL    HW115905   0.335   2.012   6.016 -0.7041 -2.3998  1.4334
 1423SOL    HW215906   0.191   2.038   6.008 -2.3790 -1.2908  3.6819
 1424SOL     OW15907   3.603   0.379   2.647 -0.2007 -0.5021  0.2734
 1424SOL    HW115908   3.511   0.388   2.670  0.1222 -1.5791  1.9801
 1424SOL    HW215909   3.604   0.322   2.571 -1.4228  1.2408 -1.0445
 1425SOL     OW15910   1.829   2.841   4.502  0.3800  0.5393 -0.2024
 1425SOL    HW115911   1.734   2.849   4.492  0.1273 -2.0743  0.0653
 1425SOL    HW215912   1.857   2.907   4.439  1.9541  0.4663  0.4304
 1426SOL     OW15913   1.493   1.086  13.269 -0.7489 -0.6562  0.3756
 1426SOL    HW115914   1.441   1.007  13.251 -1.3674  0.3654 -2.2326
 1426SOL    HW215915   1.570   1.050  13.313  0.3903 -1.1572 -2.0112
 1427SOL     OW15916   1.645   4.062   7.312 -0.1113 -0.1690  0.0405
 1427SOL    HW115917   1.623   4.150   7.344  2.8979  1.0715 -1.2579
 1427SOL    HW215918   1.645   4.075   7.217  1.6098  1.4225  0.2633
 1428SOL     OW15919   0.100   2.087  14.697  0.1002 -0.2950 -0.1886
 1428SOL    HW115920   0.035   2.016  14.697 -0.5367  0.2932  0.3993
 1428SOL    HW215921   0.162   2.050  14.760 -0.7414 -0.0943  0.7590
 1429SOL     OW15922   3.445   1.634   5.847  0.3452 -0.0972 -0.1830
 1429SOL    HW115923   3.534   1.621   5.881  0.2526 -1.1978 -0.3440
 1429SOL    HW215924   3.389   1.592   5.913  0.4079  0.2412  0.0839
 1430SOL     OW15925   3.279   3.524   9.580 -0.2609  0.2067 -0.1790
 1430SOL    HW115926   3.201   3.528   9.524  1.0452  0.2250 -1.9707
 1430SOL    HW215927   3.236   3.514   9.665  1.3261  0.9209  0.6930
 1431SOL     OW15928   3.719   2.118   0.755 -0.2748  0.3002  0.6196
 1431SOL    HW115929   3.642   2.062   0.747  0.0131  0.1896 -1.4321
 1431SOL    HW215930   3.777   2.043   0.767 -0.7748 -0.5517 -2.3206
 1432SOL     OW15931   3.889   3.623   5.656  0.2233 -0.4727  0.9411
 1432SOL    HW115932   3.862   3.675   5.732 -0.7442  0.7810 -0.2489
 1432SOL    HW215933   3.984   3.627   5.655  0.2887 -2.3510 -0.7190
 1433SOL     OW15934   2.043   1.622   8.958  0.2901 -0.3429 -0.1861
 1433SOL    HW115935   1.968   1.603   9.014 -1.5476  1.2874 -2.1193
 1433SOL    HW215936   2.014   1.571   8.883  1.0379 -0.5542 -0.3363
 1434SOL     OW15937   2.406   3.204  11.106 -0.5724  0.2828 -0.2192
 1434SOL    HW115938   2.480   3.149  11.131 -0.1916  0.6185 -0.6247
 1434SOL    HW215939   2.384   3.157  11.025 -0.6703 -2.3308  1.3335
 1435SOL     OW15940   0.868   3.043   6.409  0.1704  0.1528 -0.2349
 1435SOL    HW115941   0.777   3.069   6.420  0.8597  1.6692  1.9121
 1435SOL    HW215942   0.915   3.081   6.483  1.7352  1.8225 -2.0760
 1436SOL     OW15943   4.161   2.396   8.669 -0.8126  0.1945 -0.6226
 1436SOL    HW115944   4.081   2.447   8.658 -1.8022 -1.7064 -2.1062
 1436SOL    HW215945   4.218   2.454   8.720  0.0780  1.2172 -2.7799
 1437SOL     OW15946   2.262   2.446   4.363  0.0936 -0.6068 -0.2537
 1437SOL    HW115947   2.212   2.470   4.285  1.3124  0.7662 -0.6186
 1437SOL    HW215948   2.334   2.405   4.315  0.8979  2.2653 -1.5214
 1438SOL     OW15949   3.012   0.892   2.319 -0.4401 -0.1475  0.0207
 1438SOL    HW115950   2.926   0.930   2.300 -1.3547 -3.2849 -2.0397
 1438SOL    HW215951   3.056   0.925   2.241 -1.8645  0.0461 -0.6950
 1439SOL     OW15952   1.696   4.030   2.330 -0.1841 -0.0570  0.1645
 1439SOL    HW115953   1.622   4.067   2.282 -0.3667 -0.3243  0.2368
 1439SOL    HW215954   1.645   4.007   2.408 -1.6091 -1.4327 -1.1846
 1440SOL     OW15955   4.455   4.045  16.146 -0.3870  0.5554 -0.1242
 1440SOL    HW115956   4.529   4.052  16.206 -2.6339  2.2824  2.4442
 1440SOL    HW215957   4.422   4.135  16.147 -0.0591  0.6732  0.6926
 1441SOL     OW15958   1.134   0.276   6.796 -0.0814  0.5144 -0.4239
 1441SOL    HW115959   1.076   0.340   6.754  0.4847  0.6635 -0.9899
 1441SOL    HW215960   1.190   0.242   6.726 -0.4418 -1.1295  0.0770
 1442SOL     OW15961   2.376   1.677   1.526 -0.4544 -0.0555  0.8146
 1442SOL    HW115962   2.438   1.748   1.541  0.0698 -0.8486  2.3816
 1442SOL    HW215963   2.304   1.724   1.485 -1.1059 -2.0855 -0.3537
 1443SOL     OW15964   4.254   1.709   4.823 -0.0104 -0.2726  0.3141
 1443SOL    HW115965   4.335   1.659   4.834  0.5378  0.3392 -0.8348
 1443SOL    HW215966   4.286   1.786   4.868 -0.5378 -0.4372  0.9611
 1444SOL     OW15967   1.734   0.264   4.444  0.1528 -0.4029 -0.0921
 1444SOL    HW115968   1.671   0.221   4.386 -0.4818 -0.6252  0.7774
 1444SOL    HW215969   1.682   0.288   4.520  0.7570  1.9495 -0.4086
 1445SOL     OW15970   2.382   1.162  13.180  0.8009 -0.0603  0.4893
 1445SOL    HW115971   2.385   1.216  13.101  1.4062  0.8693  1.1469
 1445SOL    HW215972   2.468   1.120  13.179 -0.2134 -2.2944  5.2284
 1446SOL     OW15973   4.192   2.018   5.347 -0.1313 -0.8258  0.0665
 1446SOL    HW115974   4.282   1.994   5.368 -0.1931  0.2453  1.5381
 1446SOL    HW215975   4.157   1.932   5.323  0.1121 -0.9694  0.2161
 1447SOL     OW15976   0.952   0.775  11.632 -0.2275  0.2768 -0.2318
 1447SOL    HW115977   1.028   0.759  11.689  1.0046  1.8704 -1.4150
 1447SOL    HW215978   0.897   0.827  11.691  0.9928  1.6860 -0.3137
 1448SOL     OW15979   0.211   0.962   6.690 -0.2797  0.4665 -0.0920
 1448SOL    HW115980   0.192   0.981   6.782  1.1028 -0.9776  0.4978
 1448SOL    HW215981   0.180   0.871   6.688 -0.5129  0.4773  2.5522
 1449SOL     OW15982   3.829   3.460  14.034  0.4353 -0.1004 -0.0121
 1449SOL    HW115983   3.836   3.549  13.999 -0.4257  0.9017  2.3393
 1449SOL    HW215984   3.778   3.479  14.113 -0.0752  0.6010 -0.5094
 1450SOL     OW15985   1.251   4.601   5.141  0.5866  0.2904 -0.6855
 1450SOL    HW115986   1.328   4.569   5.094  0.6008  1.3985 -1.3921
 1450SOL    HW215987   1.273   4.693   5.156  1.0848  0.2078 -0.9290
 1451SOL     OW15988   3.573   4.325   9.410  0.1661  0.0422 -0.1391
 1451SOL    HW115989   3.665   4.309   9.431  0.2109 -0.2697 -0.5833
 1451SOL    HW215990   3.528   4.242   9.393 -0.4920  0.8626 -2.4457
 1452SOL     OW15991   1.489   3.958  11.100 -0.1687 -0.2063  0.4375
 1452SOL    HW115992   1.528   3.938  11.186 -0.7522 -0.8734  0.5484
 1452SOL    HW215993   1.566   3.994  11.055 -0.2623  0.0719  0.5046
 1453SOL     OW15994   4.381   4.350  16.153 -0.3795 -0.0984 -0.3373
 1453SOL    HW115995   4.456   4.402  16.123 -1.8622  1.5289 -1.2417
 1453SOL    HW215996   4.305   4.385  16.106 -0.5588  0.6815  0.5378
 1454SOL     OW15997   0.434   1.539   4.819 -0.3450  0.0158 -0.4499
 1454SOL    HW115998   0.354   1.537   4.872 -0.4188 -0.2810 -0.5754
 1454SOL    HW215999   0.423   1.454   4.777  0.1166  0.9414 -2.4325
 1455SOL     OW16000   2.881   0.895   8.642 -0.5329  0.5698 -0.3909
 1455SOL    HW116001   2.807   0.891   8.581  1.1574  1.0997 -2.4534
 1455SOL    HW216002   2.937   0.833   8.596 -1.7560 -1.7748  1.2208
 1456SOL     OW16003   3.344   0.232  17.668  0.2558 -0.2132 -0.0276
 1456SOL    HW116004   3.294   0.196  17.595 -2.9487 -1.8261  2.9795
 1456SOL    HW216005   3.428   0.238  17.622  0.7849 -1.2338  0.8017
 1457SOL     OW16006   1.015   0.601  13.193  0.1077  0.5988  0.0282
 1457SOL    HW116007   1.048   0.682  13.231 -0.0507  0.8591 -0.3858
 1457SOL    HW216008   0.931   0.624  13.153 -1.2832  0.3682  2.8526
 1458SOL     OW16009   0.732   2.379   9.529 -0.0858  0.3866 -0.0228
 1458SOL    HW116010   0.826   2.369   9.544 -0.6694 -2.1497  1.8602
 1458SOL    HW216011   0.720   2.473   9.546  1.0368  0.4198  0.5996
 1459SOL     OW16012   1.511   1.488  16.880  0.1039 -0.3654  0.6485
 1459SOL    HW116013   1.504   1.400  16.843 -0.4471 -0.2291  0.4345
 1459SOL    HW216014   1.574   1.481  16.952  0.8636 -1.9305 -0.1654
 1460SOL     OW16015   3.131   0.986  15.229  0.0692 -0.2092  0.4317
 1460SOL    HW116016   3.070   0.975  15.156 -0.1474 -0.5075  0.6613
 1460SOL    HW216017   3.170   1.067  15.194 -0.4758 -0.7674 -1.4705
 1461SOL     OW16018   2.398   2.662   2.873  0.0882 -0.2549 -0.2872
 1461SOL    HW116019   2.473   2.720   2.863 -2.0169  2.7301  1.1651
 1461SOL    HW216020   2.334   2.732   2.859  0.5694  0.0724 -0.8362
 1462SOL     OW16021   1.908   2.409   4.814  0.4177 -0.0764 -0.0956
 1462SOL    HW116022   1.868   2.327   4.843  0.1046 -0.4222 -1.4808
 1462SOL    HW216023   1.869   2.481   4.863 -1.2161  0.7284 -2.5650
 1463SOL     OW16024   2.461   1.922  16.529  0.1304  0.1152 -0.4819
 1463SOL    HW116025   2.401   1.867  16.580 -0.1391 -0.2719 -1.2212
 1463SOL    HW216026   2.494   1.983  16.595  1.1753 -1.9991  0.9332
 1464SOL     OW16027   2.002   4.338   8.029  0.3081  0.2901 -0.3623
 1464SOL    HW116028   1.910   4.333   8.056  0.9790 -0.3488  1.7820
 1464SOL    HW216029   1.995   4.406   7.962 -0.8219 -0.0020 -0.5359
 1465SOL     OW16030   1.373   4.119   9.264 -0.1515  0.0975  0.0387
 1465SOL    HW116031   1.429   4.197   9.268 -0.8763  0.5883  0.5388
 1465SOL    HW216032   1.451   4.064   9.250  1.0177  1.8281 -0.2559
 1466SOL     OW16033   2.874   2.454  12.016  0.0284 -0.0771  0.0945
 1466SOL    HW116034   2.794   2.506  12.005 -0.5299 -0.9297  0.1352
 1466SOL    HW216035   2.882   2.442  12.111  0.4365 -0.7685 -0.0278
 1467SOL     OW16036   1.785   4.649   2.704 -0.2321 -0.2204  0.0010
 1467SOL    HW116037   1.733   4.574   2.675 -1.2284  0.4230  0.1245
 1467SOL    HW216038   1.819   4.612   2.786  0.6579  0.6097  0.0031
 1468SOL     OW16039   3.764   4.055   6.564 -0.4665  0.2368  0.3252
 1468SOL    HW116040   3.777   4.144   6.597 -0.0187 -0.0473  0.9090
 1468SOL    HW216041   3.843   4.042   6.510 -1.6127 -1.3837 -0.9725
 1469SOL     OW16042   0.168   3.104   8.383  0.4407 -0.2108  0.5449
 1469SOL    HW116043   0.164   3.060   8.468  1.2882 -2.1004 -0.4024
 1469SOL    HW216044   0.075   3.108   8.359  0.5652  3.0686  0.6270
 1470SOL     OW16045   0.652   4.059   4.227  0.2282  0.0248  0.7162
 1470SOL    HW116046   0.670   4.088   4.317  2.4475  0.3112  0.1785
 1470SOL    HW216047   0.709   3.983   4.232  0.9480  0.6854  2.7203
 1471SOL     OW16048   1.249   2.016   5.138  0.3164 -0.2297 -0.1301
 1471SOL    HW116049   1.196   1.969   5.074 -1.0930 -2.1157  2.4224
 1471SOL    HW216050   1.180   2.033   5.202  1.1747 -0.6932  0.9098
 1472SOL     OW16051   0.236   4.588   6.907 -0.0118 -0.0509  0.7068
 1472SOL    HW116052   0.202   4.624   6.989  0.5448  0.2403  0.8052
 1472SOL    HW216053   0.152   4.559   6.870  0.0738  1.4701 -0.6644
 1473SOL     OW16054   3.145   4.619  13.411 -0.1360  0.0998 -0.1510
 1473SOL    HW116055   3.138   4.548  13.348  0.7916 -0.7163  0.6789
 1473SOL    HW216056   3.178   4.584  13.493  0.0083  1.8023  0.5259
 1474SOL     OW16057   3.519   0.283   1.802 -0.2669 -0.2337  0.4220
 1474SOL    HW116058   3.584   0.349   1.778 -0.3030 -0.1379  0.5864
 1474SOL    HW216059   3.533   0.278   1.897 -2.1926  1.9870  0.8353
 1475SOL     OW16060   0.667   4.529   6.252 -0.1761 -0.2835 -0.2352
 1475SOL    HW116061   0.651   4.456   6.312 -0.1099 -1.4042 -1.5657
 1475SOL    HW216062   0.630   4.495   6.170 -2.1167 -0.8137  0.8672
 1476SOL     OW16063   2.632   0.703   0.154  0.0125  0.2443 -0.4713
 1476SOL    HW116064   2.633   0.798   0.161  1.0564  0.2605 -0.8875
 1476SOL    HW216065   2.627   0.694   0.059 -1.6365  0.4982 -0.4026
 1477SOL     OW16066   1.404   2.064   8.713  0.2065  0.0416  0.7416
 1477SOL    HW116067   1.362   1.979   8.724 -0.1365  0.2454  1.0091
 1477SOL    HW216068   1.328   2.122   8.707 -1.6729 -2.4076  1.1087
 1478SOL     OW16069   4.060   1.025   5.534 -0.3044  0.0548 -0.6125
 1478SOL    HW116070   4.073   1.084   5.608  0.2059 -0.1564 -0.5333
 1478SOL    HW216071   3.968   1.003   5.549 -0.2697  0.7514  0.6885
 1479SOL     OW16072   2.547   0.088   4.157 -0.8120 -0.4475 -0.5277
 1479SOL    HW116073   2.493   0.080   4.236 -1.1638  0.0275 -0.7180
 1479SOL    HW216074   2.484   0.132   4.101 -0.1558 -0.0534 -0.9496
 1480SOL     OW16075   3.193   0.085   9.156  0.5750  0.0576 -0.2639
 1480SOL    HW116076   3.200   0.051   9.245 -1.3404 -0.1294 -0.1749
 1480SOL    HW216077   3.122   0.148   9.169  0.4057 -0.4581  1.2853
 1481SOL     OW16078   3.489   3.537   4.906  0.0349 -0.4339 -0.4369
 1481SOL    HW116079   3.478   3.556   4.813 -2.0159 -2.6603 -0.6572
 1481SOL    HW216080   3.467   3.621   4.947  2.6821  0.7435 -1.4051
 1482SOL     OW16081   3.639   3.566  14.234  0.2374  0.1070 -0.1313
 1482SOL    HW116082   3.602   3.654  14.231 -1.6421 -0.7223 -0.6640
 1482SOL    HW216083   3.565   3.507  14.240 -0.5373  1.2241  1.1834
 1483SOL     OW16084   3.243   1.221   7.093  0.2522 -0.4339 -0.9330
 1483SOL    HW116085   3.327   1.188   7.125  0.2909  0.0445 -0.5396
 1483SOL    HW216086   3.224   1.301   7.143 -0.8011 -2.2341  1.5075
 1484SOL     OW16087   0.379   3.286  16.770 -0.0668  0.0656 -0.4096
 1484SOL    HW116088   0.410   3.266  16.859 -1.3032 -0.6855 -0.1508
 1484SOL    HW216089   0.460   3.275  16.719  0.8438 -0.9728  1.2504
 1485SOL     OW16090   4.686   0.689   4.307  0.3261  0.3733  0.4823
 1485SOL    HW116091   4.680   0.756   4.375 -1.1316 -0.8359  1.5431
 1485SOL    HW216092   0.019   0.727   4.254 -0.0135 -0.8609 -0.8437
 1486SOL     OW16093   1.330   2.974   9.079  0.1453  0.2237 -0.4842
 1486SOL    HW116094   1.349   3.059   9.120 -0.7861 -0.7643  2.0335
 1486SOL    HW216095   1.398   2.975   9.012 -0.3462  0.4994 -0.9772
 1487SOL     OW16096   1.713   3.565   3.321  0.0570  0.0718 -0.0836
 1487SOL    HW116097   1.788   3.527   3.275  0.4244 -0.5425  1.0030
 1487SOL    HW216098   1.765   3.594   3.396  0.3573 -1.8971  0.4668
 1488SOL     OW16099   3.306   0.869   0.950 -0.4875  0.4554 -0.4941
 1488SOL    HW116100   3.314   0.775   0.964  1.7963  0.9477  1.5008
 1488SOL    HW216101   3.371   0.902   1.012  0.5061 -1.5675 -0.4671
 1489SOL     OW16102   2.103   0.505   6.103  0.0572 -0.0673  0.2633
 1489SOL    HW116103   2.023   0.555   6.120  0.0023 -0.3254  0.7597
 1489SOL    HW216104   2.153   0.586   6.096  1.4530 -0.8922  0.7186
 1490SOL     OW16105   4.353   3.470  13.441  0.2258  0.3101 -0.6926
 1490SOL    HW116106   4.358   3.461  13.536  1.3967 -0.2174 -0.8055
 1490SOL    HW216107   4.263   3.503  13.432 -0.6893 -2.3376 -1.2011
 1491SOL     OW16108   2.427   3.292   5.341 -0.7876  0.2532  0.7974
 1491SOL    HW116109   2.406   3.199   5.351  0.0611  0.2889  2.8304
 1491SOL    HW216110   2.380   3.336   5.412  1.8513  0.7181  2.2625
 1492SOL     OW16111   3.165   3.917   2.321  0.5727 -0.0448 -0.1899
 1492SOL    HW116112   3.080   3.948   2.350  0.8858  0.7810 -0.1513
 1492SOL    HW216113   3.167   3.825   2.346  1.9936  0.0800  0.1662
 1493SOL     OW16114   2.610   1.113   4.796  0.0123 -0.1424 -0.3662
 1493SOL    HW116115   2.653   1.031   4.771  3.4342  1.6172 -0.3109
 1493SOL    HW216116   2.567   1.133   4.713  0.4262  0.3705 -0.4596
 1494SOL     OW16117   1.361   4.520   3.335  0.5502  0.1582  0.0164
 1494SOL    HW116118   1.445   4.529   3.380 -0.2261  0.6248  1.3567
 1494SOL    HW216119   1.357   4.425   3.336 -0.4500  0.1945 -0.2918
 1495SOL     OW16120   0.839   0.225  12.798 -0.1488 -0.0142  0.4985
 1495SOL    HW116121   0.908   0.220  12.732 -0.1217 -2.8157  0.7363
 1495SOL    HW216122   0.809   0.134  12.791 -0.3468 -0.0454  1.6693
 1496SOL     OW16123   2.933   2.739  12.553 -0.5101 -0.1488 -0.0784
 1496SOL    HW116124   2.968   2.746  12.642 -0.2499 -0.2636 -0.1734
 1496SOL    HW216125   2.848   2.700  12.571  0.6494 -2.2157  0.9148
 1497SOL     OW16126   1.690   1.216   8.505  0.3245  0.6882 -0.5262
 1497SOL    HW116127   1.685   1.311   8.503  0.8431  0.7370  0.6715
 1497SOL    HW216128   1.770   1.207   8.557 -1.1244  0.3322  1.6008
 1498SOL     OW16129   2.247   2.369   6.578  0.9031  0.0736  0.4235
 1498SOL    HW116130   2.278   2.292   6.530 -0.0644 -0.3628  0.5112
 1498SOL    HW216131   2.324   2.423   6.559 -0.5871  2.3648  0.8659
 1499SOL     OW16132   4.019   0.067   0.504  0.3845 -0.2736  0.3702
 1499SOL    HW116133   4.001   4.729   0.445 -2.1602  0.1267  0.6516
 1499SOL    HW216134   4.099   0.031   0.544 -0.5920 -1.0438  1.6254
 1500SOL     OW16135   0.340   2.443   7.207 -0.0147  0.0087  0.0013
 1500SOL    HW116136   0.350   2.348   7.194  1.3048  0.3741 -1.6258
 1500SOL    HW216137   0.280   2.481   7.143 -0.0118  0.1844  0.1034
 1501SOL     OW16138   2.979   3.209   3.835  0.2541  0.4095 -0.4116
 1501SOL    HW116139   3.030   3.130   3.815 -1.5647 -0.4095 -1.8432
 1501SOL    HW216140   2.894   3.181   3.870 -0.1641 -0.2680 -1.9956
 1502SOL     OW16141   2.614   2.135   1.122 -0.2942  0.2514 -0.0024
 1502SOL    HW116142   2.580   2.212   1.170  0.4586  0.6223 -0.0666
 1502SOL    HW216143   2.552   2.068   1.151  0.1851  0.4081  1.3868
 1503SOL     OW16144   0.208   1.437  15.631 -0.1742  0.2672  0.0654
 1503SOL    HW116145   0.274   1.414  15.696  1.0000  2.6696 -0.2869
 1503SOL    HW216146   0.194   1.530  15.648 -2.0729 -0.5017  2.8362
 1504SOL     OW16147   3.157   3.154   2.889 -0.1486  0.1091 -0.4758
 1504SOL    HW116148   3.177   3.211   2.963 -2.1095 -0.7674  0.7152
 1504SOL    HW216149   3.088   3.200   2.843 -0.9007 -0.7534 -0.2140
 1505SOL     OW16150   1.104   0.788   0.264 -0.1176  0.2975 -0.1925
 1505SOL    HW116151   1.034   0.852   0.277  0.0918  0.5789 -0.4536
 1505SOL    HW216152   1.057   0.706   0.248  1.2307 -0.6202  0.5565
 1506SOL     OW16153   3.326   1.140  16.794 -0.2450 -0.1785 -0.7485
 1506SOL    HW116154   3.413   1.154  16.830  0.1114 -1.8859 -0.9536
 1506SOL    HW216155   3.346   1.074  16.727 -1.1903 -1.1002 -0.1144
 1507SOL     OW16156   3.802   0.118   0.666 -0.8632  0.1614  0.1918
 1507SOL    HW116157   3.881   0.116   0.613 -0.7430 -2.7369  0.4521
 1507SOL    HW216158   3.739   0.065   0.616 -2.5589  1.2050  1.2100
 1508SOL     OW16159   1.549   0.286   5.887  0.4846 -0.2537 -0.1734
 1508SOL    HW116160   1.463   0.248   5.869  0.6034 -1.3499  1.5213
 1508SOL    HW216161   1.548   0.343   5.810 -1.2787 -0.4670 -0.3064
 1509SOL     OW16162   1.290   0.609   6.723 -0.1469 -0.1805 -0.2577
 1509SOL    HW116163   1.316   0.556   6.647  1.5389  0.0802  0.1213
 1509SOL    HW216164   1.223   0.650   6.669 -0.6883 -0.3362  0.2987
 1510SOL     OW16165   4.724   3.601   6.202 -0.3327 -0.1207  0.1041
 1510SOL    HW116166   0.029   3.515   6.211 -1.1962 -0.5718 -0.3884
 1510SOL    HW216167   0.072   3.645   6.217  0.8778 -1.6217 -2.2656
 1511SOL     OW16168   1.421   1.629   9.434  0.6212  0.3115  0.6625
 1511SOL    HW116169   1.412   1.699   9.498 -2.5242 -0.1789  0.7494
 1511SOL    HW216170   1.360   1.567   9.474  1.7229 -1.1451  0.0954
 1512SOL     OW16171   1.985   1.735   5.594 -0.4818 -0.2606 -0.6359
 1512SOL    HW116172   2.039   1.777   5.661  0.3239  1.5258 -2.4039
 1512SOL    HW216173   2.030   1.766   5.516  1.9310 -1.1266  0.3997
 1513SOL     OW16174   3.440   1.753   2.462  0.5384  0.2600  0.6509
 1513SOL    HW116175   3.461   1.783   2.373 -0.8063  0.2972  0.3473
 1513SOL    HW216176   3.432   1.659   2.446 -1.1371  0.6481 -0.9113
 1514SOL     OW16177   3.465   4.147   4.811  0.5322 -0.3215 -0.0089
 1514SOL    HW116178   3.406   4.213   4.774 -0.2031 -0.5605  0.7192
 1514SOL    HW216179   3.547   4.193   4.794  0.5797 -0.3411  0.1680
 1515SOL     OW16180   3.539   3.847   9.326  0.1458  0.5387  0.1128
 1515SOL    HW116181   3.595   3.824   9.401  0.3814  1.8488  0.3300
 1515SOL    HW216182   3.548   3.765   9.278  1.6610  0.3611  0.6747
 1516SOL     OW16183   1.384   0.642   7.618 -0.2488 -0.0037  0.4518
 1516SOL    HW116184   1.322   0.654   7.690 -0.5275  0.5246  0.1229
 1516SOL    HW216185   1.454   0.690   7.663  0.2126 -0.1487 -0.1225
 1517SOL     OW16186   2.531   4.576  12.308 -0.1902  0.3927 -0.1498
 1517SOL    HW116187   2.555   4.509  12.373 -0.8467 -0.3218 -0.6419
 1517SOL    HW216188   2.440   4.553  12.286 -0.9571  2.6380  0.6407
 1518SOL     OW16189   3.225   1.590  17.381  0.0210  0.2316  0.4719
 1518SOL    HW116190   3.210   1.614  17.472  0.6403  1.2742  0.2934
 1518SOL    HW216191   3.280   1.513  17.391  0.1930  0.2392 -0.3673
 1519SOL     OW16192   2.333   0.550  15.055 -0.0530 -0.0011 -0.1890
 1519SOL    HW116193   2.320   0.468  15.007  1.0424  0.8840 -1.9926
 1519SOL    HW216194   2.416   0.525  15.095  0.3404  1.4985 -0.0766
 1520SOL     OW16195   4.442   3.363   8.719 -0.2369  0.0449 -0.6500
 1520SOL    HW116196   4.384   3.288   8.728  0.3256 -0.4421 -1.0215
 1520SOL    HW216197   4.393   3.437   8.753 -0.0751 -0.1874  0.0776
 1521SOL     OW16198   0.593   1.553   9.093 -0.3788  0.9427  0.1935
 1521SOL    HW116199   0.542   1.553   9.012  0.9625 -2.0908 -0.6338
 1521SOL    HW216200   0.632   1.467   9.104  0.7701  1.5665  1.0475
 1522SOL     OW16201   4.000   0.369   7.945 -0.2028 -0.1414  0.2535
 1522SOL    HW116202   4.036   0.289   7.983  0.3621  2.0696  4.2603
 1522SOL    HW216203   4.062   0.378   7.872 -0.1235 -3.5284 -0.0978
 1523SOL     OW16204   3.015   1.919   5.144 -1.0724  0.0060  0.1151
 1523SOL    HW116205   2.951   1.874   5.089 -0.9841 -1.9235  1.6250
 1523SOL    HW216206   2.982   2.009   5.146 -2.3099 -0.4449 -0.0711
 1524SOL     OW16207   1.124   1.855   2.530 -0.5140  0.1996 -0.3165
 1524SOL    HW116208   1.073   1.935   2.518 -1.3384 -0.5512 -1.8328
 1524SOL    HW216209   1.125   1.812   2.444  1.0518  2.0516 -1.2368
 1525SOL     OW16210   3.641   1.230  13.940  0.5994  0.3576 -0.5962
 1525SOL    HW116211   3.625   1.317  13.904  2.6977  0.1717 -1.9741
 1525SOL    HW216212   3.570   1.182  13.896  0.8147 -0.8028  0.3093
 1526SOL     OW16213   0.577   4.009  15.620  0.4117  0.4431  0.7369
 1526SOL    HW116214   0.610   3.955  15.692 -0.6338 -1.5327 -0.2732
 1526SOL    HW216215   0.649   4.002  15.557 -1.7056  0.3778 -1.6766
 1527SOL     OW16216   2.859   1.611   3.754 -0.0226 -0.1018  0.5674
 1527SOL    HW116217   2.855   1.568   3.839 -4.4242  2.9134  1.8808
 1527SOL    HW216218   2.892   1.693   3.789  0.3303  0.2429 -0.5765
 1528SOL     OW16219   2.785   3.247  17.214  0.1465  0.7889  0.2228
 1528SOL    HW116220   2.825   3.317  17.162 -1.5391  1.6921  0.1173
 1528SOL    HW216221   2.820   3.258  17.303  0.2135 -1.6771  0.5042
 1529SOL     OW16222   4.125   4.247  14.777 -0.1425 -0.3692  0.3837
 1529SOL    HW116223   4.054   4.183  14.780 -0.4033 -0.0052  2.0148
 1529SOL    HW216224   4.113   4.299  14.856 -0.3807 -0.0665  0.1516
 1530SOL     OW16225   1.250   1.738   5.254 -0.2956  0.2974 -0.0846
 1530SOL    HW116226   1.252   1.833   5.241 -4.1949 -0.0164 -2.9093
 1530SOL    HW216227   1.298   1.718   5.334  1.3625 -0.3933 -1.2560
 1531SOL     OW16228   0.545   3.645   9.029 -0.1048 -0.0112 -0.0192
 1531SOL    HW116229   0.553   3.550   9.017 -0.5922 -0.0185 -0.2902
 1531SOL    HW216230   0.450   3.651   9.032  0.0014  1.0010  1.1545
 1532SOL     OW16231   3.960   1.740   1.811 -0.1966  0.1433  0.1800
 1532SOL    HW116232   4.019   1.695   1.750 -0.7019  0.5902 -0.6341
 1532SOL    HW216233   4.007   1.749   1.894  1.2239 -0.5747 -0.5376
 1533SOL     OW16234   1.306   3.321   4.003 -0.1965 -0.0050  0.1366
 1533SOL    HW116235   1.357   3.400   3.986  4.1842 -2.0758  3.3813
 1533SOL    HW216236   1.325   3.263   3.929 -3.9814 -1.0816  0.0158
 1534SOL     OW16237   1.579   1.897   2.252  0.1103  0.1605  0.2752
 1534SOL    HW116238   1.615   1.969   2.304 -0.1992  1.1658 -0.9138
 1534SOL    HW216239   1.487   1.922   2.243 -0.0830 -0.2557  1.0876
 1535SOL     OW16240   4.140   2.734   3.142  0.0611  0.5987 -0.3263
 1535SOL    HW116241   4.049   2.754   3.120 -0.4560 -0.4253  0.8595
 1535SOL    HW216242   4.124   2.649   3.184 -0.8321  0.9957  0.1406
 1536SOL     OW16243   3.201   4.563  17.013 -0.1366 -0.0170  0.1647
 1536SOL    HW116244   3.169   4.513  16.938  0.9688 -1.1527  0.4662
 1536SOL    HW216245   3.141   4.637  17.022 -2.1684 -1.5134 -1.1889
 1537SOL     OW16246   1.396   1.238  17.552 -0.4851 -0.3133  0.1064
 1537SOL    HW116247   1.385   1.151  17.513  1.7550 -0.9397  0.8597
 1537SOL    HW216248   1.486   1.234  17.582 -0.5960  2.0281  0.7158
 1538SOL     OW16249   1.472   3.730   6.050 -0.6735 -0.1698  0.1666
 1538SOL    HW116250   1.450   3.814   6.009 -0.9975 -0.7547 -0.8706
 1538SOL    HW216251   1.561   3.730   6.084  0.3255 -0.8574 -2.4652
 1539SOL     OW16252   0.455   1.766   3.622  0.0757 -0.2924 -0.0663
 1539SOL    HW116253   0.427   1.696   3.563 -0.0604 -0.9177  0.7342
 1539SOL    HW216254   0.549   1.762   3.641 -0.3046 -1.1891  1.6487
 1540SOL     OW16255   0.703   2.115   6.676 -0.3726 -0.0942  0.1505
 1540SOL    HW116256   0.716   2.197   6.723 -0.2931  0.1554 -0.3062
 1540SOL    HW216257   0.735   2.052   6.741  0.1437 -0.9268 -0.8845
 1541SOL     OW16258   3.112   1.847  13.431 -0.1116  0.3226  0.8506
 1541SOL    HW116259   3.029   1.803  13.448  1.4414 -1.8884  2.6730
 1541SOL    HW216260   3.083   1.936  13.450  0.1034  0.4422  0.6191
 1542SOL     OW16261   3.354   3.580   0.941  0.4997  0.0426 -0.4447
 1542SOL    HW116262   3.414   3.649   0.969 -0.1934  0.4255  0.1162
 1542SOL    HW216263   3.270   3.627   0.944  0.8955  0.8252 -2.0977
 1543SOL     OW16264   0.121   0.767   6.924 -0.0233  0.1342 -0.0106
 1543SOL    HW116265   0.057   0.838   6.924 -0.0433  0.1162 -0.0934
 1543SOL    HW216266   0.063   0.690   6.925  2.0205 -1.4203 -0.4706
 1544SOL     OW16267   2.671   3.333   4.114 -0.5255  0.3533  0.0492
 1544SOL    HW116268   2.673   3.290   4.199  2.4114 -2.1354 -1.2907
 1544SOL    HW216269   2.577   3.347   4.102 -0.3719  0.3917 -1.1550
 1545SOL     OW16270   2.386   0.094   6.055  0.4037  0.3011  0.0119
 1545SOL    HW116271   2.404   0.103   6.149 -1.8995  3.3209  0.1515
 1545SOL    HW216272   2.302   0.134   6.035  1.4529  1.3794 -2.2944
 1546SOL     OW16273   2.881   0.962   7.394  0.3285 -0.0043 -0.0454
 1546SOL    HW116274   2.918   0.875   7.407 -1.5118 -0.6863  0.6070
 1546SOL    HW216275   2.928   1.018   7.456  1.9982 -0.9727 -0.4260
 1547SOL     OW16276   0.986   2.808   2.015  0.1473  0.4766 -0.2040
 1547SOL    HW116277   1.044   2.813   1.939 -2.1795  1.0490 -1.9211
 1547SOL    HW216278   0.943   2.894   2.018  0.1061  0.3424  3.2309
 1548SOL     OW16279   2.739   1.726   1.725 -0.5150  0.0102 -0.2898
 1548SOL    HW116280   2.717   1.819   1.729  0.9811  0.4589 -2.7569
 1548SOL    HW216281   2.832   1.734   1.748 -0.8225 -0.3451  1.0745
 1549SOL     OW16282   2.519   2.106   5.562 -0.1801  0.1030 -0.6101
 1549SOL    HW116283   2.434   2.067   5.539  0.9257 -2.5714 -0.1593
 1549SOL    HW216284   2.483   2.178   5.612 -1.6366 -0.6473 -0.5637
 1550SOL     OW16285   1.990   2.565   8.597  0.2348 -0.4923  0.0279
 1550SOL    HW116286   2.036   2.624   8.537  1.1943 -0.0634  1.1883
 1550SOL    HW216287   2.007   2.476   8.565 -0.4872 -0.2813 -0.9325
 1551SOL     OW16288   3.799   0.928   5.663  0.0918 -0.3351  0.3357
 1551SOL    HW116289   3.841   0.910   5.747 -0.6612  1.7023  1.1414
 1551SOL    HW216290   3.747   1.005   5.685 -0.0346 -0.1116 -0.7240
 1552SOL     OW16291   1.486   2.745   6.638  0.6463  0.4550 -0.2215
 1552SOL    HW116292   1.411   2.757   6.697 -0.4890 -0.1655 -1.5571
 1552SOL    HW216293   1.558   2.769   6.697  0.4751  0.1378  0.1180
 1553SOL     OW16294   0.439   3.856   1.969 -0.4770 -0.2708 -0.5740
 1553SOL    HW116295   0.374   3.926   1.978  1.6950  1.4997  1.5146
 1553SOL    HW216296   0.413   3.798   2.040 -0.7255 -1.2072 -1.4269
 1554SOL     OW16297   0.052   0.977   4.839 -0.0412 -0.5261  0.1144
 1554SOL    HW116298   0.144   1.003   4.833  0.1382 -1.1263  0.2545
 1554SOL    HW216299   0.057   0.911   4.908 -2.6588 -2.6345 -1.7166
 1555SOL     OW16300   3.723   3.499   1.381  0.0502  0.9554  0.0521
 1555SOL    HW116301   3.704   3.464   1.468  0.7995 -0.8779 -0.5072
 1555SOL    HW216302   3.692   3.588   1.398  0.1896  1.0766 -0.3482
 1556SOL     OW16303   1.915   0.033   1.849 -0.3382 -0.1302  0.3434
 1556SOL    HW116304   1.966   0.052   1.928  1.8069  1.1287 -1.3530
 1556SOL    HW216305   1.824   0.046   1.875 -1.0620 -0.6396 -1.9451
 1557SOL     OW16306   2.665   1.877   8.583 -0.6797 -0.0225 -0.1899
 1557SOL    HW116307   2.747   1.920   8.558 -0.1160 -0.8392  0.2503
 1557SOL    HW216308   2.627   1.937   8.646  0.0041  1.8400 -1.5527
 1558SOL     OW16309   3.888   2.845   3.122 -0.0921 -0.3811  0.2555
 1558SOL    HW116310   3.835   2.919   3.091  0.9545  0.2305 -0.0849
 1558SOL    HW216311   3.892   2.862   3.216  2.1691  0.1897  0.0602
 1559SOL     OW16312   2.662   2.422   4.268  0.4121 -1.0638 -0.8235
 1559SOL    HW116313   2.709   2.505   4.280  1.3458 -1.5038 -1.5131
 1559SOL    HW216314   2.640   2.415   4.175 -0.4574  0.2291 -0.7150
 1560SOL     OW16315   3.593   1.893   3.653  0.4875 -0.4508  0.0531
 1560SOL    HW116316   3.671   1.945   3.631  0.7870 -0.6103  0.7422
 1560SOL    HW216317   3.549   1.895   3.567 -0.9213  0.3616  0.7902
 1561SOL     OW16318   4.079   3.570  13.440 -0.3513 -0.3753 -0.1856
 1561SOL    HW116319   4.093   3.659  13.471 -0.0147  0.0260 -1.4961
 1561SOL    HW216320   4.041   3.593  13.356  0.6902  0.2752 -0.4841
 1562SOL     OW16321   1.213   1.276  16.533  0.5719  0.0506 -0.3738
 1562SOL    HW116322   1.302   1.273  16.498  1.5918  2.2032  2.0832
 1562SOL    HW216323   1.195   1.186  16.559 -0.4820  0.3796  0.0310
 1563SOL     OW16324   2.991   0.886  10.636  0.0702  0.0141 -0.1964
 1563SOL    HW116325   3.039   0.829  10.696  0.8898 -0.5539 -1.4098
 1563SOL    HW216326   2.912   0.909  10.685 -1.3855 -0.8002 -2.1806
 1564SOL     OW16327   3.256   0.714   7.841 -0.3118 -0.3049  0.0229
 1564SOL    HW116328   3.179   0.753   7.800 -0.0326  1.4801  1.1690
 1564SOL    HW216329   3.228   0.624   7.852  0.3622 -0.5610 -0.3476
 1565SOL     OW16330   3.717   0.843  11.327 -0.4947 -0.4929 -0.1306
 1565SOL    HW116331   3.655   0.908  11.358 -0.0306 -1.2494  2.3289
 1565SOL    HW216332   3.674   0.760  11.347 -1.4301  0.2037  0.7341
 1566SOL     OW16333   3.257   2.630   3.642 -0.6006  0.0757 -0.2199
 1566SOL    HW116334   3.221   2.556   3.593  0.4405 -0.0930 -0.7176
 1566SOL    HW216335   3.219   2.602   3.726  1.0985 -2.0222 -0.1510
 1567SOL     OW16336   1.884   0.570   9.318  0.5443 -0.1735  0.2956
 1567SOL    HW116337   1.845   0.596   9.401 -0.1136 -1.5107  0.4073
 1567SOL    HW216338   1.978   0.573   9.336  1.0438  1.5579 -2.7233
 1568SOL     OW16339   1.056   3.806  17.660  0.5927  0.1718 -0.8037
 1568SOL    HW116340   0.998   3.789  17.587  0.3368  0.0379 -0.5703
 1568SOL    HW216341   1.049   3.901  17.674 -2.3983  0.0193 -1.2174
 1569SOL     OW16342   2.881   0.456  10.293  0.2387  0.0053  0.3245
 1569SOL    HW116343   2.901   0.546  10.318 -1.8735  0.3619  0.7385
 1569SOL    HW216344   2.825   0.479  10.219 -1.7424  1.5442  2.2984
 1570SOL     OW16345   4.102   0.115   6.329  0.4482 -0.2740  0.1722
 1570SOL    HW116346   4.049   0.155   6.398 -0.2229 -0.8959  0.0106
 1570SOL    HW216347   4.182   0.085   6.373 -0.1973  0.8590  2.1263
 1571SOL     OW16348   0.923   3.035   4.068  0.0368  0.5438  0.3630
 1571SOL    HW116349   0.950   3.015   3.978 -0.0536 -0.1472  0.4918
 1571SOL    HW216350   0.830   3.046   4.048 -0.1801 -0.6016  0.7792
 1572SOL     OW16351   4.174   3.915   4.198  0.0945  0.0841  0.3173
 1572SOL    HW116352   4.177   3.837   4.255  0.5524 -0.7377 -0.8317
 1572SOL    HW216353   4.255   3.954   4.231 -0.7663  1.8661  0.3270
 1573SOL     OW16354   3.457   1.992   7.844 -0.5298 -0.5163 -0.0345
 1573SOL    HW116355   3.396   1.918   7.850 -0.7052 -0.3211  0.6452
 1573SOL    HW216356   3.528   1.947   7.891 -0.9945 -1.5253 -0.2964
 1574SOL     OW16357   2.567   0.033   1.896  0.1370 -0.2771 -0.4233
 1574SOL    HW116358   2.538   4.684   1.863  1.6059 -1.7876  2.1519
 1574SOL    HW216359   2.489   0.055   1.947 -0.7194 -0.9943 -1.4310
 1575SOL     OW16360   1.278   2.893   7.829  0.2510 -0.0917 -0.1422
 1575SOL    HW116361   1.290   2.804   7.795  0.1382 -0.0322 -0.3363
 1575SOL    HW216362   1.187   2.886   7.861  0.3972 -0.2629  0.2428
 1576SOL     OW16363   1.347   1.603   7.245 -0.2030  0.5119 -0.1987
 1576SOL    HW116364   1.435   1.565   7.235 -0.1280  0.8900 -0.9657
 1576SOL    HW216365   1.361   1.677   7.304 -1.8401  1.7687 -1.4008
 1577SOL     OW16366   4.468   1.254   0.091 -0.1016 -0.2532  0.3000
 1577SOL    HW116367   4.495   1.248   0.182  1.2703  0.4464 -0.0542
 1577SOL    HW216368   4.424   1.169   0.083  2.3288 -1.4322 -0.5266
 1578SOL     OW16369   0.341   1.433  12.190  0.4909 -0.0520 -0.4927
 1578SOL    HW116370   0.272   1.498  12.204  0.2478 -0.2954 -0.5661
 1578SOL    HW216371   0.351   1.447  12.096  1.2706 -0.9724 -0.5445
 1579SOL     OW16372   0.890   1.765  17.346 -0.1848  0.3773 -0.3845
 1579SOL    HW116373   0.829   1.836  17.324  0.3254  0.7440 -0.6255
 1579SOL    HW216374   0.973   1.802  17.376  0.1030 -0.5973  0.0198
 1580SOL     OW16375   2.423   2.882   8.017 -0.2456  0.6827 -0.1376
 1580SOL    HW116376   2.424   2.978   8.021  2.5167  0.7223 -2.0615
 1580SOL    HW216377   2.480   2.856   7.945  0.7421 -1.7258  1.5364
 1581SOL     OW16378   3.106   4.469   4.018 -0.0442  0.0429 -0.4566
 1581SOL    HW116379   3.027   4.479   3.966 -0.2280 -2.1447 -0.6028
 1581SOL    HW216380   3.081   4.488   4.109 -0.2491  0.7347 -0.6544
 1582SOL     OW16381   3.402   3.883   4.579  0.0927  0.1359 -0.2763
 1582SOL    HW116382   3.352   3.862   4.501  2.4025 -0.9060 -1.4799
 1582SOL    HW216383   3.475   3.932   4.539 -1.6706  1.0107 -2.4442
 1583SOL     OW16384   1.778   3.992  12.150  0.2402 -0.8197 -0.1068
 1583SOL    HW116385   1.814   3.910  12.117 -3.0599 -1.7451 -1.4439
 1583SOL    HW216386   1.783   4.041  12.068  1.1683  0.4773  0.7311
 1584SOL     OW16387   3.842   2.135   8.440 -0.3480 -0.0054 -0.1631
 1584SOL    HW116388   3.807   2.092   8.519 -1.5463 -0.7283 -1.0916
 1584SOL    HW216389   3.935   2.133   8.462 -1.0192  0.9502  2.8720
 1585SOL     OW16390   3.903   3.313  16.300  0.3446 -0.2120  0.2176
 1585SOL    HW116391   3.856   3.235  16.269 -2.2576  1.2587  0.4432
 1585SOL    HW216392   3.964   3.334  16.229 -0.9545  2.8783  0.0054
 1586SOL     OW16393   1.326   1.334   0.247 -0.0240  0.3685 -0.0052
 1586SOL    HW116394   1.306   1.254   0.199  1.9975  1.8463 -3.2986
 1586SOL    HW216395   1.344   1.310   0.338 -3.0798  1.8062  0.9737
 1587SOL     OW16396   0.814   3.318   3.120 -0.2265 -0.0532 -0.5072
 1587SOL    HW116397   0.804   3.382   3.050  0.1108  0.0839 -0.4336
 1587SOL    HW216398   0.900   3.346   3.152  0.9154 -2.8188 -1.1963
 1588SOL     OW16399   4.158   1.438   5.560  0.2089  0.2382 -0.5921
 1588SOL    HW116400   4.168   1.419   5.467 -0.1465 -2.4809 -0.0837
 1588SOL    HW216401   4.205   1.363   5.596  0.7680  0.0268 -1.7519
 1589SOL     OW16402   0.425   2.088  11.632 -0.0578 -0.2724  0.2352
 1589SOL    HW116403   0.462   2.094  11.720 -1.9252 -0.8633  1.0584
 1589SOL    HW216404   0.395   2.177  11.610  2.6040  0.8053  1.0234
 1590SOL     OW16405   2.561   1.175  12.540  0.0978 -0.1481  0.5833
 1590SOL    HW116406   2.526   1.171  12.629 -0.7785  0.2993  0.2590
 1590SOL    HW216407   2.580   1.268  12.526 -0.4156 -0.3547 -1.5174
 1591SOL     OW16408   2.063   3.000   2.455 -0.0408  0.2125 -0.1291
 1591SOL    HW116409   2.158   3.009   2.450 -0.1264 -0.8718 -3.6934
 1591SOL    HW216410   2.039   3.057   2.528  3.7539  1.4335  0.1796
 1592SOL     OW16411   2.676   0.556  10.658 -0.4156 -0.0856 -0.0780
 1592SOL    HW116412   2.704   0.562  10.750  0.5255  1.9734 -0.5120
 1592SOL    HW216413   2.698   0.463  10.648 -1.3638 -0.3749  0.5231
 1593SOL     OW16414   0.160   3.396  14.993 -0.4311 -0.2193  0.3171
 1593SOL    HW116415   0.161   3.437  14.906 -0.8808  4.3821  2.4455
 1593SOL    HW216416   0.199   3.313  14.966  0.6032  1.2392 -2.6927
 1594SOL     OW16417   0.002   3.135   7.586  0.1597  0.0159  0.4444
 1594SOL    HW116418   0.036   3.101   7.668  0.1429  0.1286  0.4982
 1594SOL    HW216419   0.025   3.228   7.594 -1.2002  0.2691  1.3710
 1595SOL     OW16420   3.166   4.447  13.202 -0.1068  0.0804  0.3248
 1595SOL    HW116421   3.187   4.356  13.181 -1.5884  0.6026 -3.3691
 1595SOL    HW216422   3.100   4.456  13.134  1.4904  0.7988 -1.1396
 1596SOL     OW16423   3.143   4.142  14.421 -0.1664 -0.5918  0.4008
 1596SOL    HW116424   3.101   4.228  14.420 -0.2648 -0.6458 -0.6543
 1596SOL    HW216425   3.085   4.087  14.473 -2.1863  1.6423  0.5065
 1597SOL     OW16426   4.187   2.562  16.734  0.1861  0.1113 -0.0462
 1597SOL    HW116427   4.185   2.583  16.827 -0.0832 -0.3995  0.0629
 1597SOL    HW216428   4.121   2.493  16.725 -1.1779  1.4361 -0.2050
 1598SOL     OW16429   1.701   3.716   5.222  0.2105 -0.4021 -0.0563
 1598SOL    HW116430   1.749   3.799   5.221  0.0182 -0.3061 -1.5126
 1598SOL    HW216431   1.771   3.651   5.225 -1.5481 -2.4596 -3.0123
 1599SOL     OW16432   2.042   0.743   6.619  0.1645  0.3623  1.1110
 1599SOL    HW116433   2.120   0.699   6.654  0.2513  0.9863  1.7053
 1599SOL    HW216434   2.011   0.778   6.703  0.5567 -0.8144  1.7467
 1600SOL     OW16435   0.788   0.300   9.966 -0.0694 -0.0595  0.0208
 1600SOL    HW116436   0.866   0.348   9.992 -0.6052 -0.0033  1.5623
 1600SOL    HW216437   0.786   0.340   9.879 -1.1529  2.9095  1.4173
 1601SOL     OW16438   3.625   0.591   4.177  0.3365 -0.0206 -0.0915
 1601SOL    HW116439   3.624   0.683   4.205  3.0340  0.6659 -2.1927
 1601SOL    HW216440   3.701   0.586   4.119  0.1252  0.7031 -0.4404
 1602SOL     OW16441   2.026   3.837   3.960 -0.5420 -0.4046  0.4966
 1602SOL    HW116442   2.038   3.927   3.931 -0.4814 -1.0434 -1.4297
 1602SOL    HW216443   1.944   3.837   4.010 -1.6082  0.9657 -1.2589
 1603SOL     OW16444   3.376   3.624   9.184 -0.2810  0.0568  0.0680
 1603SOL    HW116445   3.350   3.659   9.099 -3.5211  1.7714  1.7922
 1603SOL    HW216446   3.362   3.531   9.165 -2.0824  0.3782 -0.1224
 1604SOL     OW16447   2.163   0.759  10.831  0.1717 -0.3686  0.6267
 1604SOL    HW116448   2.119   0.684  10.871  2.7264 -1.7420  0.8646
 1604SOL    HW216449   2.253   0.739  10.856 -1.4080 -3.2131  4.0107
 1605SOL     OW16450   0.992   3.240   3.654 -0.0901 -0.1118  0.3261
 1605SOL    HW116451   0.996   3.331   3.624 -0.7281 -0.2696 -0.2345
 1605SOL    HW216452   0.901   3.229   3.628  0.4025  0.1846 -1.5151
 1606SOL     OW16453   0.420   0.979   2.973  0.3977 -0.0400 -0.0801
 1606SOL    HW116454   0.410   0.885   2.960 -0.5938 -0.3621  2.9977
 1606SOL    HW216455   0.509   0.994   2.940  0.2451 -0.7375 -0.7991
 1607SOL     OW16456   1.570   2.924   5.957  0.4798 -0.0205 -0.0241
 1607SOL    HW116457   1.542   2.940   5.867 -3.8061 -1.0550  1.1189
 1607SOL    HW216458   1.614   3.008   5.973  0.4262  0.0062 -0.0156
 1608SOL     OW16459   2.077   1.917   7.855 -0.0487  0.0186  0.3225
 1608SOL    HW116460   2.022   1.889   7.782  0.3340  0.7822 -0.2537
 1608SOL    HW216461   2.069   2.013   7.863 -5.2923 -0.2886 -0.7262
 1609SOL     OW16462   0.504   2.283  15.110  0.3712 -0.4954 -0.9514
 1609SOL    HW116463   0.450   2.315  15.038  0.2841 -1.9829 -1.5454
 1609SOL    HW216464   0.552   2.217  15.060  0.3838 -1.2932  0.1112
 1610SOL     OW16465   3.273   3.339   1.014  0.1103  0.3540 -0.2215
 1610SOL    HW116466   3.327   3.347   1.093 -0.4686  3.2408 -0.1263
 1610SOL    HW216467   3.301   3.420   0.972  0.8296  0.8744  1.2539
 1611SOL     OW16468   1.936   1.251  16.798 -0.1285  0.5327  0.3929
 1611SOL    HW116469   1.945   1.333  16.846  0.6045  1.8655 -2.0342
 1611SOL    HW216470   2.023   1.247  16.758  1.3539  2.1669  3.4239
 1612SOL     OW16471   4.087   1.982  11.368 -0.2273  0.0022 -0.8408
 1612SOL    HW116472   4.144   2.022  11.303 -0.5102  1.2169 -0.3293
 1612SOL    HW216473   4.135   1.997  11.449  1.4107  1.7759 -2.1688
 1613SOL     OW16474   2.771   2.160   6.700  0.3301  0.3725 -0.3681
 1613SOL    HW116475   2.804   2.070   6.692  0.6639  0.4042  0.6127
 1613SOL    HW216476   2.682   2.142   6.672  1.0905 -0.7000 -2.1086
 1614SOL     OW16477   4.546   0.286   4.128 -0.1760 -0.0831 -0.8450
 1614SOL    HW116478   4.520   0.373   4.097 -0.7631 -0.0773 -0.3359
 1614SOL    HW216479   4.620   0.261   4.072  0.4499 -2.5559  1.0897
 1615SOL     OW16480   3.795   3.074   6.707  0.2927  0.1989  0.5183
 1615SOL    HW116481   3.750   3.133   6.767 -0.8375  2.4728 -2.5305
 1615SOL    HW216482   3.743   2.995   6.719 -1.3686  1.3445  0.8648
 1616SOL     OW16483   3.647   0.991  14.816 -0.2754 -0.0517 -0.4356
 1616SOL    HW116484   3.567   0.939  14.828  1.3686 -2.1350  1.3376
 1616SOL    HW216485   3.637   1.030  14.729 -3.1215 -0.5920 -0.3628
 1617SOL     OW16486   0.584   3.966   5.223  0.0368 -0.0487 -0.1975
 1617SOL    HW116487   0.645   3.923   5.162 -1.2523 -0.7257 -0.9963
 1617SOL    HW216488   0.579   3.904   5.295 -1.0192  0.5402  0.2355
 1618SOL     OW16489   1.703   2.639   0.907 -0.2331  0.1889 -0.6456
 1618SOL    HW116490   1.781   2.597   0.943 -1.1027 -1.2296 -0.4208
 1618SOL    HW216491   1.630   2.586   0.939 -1.0195  2.3256  1.0869
 1619SOL     OW16492   4.084   1.108   9.340  1.1099 -0.2022 -0.0113
 1619SOL    HW116493   4.105   1.181   9.282  0.8002 -0.3927 -0.3598
 1619SOL    HW216494   4.025   1.153   9.400  0.8475 -0.9049  0.2635
 1620SOL     OW16495   1.562   3.811  11.563 -0.4798  0.3253 -0.2058
 1620SOL    HW116496   1.586   3.842  11.650 -0.6728  1.2612 -0.4866
 1620SOL    HW216497   1.564   3.716  11.575 -0.6736  0.3554  0.0656
 1621SOL     OW16498   1.504   0.191  11.723 -0.1246 -0.2735  0.9801
 1621SOL    HW116499   1.449   0.210  11.799  0.0013 -0.4079  1.1033
 1621SOL    HW216500   1.562   0.119  11.745  2.1543  1.5207  0.8920
 1622SOL     OW16501   2.892   3.343   9.304  0.1422  0.1208  0.2057
 1622SOL    HW116502   2.809   3.364   9.347  0.1140  0.0276  0.1956
 1622SOL    HW216503   2.911   3.263   9.353  0.1862 -0.4094 -0.6811
 1623SOL     OW16504   4.669   1.004   6.853  0.3604  0.9133 -0.3446
 1623SOL    HW116505   4.634   1.010   6.764 -1.8553 -1.5831  0.3486
 1623SOL    HW216506   4.631   1.081   6.895 -1.4448 -0.4209  0.4885
 1624SOL     OW16507   0.284   4.211   7.485  0.0762  0.4855 -0.2411
 1624SOL    HW116508   0.224   4.160   7.539  0.4590  0.8400  0.5251
 1624SOL    HW216509   0.241   4.296   7.492  2.6502  2.0249 -3.4554
 1625SOL     OW16510   3.798   3.471   4.140  0.0414 -0.4917 -0.2908
 1625SOL    HW116511   3.777   3.430   4.056  0.8595 -1.1842 -0.1567
 1625SOL    HW216512   3.860   3.407   4.174  0.4717  0.2428  0.3198
 1626SOL     OW16513   0.037   3.668   8.314  0.0338 -0.8128 -0.4236
 1626SOL    HW116514   0.002   3.579   8.318  2.0146 -1.4889  1.5631
 1626SOL    HW216515   4.726   3.714   8.384 -0.3009  1.9176 -2.4743
 1627SOL     OW16516   3.456   0.052  15.419  0.1169 -0.9256 -0.2913
 1627SOL    HW116517   3.486   0.109  15.348 -2.7115  1.1792  0.2106
 1627SOL    HW216518   3.457   4.700  15.381  0.9564 -0.8366 -0.4930
 1628SOL     OW16519   4.355   4.634   4.643  0.6357 -0.4674 -0.4692
 1628SOL    HW116520   4.414   4.705   4.670 -1.2755  1.4869 -1.4618
 1628SOL    HW216521   4.270   4.670   4.667  0.4389 -0.4440 -1.2047
 1629SOL     OW16522   4.031   0.299   3.588 -0.1020  0.6156  0.1519
 1629SOL    HW116523   3.942   0.267   3.605 -0.8323  1.4854 -1.9527
 1629SOL    HW216524   4.019   0.309   3.493 -0.7382  0.3879  0.2078
 1630SOL     OW16525   2.154   4.504   2.097 -0.0160 -0.0119  0.1099
 1630SOL    HW116526   2.105   4.422   2.092 -0.6061  0.3590 -0.1342
 1630SOL    HW216527   2.159   4.518   2.191 -0.2288 -1.2595  0.2976
 1631SOL     OW16528   2.593   0.557   6.899  0.3039 -0.8039 -0.2620
 1631SOL    HW116529   2.623   0.548   6.809 -2.7064  2.1487 -1.5202
 1631SOL    HW216530   2.669   0.526   6.949  2.0283  2.4238 -0.8834
 1632SOL     OW16531   3.578   4.564   7.363 -0.4768 -0.4816  0.3443
 1632SOL    HW116532   3.576   4.492   7.300 -0.0543 -0.5111  0.3666
 1632SOL    HW216533   3.494   4.611   7.361  0.0950  0.5504  0.4420
 1633SOL     OW16534   3.738   4.273   4.800  0.0894 -0.2054  0.2554
 1633SOL    HW116535   3.747   4.192   4.850  0.2487 -0.6584 -0.5262
 1633SOL    HW216536   3.824   4.285   4.761  0.4152 -3.1342  0.0746
 1634SOL     OW16537   3.706   2.345  16.920  0.8172  0.1685 -0.3862
 1634SOL    HW116538   3.645   2.411  16.950  0.9346 -0.0948  0.4452
 1634SOL    HW216539   3.679   2.346  16.828  2.5947  2.2238 -0.8940
 1635SOL     OW16540   2.279   4.227   5.469 -0.1529 -0.0454 -0.5514
 1635SOL    HW116541   2.334   4.190   5.538 -0.4858 -1.5150 -1.0563
 1635SOL    HW216542   2.291   4.321   5.479  0.6371 -0.0585 -1.4336
 1636SOL     OW16543   2.270   0.346  16.397  0.1592  0.0149  0.5006
 1636SOL    HW116544   2.218   0.390  16.464  0.7825  1.3726  0.1061
 1636SOL    HW216545   2.253   0.404  16.322 -0.7418 -1.3652 -0.3610
 1637SOL     OW16546   3.023   2.198   3.679 -0.3642  0.3397  0.0367
 1637SOL    HW116547   3.023   2.279   3.730 -1.3926  0.5377 -0.2597
 1637SOL    HW216548   2.932   2.168   3.677  0.9360 -3.5551 -1.8709
 1638SOL     OW16549   4.003   1.343   5.995 -0.1941 -0.1219  0.1830
 1638SOL    HW116550   3.972   1.298   5.917 -0.3238 -1.7047  1.1348
 1638SOL    HW216551   4.027   1.429   5.961  1.0445 -0.2528  0.6944
 1639SOL     OW16552   2.148   0.289   2.382  1.0172  0.3041  0.0248
 1639SOL    HW116553   2.230   0.329   2.355  1.6312 -1.2052 -0.3493
 1639SOL    HW216554   2.097   0.306   2.302  0.7542  1.7991  0.5198
 1640SOL     OW16555   3.360   4.525   9.737 -0.3042  0.3036  0.6040
 1640SOL    HW116556   3.356   4.589   9.666 -0.0389  0.8549  1.0866
 1640SOL    HW216557   3.416   4.576   9.796  0.7590 -0.7732  0.5358
 1641SOL     OW16558   0.922   1.120   8.485  0.2191 -0.2235  0.0643
 1641SOL    HW116559   0.964   1.052   8.431  3.8319  2.1156 -0.0938
 1641SOL    HW216560   0.944   1.084   8.571  0.1572  1.0578  0.6101
 1642SOL     OW16561   3.908   1.282   9.140  0.6389  0.2294  0.0276
 1642SOL    HW116562   3.999   1.283   9.168  0.7648  0.5466 -0.3927
 1642SOL    HW216563   3.876   1.239   9.219 -0.4641  0.9209 -0.0443
 1643SOL     OW16564   4.345   0.584   7.953  0.1406 -0.3092  0.5903
 1643SOL    HW116565   4.384   0.666   7.984 -0.8547  0.0192  0.9809
 1643SOL    HW216566   4.288   0.612   7.881 -0.9867  2.6810  2.6002
 1644SOL     OW16567   0.694   0.953  14.254  0.0103 -0.5380  0.2366
 1644SOL    HW116568   0.615   0.999  14.226 -0.2891 -0.5973  0.9791
 1644SOL    HW216569   0.652   0.873  14.286  1.3910 -0.5765  1.9426
 1645SOL     OW16570   0.954   0.136   2.640  0.7120  0.0496 -0.0207
 1645SOL    HW116571   0.977   0.194   2.568 -1.3493  1.3459  0.3709
 1645SOL    HW216572   0.995   0.185   2.712 -0.2077  1.8643 -0.7483
 1646SOL     OW16573   4.229   3.592   3.287 -0.2103  0.1658  0.4832
 1646SOL    HW116574   4.184   3.602   3.371 -0.4735  0.6702  0.2870
 1646SOL    HW216575   4.159   3.568   3.226 -0.8735  0.1721  1.2416
 1647SOL     OW16576   1.406   1.972   2.723  0.9398  0.1325 -0.2869
 1647SOL    HW116577   1.423   2.038   2.656 -2.0816 -0.9219 -2.0879
 1647SOL    HW216578   1.451   1.896   2.686 -0.6720 -0.1404 -1.6936
 1648SOL     OW16579   2.841   4.360   2.661  0.4069  0.4044 -0.2532
 1648SOL    HW116580   2.787   4.429   2.624 -0.1992 -0.1815 -0.4666
 1648SOL    HW216581   2.833   4.295   2.590 -2.3259  1.8748 -1.2761
 1649SOL     OW16582   0.039   0.369   2.934  0.0042  0.1566  0.7099
 1649SOL    HW116583   0.028   0.277   2.957 -2.2503 -0.1308 -1.5863
 1649SOL    HW216584   0.032   0.350   2.841 -1.1581  2.1709  0.3861
 1650SOL     OW16585   0.013   1.007   3.927  0.3725 -0.0016 -0.0765
 1650SOL    HW116586   0.104   0.995   3.898  0.8123 -0.1245  1.3436
 1650SOL    HW216587   0.016   0.984   4.020 -0.7332  0.0337 -0.0382
 1651SOL     OW16588   0.253   2.551   5.148  0.3464 -0.3456 -0.3384
 1651SOL    HW116589   0.271   2.636   5.109 -2.0652  0.3646  0.0442
 1651SOL    HW216590   0.170   2.572   5.191  0.4400 -0.4925 -0.0867
 1652SOL     OW16591   1.454   1.553   6.152 -0.2505 -0.3992 -0.4759
 1652SOL    HW116592   1.440   1.590   6.064 -1.6991  1.4973  0.5624
 1652SOL    HW216593   1.474   1.635   6.196  1.5649  0.0555 -2.1249
 1653SOL     OW16594   0.465   1.168   9.589 -0.1150  0.6995  0.0374
 1653SOL    HW116595   0.461   1.154   9.683  1.6994  3.2793  0.4933
 1653SOL    HW216596   0.372   1.188   9.574  0.0965  0.2132 -1.9130
 1654SOL     OW16597   1.584   2.114   8.918 -0.3323  0.2920  0.5142
 1654SOL    HW116598   1.533   2.166   8.981  0.9586  1.1720  0.8293
 1654SOL    HW216599   1.523   2.096   8.847  1.6716 -0.7403 -0.9265
 1655SOL     OW16600   2.097   3.919   2.157  0.3013 -0.2400  0.4073
 1655SOL    HW116601   2.065   3.886   2.073 -0.5668  0.5932  0.4174
 1655SOL    HW216602   2.182   3.956   2.131  1.6009 -2.5652  1.3207
 1656SOL     OW16603   3.162   0.853   6.104  0.1683 -0.3247  0.1518
 1656SOL    HW116604   3.234   0.802   6.068  1.2778 -0.1725  2.1676
 1656SOL    HW216605   3.152   0.930   6.047  0.7173  0.1758  0.7287
 1657SOL     OW16606   2.485   0.980   5.607  0.6307 -0.3665 -0.0235
 1657SOL    HW116607   2.474   0.982   5.512 -0.5820  0.0098  0.1225
 1657SOL    HW216608   2.539   1.058   5.619 -1.0699  1.0506 -1.6275
 1658SOL     OW16609   1.126   0.041   1.860  0.7026 -0.2059 -0.5116
 1658SOL    HW116610   1.218   0.068   1.863  0.0418  2.0979 -0.3985
 1658SOL    HW216611   1.135   4.682   1.864  2.6693  0.0002 -0.1746
 1659SOL     OW16612   1.411   2.077   7.000 -0.2462 -0.1487 -0.2098
 1659SOL    HW116613   1.462   2.106   7.075 -2.2511  1.5194  0.4859
 1659SOL    HW216614   1.421   1.981   7.002  1.5889  0.0426 -0.5357
 1660SOL     OW16615   2.330   4.590   3.581  0.0918  0.0843 -0.1852
 1660SOL    HW116616   2.359   4.499   3.583 -2.6439 -0.7996 -1.1547
 1660SOL    HW216617   2.321   4.618   3.490  1.9171 -1.3392 -0.8116
 1661SOL     OW16618   0.188   4.444   6.229 -0.6168 -0.0839  0.1773
 1661SOL    HW116619   0.137   4.369   6.260  0.1101 -0.9971 -0.8189
 1661SOL    HW216620   0.130   4.477   6.160 -2.2715  0.7469  1.9654
 1662SOL     OW16621   4.541   3.361  13.279 -0.3301  0.5099  0.3034
 1662SOL    HW116622   4.537   3.265  13.282  0.7444  0.3906 -2.5800
 1662SOL    HW216623   4.460   3.384  13.325  1.2899  0.1468  3.4052
 1663SOL     OW16624   0.174   0.267   0.053  0.1820  0.7506  0.1562
 1663SOL    HW116625   0.260   0.233   0.031 -0.0717 -0.5129  1.0782
 1663SOL    HW216626   0.146   0.198   0.113 -1.1044 -1.5767 -3.1392
 1664SOL     OW16627   4.275   1.764  17.008 -0.2524  0.0332  0.0961
 1664SOL    HW116628   4.255   1.699  17.076  2.3998 -0.3285  0.5165
 1664SOL    HW216629   4.189   1.805  17.001  0.4920  1.8383  1.6788
 1665SOL     OW16630   2.904   0.992   2.698 -0.0304  0.0424 -0.0932
 1665SOL    HW116631   2.916   0.940   2.777  2.6664  0.2451 -0.3579
 1665SOL    HW216632   2.915   1.082   2.729  0.4586 -0.4965  1.2971
 1666SOL     OW16633   0.521   1.131   3.218 -0.0423 -0.0453 -0.1943
 1666SOL    HW116634   0.471   1.079   3.155  1.5075 -3.4071  1.3915
 1666SOL    HW216635   0.579   1.175   3.157 -1.1095  2.1685  0.3782
 1667SOL     OW16636   1.226   0.185  17.251 -0.0679 -0.2565 -0.4930
 1667SOL    HW116637   1.245   0.091  17.240 -2.1693 -0.5788 -1.5192
 1667SOL    HW216638   1.287   0.232  17.195  1.6948 -1.0997  0.7165
 1668SOL     OW16639   0.154   1.957   4.043  0.5586  0.0867 -0.3669
 1668SOL    HW116640   0.212   1.894   3.998 -0.2581 -1.1207  0.2610
 1668SOL    HW216641   0.073   1.915   4.014  1.2877 -0.5923 -1.4404
 1669SOL     OW16642   2.999   1.697   1.808 -0.4816  0.0408  0.2511
 1669SOL    HW116643   2.982   1.612   1.768 -1.2541  0.1186  0.4164
 1669SOL    HW216644   3.088   1.707   1.774  0.0458 -1.4201  1.2431
 1670SOL     OW16645   4.405   3.708   1.271  0.0604 -0.8170 -0.1169
 1670SOL    HW116646   4.356   3.749   1.200 -1.8802 -1.6269  0.7627
 1670SOL    HW216647   4.472   3.661   1.221 -0.8087 -0.7666 -1.3188
 1671SOL     OW16648   2.071   3.250   4.608  0.0358  0.6399  0.0382
 1671SOL    HW116649   2.092   3.334   4.649 -1.1975  0.1881  1.6079
 1671SOL    HW216650   2.136   3.195   4.652  0.6788  2.4830  1.4088
 1672SOL     OW16651   1.960   0.935   3.663 -0.1467 -0.1979  0.0781
 1672SOL    HW116652   1.929   1.015   3.621  0.6761 -0.7191 -1.5262
 1672SOL    HW216653   2.017   0.971   3.730  0.2003 -1.3301  0.3937
 1673SOL     OW16654   3.067   4.203  12.141  0.3843 -0.1759 -0.6848
 1673SOL    HW116655   3.027   4.199  12.054  1.0685  1.9296 -1.0841
 1673SOL    HW216656   2.988   4.194  12.195  1.3203 -1.3937  0.4814
 1674SOL     OW16657   3.935   3.870   8.361 -0.5888 -0.2387 -0.7713
 1674SOL    HW116658   3.976   3.846   8.278  2.9314 -1.8807  1.4342
 1674SOL    HW216659   3.986   3.820   8.424  0.1340 -1.7634 -2.5732
 1675SOL     OW16660   2.498   1.633  16.679 -0.3935 -0.2088 -0.6384
 1675SOL    HW116661   2.586   1.630  16.642 -0.1747 -0.0248 -0.1362
 1675SOL    HW216662   2.507   1.691  16.755  1.3363 -0.2688 -0.8087
 1676SOL     OW16663   1.979   1.839   2.295 -0.0239  0.2569 -0.1266
 1676SOL    HW116664   1.996   1.930   2.320 -0.6406  0.3828 -0.1685
 1676SOL    HW216665   2.066   1.821   2.260 -0.3602 -0.4902 -0.5735
 1677SOL     OW16666   3.073   0.631   5.436 -0.4745  0.5483  0.0573
 1677SOL    HW116667   2.989   0.613   5.478  0.0457 -1.7562  0.1429
 1677SOL    HW216668   3.087   0.725   5.442 -1.0688  0.7228 -1.1635
 1678SOL     OW16669   4.436   1.775  10.122 -0.2953  0.1628 -0.2186
 1678SOL    HW116670   4.390   1.724  10.055 -1.3431  1.1960 -0.2895
 1678SOL    HW216671   4.499   1.709  10.150 -1.0494  0.9602  3.3130
 1679SOL     OW16672   2.867   1.742  13.495  0.6278  0.3742 -0.2101
 1679SOL    HW116673   2.801   1.672  13.497 -0.7522  1.6650 -0.0845
 1679SOL    HW216674   2.808   1.813  13.468 -0.6727 -0.0823  1.4557
 1680SOL     OW16675   2.461   3.198   7.453  0.4347 -0.5914  0.0129
 1680SOL    HW116676   2.503   3.271   7.408  0.8864 -0.5942  0.4233
 1680SOL    HW216677   2.400   3.237   7.515 -0.2167 -2.2346  0.4255
 1681SOL     OW16678   3.387   0.115   8.359 -0.4679  0.3781 -0.3190
 1681SOL    HW116679   3.292   0.114   8.350 -0.4888  1.8437 -0.1900
 1681SOL    HW216680   3.394   0.020   8.370  0.9833  0.4749 -0.3496
 1682SOL     OW16681   3.845   1.994  10.673  0.3158 -0.0981  0.0465
 1682SOL    HW116682   3.757   2.033  10.671 -0.5656 -1.9218  2.6373
 1682SOL    HW216683   3.851   1.974  10.766  0.3116 -1.3213 -0.2217
 1683SOL     OW16684   3.979   1.221   3.787 -0.6834 -0.0605 -0.1002
 1683SOL    HW116685   3.933   1.163   3.727 -1.5920  0.2963  0.2432
 1683SOL    HW216686   4.069   1.204   3.760 -0.3077 -0.0598  1.1431
 1684SOL     OW16687   2.901   0.875  12.846 -0.1413  0.5086 -0.7423
 1684SOL    HW116688   2.928   0.857  12.755 -2.9692 -0.3663 -1.3847
 1684SOL    HW216689   2.918   0.969  12.853 -1.3808  0.6105  0.7254
 1685SOL     OW16690   4.477   1.929   7.939 -0.0781 -0.4680  0.1434
 1685SOL    HW116691   4.401   1.939   7.882  1.0033 -2.3776 -1.6204
 1685SOL    HW216692   4.550   1.962   7.887  0.3603  1.4706  1.9938
 1686SOL     OW16693   1.038   2.620  10.266 -0.7221  0.2794  0.1510
 1686SOL    HW116694   1.121   2.664  10.282 -1.2668 -0.0736  3.9559
 1686SOL    HW216695   0.976   2.678  10.311 -0.3404  0.4768  0.4185
 1687SOL     OW16696   3.736   0.247   7.891  0.0665 -0.2285 -0.0647
 1687SOL    HW116697   3.713   0.250   7.983 -3.5421  1.2133 -1.0167
 1687SOL    HW216698   3.828   0.272   7.894  0.4889 -1.4835 -2.1944
 1688SOL     OW16699   2.429   2.993  10.246  0.3316 -0.1020 -0.1846
 1688SOL    HW116700   2.383   3.077  10.240 -0.9957 -0.9244 -1.5921
 1688SOL    HW216701   2.364   2.939  10.201 -0.1954  0.4196 -0.0497
 1689SOL     OW16702   0.097   1.802   9.191  0.3984  0.7452  0.9214
 1689SOL    HW116703   0.151   1.747   9.247 -0.8720  0.0926  1.5079
 1689SOL    HW216704   0.067   1.861   9.260  1.4060 -0.5912  2.5103
 1690SOL     OW16705   4.433   0.283   5.696 -0.1336  0.1453  0.2955
 1690SOL    HW116706   4.404   0.326   5.616  2.5119  0.2922 -0.6124
 1690SOL    HW216707   4.524   0.266   5.670 -0.8799 -1.4943 -1.2917
 1691SOL     OW16708   3.119   3.575   3.375 -0.5969 -0.4947 -0.3786
 1691SOL    HW116709   3.196   3.521   3.392  0.6816  0.6314 -2.6110
 1691SOL    HW216710   3.093   3.609   3.461  2.0649 -0.6934  0.4948
 1692SOL     OW16711   2.766   3.446  10.525  0.0407 -0.6859 -0.9762
 1692SOL    HW116712   2.799   3.534  10.539 -1.6311 -0.1982 -0.1191
 1692SOL    HW216713   2.742   3.448  10.432 -0.4712 -0.7045 -0.8449
 1693SOL     OW16714   2.405   0.333  12.549  0.3402  0.1295 -0.8992
 1693SOL    HW116715   2.368   0.392  12.615  0.5718  0.1048 -0.7457
 1693SOL    HW216716   2.341   0.332  12.479 -0.2071 -0.4846 -0.3966
 1694SOL     OW16717   3.639   2.058   8.207  0.2176 -0.4791  0.4187
 1694SOL    HW116718   3.550   2.090   8.194 -0.1377 -1.1336  1.2221
 1694SOL    HW216719   3.630   2.002   8.284 -0.1600 -0.8161  0.1238
 1695SOL     OW16720   1.913   2.864   4.758  0.4534 -0.3408 -0.5982
 1695SOL    HW116721   1.914   2.780   4.804 -1.4878 -0.4997 -0.8467
 1695SOL    HW216722   1.905   2.841   4.665  1.9652 -3.0939 -0.0612
 1696SOL     OW16723   2.234   3.889   1.624 -0.7398 -0.1000 -0.6559
 1696SOL    HW116724   2.201   3.921   1.540  1.0633  2.8080 -0.2615
 1696SOL    HW216725   2.192   3.803   1.618 -0.3327 -0.2762 -0.9830
 1697SOL     OW16726   2.836   0.228  10.142 -0.5990  0.0517 -0.0520
 1697SOL    HW116727   2.928   0.221  10.118 -0.2558 -0.0421  1.3074
 1697SOL    HW216728   2.845   0.310  10.190 -0.1360  1.0847 -1.9089
 1698SOL     OW16729   1.788   3.404  13.924  0.0462  0.2114 -0.8206
 1698SOL    HW116730   1.810   3.451  13.844  1.1551  0.7753 -0.1863
 1698SOL    HW216731   1.699   3.376  13.904  0.1557 -0.1015 -0.8764
 1699SOL     OW16732   0.207   0.870   7.154  0.4210 -0.2889  0.0274
 1699SOL    HW116733   0.166   0.821   7.083 -0.7904 -1.2771  1.4142
 1699SOL    HW216734   0.136   0.915   7.199  0.5818  0.6355 -0.6367
 1700SOL     OW16735   1.288   0.893   0.964  0.0084  0.2140  0.1458
 1700SOL    HW116736   1.353   0.828   0.989  1.1327  1.5398  0.6432
 1700SOL    HW216737   1.323   0.968   1.013  0.4069  0.3434 -0.3365
 1701SOL     OW16738   4.364   1.526   1.876 -0.0557  0.1895  0.0778
 1701SOL    HW116739   4.422   1.450   1.881 -0.3641 -0.1450 -1.4231
 1701SOL    HW216740   4.428   1.597   1.865  0.5114  0.0172  2.2585
 1702SOL     OW16741   0.301   0.744   8.133  0.4640  0.4532 -0.5039
 1702SOL    HW116742   0.388   0.779   8.116  1.4485 -2.1830 -0.9824
 1702SOL    HW216743   0.283   0.820   8.188 -0.4418 -1.0479  1.2763
 1703SOL     OW16744   2.337   4.559  17.610  0.0690  0.3655 -0.3391
 1703SOL    HW116745   2.407   4.591  17.554 -1.3298  1.1176 -1.6570
 1703SOL    HW216746   2.291   4.641  17.629  1.5362  1.1490 -0.1989
 1704SOL     OW16747   3.543   1.063   6.732 -0.5010 -0.0915  0.6878
 1704SOL    HW116748   3.487   1.133   6.698  0.8612  0.2178 -0.9199
 1704SOL    HW216749   3.519   1.068   6.824 -2.0115 -2.7261  0.4541
 1705SOL     OW16750   3.850   1.362   0.796 -0.3597 -0.1506 -0.6157
 1705SOL    HW116751   3.759   1.331   0.800  0.0555 -1.5165 -1.6155
 1705SOL    HW216752   3.907   1.287   0.815 -0.0389  0.5927  1.3099
 1706SOL     OW16753   4.679   1.182   2.608  0.5486  0.5268 -0.6245
 1706SOL    HW116754   4.663   1.208   2.517 -2.3787  4.3723  1.0145
 1706SOL    HW216755   4.713   1.092   2.608 -1.1318 -0.0973  0.9907
 1707SOL     OW16756   2.014   2.067   4.904 -0.6042 -0.0786  0.2087
 1707SOL    HW116757   1.937   2.104   4.861 -0.8232 -2.3035 -1.2942
 1707SOL    HW216758   2.060   2.023   4.833 -1.7820 -1.5392  0.3439
 1708SOL     OW16759   4.679   3.857   4.250  0.0606 -0.3210  0.4040
 1708SOL    HW116760   4.589   3.859   4.282  0.2105 -2.2781  0.9036
 1708SOL    HW216761   4.668   3.879   4.157 -0.5781  0.0351  0.5629
 1709SOL     OW16762   2.266   4.396  12.905  0.3009  0.1237 -0.2401
 1709SOL    HW116763   2.270   4.313  12.858 -0.4895 -0.2865  0.4196
 1709SOL    HW216764   2.331   4.452  12.862  0.3922  0.2996  0.1259
 1710SOL     OW16765   2.346   3.345   8.091  0.0747  0.3678  0.4683
 1710SOL    HW116766   2.303   3.294   8.160  2.4245 -1.6997  0.3900
 1710SOL    HW216767   2.357   3.434   8.123  1.1318  0.8066 -1.1534
 1711SOL     OW16768   1.408   0.465   9.085  0.1858  0.1133  0.3109
 1711SOL    HW116769   1.320   0.503   9.078  0.5084  0.7349 -0.3413
 1711SOL    HW216770   1.442   0.551   9.110 -1.5672  0.8832  0.0380
 1712SOL     OW16771   0.110   0.642   9.385  0.3677  0.2482  0.6175
 1712SOL    HW116772   0.171   0.575   9.413  0.3219 -0.1928 -0.3463
 1712SOL    HW216773   0.033   0.588   9.370  1.6299 -0.4813 -3.0878
 1713SOL     OW16774   1.224   1.547   5.076  0.3364 -0.2836  0.5181
 1713SOL    HW116775   1.130   1.548   5.091 -0.0396  3.6333 -2.0061
 1713SOL    HW216776   1.250   1.610   5.144  0.9651  1.3433 -1.2354
 1714SOL     OW16777   3.434   4.411   2.977 -0.4161  0.1493  0.0639
 1714SOL    HW116778   3.387   4.368   3.049 -0.2698 -1.3174 -0.7068
 1714SOL    HW216779   3.518   4.365   2.985 -1.6599 -2.0668  0.4789
 1715SOL     OW16780   0.545   2.224  14.239  0.8013  0.0721 -0.0991
 1715SOL    HW116781   0.536   2.219  14.144  1.1012  0.3880 -0.1425
 1715SOL    HW216782   0.619   2.284  14.248  0.8922 -0.0655  0.0639
 1716SOL     OW16783   3.171   1.803   4.822  0.3413 -0.3849 -0.2926
 1716SOL    HW116784   3.200   1.801   4.731  2.5915 -0.2658  0.4277
 1716SOL    HW216785   3.083   1.764   4.820  0.1717  0.1921 -3.0233
 1717SOL     OW16786   0.620   4.504   4.983  0.6004 -0.5073  0.3541
 1717SOL    HW116787   0.562   4.558   4.928  0.4392 -0.3281  0.7051
 1717SOL    HW216788   0.643   4.563   5.055 -2.7242 -0.4940  1.3785
 1718SOL     OW16789   0.165   3.637  16.601  0.0260 -0.6565  0.3652
 1718SOL    HW116790   0.142   3.616  16.692  0.9782  0.2858  0.8330
 1718SOL    HW216791   0.183   3.546  16.579 -2.3615 -1.1246  0.3537
 1719SOL     OW16792   4.015   0.047   5.017  0.0603 -0.3648  0.1239
 1719SOL    HW116793   3.999   0.094   5.100 -1.3423  0.9182 -0.8576
 1719SOL    HW216794   3.923   0.059   4.993 -0.2456  0.3445  1.6485
 1720SOL     OW16795   4.731   1.698  11.747 -0.0986 -0.4683  0.0785
 1720SOL    HW116796   0.031   1.787  11.748  1.4340 -1.0922  0.2382
 1720SOL    HW216797   4.693   1.709  11.660  1.3973 -2.9276 -0.8913
 1721SOL     OW16798   1.004   2.955  11.446 -0.1149  0.0098  0.9882
 1721SOL    HW116799   1.088   2.974  11.488 -0.7373 -0.0024  2.2209
 1721SOL    HW216800   0.982   3.041  11.410  0.1511  0.3774  1.7013
 1722SOL     OW16801   1.053   3.732   4.108  0.2441  1.1074  0.1022
 1722SOL    HW116802   1.090   3.675   4.176  1.3074 -0.8022 -2.0803
 1722SOL    HW216803   0.979   3.679   4.079  1.5830 -2.0444  2.3683
 1723SOL     OW16804   0.535   0.868  12.822  0.5233  0.1314 -0.3938
 1723SOL    HW116805   0.504   0.834  12.738 -3.4920  0.7160  0.8228
 1723SOL    HW216806   0.521   0.790  12.875 -0.9268  2.0009  2.0033
 1724SOL     OW16807   3.963   0.020   9.165  0.5608 -0.0580  0.0014
 1724SOL    HW116808   4.006   4.697   9.103  1.1845  0.7390 -0.3366
 1724SOL    HW216809   4.016   4.733   9.242  0.7467 -0.8812 -0.3790
 1725SOL     OW16810   2.167   3.788   8.720 -0.1518  0.4820  0.0113
 1725SOL    HW116811   2.226   3.831   8.783  1.4916 -0.1536 -1.0885
 1725SOL    HW216812   2.179   3.704   8.765 -1.3495  1.6307  2.5207
 1726SOL     OW16813   2.896   3.680   7.570 -0.1559  0.6353 -0.1461
 1726SOL    HW116814   2.922   3.613   7.633 -0.1150  0.5687 -0.2335
 1726SOL    HW216815   2.970   3.681   7.509 -1.0031 -0.0656 -1.1927
 1727SOL     OW16816   0.678   0.487   0.781 -0.6452 -0.4482  0.3818
 1727SOL    HW116817   0.653   0.396   0.797  2.0260 -1.4350 -1.0868
 1727SOL    HW216818   0.643   0.499   0.692  1.4848  2.6954 -0.0161
 1728SOL     OW16819   0.819   2.100  16.725  0.1949  0.2427 -0.2646
 1728SOL    HW116820   0.734   2.058  16.730 -0.3923  1.5938  1.1547
 1728SOL    HW216821   0.797   2.188  16.695 -1.9671  0.3386  1.6420
 1729SOL     OW16822   0.173   0.799   7.555  0.4147 -0.7760 -0.2029
 1729SOL    HW116823   0.220   0.834   7.631 -0.4813  2.1637 -0.9795
 1729SOL    HW216824   0.246   0.766   7.504  1.2120 -0.8265  0.9731
 1730SOL     OW16825   2.009   1.260   7.429  0.2604  0.7335  0.6287
 1730SOL    HW116826   1.973   1.208   7.357 -0.4099  0.6842  1.0084
 1730SOL    HW216827   2.095   1.218   7.429 -1.3393 -2.5447  0.6378
 1731SOL     OW16828   1.303   0.418   4.827  0.0984  0.4568  0.0490
 1731SOL    HW116829   1.389   0.420   4.869  0.4766 -1.1875 -0.6575
 1731SOL    HW216830   1.241   0.446   4.895  0.8516  2.4078 -0.0583
 1732SOL     OW16831   4.625   2.415   3.415 -0.8189 -0.0633 -0.1863
 1732SOL    HW116832   4.600   2.446   3.328 -2.0184 -0.5564 -0.0154
 1732SOL    HW216833   4.648   2.327   3.385 -4.6196 -1.5102  1.1458
 1733SOL     OW16834   1.660   3.263   6.865  0.0666 -0.6269  0.1304
 1733SOL    HW116835   1.568   3.273   6.889  1.2351  1.1236  3.8465
 1733SOL    HW216836   1.693   3.327   6.928  0.2126 -1.7967  1.2453
 1734SOL     OW16837   3.077   3.117   6.129  0.0601  0.2241  0.1411
 1734SOL    HW116838   2.988   3.090   6.110  0.3381 -2.5048  2.6951
 1734SOL    HW216839   3.119   3.036   6.160 -1.4183 -0.5533  0.0932
 1735SOL     OW16840   0.365   4.484   4.053 -0.8348  0.0078  0.9192
 1735SOL    HW116841   0.354   4.520   4.141 -1.3378  0.9853  0.4582
 1735SOL    HW216842   0.359   4.390   4.073  0.0611  0.3311  2.7426
 1736SOL     OW16843   3.981   4.602  12.033  0.0553  0.0243 -0.4932
 1736SOL    HW116844   3.924   4.638  12.101 -0.6385  0.9825 -1.6046
 1736SOL    HW216845   4.008   4.686  11.997 -0.5460 -0.1859 -1.4233
 1737SOL     OW16846   2.526   3.958   4.181  0.3503  0.6337  0.5023
 1737SOL    HW116847   2.589   3.909   4.234 -0.1027  0.9303  1.3050
 1737SOL    HW216848   2.585   3.974   4.107  0.2316 -0.6608  0.1285
 1738SOL     OW16849   0.405   2.960   7.484 -0.2687 -0.6868 -0.0472
 1738SOL    HW116850   0.388   2.976   7.577  0.6512 -1.1995  0.2107
 1738SOL    HW216851   0.333   3.009   7.446 -1.9064 -2.2247  1.0847
 1739SOL     OW16852   1.102   0.766  17.462  0.6318 -0.3032  0.2752
 1739SOL    HW116853   1.052   0.821  17.523  0.8691 -0.5390  0.6846
 1739SOL    HW216854   1.109   0.824  17.386  0.6160 -3.0637 -1.8269
 1740SOL     OW16855   2.848   3.588  16.169 -0.4702 -0.2892 -0.1597
 1740SOL    HW116856   2.800   3.608  16.249 -0.2011 -1.7099  0.3492
 1740SOL    HW216857   2.843   3.666  16.114  0.7853 -0.1546 -0.0783
 1741SOL     OW16858   0.548   0.724   1.914  0.2193  0.2759  0.4547
 1741SOL    HW116859   0.626   0.761   1.874  0.9536 -0.2666  1.3895
 1741SOL    HW216860   0.565   0.631   1.902  1.5242  0.3331  1.9706
 1742SOL     OW16861   2.481   1.559   3.315 -0.4449 -0.4916 -0.2040
 1742SOL    HW116862   2.431   1.518   3.385 -1.1757 -3.0374 -2.2124
 1742SOL    HW216863   2.541   1.486   3.296  1.2297  0.4590  1.5160
 1743SOL     OW16864   1.853   2.475   7.075  0.3623 -0.6384  0.5706
 1743SOL    HW116865   1.909   2.504   7.147 -0.3371  2.6785 -0.2155
 1743SOL    HW216866   1.875   2.383   7.064 -1.1918 -0.7444 -1.4165
 1744SOL     OW16867   1.279   2.094   9.937 -0.4911  0.1145  0.6974
 1744SOL    HW116868   1.363   2.059   9.909 -1.9293 -1.5114 -1.5557
 1744SOL    HW216869   1.312   2.169   9.988 -0.0753  0.5090 -0.1634
 1745SOL     OW16870   3.459   3.175   5.341 -0.6431  0.6891 -0.3408
 1745SOL    HW116871   3.542   3.206   5.376  0.0048 -0.1343 -1.1474
 1745SOL    HW216872   3.470   3.155   5.248  0.1862 -1.5888  0.2404
 1746SOL     OW16873   4.360   0.888   3.226  0.5268 -0.9120 -0.0147
 1746SOL    HW116874   4.288   0.893   3.289  1.1396 -0.3422  0.6410
 1746SOL    HW216875   4.360   0.793   3.214  2.8313 -0.8682 -0.4055
 1747SOL     OW16876   3.185   3.875   3.131 -0.2315  0.1174 -0.2277
 1747SOL    HW116877   3.109   3.817   3.136  0.3071 -0.5018  0.9238
 1747SOL    HW216878   3.244   3.843   3.063  2.2014  3.5075  0.3157
 1748SOL     OW16879   3.860   4.677   2.013  0.7970  0.4255 -0.0220
 1748SOL    HW116880   3.853   4.726   1.931  0.0435 -1.1056 -0.8789
 1748SOL    HW216881   3.815   4.595   1.991  0.3834  0.1392  1.8874
 1749SOL     OW16882   2.132   3.476   4.769  0.3185  0.0142 -0.3387
 1749SOL    HW116883   2.081   3.458   4.848  1.4496  1.4223  0.6918
 1749SOL    HW216884   2.215   3.499   4.810  0.3560 -1.8103  0.6404
 1750SOL     OW16885   4.470   3.953   2.635  0.5256  0.3920  0.2267
 1750SOL    HW116886   4.481   3.889   2.705 -0.1191 -0.4910 -0.4726
 1750SOL    HW216887   4.490   4.036   2.678  0.4967  0.8899 -0.7241
 1751SOL     OW16888   3.554   1.159  13.655  0.6223 -0.2340  0.1379
 1751SOL    HW116889   3.562   1.064  13.670  2.5954  0.2264  1.9271
 1751SOL    HW216890   3.614   1.167  13.581 -0.0373  2.0097 -0.1492
 1752SOL     OW16891   1.937   3.312   3.944  0.1910  0.0535 -0.0582
 1752SOL    HW116892   1.923   3.356   4.028  0.4720  0.4299 -0.2088
 1752SOL    HW216893   1.863   3.345   3.895  1.1281  0.7645 -0.9941
 1753SOL     OW16894   3.918   2.693  10.625 -0.6505 -0.0580 -0.5297
 1753SOL    HW116895   3.845   2.660  10.678  0.0728 -0.7235  0.0609
 1753SOL    HW216896   3.963   2.748  10.689 -1.5067 -0.4368  0.4116
 1754SOL     OW16897   4.285   3.297   5.475  0.6556  0.1019  0.5457
 1754SOL    HW116898   4.323   3.344   5.400 -2.1089  2.0915  0.3860
 1754SOL    HW216899   4.252   3.360   5.539 -1.5899 -2.0396  1.5046
 1755SOL     OW16900   1.474   4.095   4.138 -0.0441 -0.1484  0.3216
 1755SOL    HW116901   1.391   4.128   4.105 -0.2069  0.3665  1.2405
 1755SOL    HW216902   1.503   4.161   4.201 -0.3589  1.7303 -1.5192
 1756SOL     OW16903   3.198   4.137   1.713  0.3314  0.4040  0.3112
 1756SOL    HW116904   3.155   4.174   1.790 -0.7282  2.2738 -1.1860
 1756SOL    HW216905   3.244   4.066   1.757  0.1113  0.8219  1.2215
 1757SOL     OW16906   0.460   3.413   8.865  0.3455 -0.0615 -0.2864
 1757SOL    HW116907   0.458   3.445   8.775 -0.4237  2.1336  0.5287
 1757SOL    HW216908   0.369   3.387   8.877  0.1670  0.5081 -0.4477
 1758SOL     OW16909   2.111   3.589   1.570 -0.6641  0.0524  0.8334
 1758SOL    HW116910   2.057   3.583   1.491 -0.5786 -1.7571  0.8964
 1758SOL    HW216911   2.195   3.588   1.523  0.8417  0.6465  3.5122
 1759SOL     OW16912   4.397   1.963   5.701  0.5022  0.6006  0.0284
 1759SOL    HW116913   4.405   1.967   5.605 -0.4236  0.2442 -0.0660
 1759SOL    HW216914   4.464   1.904   5.733 -0.5760 -0.5747  0.1161
 1760SOL     OW16915   3.222   4.184   9.087 -0.4399  0.1134  0.7000
 1760SOL    HW116916   3.137   4.204   9.050 -1.7937 -1.4767  2.9664
 1760SOL    HW216917   3.203   4.161   9.178 -1.2095 -1.4853  0.1353
 1761SOL     OW16918   2.479   4.383   3.817  0.1800 -0.1784  0.3079
 1761SOL    HW116919   2.406   4.425   3.861  0.9454  1.0127  0.4454
 1761SOL    HW216920   2.538   4.355   3.886 -0.2406 -0.2339  0.6450
 1762SOL     OW16921   3.434   0.461   9.745 -0.4684  0.6655 -0.3558
 1762SOL    HW116922   3.389   0.544   9.726 -0.4550  0.7696  0.0718
 1762SOL    HW216923   3.371   0.417   9.801  1.3923  0.5642  1.6464
 1763SOL     OW16924   2.870   3.439   1.689  0.4756  0.3707  0.1677
 1763SOL    HW116925   2.912   3.397   1.764 -0.0919 -1.4660 -0.5240
 1763SOL    HW216926   2.873   3.365   1.629  1.5805  0.0178  0.6621
 1764SOL     OW16927   0.799   1.829   6.695  0.5724  0.0724 -0.0602
 1764SOL    HW116928   0.717   1.824   6.743  0.1496 -1.8805 -0.9657
 1764SOL    HW216929   0.822   1.736   6.690  1.8394  0.3852 -0.0344
 1765SOL     OW16930   1.955   2.655   3.486 -0.0745 -0.1545 -0.0293
 1765SOL    HW116931   1.909   2.718   3.431 -0.1611 -0.9871 -0.9055
 1765SOL    HW216932   2.026   2.712   3.516 -0.3985  0.3493 -0.2080
 1766SOL     OW16933   3.850   1.902  11.935  0.0254 -0.8262 -0.2596
 1766SOL    HW116934   3.839   1.863  12.021  0.1196 -2.4483 -0.9976
 1766SOL    HW216935   3.873   1.819  11.894  1.7126 -0.1905 -0.6117
 1767SOL     OW16936   4.337   1.126   1.877  0.3940  0.2617 -0.0363
 1767SOL    HW116937   4.330   1.176   1.958 -0.4101 -0.7227  0.5211
 1767SOL    HW216938   4.430   1.133   1.856  0.5584 -0.3543  0.4641
 1768SOL     OW16939   2.809   0.162   5.918 -0.3607 -0.0810 -0.8953
 1768SOL    HW116940   2.726   0.118   5.897  0.7517 -2.5380 -0.2054
 1768SOL    HW216941   2.869   0.092   5.893  1.5634 -0.0601  3.6276
 1769SOL     OW16942   0.260   2.749   8.387  0.4263 -0.6804 -0.4645
 1769SOL    HW116943   0.230   2.659   8.390 -1.7687  0.0630 -0.0885
 1769SOL    HW216944   0.190   2.788   8.439 -1.3415 -2.5893 -1.4191
 1770SOL     OW16945   1.708   2.397  16.216 -0.3999 -0.8526 -0.2810
 1770SOL    HW116946   1.670   2.483  16.198 -0.4387 -0.1446  3.3347
 1770SOL    HW216947   1.670   2.384  16.303  1.0024 -0.8687  0.3302
 1771SOL     OW16948   1.223   1.711   6.534  0.2877 -0.3412 -0.1379
 1771SOL    HW116949   1.168   1.767   6.587  0.5987  1.6365 -1.9054
 1771SOL    HW216950   1.224   1.775   6.463  0.0318 -0.0737  0.1007
 1772SOL     OW16951   0.488   2.724  12.322  0.8089  0.2684  0.2332
 1772SOL    HW116952   0.497   2.697  12.413  1.0170 -0.5304 -0.0259
 1772SOL    HW216953   0.408   2.680  12.293  0.6242 -0.2378  1.5173
 1773SOL     OW16954   2.769   4.468   8.376 -0.2761 -0.0651  0.2237
 1773SOL    HW116955   2.694   4.506   8.331 -1.0336 -0.6386  1.0037
 1773SOL    HW216956   2.752   4.486   8.468  0.6910  2.7509 -0.1447
 1774SOL     OW16957   0.216   0.364   3.631  0.4285 -0.5897 -0.2467
 1774SOL    HW116958   0.147   0.302   3.604  0.0874 -0.0067 -0.7187
 1774SOL    HW216959   0.229   0.341   3.723 -1.6400  0.0330  0.1975
 1775SOL     OW16960   0.149   0.623   0.933 -0.1476 -0.1896  0.0382
 1775SOL    HW116961   0.180   0.636   1.023 -0.4548 -0.5041  0.1893
 1775SOL    HW216962   0.127   0.713   0.910  0.8661  0.0704  0.0866
 1776SOL     OW16963   3.396   1.137   9.553  0.2752  0.5477  0.2972
 1776SOL    HW116964   3.485   1.152   9.585  0.0706 -1.0219  1.6113
 1776SOL    HW216965   3.393   1.047   9.521  4.0951  0.7590 -0.6528
 1777SOL     OW16966   0.571   4.032   8.164  0.5619  0.0653 -0.2046
 1777SOL    HW116967   0.586   3.948   8.120 -1.6294 -0.4176 -0.0324
 1777SOL    HW216968   0.525   4.001   8.242  1.2339 -0.4031  0.0049
 1778SOL     OW16969   1.442   2.700   2.917  0.0485  0.2518 -0.9520
 1778SOL    HW116970   1.498   2.748   2.856 -0.0565  0.4160 -0.9208
 1778SOL    HW216971   1.352   2.707   2.885 -0.2397  2.6206  0.3903
 1779SOL     OW16972   0.933   4.711   6.487 -0.2086  0.1578 -0.6285
 1779SOL    HW116973   0.913   4.628   6.530 -0.9880 -0.2743 -1.8239
 1779SOL    HW216974   1.027   4.694   6.485  0.3491  3.0665  1.0409
 1780SOL     OW16975   1.941   3.168   5.674  0.0481 -0.8249  0.7136
 1780SOL    HW116976   1.948   3.235   5.742 -1.0485 -2.4812  2.4427
 1780SOL    HW216977   2.012   3.114   5.709  0.0275  0.2127  2.3372
 1781SOL     OW16978   2.753   0.084  17.254 -0.5767  0.0585 -0.3983
 1781SOL    HW116979   2.811   0.124  17.318 -0.7982 -1.0221  0.4788
 1781SOL    HW216980   2.800   0.000  17.246  0.6774  0.8148 -1.0235
 1782SOL     OW16981   4.716   1.025   2.928 -0.5190 -0.1488  0.2020
 1782SOL    HW116982   4.701   1.013   2.835  1.2424 -1.2864  0.0704
 1782SOL    HW216983   4.629   1.017   2.967 -0.2099 -1.5397  0.6186
 1783SOL     OW16984   1.380   3.251   6.458  0.0626  0.7723 -0.2973
 1783SOL    HW116985   1.372   3.232   6.365 -1.6256 -3.5936  0.7253
 1783SOL    HW216986   1.471   3.225   6.475 -0.0539  0.8179  0.4223
 1784SOL     OW16987   4.206   1.805   5.887  0.5006 -0.4625  0.2500
 1784SOL    HW116988   4.191   1.899   5.886  0.9983 -0.3889  0.0299
 1784SOL    HW216989   4.271   1.785   5.820  2.7054 -0.7598  2.4899
 1785SOL     OW16990   3.422   0.510  12.983  0.0913 -0.2901 -0.2258
 1785SOL    HW116991   3.452   0.474  12.899  0.0276  0.1298 -0.4303
 1785SOL    HW216992   3.508   0.520  13.024  0.3694 -1.7898 -0.4583
 1786SOL     OW16993   0.584   1.855   2.486  0.3815  0.2365 -0.0347
 1786SOL    HW116994   0.600   1.810   2.403 -0.9877  2.7527 -1.6499
 1786SOL    HW216995   0.543   1.786   2.537  0.6554  0.7488  0.8766
 1787SOL     OW16996   0.675   1.091  12.758 -0.0773  0.3495 -0.1159
 1787SOL    HW116997   0.613   1.164  12.752 -0.3322 -0.0160 -1.8309
 1787SOL    HW216998   0.610   1.023  12.777  0.6486 -0.4662 -0.5649
 1788SOL     OW16999   2.043   1.823  12.311  0.0561  0.1439 -0.1903
 1788SOL    HW117000   2.070   1.759  12.245 -0.2895 -0.6702  0.4503
 1788SOL    HW217001   1.959   1.788  12.343 -0.0895 -0.2785 -1.0420
 1789SOL     OW17002   4.623   3.646  11.306 -0.0520 -0.1615  0.4694
 1789SOL    HW117003   4.670   3.570  11.339  1.2778  0.4839  0.0542
 1789SOL    HW217004   4.533   3.638  11.339 -0.3632 -1.7704 -0.8138
 1790SOL     OW17005   2.393   2.290   5.717  0.0553 -0.3165 -0.1063
 1790SOL    HW117006   2.341   2.352   5.666  0.7735  0.3616 -0.0154
 1790SOL    HW217007   2.418   2.328   5.802  1.2995 -0.7353 -0.2866
 1791SOL     OW17008   1.305   2.645   7.751 -0.5067 -0.0615  0.4568
 1791SOL    HW117009   1.224   2.640   7.700  0.4340  1.2398 -1.1713
 1791SOL    HW217010   1.312   2.556   7.783  1.6740  0.1380  0.5338
 1792SOL     OW17011   3.240   1.533   7.591  0.3759  0.2462  0.5829
 1792SOL    HW117012   3.160   1.512   7.543  0.5452 -0.2744  0.5295
 1792SOL    HW217013   3.270   1.448   7.622  1.8029  0.2912 -0.6847
 1793SOL     OW17014   0.838   1.300   1.556  0.2086  0.6575 -0.2199
 1793SOL    HW117015   0.888   1.382   1.557 -1.9526  1.9756  0.0246
 1793SOL    HW217016   0.901   1.231   1.539  0.7053  1.3394 -1.1680
 1794SOL     OW17017   0.894   1.482   7.692 -0.0140 -0.6456 -0.6129
 1794SOL    HW117018   0.851   1.545   7.751 -0.7032 -0.9981 -0.7476
 1794SOL    HW217019   0.965   1.539   7.661 -0.2669 -1.8724 -3.3347
 1795SOL     OW17020   4.632   3.974   9.517 -0.2839  0.2503  0.1611
 1795SOL    HW117021   4.709   3.968   9.574  0.0897  0.3437 -0.3347
 1795SOL    HW217022   4.591   3.889   9.534 -1.2094  0.4382 -1.1141
 1796SOL     OW17023   3.124   2.226  15.209 -0.5083 -0.0238 -0.0491
 1796SOL    HW117024   3.204   2.238  15.260 -1.1960 -4.0504  1.9396
 1796SOL    HW217025   3.166   2.208  15.124  0.5408 -1.6723  0.8313
 1797SOL     OW17026   1.221   0.966  12.218 -0.1123 -0.4358  0.1150
 1797SOL    HW117027   1.160   0.983  12.290 -0.7128 -1.6528 -0.1179
 1797SOL    HW217028   1.256   0.883  12.250  0.0393 -0.6488 -0.6011
 1798SOL     OW17029   3.865   1.831   2.497  0.5864  0.2086 -0.4303
 1798SOL    HW117030   3.860   1.736   2.511 -1.4275  0.0992 -1.7704
 1798SOL    HW217031   3.783   1.872   2.527 -0.5302 -1.1395 -1.6072
 1799SOL     OW17032   3.192   3.889   3.486  0.1458  0.4473  0.1686
 1799SOL    HW117033   3.111   3.936   3.504  0.2362  1.3967 -1.9476
 1799SOL    HW217034   3.158   3.844   3.409  2.0311 -2.8707  1.2396
 1800SOL     OW17035   1.171   1.013   9.479 -0.4365  0.1633  0.0684
 1800SOL    HW117036   1.115   1.063   9.420 -0.0265 -0.1134 -0.5544
 1800SOL    HW217037   1.215   0.951   9.421 -2.4058 -1.8933  0.7614
 1801SOL     OW17038   2.009   3.414   6.227  0.2333 -0.1097  0.2297
 1801SOL    HW117039   2.019   3.319   6.237 -2.3595 -0.3999 -0.0492
 1801SOL    HW217040   1.973   3.445   6.310  1.9786  2.2561  0.0940
 1802SOL     OW17041   3.076   2.697  11.762 -0.0889  0.1400 -0.4663
 1802SOL    HW117042   3.160   2.733  11.788  0.9616 -2.0818 -0.7498
 1802SOL    HW217043   3.025   2.753  11.821 -1.9473 -2.2716  0.2495
 1803SOL     OW17044   4.722   4.030  16.292 -0.0740 -0.5261 -0.0897
 1803SOL    HW117045   0.064   4.034  16.236  0.0773  2.7632  0.3640
 1803SOL    HW217046   4.731   3.947  16.339 -0.6343  0.1497  1.2162
 1804SOL     OW17047   4.580   3.436   3.754  0.0496  0.5289 -0.5752
 1804SOL    HW117048   4.589   3.384   3.833  1.6470  1.4775 -0.1429
 1804SOL    HW217049   4.605   3.520   3.792 -2.2238  0.3150  1.4044
 1805SOL     OW17050   2.284   4.274  16.956 -0.2007 -0.6462 -0.1818
 1805SOL    HW117051   2.221   4.246  16.889  2.1244 -3.8730 -1.0266
 1805SOL    HW217052   2.369   4.271  16.911 -0.1837  2.6257 -0.3311
 1806SOL     OW17053   3.386   2.186   8.465 -0.2826  0.0619 -0.1124
 1806SOL    HW117054   3.467   2.140   8.442 -0.4800 -0.2817 -0.1148
 1806SOL    HW217055   3.401   2.254   8.400  1.1999 -0.0774  0.0632
 1807SOL     OW17056   1.729   0.607   6.581 -0.2427  0.3900 -0.1973
 1807SOL    HW117057   1.638   0.581   6.597 -0.6912  2.6756  1.0860
 1807SOL    HW217058   1.736   0.694   6.622 -1.0195 -0.0046  0.7951
 1808SOL     OW17059   3.895   1.180   6.883 -0.2929 -0.0531 -0.3027
 1808SOL    HW117060   3.854   1.094   6.876  0.5873 -0.5476  0.7499
 1808SOL    HW217061   3.905   1.201   6.976  1.2532 -1.3569 -0.1781
 1809SOL     OW17062   0.211   4.310  14.410  0.1324 -0.6732 -0.1166
 1809SOL    HW117063   0.263   4.387  14.389 -0.5678  0.0233  0.6588
 1809SOL    HW217064   0.124   4.336  14.380  0.7486  0.7236 -0.6746
 1810SOL     OW17065   1.375   0.022   9.632  0.4468  0.0078 -0.2513
 1810SOL    HW117066   1.393   4.717   9.717  0.5785  1.7769  0.5887
 1810SOL    HW217067   1.289   0.056   9.656  0.3378 -0.0387 -0.5839
 1811SOL     OW17068   0.702   3.122  15.517  0.1035 -0.3369 -0.1527
 1811SOL    HW117069   0.614   3.158  15.521 -0.2937 -1.3428  0.2595
 1811SOL    HW217070   0.747   3.184  15.459 -0.7203  0.1374 -0.2796
 1812SOL     OW17071   1.148   4.276   2.138  0.2359  0.3328 -0.3634
 1812SOL    HW117072   1.112   4.308   2.220 -0.5219  1.2527 -1.0607
 1812SOL    HW217073   1.235   4.242   2.161 -0.1483  1.2880  2.3738
 1813SOL     OW17074   4.532   4.021   5.178  0.5992 -0.0205  0.4182
 1813SOL    HW117075   4.466   3.983   5.119  1.0905  0.6233 -0.5453
 1813SOL    HW217076   4.481   4.054   5.251  2.2840  1.9463  0.7129
 1814SOL     OW17077   4.676   4.516   6.062 -0.3128  0.6144 -0.3245
 1814SOL    HW117078   4.631   4.539   5.981 -3.2188 -1.6370  0.6612
 1814SOL    HW217079   4.657   4.423   6.071  1.5011  0.1344 -1.4507
 1815SOL     OW17080   1.029   3.953  13.865 -0.1968 -0.3872  0.2744
 1815SOL    HW117081   0.954   3.900  13.891 -0.2072 -0.6782 -0.3450
 1815SOL    HW217082   1.094   3.931  13.932  1.1257  0.1740 -0.8304
 1816SOL     OW17083   4.713   4.555   3.846  0.0445  0.4926  0.0925
 1816SOL    HW117084   4.732   4.603   3.926  2.3430 -0.0321 -0.1086
 1816SOL    HW217085   0.064   4.518   3.830  0.0447  0.2183  0.7206
 1817SOL     OW17086   2.128   2.252  12.911 -0.0454  0.6957  0.2332
 1817SOL    HW117087   2.062   2.251  12.981  1.4450 -1.4814  1.6079
 1817SOL    HW217088   2.084   2.275  12.829  1.4555 -1.8935 -1.3036
 1818SOL     OW17089   3.861   1.696   2.171 -0.2462  0.2929  0.2667
 1818SOL    HW117090   3.851   1.605   2.145 -0.6952  0.2708  0.5205
 1818SOL    HW217091   3.903   1.676   2.255 -0.4436  2.2649  0.8322
 1819SOL     OW17092   1.312   1.507   6.754  0.1417 -0.1247  0.1363
 1819SOL    HW117093   1.250   1.483   6.684  0.4209 -1.3489  0.3093
 1819SOL    HW217094   1.281   1.590   6.791  2.5491  1.2794 -0.9716
 1820SOL     OW17095   0.866   3.350   0.607 -0.0047  0.3363 -0.1158
 1820SOL    HW117096   0.944   3.405   0.611 -1.5805  2.7617 -3.1036
 1820SOL    HW217097   0.812   3.381   0.680  0.8928  1.2370  0.1632
 1821SOL     OW17098   0.687   1.518  13.340  0.0008  0.2612  0.1217
 1821SOL    HW117099   0.769   1.539  13.294 -1.3103  0.2914 -2.1894
 1821SOL    HW217100   0.620   1.507  13.273 -0.7227 -0.6942  0.9951
 1822SOL     OW17101   2.695   1.080   0.839  0.2961  0.1403  0.7147
 1822SOL    HW117102   2.718   1.054   0.750 -0.1836 -1.4919  1.0599
 1822SOL    HW217103   2.617   1.026   0.848  0.0951  0.3442  0.1879
 1823SOL     OW17104   4.375   1.049  15.356 -0.4003  0.6740  0.1822
 1823SOL    HW117105   4.455   1.100  15.367 -0.5432  0.6293  1.4258
 1823SOL    HW217106   4.388   0.979  15.292  1.1632 -1.3640  2.7542
 1824SOL     OW17107   3.998   2.254  12.958  0.3625 -0.5478 -0.0748
 1824SOL    HW117108   3.956   2.340  12.947  0.2315 -0.7334 -1.0306
 1824SOL    HW217109   3.992   2.241  13.053  0.9051 -0.5019 -0.0373
 1825SOL     OW17110   2.603   4.026  11.801 -0.9268  0.4096 -0.1632
 1825SOL    HW117111   2.537   4.083  11.763 -2.8669 -1.7708 -0.0792
 1825SOL    HW217112   2.605   4.073  11.884  0.6867 -0.9313  0.5472
 1826SOL     OW17113   0.893   4.621   8.876 -0.5470  0.1227 -0.1376
 1826SOL    HW117114   0.948   4.544   8.863  1.1338  1.2783  0.2413
 1826SOL    HW217115   0.818   4.597   8.821 -0.4811 -2.0094  0.6884
 1827SOL     OW17116   4.000   4.383   6.998  0.3986  0.3981  0.2205
 1827SOL    HW117117   4.030   4.295   7.021 -0.0672 -0.4793 -2.6099
 1827SOL    HW217118   4.075   4.430   7.036  0.9035  0.5556 -0.9913
 1828SOL     OW17119   2.191   2.745   4.507  0.4740 -0.1229 -0.2805
 1828SOL    HW117120   2.118   2.774   4.453  0.6496  1.7785  0.5078
 1828SOL    HW217121   2.150   2.681   4.566  1.2138 -1.4203 -1.1708
 1829SOL     OW17122   0.959   1.228   8.058 -0.3141  0.0389  0.4366
 1829SOL    HW117123   1.047   1.196   8.077 -0.1513  0.9337  1.1851
 1829SOL    HW217124   0.913   1.241   8.141 -1.0667 -1.0568  0.1895
 1830SOL     OW17125   3.911   4.513   3.268 -0.2367 -0.4479 -0.2892
 1830SOL    HW117126   3.901   4.573   3.194  0.3542  1.6375  1.3600
 1830SOL    HW217127   3.819   4.492   3.285  0.0833 -1.0999  0.6432
 1831SOL     OW17128   3.534   3.943   7.120  0.5843 -0.2631 -0.4149
 1831SOL    HW117129   3.440   3.925   7.125  0.7466 -1.2490 -0.8669
 1831SOL    HW217130   3.532   4.025   7.170 -0.0288 -1.4575  1.5351
 1832SOL     OW17131   2.161   2.943   8.752 -0.0224 -0.4244  0.2643
 1832SOL    HW117132   2.134   2.976   8.666  1.5818  0.7063  0.1774
 1832SOL    HW217133   2.224   3.011   8.777 -1.4733  0.7570  0.7451
 1833SOL     OW17134   4.337   3.553   7.942 -0.2231  0.4364 -0.4844
 1833SOL    HW117135   4.255   3.540   7.893  0.2794  0.3483 -1.2976
 1833SOL    HW217136   4.353   3.643   7.916 -0.3793  0.0169 -2.0645
 1834SOL     OW17137   4.445   0.904  15.102  0.0549  0.4833  0.4261
 1834SOL    HW117138   4.423   0.938  15.015  1.8111  0.8481  0.1064
 1834SOL    HW217139   4.533   0.940  15.111 -0.1897  1.7602 -2.1750
 1835SOL     OW17140   3.455   0.168   5.189  0.6577 -0.4629  0.1847
 1835SOL    HW117141   3.478   0.221   5.113  1.9435  1.0827  1.6345
 1835SOL    HW217142   3.526   0.185   5.251 -0.0034  1.1457  0.5077
 1836SOL     OW17143   3.053   0.864   5.565  0.3184 -0.2137 -0.0667
 1836SOL    HW117144   2.985   0.920   5.531 -2.3332 -3.9908 -1.0062
 1836SOL    HW217145   3.126   0.925   5.579 -1.8029  2.4903 -0.8770
 1837SOL     OW17146   2.338   1.407   2.751  0.3001  0.3801  0.1924
 1837SOL    HW117147   2.373   1.319   2.770 -0.7674  0.2730  1.6624
 1837SOL    HW217148   2.357   1.452   2.833  1.0122  0.0751  0.2021
 1838SOL     OW17149   0.233   1.734  15.199 -0.2034  0.1863 -0.1416
 1838SOL    HW117150   0.263   1.763  15.285 -1.4255  0.0780  0.3178
 1838SOL    HW217151   0.311   1.756  15.148 -0.2767 -1.7646 -1.0680
 1839SOL     OW17152   0.746   2.959   8.906  0.4465  0.2791 -0.1046
 1839SOL    HW117153   0.716   3.037   8.954  2.1569  0.9047 -0.0583
 1839SOL    HW217154   0.759   2.896   8.976 -1.5158 -0.0787 -0.0736
 1840SOL     OW17155   0.121   1.884   6.227  0.8546  0.1701 -0.0001
 1840SOL    HW117156   0.056   1.954   6.219  1.0204  0.3058 -0.1526
 1840SOL    HW217157   0.195   1.924   6.182  0.6162  1.5723  0.8579
 1841SOL     OW17158   0.874   0.364  13.036 -0.1898  0.1118  0.2934
 1841SOL    HW117159   0.882   0.307  12.959  0.2552 -1.9595  1.8573
 1841SOL    HW217160   0.792   0.331  13.073  0.3882 -1.1749  0.4152
 1842SOL     OW17161   0.405   4.053  13.650  0.5293  0.1847 -0.2175
 1842SOL    HW117162   0.392   4.005  13.568 -0.3706 -3.6218  2.1309
 1842SOL    HW217163   0.457   4.127  13.618  0.5105  0.5197  0.5268
 1843SOL     OW17164   3.814   3.720  13.959 -0.0443 -0.4348 -0.2218
 1843SOL    HW117165   3.880   3.754  14.020  0.1353 -0.3850 -0.4423
 1843SOL    HW217166   3.740   3.778  13.976  0.7462  1.2802 -2.5602
 1844SOL     OW17167   2.782   3.692   9.819 -0.4888 -0.1519 -0.0597
 1844SOL    HW117168   2.856   3.712   9.876 -0.7533  1.0169 -0.1294
 1844SOL    HW217169   2.725   3.768   9.825  1.1078  1.2345 -2.2575
 1845SOL     OW17170   3.890   2.785  14.013  0.4280  0.1401  0.4442
 1845SOL    HW117171   3.975   2.776  14.056  0.9159  1.6658 -0.1836
 1845SOL    HW217172   3.901   2.715  13.947 -0.0913 -0.9901  1.5616
 1846SOL     OW17173   0.490   0.030   4.184 -0.4156  0.8863  0.2171
 1846SOL    HW117174   0.565   0.065   4.231 -0.9608 -0.0071  1.7360
 1846SOL    HW217175   0.420   0.079   4.227 -1.0191 -0.8500  1.1978
 1847SOL     OW17176   4.509   4.715   9.554 -0.1010  0.3539 -0.4593
 1847SOL    HW117177   4.558   4.686   9.631  0.2691  1.4973 -0.2796
 1847SOL    HW217178   4.428   0.003   9.600  2.2172  4.1895  1.6330
 1848SOL     OW17179   0.038   4.644   5.248  0.0133  0.0816  0.0381
 1848SOL    HW117180   4.679   4.634   5.264  0.4001 -0.1926  2.1818
 1848SOL    HW217181   0.045   4.623   5.155  1.7238  1.5668 -0.1609
 1849SOL     OW17182   2.179   3.919   7.195  0.4966 -0.0287 -0.5659
 1849SOL    HW117183   2.235   3.858   7.245 -0.5926 -0.2623  0.3531
 1849SOL    HW217184   2.219   4.005   7.204 -1.0105  0.4357  1.6318
 1850SOL     OW17185   3.569   4.228   8.323 -0.1046 -0.8947 -0.4704
 1850SOL    HW117186   3.654   4.193   8.297  0.9740 -0.0358  1.8557
 1850SOL    HW217187   3.550   4.186   8.407  1.8025 -0.4709  0.1721
 1851SOL     OW17188   3.952   3.288   4.213 -0.4466  0.1292  0.1219
 1851SOL    HW117189   4.013   3.251   4.277 -1.0487 -1.3755 -0.1806
 1851SOL    HW217190   3.974   3.229   4.141 -0.0963 -0.0565  0.3787
 1852SOL     OW17191   4.535   4.025   4.483  0.8524  0.5832 -0.2297
 1852SOL    HW117192   4.611   3.995   4.533  1.5515  0.3362 -1.4431
 1852SOL    HW217193   4.573   4.091   4.424  0.0475  1.0561 -0.2191
 1853SOL     OW17194   2.133   4.463   8.232 -0.1972 -0.3450  0.3892
 1853SOL    HW117195   2.106   4.425   8.148  1.1257 -0.5691  0.0772
 1853SOL    HW217196   2.100   4.392   8.288 -0.7753  0.9665  1.7135
 1854SOL     OW17197   0.717   1.071   8.776 -0.0344  0.1561  0.0526
 1854SOL    HW117198   0.739   1.021   8.697 -1.0845 -0.3665  0.0941
 1854SOL    HW217199   0.680   1.007   8.836 -0.1226 -0.2180 -0.3990
 1855SOL     OW17200   4.079   0.752   9.132  0.3392  0.1897  0.2280
 1855SOL    HW117201   4.146   0.702   9.179  0.8868  1.4263  0.7504
 1855SOL    HW217202   4.020   0.776   9.203  0.6772  0.2822  0.4737
 1856SOL     OW17203   4.086   2.519   5.562 -0.2634 -0.0833  0.1050
 1856SOL    HW117204   4.020   2.458   5.595 -0.8000  0.0958 -0.6379
 1856SOL    HW217205   4.124   2.461   5.496  1.5609 -0.4926  1.5231
 1857SOL     OW17206   2.982   4.503   2.940  0.2153  0.2868  0.0257
 1857SOL    HW117207   2.902   4.555   2.939  2.1197  3.1811  1.0258
 1857SOL    HW217208   3.016   4.521   2.852  1.0693 -2.0499 -0.1270
 1858SOL     OW17209   1.728   2.018  17.621  0.4459 -0.4853  0.2719
 1858SOL    HW117210   1.717   2.045  17.712 -0.4518  1.0065 -0.2846
 1858SOL    HW217211   1.640   1.985  17.603  0.2864  1.7158 -3.0381
 1859SOL     OW17212   1.909   0.879   1.589 -0.3130 -0.0894 -0.1827
 1859SOL    HW117213   1.839   0.838   1.640  1.1178 -1.4954  0.6638
 1859SOL    HW217214   1.850   0.922   1.527  0.2977 -1.4175 -1.6712
 1860SOL     OW17215   3.128   4.376   9.777  0.4929  0.2137  0.3043
 1860SOL    HW117216   3.127   4.288   9.814 -0.3855  0.0787 -0.0517
 1860SOL    HW217217   3.221   4.398   9.787  0.6135 -0.1096 -0.1221
 1861SOL     OW17218   4.561   2.580  13.251 -0.1886  0.3315  0.3872
 1861SOL    HW117219   4.499   2.600  13.181  1.0527  0.1252 -0.7921
 1861SOL    HW217220   4.524   2.505  13.298  0.7365 -0.2300  0.2343
 1862SOL     OW17221   0.159   1.249   6.119  0.2609  0.2740  0.1363
 1862SOL    HW117222   0.094   1.308   6.082  0.9951  0.8724 -0.1919
 1862SOL    HW217223   0.111   1.166   6.111 -0.7412  0.6999  1.6588
 1863SOL     OW17224   1.641   3.752   8.830  0.2981  0.1391 -0.1739
 1863SOL    HW117225   1.721   3.708   8.856 -0.3669  0.4625  2.4157
 1863SOL    HW217226   1.585   3.727   8.904 -0.4758 -0.6095 -1.0023
 1864SOL     OW17227   4.502   4.501   4.964 -0.3869 -0.2632 -0.1872
 1864SOL    HW117228   4.512   4.445   5.042 -2.5456  0.4056  0.5633
 1864SOL    HW217229   4.411   4.507   4.938 -0.3751 -0.4434 -0.2717
 1865SOL     OW17230   4.326   2.750  17.101 -0.5061 -0.1173 -0.0579
 1865SOL    HW117231   4.249   2.710  17.059 -1.0416  0.0826  0.7415
 1865SOL    HW217232   4.302   2.772  17.191  0.7089 -0.6224  0.3952
 1866SOL     OW17233   1.495   4.296   5.294 -0.2312 -0.3392  0.0144
 1866SOL    HW117234   1.499   4.278   5.387 -0.7980 -0.0118  0.1016
 1866SOL    HW217235   1.574   4.348   5.281  0.9011 -2.3297 -1.0866
 1867SOL     OW17236   0.067   2.389   4.419  0.4341  0.2526  0.3185
 1867SOL    HW117237   0.125   2.326   4.375 -0.3609 -2.2991  2.9318
 1867SOL    HW217238   0.079   2.359   4.509  0.0822  1.0034  0.6096
 1868SOL     OW17239   2.711   4.179   3.694  0.3476 -0.0290  0.3295
 1868SOL    HW117240   2.696   4.137   3.609 -0.2559 -1.1461  0.9871
 1868SOL    HW217241   2.772   4.251   3.675  1.2903 -1.0017 -0.2773
 1869SOL     OW17242   2.783   1.914  14.610  0.5392 -0.4290  0.1482
 1869SOL    HW117243   2.858   1.855  14.599  0.7050 -0.6350  2.3544
 1869SOL    HW217244   2.746   1.869  14.686 -0.8553  0.8137  0.2071
 1870SOL     OW17245   0.301   1.529  11.930 -0.2386 -0.0009  0.2656
 1870SOL    HW117246   0.212   1.552  11.955 -1.2002 -1.6117 -1.6755
 1870SOL    HW217247   0.311   1.595  11.861 -3.3919 -1.1834 -1.3241
 1871SOL     OW17248   2.922   0.306   3.956 -0.1674  0.0370 -0.0542
 1871SOL    HW117249   2.910   0.220   3.915 -1.4181 -0.4812  1.4132
 1871SOL    HW217250   2.830   0.334   3.957  0.3906  1.8800  0.9709
 1872SOL     OW17251   0.616   2.346   2.857  0.3042  0.2230 -0.0971
 1872SOL    HW117252   0.704   2.348   2.894  0.6560 -0.2685 -0.9210
 1872SOL    HW217253   0.637   2.367   2.766  0.4070  1.9096  0.3131
 1873SOL     OW17254   1.964   3.807   1.669  0.2175 -0.6376 -0.0673
 1873SOL    HW117255   1.890   3.811   1.608 -0.1545  0.3932  0.4489
 1873SOL    HW217256   2.007   3.735   1.623 -0.2999 -0.8730 -0.1836
 1874SOL     OW17257   0.741   1.772   8.237  0.6017  0.1730  0.5332
 1874SOL    HW117258   0.666   1.818   8.272  0.8372  0.2509  0.9338
 1874SOL    HW217259   0.789   1.747   8.316  0.2201  1.5448  1.1851
 1875SOL     OW17260   3.646   1.688   8.279  0.0121  0.3702  0.0582
 1875SOL    HW117261   3.638   1.773   8.322  0.6716  0.8303 -0.7214
 1875SOL    HW217262   3.610   1.629   8.345 -1.6100 -0.5139 -1.6187
 1876SOL     OW17263   3.533   0.386   5.491 -0.2941 -0.4612  0.1689
 1876SOL    HW117264   3.591   0.423   5.558  1.1151 -0.4296 -1.0799
 1876SOL    HW217265   3.446   0.419   5.513 -0.2779 -1.0367  1.1249
 1877SOL     OW17266   0.327   3.233   6.347  0.7693  0.2340  0.1716
 1877SOL    HW117267   0.391   3.165   6.367  0.6877  0.5749  1.5663
 1877SOL    HW217268   0.277   3.181   6.284  1.7740 -0.8778  0.2902
 1878SOL     OW17269   4.066   3.806  12.490  0.0849 -0.5892 -0.4191
 1878SOL    HW117270   4.125   3.873  12.456  1.3338 -0.5341  1.8169
 1878SOL    HW217271   4.139   3.751  12.519  0.0725 -0.3749  0.0309
 1879SOL     OW17272   4.547   1.648   7.929  0.2543 -0.2843  0.7080
 1879SOL    HW117273   4.559   1.635   7.835 -0.9964 -1.8193  0.7611
 1879SOL    HW217274   4.520   1.740   7.927 -1.3149 -0.8007 -1.9263
 1880SOL     OW17275   2.196   1.786   3.386  0.0324 -0.5376 -0.5235
 1880SOL    HW117276   2.208   1.765   3.293  0.2549  0.2823 -0.6742
 1880SOL    HW217277   2.112   1.743   3.402  0.3511 -1.2719 -0.8288
 1881SOL     OW17278   0.299   0.553   8.683 -0.1219 -0.1667  0.4765
 1881SOL    HW117279   0.368   0.488   8.700  0.3542  0.0969 -0.4833
 1881SOL    HW217280   0.317   0.590   8.597  0.0567 -0.3861  0.4199
 1882SOL     OW17281   1.215   3.669   4.803 -0.7002  0.0853 -0.0294
 1882SOL    HW117282   1.182   3.680   4.714  1.0904  2.0525 -0.4417
 1882SOL    HW217283   1.308   3.654   4.789 -0.4297  1.6076  0.1366
 1883SOL     OW17284   3.832   2.359  10.573  0.6161 -0.3265 -0.5086
 1883SOL    HW117285   3.897   2.330  10.637  1.5295  3.9765  0.5407
 1883SOL    HW217286   3.759   2.371  10.634  1.4925 -1.5991  0.7942
 1884SOL     OW17287   0.903   3.971   1.781  0.0915  0.1389 -0.8357
 1884SOL    HW117288   0.835   3.979   1.848  0.0729  0.5308 -0.9008
 1884SOL    HW217289   0.958   4.044   1.810  0.0569  1.5226 -4.2223
 1885SOL     OW17290   3.390   3.254   7.174  0.4571  1.0030  0.0076
 1885SOL    HW117291   3.443   3.207   7.109 -0.5287  0.6547 -0.5407
 1885SOL    HW217292   3.310   3.266   7.124  0.4785  0.4126 -0.1684
 1886SOL     OW17293   4.430   2.342   4.167 -0.1906 -0.7619 -0.7654
 1886SOL    HW117294   4.397   2.305   4.085  0.2685  1.1881 -1.8235
 1886SOL    HW217295   4.489   2.273   4.197 -0.9637  0.3579  3.4071
 1887SOL     OW17296   2.114   1.724   6.973 -0.0194 -0.5673 -0.3629
 1887SOL    HW117297   2.146   1.748   6.886  1.6888  1.8435  0.9352
 1887SOL    HW217298   2.198   1.714   7.017  0.1796 -1.1571 -0.8775
 1888SOL     OW17299   0.073   3.816   1.004  0.0879 -0.3145  0.2111
 1888SOL    HW117300   0.141   3.845   1.064  0.0829 -0.5320  0.3231
 1888SOL    HW217301   0.018   3.894   0.997  0.7167  0.1710  0.7169
 1889SOL     OW17302   0.166   0.376   2.354  0.4813  0.6835  0.4774
 1889SOL    HW117303   0.074   0.382   2.378  0.0683 -2.0959 -0.4718
 1889SOL    HW217304   0.193   0.467   2.366  1.7004  0.5044 -0.8014
 1890SOL     OW17305   0.182   4.450   8.109 -0.6822 -0.0775 -0.2464
 1890SOL    HW117306   0.232   4.467   8.030  1.3896 -1.3030  0.8206
 1890SOL    HW217307   0.235   4.384   8.153 -0.2218  0.4973  0.0499
 1891SOL     OW17308   2.630   1.237   2.668  0.1078  0.7129  0.4313
 1891SOL    HW117309   2.715   1.281   2.667  0.9519 -0.9032  0.8297
 1891SOL    HW217310   2.634   1.191   2.585 -1.5519 -0.8168  1.2030
 1892SOL     OW17311   2.373   0.259   5.441 -0.0867  0.2017  0.0554
 1892SOL    HW117312   2.342   0.262   5.351  2.9056  0.2570 -0.9716
 1892SOL    HW217313   2.393   0.352   5.447 -1.1060  0.3794  0.6826
 1893SOL     OW17314   3.520   0.683   5.598  0.1487 -0.1640  0.2997
 1893SOL    HW117315   3.511   0.768   5.555  0.5873  0.7002  1.9279
 1893SOL    HW217316   3.593   0.641   5.552 -1.2681 -0.9442 -1.2207
 1894SOL     OW17317   0.875   1.882   3.278  0.2284 -0.3628  0.3362
 1894SOL    HW117318   0.932   1.954   3.252  0.5414 -1.0519 -0.8548
 1894SOL    HW217319   0.803   1.939   3.305  1.4736  0.5870  1.6235
 1895SOL     OW17320   0.433   3.910   7.593  0.0542  0.4888 -0.2572
 1895SOL    HW117321   0.340   3.924   7.574  0.0144  0.9041  0.2313
 1895SOL    HW217322   0.434   3.850   7.668  0.0215 -0.4727 -1.0217
 1896SOL     OW17323   3.611   1.297  17.152 -0.2817 -0.1199  0.6504
 1896SOL    HW117324   3.552   1.336  17.217  0.6978 -0.2225  1.6131
 1896SOL    HW217325   3.693   1.294  17.202 -0.3302  1.6620  0.8533
 1897SOL     OW17326   4.369   1.202   6.874  0.1996 -0.7883 -0.2775
 1897SOL    HW117327   4.329   1.278   6.834 -0.0737 -0.7022  0.1573
 1897SOL    HW217328   4.327   1.195   6.960 -1.3660  0.2058 -0.9662
 1898SOL     OW17329   3.434   1.462   7.967  0.1561 -0.6110  0.2209
 1898SOL    HW117330   3.450   1.525   7.897 -0.0320  0.3549  1.0577
 1898SOL    HW217331   3.392   1.513   8.035 -2.1172  0.1085 -1.7326
 1899SOL     OW17332   3.730   0.744  12.903  0.1940 -0.0426  0.4711
 1899SOL    HW117333   3.718   0.653  12.930 -0.6125  0.2407  1.0659
 1899SOL    HW217334   3.799   0.736  12.837  0.5113 -0.0012  0.8044
 1900SOL     OW17335   2.695   1.532   2.880  0.8651  0.2236 -0.2998
 1900SOL    HW117336   2.785   1.535   2.913  1.0136 -2.0412 -0.5485
 1900SOL    HW217337   2.688   1.627   2.889  1.1283  0.3811 -1.8613
 1901SOL     OW17338   1.999   2.095   2.696  0.4894  0.5474  0.7340
 1901SOL    HW117339   2.040   2.018   2.733  1.3624  1.2448  1.2165
 1901SOL    HW217340   2.002   2.077   2.602  0.5337  1.4129  0.5713
 1902SOL     OW17341   2.921   0.485   7.119 -0.3682  0.7794 -0.3954
 1902SOL    HW117342   2.978   0.562   7.123  0.2917  0.2830 -0.2477
 1902SOL    HW217343   2.951   0.457   7.033  0.1131 -1.2634  0.4467
 1903SOL     OW17344   3.064   3.536   9.417  0.4232  0.1071  0.2489
 1903SOL    HW117345   3.031   3.616   9.376  1.8876 -0.6196 -2.3187
 1903SOL    HW217346   3.018   3.464   9.373 -1.9212  1.6909  0.0716
 1904SOL     OW17347   0.860   3.949   7.289  0.6699  0.3575  0.4970
 1904SOL    HW117348   0.769   3.925   7.306  0.3729  1.2377  0.1434
 1904SOL    HW217349   0.870   3.904   7.205  0.4417  3.7562 -1.3571
 1905SOL     OW17350   1.557   4.009   9.056 -0.0778  0.0463  0.1611
 1905SOL    HW117351   1.590   4.094   9.029 -0.3931  0.4108  0.9406
 1905SOL    HW217352   1.641   3.971   9.082  0.7905 -0.3099 -3.1335
 1906SOL     OW17353   2.596   1.747   6.702  0.1228  0.0387  0.8318
 1906SOL    HW117354   2.535   1.690   6.750 -0.8607 -0.4590 -1.0035
 1906SOL    HW217355   2.596   1.705   6.616  0.6889 -0.3287  1.0126
 1907SOL     OW17356   4.527   1.877  16.509 -0.3158 -0.0069  0.2721
 1907SOL    HW117357   4.546   1.821  16.433  1.2022 -2.1143  2.2196
 1907SOL    HW217358   4.485   1.812  16.565  0.1082 -0.8725 -0.4078
 1908SOL     OW17359   3.454   1.337   5.740 -0.6008  0.5115  0.7595
 1908SOL    HW117360   3.371   1.295   5.719  0.1652 -0.7995  0.3569
 1908SOL    HW217361   3.438   1.423   5.702  1.1251 -0.0022 -1.1439
 1909SOL     OW17362   0.962   4.233   5.318 -0.3637  0.1182  0.1607
 1909SOL    HW117363   0.892   4.174   5.345 -0.0587 -0.5206 -0.4468
 1909SOL    HW217364   0.912   4.315   5.317 -3.5033 -1.8029 -1.8746
 1910SOL     OW17365   3.859   1.217   5.774  0.1273 -0.3899  0.2807
 1910SOL    HW117366   3.821   1.247   5.692  3.3235  3.4642  0.1925
 1910SOL    HW217367   3.795   1.155   5.810  0.3538 -1.1757 -0.6517
 1911SOL     OW17368   1.625   3.957   3.105 -0.4640 -0.2933  0.5224
 1911SOL    HW117369   1.716   3.930   3.103 -0.0780  0.9472  1.0239
 1911SOL    HW217370   1.580   3.898   3.165  0.6830  0.0259  1.6850
 1912SOL     OW17371   3.278   0.971   3.344 -0.6960  0.2727  0.4706
 1912SOL    HW117372   3.362   1.007   3.374 -0.2719 -0.0341 -0.3381
 1912SOL    HW217373   3.222   1.048   3.337 -0.0660  0.6727 -0.1796
 1913SOL     OW17374   1.333   4.485   0.674  0.1888  0.3031  0.1800
 1913SOL    HW117375   1.404   4.516   0.730 -0.6370  0.6014  1.0517
 1913SOL    HW217376   1.334   4.552   0.606 -1.0186  0.6220  0.4848
 1914SOL     OW17377   3.679   4.480   8.521 -0.0648 -0.2277 -1.5301
 1914SOL    HW117378   3.590   4.510   8.501 -1.2246 -3.4666 -1.2364
 1914SOL    HW217379   3.661   4.406   8.579 -1.4756  1.5065  0.2431
 1915SOL     OW17380   4.136   3.064   2.505  0.4952  0.0285  0.5636
 1915SOL    HW117381   4.099   2.994   2.558  0.5663 -1.2793 -1.1171
 1915SOL    HW217382   4.171   3.128   2.567 -1.4495  1.7283 -0.1147
 1916SOL     OW17383   1.675   3.835  13.839 -0.0772  0.0024  0.5109
 1916SOL    HW117384   1.607   3.892  13.873 -3.3544 -3.3510 -0.4784
 1916SOL    HW217385   1.681   3.769  13.908  2.1531  1.5575  1.8123
 1917SOL     OW17386   0.794   1.662   3.599  0.1433  0.3597 -0.4937
 1917SOL    HW117387   0.887   1.650   3.621 -0.3380 -1.7393  0.4631
 1917SOL    HW217388   0.786   1.753   3.572  0.3922  0.9663  1.4169
 1918SOL     OW17389   3.862   0.539   4.041  0.2562  0.3131 -0.1120
 1918SOL    HW117390   3.817   0.520   3.959 -0.1125 -1.9841  0.6186
 1918SOL    HW217391   3.857   0.455   4.086 -2.9535  0.2865 -0.5470
 1919SOL     OW17392   3.887   3.363   7.952 -0.1640 -0.2330  0.7666
 1919SOL    HW117393   3.941   3.383   8.029 -0.7710  1.5633  0.7432
 1919SOL    HW217394   3.952   3.329   7.891  0.0465  1.2190  0.1821
 1920SOL     OW17395   2.418   1.372   0.946  0.0270  0.1329 -0.1914
 1920SOL    HW117396   2.396   1.465   0.949  0.5618  0.2131  1.1462
 1920SOL    HW217397   2.507   1.366   0.981  0.1562  0.8319 -0.3926
 1921SOL     OW17398   2.615   0.254  17.112  0.4098 -0.0102  0.1912
 1921SOL    HW117399   2.670   0.197  17.165 -0.8379 -1.2254  0.1608
 1921SOL    HW217400   2.653   0.339  17.135 -0.3328 -0.0145  1.4346
 1922SOL     OW17401   3.692   3.528   8.602  0.0932 -0.4064  0.3684
 1922SOL    HW117402   3.608   3.494   8.632 -0.0637 -0.9830 -0.6874
 1922SOL    HW217403   3.699   3.508   8.508 -0.2358 -3.2902  0.9364
 1923SOL     OW17404   1.116   0.444   5.116  0.3951 -0.1054  0.3125
 1923SOL    HW117405   1.036   0.391   5.125  0.8349 -1.2220 -2.5116
 1923SOL    HW217406   1.075   0.529   5.137 -0.7230 -0.6014  0.1624
 1924SOL     OW17407   4.513   0.084   2.765 -0.3058  0.3772 -0.1864
 1924SOL    HW117408   4.531   0.124   2.680  1.0499  2.4202  1.0499
 1924SOL    HW217409   4.447   0.147   2.792 -0.1271  0.8887 -0.9288
 1925SOL     OW17410   3.083   1.673   4.313  0.5481  0.1567 -0.1321
 1925SOL    HW117411   3.033   1.687   4.394  0.9800 -1.6263  0.4504
 1925SOL    HW217412   3.005   1.658   4.260  0.4428  0.5798 -0.0957
 1926SOL     OW17413   4.509   1.357   6.224  0.2192 -0.1926 -0.6261
 1926SOL    HW117414   4.421   1.341   6.191  0.2917  1.2574 -1.5190
 1926SOL    HW217415   4.505   1.312   6.309  2.2704  0.6620 -0.0610
 1927SOL     OW17416   2.428   2.325  16.776 -0.0632  0.0984 -0.0419
 1927SOL    HW117417   2.427   2.247  16.721  0.7079 -0.8635  1.2835
 1927SOL    HW217418   2.347   2.368  16.749 -0.1554 -0.5183 -0.7492
 1928SOL     OW17419   0.342   0.093   9.363 -0.0471  0.2475  0.6030
 1928SOL    HW117420   0.341   0.098   9.267 -1.3063 -0.9876  0.5517
 1928SOL    HW217421   0.320   0.001   9.381  0.3933 -0.4372 -2.2691
 1929SOL     OW17422   1.096   2.569   5.350 -0.5595  0.3995  0.2189
 1929SOL    HW117423   1.139   2.524   5.423  2.3696 -1.0500 -2.4300
 1929SOL    HW217424   1.166   2.567   5.285  1.3581  1.6209  2.1968
 1930SOL     OW17425   0.789   0.616   5.069  0.2625  0.0356 -0.5685
 1930SOL    HW117426   0.787   0.528   5.106  1.2149  0.2043 -0.1037
 1930SOL    HW217427   0.852   0.606   4.999  0.8876 -1.2776  0.1854
 1931SOL     OW17428   3.562   1.134  16.933  0.6271 -0.0211 -0.0047
 1931SOL    HW117429   3.604   1.060  16.975  1.1698  0.1992 -0.1638
 1931SOL    HW217430   3.571   1.191  17.010  2.0736 -0.9610  0.5191
 1932SOL     OW17431   2.162   1.601  14.462 -0.3650  0.5251  0.1504
 1932SOL    HW117432   2.159   1.666  14.532 -1.9826  0.3979  0.2054
 1932SOL    HW217433   2.199   1.655  14.392 -2.1038  0.7182 -0.6357
 1933SOL     OW17434   1.085   4.530   3.835 -0.0273 -0.0600 -0.8425
 1933SOL    HW117435   1.068   4.482   3.916  2.0940  1.1990  0.3669
 1933SOL    HW217436   1.005   4.579   3.816  0.1186  0.3658 -0.3677
 1934SOL     OW17437   1.458   0.244  17.074 -0.4939  0.1627  0.1269
 1934SOL    HW117438   1.526   0.290  17.024 -0.0282  1.2011  1.7003
 1934SOL    HW217439   1.516   0.192  17.130  1.1163  1.3132 -0.4796
 1935SOL     OW17440   0.482   0.782  11.367 -0.3010  0.2852  0.0976
 1935SOL    HW117441   0.566   0.817  11.339  0.1516 -1.2064 -0.4047
 1935SOL    HW217442   0.450   0.744  11.285  1.6080 -0.7315 -0.1606
 1936SOL     OW17443   1.100   0.457  12.345  0.2563 -0.5702  0.6488
 1936SOL    HW117444   1.054   0.373  12.350 -0.2040 -0.3432  0.2779
 1936SOL    HW217445   1.176   0.435  12.399 -0.9420 -0.9389  2.2001
 1937SOL     OW17446   3.783   2.121  13.866  0.0672 -0.7819  0.4432
 1937SOL    HW117447   3.776   2.172  13.946 -1.0722 -0.2874  0.0276
 1937SOL    HW217448   3.849   2.172  13.818  1.2525 -0.7127  2.1510
 1938SOL     OW17449   4.499   2.784  16.886  0.3444  0.1644  0.3021
 1938SOL    HW117450   4.467   2.766  16.974  0.2267 -0.0703  0.2117
 1938SOL    HW217451   4.501   2.702  16.837  0.4693  0.2674  0.1355
 1939SOL     OW17452   3.971   2.934   9.075 -0.3299 -0.2966  0.2408
 1939SOL    HW117453   4.046   2.881   9.098 -0.5507 -0.1313  1.3518
 1939SOL    HW217454   3.994   2.940   8.982  0.7548  2.7349  0.6975
 1940SOL     OW17455   1.178   3.613  15.756 -0.0576 -0.5683 -0.2799
 1940SOL    HW117456   1.246   3.643  15.695 -1.2210  1.8219 -0.3676
 1940SOL    HW217457   1.230   3.577  15.829 -0.0801  1.9614  0.9756
 1941SOL     OW17458   3.692   3.161   4.237 -0.2088  0.3513 -0.0771
 1941SOL    HW117459   3.760   3.228   4.227 -0.2269  0.4389  0.3922
 1941SOL    HW217460   3.619   3.207   4.196 -0.2609  0.3481  0.0114
 1942SOL     OW17461   0.333   3.589   5.271  0.0770  0.5293  0.1992
 1942SOL    HW117462   0.332   3.495   5.254  1.2985  0.8862 -1.7741
 1942SOL    HW217463   0.286   3.628   5.198 -0.1302 -0.3972 -0.1626
 1943SOL     OW17464   4.709   3.245   8.737 -0.7702  0.4344 -0.6129
 1943SOL    HW117465   0.009   3.302   8.669  0.6181 -0.3818 -0.5684
 1943SOL    HW217466   0.051   3.205   8.774 -2.9370 -1.5091  1.8343
 1944SOL     OW17467   4.634   2.574  12.946  0.1880  0.0485  0.4222
 1944SOL    HW117468   4.617   2.510  13.015 -2.0055  1.4637  1.1849
 1944SOL    HW217469   4.560   2.633  12.960  0.3614 -0.1718  2.2173
 1945SOL     OW17470   4.092   4.448  16.116  0.0293  0.0342  0.2199
 1945SOL    HW117471   4.036   4.511  16.071 -0.1324 -1.1473 -1.2435
 1945SOL    HW217472   4.104   4.512  16.186 -0.9652 -1.5402  1.8051
 1946SOL     OW17473   1.114   1.079   7.214  0.7302  0.2536  0.4011
 1946SOL    HW117474   1.177   1.138   7.173 -1.0840  2.1194  0.3315
 1946SOL    HW217475   1.152   0.998   7.181 -0.2919 -0.2415  0.4455
 1947SOL     OW17476   0.103   2.442  12.844 -0.2234  0.0117  0.1328
 1947SOL    HW117477   0.040   2.504  12.883 -1.1541 -0.1967 -1.0403
 1947SOL    HW217478   0.175   2.464  12.903  0.7309  0.1078 -1.0831
 1948SOL     OW17479   3.832   1.023  15.492 -0.1299  0.6843 -0.7774
 1948SOL    HW117480   3.827   0.956  15.560  0.4266  0.1001 -1.3229
 1948SOL    HW217481   3.926   1.031  15.477 -0.2377  1.1865 -1.1993
 1949SOL     OW17482   1.734   1.919   7.752  0.0331 -0.0980  0.2702
 1949SOL    HW117483   1.668   1.907   7.683  0.4196 -0.6080 -0.0167
 1949SOL    HW217484   1.798   1.851   7.734 -0.0001  0.3605 -1.6974
 1950SOL     OW17485   0.750   2.763   7.036 -0.2024  0.3303 -0.2193
 1950SOL    HW117486   0.734   2.738   6.945 -1.7402  0.2355  0.0657
 1950SOL    HW217487   0.658   2.783   7.055 -0.3824 -0.9318  0.2411
 1951SOL     OW17488   0.175   4.096   4.434  0.6584 -0.3277  1.0539
 1951SOL    HW117489   0.155   4.106   4.340  1.4842 -1.0175  0.8075
 1951SOL    HW217490   0.123   4.018   4.454 -1.0057  0.2025 -1.0970
 1952SOL     OW17491   0.461   2.097   2.924  0.6912  0.4698  0.4917
 1952SOL    HW117492   0.546   2.117   2.886  0.0556  0.7597 -0.7603
 1952SOL    HW217493   0.418   2.062   2.846  0.1437  0.9523  0.5743
 1953SOL     OW17494   2.610   1.033  13.144  0.0829  0.3890 -0.0244
 1953SOL    HW117495   2.585   0.983  13.066 -2.3782  1.0961  0.3191
 1953SOL    HW217496   2.617   0.966  13.211  1.1257  1.3365  0.8096
 1954SOL     OW17497   2.217   1.944  17.525 -0.1870  0.5950 -0.1040
 1954SOL    HW117498   2.137   1.989  17.499 -0.7817  0.0909  0.8667
 1954SOL    HW217499   2.278   1.978  17.460  0.5525  0.8150  0.7012
 1955SOL     OW17500   3.605   4.120  14.358 -0.2501  0.1548  0.2833
 1955SOL    HW117501   3.547   4.182  14.404 -0.2719  1.1784 -1.1409
 1955SOL    HW217502   3.670   4.120  14.429 -0.9179 -2.5716  0.8738
 1956SOL     OW17503   0.008   3.952  14.493  0.2834 -0.2303 -0.1570
 1956SOL    HW117504   0.063   3.919  14.565  1.9205  0.0242 -1.2809
 1956SOL    HW217505   4.652   3.948  14.517  0.4738 -1.8143  0.3350
 1957SOL     OW17506   2.599   4.038   3.915  0.2994 -0.2034 -0.2987
 1957SOL    HW117507   2.516   4.032   3.869 -0.9203 -1.4113  2.0810
 1957SOL    HW217508   2.628   4.123   3.882  0.8557  0.2978  1.4713
 1958SOL     OW17509   3.568   3.472   5.170 -0.3320  0.8718  0.2245
 1958SOL    HW117510   3.529   3.545   5.217  0.5151  1.9105 -0.6564
 1958SOL    HW217511   3.515   3.459   5.091  2.6748 -0.8449 -1.5570
 1959SOL     OW17512   1.203   3.638   6.043  0.0551 -0.1147  0.2811
 1959SOL    HW117513   1.290   3.675   6.058  0.2542 -1.5599  2.7201
 1959SOL    HW217514   1.184   3.610   6.133  0.3531  0.3635  0.4962
 1960SOL     OW17515   0.044   0.441   5.158  0.0591  0.0636 -0.0973
 1960SOL    HW117516   0.039   0.526   5.202  0.4098  1.1872 -2.2340
 1960SOL    HW217517   4.712   0.399   5.210  0.3243 -0.1183  0.1035
 1961SOL     OW17518   3.238   3.428   3.610 -0.1033  0.3164 -0.2313
 1961SOL    HW117519   3.297   3.357   3.636  0.9315  1.3759  0.2718
 1961SOL    HW217520   3.270   3.493   3.672  1.3971 -2.2144  1.6702
 1962SOL     OW17521   0.840   3.447   8.426  0.0710  0.0810  0.0963
 1962SOL    HW117522   0.906   3.407   8.370  1.0565 -0.2575  1.5005
 1962SOL    HW217523   0.901   3.518   8.442 -1.2189  1.4544 -1.0332
 1963SOL     OW17524   0.164   4.427  11.489  0.9193  0.0086 -0.6396
 1963SOL    HW117525   0.120   4.443  11.405 -0.1096  2.9293  0.4684
 1963SOL    HW217526   0.179   4.519  11.509  0.8281  0.2548 -1.7012
 1964SOL     OW17527   0.548   4.601  11.493 -0.0883  0.4505  0.2062
 1964SOL    HW117528   0.480   4.668  11.484 -0.0523  0.6720  1.5893
 1964SOL    HW217529   0.574   4.606  11.585 -2.3991 -1.1287  0.9375
 1965SOL     OW17530   1.742   1.448   8.995  0.0334  0.0446 -0.9450
 1965SOL    HW117531   1.687   1.376   9.025  0.2194  1.4099  2.6386
 1965SOL    HW217532   1.751   1.503   9.073  0.6423 -1.4495  0.0303
 1966SOL     OW17533   4.016   2.059  14.726  0.1135  0.2775  0.1878
 1966SOL    HW117534   3.987   2.148  14.746 -1.6378 -0.3309  0.3642
 1966SOL    HW217535   4.007   2.007  14.806  0.0296  0.6480  0.4186
 1967SOL     OW17536   3.771   1.523   6.382  1.4209  0.1030 -0.8546
 1967SOL    HW117537   3.775   1.443   6.329  1.0163  0.3665 -1.2812
 1967SOL    HW217538   3.725   1.573   6.314 -0.6587 -0.7337 -0.0898
 1968SOL     OW17539   3.563   0.386   7.756 -0.0092  0.2165  0.6254
 1968SOL    HW117540   3.618   0.337   7.817  0.4089 -1.3959 -1.0567
 1968SOL    HW217541   3.474   0.387   7.793  0.7766  0.2077  2.4969
 1969SOL     OW17542   3.126   0.085   0.029  0.5513  0.1593  0.1336
 1969SOL    HW117543   3.200   0.145   0.024 -0.2750  1.2606  1.3092
 1969SOL    HW217544   3.085   0.132   0.101  0.5933 -1.1117  0.9841
 1970SOL     OW17545   2.655   3.881   6.088  0.5074 -0.1600 -0.5699
 1970SOL    HW117546   2.604   3.821   6.143  0.4015  1.2736  0.8768
 1970SOL    HW217547   2.721   3.816   6.063  0.1654 -1.3058  1.4382
 1971SOL     OW17548   4.649   3.907   1.339 -0.0852 -0.0301 -0.0611
 1971SOL    HW117549   4.699   3.986   1.320  2.0643 -1.0513  1.3273
 1971SOL    HW217550   4.586   3.906   1.268 -1.4999  0.2932  1.1892
 1972SOL     OW17551   0.959   2.398   6.658  0.3732  0.5645 -0.0627
 1972SOL    HW117552   0.982   2.438   6.574  0.3978 -1.0928 -0.8401
 1972SOL    HW217553   1.023   2.437   6.717 -0.5366  1.4449  0.3313
 1973SOL     OW17554   1.856   4.067   8.585  0.2013  0.6778  0.1473
 1973SOL    HW117555   1.940   4.111   8.570  0.9408 -0.4221  1.0951
 1973SOL    HW217556   1.823   4.123   8.655 -0.8339 -1.7404  1.5619
 1974SOL     OW17557   3.913   2.001  12.616 -0.1066 -0.0069  0.4462
 1974SOL    HW117558   3.834   1.960  12.581  1.0905 -2.0859  0.1233
 1974SOL    HW217559   3.912   2.081  12.564 -1.9027 -1.1245 -1.2484
 1975SOL     OW17560   3.339   2.150   8.741  0.0340 -0.7256 -0.3326
 1975SOL    HW117561   3.364   2.179   8.653  0.5638 -1.7968 -0.5294
 1975SOL    HW217562   3.264   2.202   8.772  0.3570 -1.4106  1.5887
 1976SOL     OW17563   2.417   1.940   7.817 -0.6988  0.1795 -0.0452
 1976SOL    HW117564   2.379   1.917   7.732 -0.1945 -0.4756 -0.0868
 1976SOL    HW217565   2.448   1.858   7.855 -2.1029  0.7344  2.3346
 1977SOL     OW17566   2.721   0.295   6.950 -0.2580 -0.2567 -0.2853
 1977SOL    HW117567   2.813   0.321   6.952 -0.7609  1.4584  0.8001
 1977SOL    HW217568   2.727   0.217   6.895  0.7678  0.9915 -1.9512
 1978SOL     OW17569   0.290   1.029  11.800  0.1683  0.1251  0.1211
 1978SOL    HW117570   0.253   1.077  11.726 -0.5190 -0.9995 -0.2773
 1978SOL    HW217571   0.348   0.969  11.753  1.5816  0.8071  1.0029
 1979SOL     OW17572   3.482   3.302   1.218 -0.5887  0.0955 -0.4402
 1979SOL    HW117573   3.543   3.356   1.268 -1.9535  1.3496 -0.1223
 1979SOL    HW217574   3.490   3.220   1.266  0.4830 -0.3905 -1.4536
 1980SOL     OW17575   1.939   0.177   2.890 -0.0171  0.1325 -0.0371
 1980SOL    HW117576   1.944   0.085   2.864  1.7505 -0.1056  1.1908
 1980SOL    HW217577   1.996   0.220   2.825  0.3927  0.3502  0.4691
 1981SOL     OW17578   1.393   3.958   3.779  0.4403 -0.2338 -0.1587
 1981SOL    HW117579   1.401   4.054   3.776  0.8782 -0.2621  0.0999
 1981SOL    HW217580   1.464   3.936   3.840 -0.1797 -1.9968 -0.0874
 1982SOL     OW17581   4.344   4.477   8.684 -0.0264  0.3489  0.3517
 1982SOL    HW117582   4.332   4.407   8.620 -0.0641  0.5310  0.1600
 1982SOL    HW217583   4.401   4.434   8.747  1.2341  0.4871 -0.6792
 1983SOL     OW17584   0.098   0.454  13.382  0.1314 -0.4784 -0.0758
 1983SOL    HW117585   0.042   0.486  13.311 -0.4378 -2.7041 -0.6101
 1983SOL    HW217586   0.176   0.507  13.365 -1.3554  0.7266 -3.0606
 1984SOL     OW17587   2.723   4.068  16.775 -0.8121 -0.4512 -0.3361
 1984SOL    HW117588   2.756   4.015  16.703  1.6286 -0.8152  1.0314
 1984SOL    HW217589   2.776   4.030  16.845  0.7309  0.7983 -0.8090
 1985SOL     OW17590   1.358   2.198   1.548  0.1949 -0.2842  0.3836
 1985SOL    HW117591   1.399   2.215   1.463  0.0766  2.1776  0.8285
 1985SOL    HW217592   1.278   2.250   1.546 -0.3238 -1.0761  0.2865
 1986SOL     OW17593   2.852   2.152   1.050 -0.5190 -0.2692 -0.2507
 1986SOL    HW117594   2.760   2.137   1.069 -0.4403 -0.7508 -0.2432
 1986SOL    HW217595   2.898   2.184   1.127  0.3876  0.1997 -0.9853
 1987SOL     OW17596   4.350   2.427   0.496 -0.1744 -0.3578 -0.4733
 1987SOL    HW117597   4.411   2.436   0.570 -0.4832 -0.9717 -0.1452
 1987SOL    HW217598   4.264   2.433   0.537 -0.9979  0.0065 -2.2712
 1988SOL     OW17599   4.145   3.835   1.466 -0.3521 -0.3150  0.2321
 1988SOL    HW117600   4.082   3.787   1.412  1.8333 -2.3777 -0.4947
 1988SOL    HW217601   4.158   3.920   1.425  2.3594 -0.6704  0.3067
 1989SOL     OW17602   4.052   4.626   6.176  0.7374  0.3521 -0.2231
 1989SOL    HW117603   4.076   4.703   6.227 -0.0885  0.5929 -0.1882
 1989SOL    HW217604   4.008   4.663   6.099  1.6609 -2.2517 -2.0232
 1990SOL     OW17605   2.666   3.007  11.938  0.2303 -0.3354  0.4709
 1990SOL    HW117606   2.713   2.927  11.915  1.3091  0.3014  0.4681
 1990SOL    HW217607   2.740   3.064  11.958 -0.4224  0.6692  0.0270
 1991SOL     OW17608   0.153   4.354   5.273 -0.2369  0.1145 -0.3329
 1991SOL    HW117609   0.137   4.265   5.241 -1.5515  0.7940 -1.5965
 1991SOL    HW217610   0.122   4.410   5.201 -1.4601  0.0089  0.1106
 1992SOL     OW17611   0.208   1.500   2.333  0.1653 -0.4245 -0.4605
 1992SOL    HW117612   0.288   1.541   2.298 -0.8660  2.4130  0.5729
 1992SOL    HW217613   0.158   1.480   2.254 -0.5433  0.2865 -0.1833
 1993SOL     OW17614   0.755   0.610  13.043 -0.1539 -0.4229 -0.0483
 1993SOL    HW117615   0.825   0.633  12.982 -0.0920  1.5105  0.7645
 1993SOL    HW217616   0.782   0.523  13.072 -1.6924 -1.3442 -1.3884
 1994SOL     OW17617   1.226   0.689   8.289 -0.2446  0.8918 -0.0751
 1994SOL    HW117618   1.249   0.703   8.197  1.6766  1.9503  0.5776
 1994SOL    HW217619   1.311   0.662   8.324 -0.2727 -0.2791 -0.8954
 1995SOL     OW17620   4.087   0.939  13.305 -0.0575 -0.2020 -0.1787
 1995SOL    HW117621   4.041   0.929  13.388  2.7723  0.9148  1.4718
 1995SOL    HW217622   4.021   0.912  13.240 -0.8092  0.5216  0.2890
 1996SOL     OW17623   3.629   2.729  15.576 -0.2613  0.3678 -0.0372
 1996SOL    HW117624   3.551   2.679  15.599  0.1724 -0.3657 -0.1505
 1996SOL    HW217625   3.675   2.666  15.520  0.1433  1.0698 -0.4920
 1997SOL     OW17626   3.757   0.996  11.603 -0.1750 -0.7821  0.1625
 1997SOL    HW117627   3.790   0.948  11.678  2.0952 -0.5842 -0.6957
 1997SOL    HW217628   3.838   1.040  11.578  1.0797 -2.5115  1.2017
 1998SOL     OW17629   4.122   3.619   3.532 -0.0285  0.5953 -0.6361
 1998SOL    HW117630   4.034   3.598   3.563  0.5160  1.0672  1.1968
 1998SOL    HW217631   4.165   3.560   3.593 -2.1510 -0.1257  0.1822
 1999SOL     OW17632   1.534   3.538   4.229 -0.1279  0.2107 -0.1506
 1999SOL    HW117633   1.480   3.516   4.153  1.5641 -1.2957 -0.9229
 1999SOL    HW217634   1.507   3.630   4.226 -1.7720 -0.2745 -0.0882
 2000SOL     OW17635   2.014   0.569   1.309 -0.5546  0.0294  0.5080
 2000SOL    HW117636   2.025   0.514   1.387  1.1223 -0.0651  0.1851
 2000SOL    HW217637   1.933   0.614   1.333 -0.1701  2.7621 -3.2820
 2001SOL     OW17638   0.136   4.201   4.134  0.4731 -0.7397 -0.1337
 2001SOL    HW117639   0.161   4.155   4.053  0.3340 -1.4759  0.2448
 2001SOL    HW217640   0.225   4.233   4.152 -1.2831  2.1972  3.2366
 2002SOL     OW17641   4.252   0.004   7.345  0.1795 -0.1732 -0.1185
 2002SOL    HW117642   4.286   0.073   7.288 -0.5892  0.1430 -0.1955
 2002SOL    HW217643   4.238   0.055   7.425  1.1381  1.7914 -1.2077
 2003SOL     OW17644   0.003   2.408   8.692  0.4327 -0.1821 -0.1205
 2003SOL    HW117645   4.704   2.347   8.757  1.6020 -0.2758  0.4062
 2003SOL    HW217646   0.093   2.429   8.717 -0.7065  2.2659  1.9618
 2004SOL     OW17647   0.286   4.214   8.184  0.1965  0.3349  0.1541
 2004SOL    HW117648   0.357   4.203   8.121 -0.0523  0.3795 -0.1360
 2004SOL    HW217649   0.219   4.151   8.157  2.2990 -1.5421 -0.6757
 2005SOL     OW17650   2.553   1.106   6.437  0.2213 -0.3791  0.3874
 2005SOL    HW117651   2.518   1.070   6.519 -2.7534 -0.7747 -1.0635
 2005SOL    HW217652   2.586   1.028   6.393 -0.4014  0.3608 -1.3811
 2006SOL     OW17653   1.222   0.531  10.431 -0.1666  0.0331  0.3704
 2006SOL    HW117654   1.212   0.496  10.520  0.1310 -1.3195 -0.1321
 2006SOL    HW217655   1.265   0.453  10.398 -0.9997  0.4359 -1.6221
 2007SOL     OW17656   4.206   4.426   4.952 -0.3034 -0.3160  0.3126
 2007SOL    HW117657   4.151   4.426   5.031  1.4931  0.4103  1.5695
 2007SOL    HW217658   4.218   4.521   4.950  2.0065 -0.6050  0.4666
 2008SOL     OW17659   4.619   3.996   9.250  0.7572  0.1123  0.3903
 2008SOL    HW117660   4.597   4.089   9.243 -0.6968 -0.3509 -1.1211
 2008SOL    HW217661   4.638   3.985   9.343  0.4829  2.6229  0.7572
 2009SOL     OW17662   2.117   0.622   4.682  0.3054  0.0742  0.0604
 2009SOL    HW117663   2.161   0.614   4.598 -0.9006  2.0566 -0.7812
 2009SOL    HW217664   2.084   0.535   4.705  0.6991 -0.4407 -1.2862
 2010SOL     OW17665   4.487   3.762   9.570 -0.1292 -0.1279  0.0946
 2010SOL    HW117666   4.405   3.782   9.524  0.2266 -0.8992 -0.8795
 2010SOL    HW217667   4.454   3.713   9.645  0.7091  1.0448  1.2165
 2011SOL     OW17668   0.443   4.606   6.465  0.2290  0.1749  0.3680
 2011SOL    HW117669   0.397   4.552   6.530 -0.3958 -0.0445 -0.2592
 2011SOL    HW217670   0.501   4.543   6.421  1.6276  1.1827  0.7677
 2012SOL     OW17671   2.356   4.587   3.300  0.1984 -0.5363 -1.0335
 2012SOL    HW117672   2.382   4.648   3.232 -0.7225  1.6713  0.5963
 2012SOL    HW217673   2.343   4.508   3.247 -0.9274 -1.9995  1.4049
 2013SOL     OW17674   4.618   3.852  12.006 -0.5113  0.6803  0.0476
 2013SOL    HW117675   4.705   3.891  12.007 -0.2233  0.0482 -0.8256
 2013SOL    HW217676   4.638   3.760  12.021  1.3144  1.1500  0.4258
 2014SOL     OW17677   0.385   3.943   8.720 -0.1768  0.2344 -0.3038
 2014SOL    HW117678   0.462   3.896   8.687  0.6356  1.3461 -0.0174
 2014SOL    HW217679   0.431   3.982   8.795  2.0709  1.2201 -2.1786
 2015SOL     OW17680   1.908   0.560  17.371 -0.5161 -0.3444 -0.4046
 2015SOL    HW117681   1.822   0.540  17.334 -0.7680  0.2982 -0.1623
 2015SOL    HW217682   1.918   0.655  17.365 -0.9546 -0.2414  0.4721
 2016SOL     OW17683   2.635   4.660   8.199  0.5536 -0.4746 -0.3130
 2016SOL    HW117684   2.555   4.699   8.164 -0.0026 -0.0204  1.4877
 2016SOL    HW217685   2.631   4.586   8.138  1.8820 -1.2456  0.5393
 2017SOL     OW17686   1.540   4.302  14.185 -0.1639 -0.7688  0.1909
 2017SOL    HW117687   1.470   4.289  14.249 -2.9181  2.4940 -2.1791
 2017SOL    HW217688   1.600   4.234  14.216  0.8559 -0.6495 -1.5301
 2018SOL     OW17689   3.845   3.644   4.773  0.4883 -1.0274  0.1173
 2018SOL    HW117690   3.788   3.592   4.831 -0.8028 -0.2560 -0.4708
 2018SOL    HW217691   3.784   3.714   4.751  2.1396 -0.1921 -1.7474
 2019SOL     OW17692   3.716   0.753   8.759 -0.2097  0.4074 -0.0765
 2019SOL    HW117693   3.691   0.663   8.742  0.7262  0.4431 -1.6309
 2019SOL    HW217694   3.681   0.785   8.676  1.8158  1.1124 -0.6552
 2020SOL     OW17695   0.824   0.189   0.821  0.1445 -0.1137  0.3062
 2020SOL    HW117696   0.729   0.185   0.829 -0.0087  1.2512 -0.8007
 2020SOL    HW217697   0.849   0.101   0.848  0.4741 -0.7192 -1.9554
 2021SOL     OW17698   2.146   3.482   0.321 -0.0422  0.1972 -0.1960
 2021SOL    HW117699   2.185   3.520   0.399 -1.4340  0.5775  0.3132
 2021SOL    HW217700   2.191   3.535   0.255  1.3394 -1.4326 -0.5717
 2022SOL     OW17701   4.252   0.909   9.359 -0.1439 -0.7976 -0.4054
 2022SOL    HW117702   4.192   0.982   9.346  0.1713 -0.1999  1.4109
 2022SOL    HW217703   4.311   0.939   9.428 -0.1571 -1.2855 -0.1777
 2023SOL     OW17704   4.321   1.575   3.034 -0.2905 -0.5123 -0.0217
 2023SOL    HW117705   4.404   1.527   3.041 -0.4868 -1.0469 -1.2875
 2023SOL    HW217706   4.353   1.662   3.054 -0.3436 -0.7566  1.1117
 2024SOL     OW17707   2.758   2.360   6.406  0.7785  0.2042 -0.3178
 2024SOL    HW117708   2.733   2.322   6.322 -0.3793  1.3902 -0.5158
 2024SOL    HW217709   2.758   2.285   6.466 -0.9878  1.6765  1.5388
 2025SOL     OW17710   4.096   2.333   3.817 -0.6020 -0.2217 -0.4041
 2025SOL    HW117711   4.189   2.358   3.814 -0.2570 -1.5607 -0.7757
 2025SOL    HW217712   4.054   2.398   3.873  0.0367 -3.1375  3.4908
 2026SOL     OW17713   4.551   2.976   3.036  0.0993  0.1080  0.5818
 2026SOL    HW117714   4.644   2.959   3.052  0.1153  0.7401  1.1781
 2026SOL    HW217715   4.506   2.899   3.070 -1.7261  0.9291 -0.0102
 2027SOL     OW17716   2.312   0.163   6.869 -0.0330 -0.0603  0.1331
 2027SOL    HW117717   2.231   0.184   6.823  0.1713  3.3015  1.2965
 2027SOL    HW217718   2.289   0.100   6.938  0.0653  0.6671  0.8214
 2028SOL     OW17719   1.569   0.523  14.082  0.0180  0.7557  0.5328
 2028SOL    HW117720   1.529   0.461  14.022  0.7792  0.1534  0.6600
 2028SOL    HW217721   1.634   0.551  14.018 -0.7112 -0.8931 -0.9283
 2029SOL     OW17722   4.636   3.109  13.568  0.8756  0.5666  0.0333
 2029SOL    HW117723   4.599   3.146  13.649  0.1825 -1.2915  0.5674
 2029SOL    HW217724   4.723   3.147  13.577  1.3316 -0.4070 -0.4131
 2030SOL     OW17725   0.245   1.194   6.422 -0.2446  0.7211 -0.4983
 2030SOL    HW117726   0.261   1.283   6.392 -0.5822  0.4266 -1.5466
 2030SOL    HW217727   0.264   1.201   6.515 -1.5056  1.7971 -0.3207
 2031SOL     OW17728   4.495   1.053   4.015 -0.2910  0.0279 -0.0282
 2031SOL    HW117729   4.509   0.964   4.046  0.4657  1.1435  2.8659
 2031SOL    HW217730   4.567   1.077   3.956 -0.5339  0.1681 -0.2656
 2032SOL     OW17731   1.152   3.464   9.696  0.4525  0.2387  0.1859
 2032SOL    HW117732   1.150   3.405   9.621 -0.3303  0.7495 -0.1884
 2032SOL    HW217733   1.130   3.545   9.651  0.7524  1.7172  2.7069
 2033SOL     OW17734   1.562   0.868   1.148 -0.2977  0.1092 -0.0366
 2033SOL    HW117735   1.608   0.938   1.102  2.4799 -1.4502  0.3507
 2033SOL    HW217736   1.481   0.913   1.174 -0.6045 -0.5409  0.1420
 2034SOL     OW17737   4.090   1.605   3.354  0.5839 -0.1973  0.7664
 2034SOL    HW117738   4.052   1.615   3.441  0.4774  0.2444  0.6671
 2034SOL    HW217739   4.017   1.626   3.296  0.3515 -1.0077  0.7540
 2035SOL     OW17740   1.552   2.745  11.527 -0.1242 -0.0187  0.3095
 2035SOL    HW117741   1.591   2.829  11.502  0.7637 -0.6362 -0.3486
 2035SOL    HW217742   1.513   2.772  11.611 -1.0300 -0.6960  0.1078
 2036SOL     OW17743   2.451   3.331  15.068  0.0593  0.0130  0.1965
 2036SOL    HW117744   2.413   3.247  15.042  0.9535  0.0531 -1.2420
 2036SOL    HW217745   2.520   3.334  15.001 -0.7500  2.7048 -0.5120
 2037SOL     OW17746   3.483   0.084   3.319 -0.2793  0.3802 -0.2010
 2037SOL    HW117747   3.458   0.032   3.242 -0.1125 -1.7439  1.1615
 2037SOL    HW217748   3.422   0.158   3.314 -0.9801 -0.1000  1.2048
 2038SOL     OW17749   3.855   0.878   8.969  0.0719  0.2477  0.6671
 2038SOL    HW117750   3.944   0.844   8.963 -0.3410 -0.3204 -2.1497
 2038SOL    HW217751   3.805   0.839   8.897 -2.1408  0.0224  2.3130
 2039SOL     OW17752   3.913   0.619   7.953  0.5138 -0.5910 -0.4983
 2039SOL    HW117753   3.947   0.646   8.038  1.1630 -0.4405 -0.8053
 2039SOL    HW217754   3.950   0.531   7.947 -0.5905 -1.0869  0.0095
 2040SOL     OW17755   3.791   0.753   5.453  0.2859 -0.2042  0.5275
 2040SOL    HW117756   3.756   0.807   5.382  2.4662  1.8473  1.0280
 2040SOL    HW217757   3.790   0.817   5.524  0.5916 -0.6709  0.9523
 2041SOL     OW17758   3.468   1.826   9.107  0.1516  0.1842 -0.1132
 2041SOL    HW117759   3.500   1.745   9.146 -2.0107  0.2790  1.8892
 2041SOL    HW217760   3.445   1.782   9.025  1.0399  0.7831 -0.6790
 2042SOL     OW17761   4.028   3.019   2.855  0.1280 -0.4323 -0.3195
 2042SOL    HW117762   3.984   2.955   2.799 -0.4004 -1.1081  0.8605
 2042SOL    HW217763   4.098   2.968   2.895  0.7504 -0.7057 -1.7630
 2043SOL     OW17764   4.015   0.621  15.498  0.2462  0.2270 -0.1669
 2043SOL    HW117765   3.995   0.529  15.479  0.9239 -0.3604  1.8816
 2043SOL    HW217766   4.069   0.648  15.424  1.1030  1.6673  0.9917
 2044SOL     OW17767   4.185   3.574   1.609 -0.0724  0.1476  0.3140
 2044SOL    HW117768   4.243   3.645   1.582  0.3130 -0.2419  0.1157
 2044SOL    HW217769   4.176   3.543   1.519 -0.1934 -0.0841  0.4036
 2045SOL     OW17770   3.378   1.245   6.651  1.1813 -0.0751 -0.1428
 2045SOL    HW117771   3.408   1.249   6.561 -0.2832  1.9022 -0.5335
 2045SOL    HW217772   3.377   1.340   6.665 -3.4165 -0.3942  1.7831
 2046SOL     OW17773   0.354   1.155   3.980 -0.4642  0.0878 -0.1312
 2046SOL    HW117774   0.330   1.128   3.891  0.0700 -1.2983  0.1349
 2046SOL    HW217775   0.369   1.248   3.967 -0.1344 -0.1020 -1.1035
 2047SOL     OW17776   2.097   3.566   6.022  0.4318  0.0357 -0.6685
 2047SOL    HW117777   2.191   3.576   6.036  0.2878 -0.3902  0.5895
 2047SOL    HW217778   2.080   3.507   6.096  0.4717  0.1295 -0.5848
 2048SOL     OW17779   3.770   0.221   9.231  0.0096  0.1907  0.5439
 2048SOL    HW117780   3.770   0.297   9.173  1.2324 -0.0648  0.2006
 2048SOL    HW217781   3.853   0.180   9.208 -0.5914 -1.6275  1.5903
 2049SOL     OW17782   1.496   1.534   7.798 -0.0218  0.3242  0.0153
 2049SOL    HW117783   1.497   1.563   7.707  1.6423  2.3750  0.6840
 2049SOL    HW217784   1.407   1.551   7.829 -1.0933 -1.3415 -2.1757
 2050SOL     OW17785   4.146   2.956   8.047 -0.2249 -0.6272 -0.4440
 2050SOL    HW117786   4.053   2.957   8.025  0.4171 -0.0525 -3.1451
 2050SOL    HW217787   4.174   2.866   8.028  2.0197 -0.1239  0.4392
 2051SOL     OW17788   3.478   3.865   8.198 -0.4970 -0.1809 -0.3068
 2051SOL    HW117789   3.532   3.878   8.276  1.5527 -1.4910 -1.5006
 2051SOL    HW217790   3.400   3.908   8.234 -0.7246 -0.0065 -1.0193
 2052SOL     OW17791   0.818   3.495   5.960  0.1105 -0.4013 -0.2612
 2052SOL    HW117792   0.854   3.536   6.039 -1.3691 -0.6018  0.5106
 2052SOL    HW217793   0.891   3.495   5.899 -2.4899  0.1197 -3.3379
 2053SOL     OW17794   1.440   4.210   6.808  0.2280  0.0767 -0.6293
 2053SOL    HW117795   1.428   4.231   6.715 -1.1518  0.1079 -0.4470
 2053SOL    HW217796   1.357   4.236   6.847 -0.2049 -0.9607 -0.8583
 2054SOL     OW17797   3.665   1.932  17.717 -0.4997 -0.2906  0.1662
 2054SOL    HW117798   3.590   1.892   0.020  1.3861 -1.4390  2.3282
 2054SOL    HW217799   3.663   2.021   0.009  0.0487  0.4945 -1.8641
 2055SOL     OW17800   3.272   1.443   3.230 -0.2024 -0.9545  0.0604
 2055SOL    HW117801   3.258   1.392   3.310 -0.7680  0.1620  0.6718
 2055SOL    HW217802   3.289   1.531   3.265  0.0566 -0.8362 -0.3589
 2056SOL     OW17803   2.972   4.549   4.603 -0.0663 -0.0962 -1.2878
 2056SOL    HW117804   2.889   4.588   4.576  0.0820  0.7049 -0.5905
 2056SOL    HW217805   2.991   4.610   4.674 -0.7270  0.2086 -1.3687
 2057SOL     OW17806   3.352   3.777   2.908  0.4733 -0.1765  0.2368
 2057SOL    HW117807   3.342   3.710   2.840 -0.3267 -0.3751  0.5431
 2057SOL    HW217808   3.392   3.846   2.855 -2.1227  1.5394  0.5206
 2058SOL     OW17809   4.691   3.867   5.372 -0.1492  0.0174 -0.6013
 2058SOL    HW117810   4.703   3.961   5.359  1.4471 -0.3501 -1.7514
 2058SOL    HW217811   0.039   3.839   5.409 -1.1613 -2.2472 -0.0563
 2059SOL     OW17812   0.265   4.617   4.978  0.1372  0.6303  0.2217
 2059SOL    HW117813   0.231   4.706   4.970 -0.9403  0.2750  0.8740
 2059SOL    HW217814   0.186   4.569   5.003 -0.1109 -0.9803 -3.5752
 2060SOL     OW17815   1.411   0.127   6.225 -0.0079 -0.4792  0.0408
 2060SOL    HW117816   1.461   0.048   6.245  0.7461  0.5200  2.1239
 2060SOL    HW217817   1.478   0.195   6.232 -0.9115  0.4098  0.0834
 2061SOL     OW17818   2.783   1.778   5.092 -0.3909  0.3384  0.3790
 2061SOL    HW117819   2.725   1.818   5.157 -0.5853  0.1265  0.3350
 2061SOL    HW217820   2.757   1.824   5.012  0.9742  0.9541  0.2894
 2062SOL     OW17821   1.431   4.312   5.559 -0.2229 -0.4609  0.4871
 2062SOL    HW117822   1.346   4.348   5.531  0.3532  2.0576  1.9680
 2062SOL    HW217823   1.405   4.220   5.560 -1.6190 -0.0548  1.2358
 2063SOL     OW17824   1.916   2.230  15.234  0.3292 -0.6624  0.0680
 2063SOL    HW117825   1.825   2.216  15.209  0.2251  0.4115 -0.1786
 2063SOL    HW217826   1.967   2.188  15.164  1.0475  0.0147  0.1705
 2064SOL     OW17827   2.208   0.126  13.520 -0.3094 -0.1891  0.3269
 2064SOL    HW117828   2.144   0.076  13.571 -1.3140  0.7277 -0.0436
 2064SOL    HW217829   2.211   0.088  13.433 -1.0093 -0.7711  0.5590
 2065SOL     OW17830   3.303   2.419   5.290  0.0401  0.0129  0.8735
 2065SOL    HW117831   3.369   2.352   5.271  0.3577  0.4625  0.3850
 2065SOL    HW217832   3.353   2.500   5.294  0.5178 -0.2324 -0.1612
 2066SOL     OW17833   2.082   1.177   9.419  0.1680 -0.1026  0.3285
 2066SOL    HW117834   2.103   1.149   9.330 -2.4941 -0.6072 -0.1200
 2066SOL    HW217835   2.145   1.248   9.433  0.7146  0.2692 -4.2152
 2067SOL     OW17836   3.679   1.037   5.918  0.1621 -0.0955 -0.2380
 2067SOL    HW117837   3.712   0.956   5.957 -1.3711  0.6317  2.5555
 2067SOL    HW217838   3.588   1.017   5.895 -0.0545 -0.6999  1.1486
 2068SOL     OW17839   0.088   2.849   2.699  0.3428 -0.0783  0.1765
 2068SOL    HW117840   0.131   2.878   2.619 -0.4207  0.7526  0.0740
 2068SOL    HW217841   0.041   2.772   2.666 -0.7582 -0.7593  3.3485
 2069SOL     OW17842   2.631   4.357   3.371  0.4308  0.0885 -0.2196
 2069SOL    HW117843   2.645   4.305   3.292 -0.1177  2.1519 -1.6789
 2069SOL    HW217844   2.567   4.325   3.434  0.4704 -0.5485 -0.5006
 2070SOL     OW17845   4.196   3.191   4.056 -0.2733  0.2008  0.1177
 2070SOL    HW117846   4.223   3.137   3.982  0.7743  0.3731  0.3781
 2070SOL    HW217847   4.157   3.262   4.004 -0.4938  1.2115  1.6557
 2071SOL     OW17848   3.383   3.773   4.995  0.6689  0.4693 -0.0696
 2071SOL    HW117849   3.354   3.857   5.032  0.7970 -0.6531  2.5853
 2071SOL    HW217850   3.298   3.741   4.966 -0.9688  0.7531  4.2969
 2072SOL     OW17851   3.785   1.438   7.244 -0.9833 -0.8469 -0.2081
 2072SOL    HW117852   3.766   1.457   7.336  0.8085 -1.9555  0.3941
 2072SOL    HW217853   3.711   1.390   7.208 -1.3253 -0.0872 -0.5109
 2073SOL     OW17854   1.712   0.981   7.471  0.2890 -0.2004 -0.2894
 2073SOL    HW117855   1.674   1.069   7.463 -0.3644 -0.1894  2.7228
 2073SOL    HW217856   1.795   0.999   7.516  0.6841 -3.9066  0.4509
 2074SOL     OW17857   0.477   1.905  17.667  0.0091 -0.5171  0.1275
 2074SOL    HW117858   0.415   1.885  17.597  1.1407  1.2275 -1.3880
 2074SOL    HW217859   0.430   1.941  17.742  0.4461  0.4093 -0.0363
 2075SOL     OW17860   1.003   0.916   5.843  0.3692  0.6523  0.5344
 2075SOL    HW117861   1.010   0.888   5.752 -0.5307  0.6910  0.4481
 2075SOL    HW217862   1.081   0.871   5.875 -1.1184 -2.7457 -0.5440
 2076SOL     OW17863   3.366   1.398  10.981 -0.0893  0.4501 -0.4363
 2076SOL    HW117864   3.314   1.344  11.041 -1.1010  1.9641  0.0561
 2076SOL    HW217865   3.425   1.442  11.043 -0.6972 -1.9108  1.8285
 2077SOL     OW17866   0.729   2.983   5.004 -0.0710 -0.1223  0.2585
 2077SOL    HW117867   0.708   2.927   5.078  2.8069 -1.0586  0.3666
 2077SOL    HW217868   0.823   2.985   5.019 -0.2590  0.2561  1.4143
 2078SOL     OW17869   0.254   1.440   9.761  0.6877 -0.2952 -0.8465
 2078SOL    HW117870   0.328   1.431   9.822  0.9695 -1.1865 -1.3205
 2078SOL    HW217871   0.281   1.523   9.722  1.7300  0.0786  0.6547
 2079SOL     OW17872   3.891   1.599   3.525  0.4965  0.2767  0.1029
 2079SOL    HW117873   3.865   1.647   3.603  0.2160 -2.8408  1.8978
 2079SOL    HW217874   3.817   1.598   3.465  0.1146  1.3415  0.5619
 2080SOL     OW17875   2.744   1.788   2.950  1.0359 -0.3700  0.1459
 2080SOL    HW117876   2.692   1.869   2.946  3.2514  1.0659  0.1761
 2080SOL    HW217877   2.818   1.816   3.005  2.0498 -1.8304 -0.4956
 2081SOL     OW17878   0.406   3.804   7.286  0.0521 -0.2106 -0.1852
 2081SOL    HW117879   0.337   3.757   7.332  1.1174  1.2431  2.8912
 2081SOL    HW217880   0.452   3.723   7.264  0.3556 -0.5293  1.6558
 2082SOL     OW17881   4.320   1.491   5.067 -0.4328  0.3541  0.2086
 2082SOL    HW117882   4.301   1.423   5.132  0.7800 -2.4490 -2.3459
 2082SOL    HW217883   4.363   1.437   5.000  1.2353  2.4552 -0.4146
 2083SOL     OW17884   3.060   1.506   6.936  0.7131  0.4114  0.2105
 2083SOL    HW117885   3.050   1.570   7.006 -0.5508  3.1791 -2.4943
 2083SOL    HW217886   3.152   1.485   6.952  0.5247 -1.3290 -0.9888
 2084SOL     OW17887   1.226   0.448   4.580 -0.2608 -0.3811  0.5548
 2084SOL    HW117888   1.237   0.377   4.644 -0.4539 -0.5138  0.4393
 2084SOL    HW217889   1.272   0.512   4.634  0.1844 -0.3173  0.0921
 2085SOL     OW17890   2.977   3.693   3.184 -0.1325  0.1971  0.1894
 2085SOL    HW117891   3.042   3.650   3.239 -0.1583 -0.4647 -0.2990
 2085SOL    HW217892   2.900   3.650   3.220  0.1062  0.1113  0.5940
 2086SOL     OW17893   3.678   3.678   8.122  0.5506  0.6007 -0.1343
 2086SOL    HW117894   3.669   3.661   8.029 -0.3700 -1.2223  0.2808
 2086SOL    HW217895   3.614   3.745   8.149 -1.0321 -0.9982  0.0854
 2087SOL     OW17896   3.210   0.247  12.716  0.1524 -0.7098  0.3597
 2087SOL    HW117897   3.157   0.215  12.789 -1.4135 -0.5529 -0.7138
 2087SOL    HW217898   3.300   0.226  12.742  1.2937  0.9787 -2.1761
 2088SOL     OW17899   2.993   4.487   3.403 -0.1494 -0.3451  0.1060
 2088SOL    HW117900   3.055   4.557   3.423 -2.1089  1.3421  0.2489
 2088SOL    HW217901   3.031   4.451   3.323 -1.8344 -4.5150  1.1778
 2089SOL     OW17902   4.392   2.208   6.524  0.0297 -0.0736  0.1815
 2089SOL    HW117903   4.444   2.277   6.483  2.1458 -0.3197  2.4470
 2089SOL    HW217904   4.450   2.169   6.590 -0.6970 -1.2837  0.1081
 2090SOL     OW17905   3.341   2.326  15.832  0.1668 -0.0963 -0.1942
 2090SOL    HW117906   3.357   2.241  15.791  0.8857 -0.1645  0.2159
 2090SOL    HW217907   3.337   2.306  15.926  1.7838  2.6672  0.4911
 2091SOL     OW17908   1.395   3.866   7.181 -0.1451  0.1602  0.5129
 2091SOL    HW117909   1.389   3.961   7.168  1.3728  0.4721  2.2020
 2091SOL    HW217910   1.318   3.836   7.132 -0.1215  0.9062  0.0171
 2092SOL     OW17911   1.838   1.272   6.787 -0.4323  0.3749 -0.0095
 2092SOL    HW117912   1.865   1.362   6.804  1.6166 -0.0917 -0.8031
 2092SOL    HW217913   1.840   1.239   6.877 -0.0516 -0.5051 -0.3323
 2093SOL     OW17914   2.491   2.978  17.731 -0.2660 -0.6215  0.1191
 2093SOL    HW117915   2.574   3.003  17.689 -1.0553 -0.8702 -1.5904
 2093SOL    HW217916   2.445   2.944  17.655  1.3547 -2.1047 -0.2199
 2094SOL     OW17917   3.071   1.795   9.041  0.6476  0.4067 -0.4244
 2094SOL    HW117918   2.994   1.771   9.091  1.5655 -2.2744 -0.2925
 2094SOL    HW217919   3.044   1.796   8.949 -1.8254  1.2975  0.3378
 2095SOL     OW17920   2.233   2.100   5.384  0.0773 -0.8101 -0.1317
 2095SOL    HW117921   2.237   2.062   5.297  1.5215  0.1096 -0.4662
 2095SOL    HW217922   2.158   2.157   5.370  1.4640  0.8779 -0.6914
 2096SOL     OW17923   4.118   3.649   0.442  0.0150  0.3212 -0.1067
 2096SOL    HW117924   4.093   3.741   0.446 -0.1882  0.2732 -0.2889
 2096SOL    HW217925   4.093   3.631   0.352 -0.4271 -1.4001  0.3671
 2097SOL     OW17926   3.328   1.602   7.320  0.5729 -0.1864  0.6520
 2097SOL    HW117927   3.275   1.651   7.382 -1.5224 -0.8753 -0.5863
 2097SOL    HW217928   3.345   1.668   7.253  0.8553  2.3917  3.2578
 2098SOL     OW17929   4.027   3.491   7.137 -0.4332 -0.0252  0.1248
 2098SOL    HW117930   4.075   3.453   7.064 -0.9671  0.2819 -0.3807
 2098SOL    HW217931   3.945   3.443   7.128 -0.3798  0.0970 -1.0432
 2099SOL     OW17932   3.000   1.159   0.793 -0.5058  0.2126 -0.4949
 2099SOL    HW117933   2.974   1.242   0.833  1.8903 -0.2081  1.9661
 2099SOL    HW217934   2.916   1.114   0.799 -0.1225 -0.3427  0.7734
 2100SOL     OW17935   0.946   3.856   6.322  0.5917 -0.0650  0.9284
 2100SOL    HW117936   0.904   3.915   6.385 -1.0719 -0.0654 -0.2119
 2100SOL    HW217937   0.998   3.917   6.270 -0.7764 -0.1294 -0.4854
 2101SOL     OW17938   0.917   0.753  10.504 -0.0037  0.5157 -0.2611
 2101SOL    HW117939   0.955   0.707  10.579 -1.0533  0.8493  0.4667
 2101SOL    HW217940   0.910   0.685  10.436 -2.8749  0.8032 -0.2367
 2102SOL     OW17941   0.352   3.091   3.788  0.2805 -0.1822 -0.2039
 2102SOL    HW117942   0.342   3.125   3.699  2.0778 -0.5443 -0.5399
 2102SOL    HW217943   0.443   3.064   3.789  0.3531  0.0247 -1.1718
 2103SOL     OW17944   1.193   4.608   6.485 -0.3570 -0.2180  0.5208
 2103SOL    HW117945   1.282   4.585   6.512 -0.9238  0.7631  3.1493
 2103SOL    HW217946   1.178   4.543   6.416  1.2160  0.5091 -0.5357
 2104SOL     OW17947   0.832   2.527  16.863 -0.3698  0.0781  0.1047
 2104SOL    HW117948   0.891   2.456  16.839 -0.4866 -0.4271  1.3006
 2104SOL    HW217949   0.748   2.485  16.884  0.1015 -0.6676  0.4841
 2105SOL     OW17950   4.717   1.890   1.929 -0.0227  0.1841  0.1375
 2105SOL    HW117951   0.023   1.974   1.948 -0.5527  0.0573  1.8724
 2105SOL    HW217952   0.049   1.840   1.974 -0.0823  0.9201  1.0484
 2106SOL     OW17953   0.580   1.134   4.924  0.7391 -0.3547 -0.2102
 2106SOL    HW117954   0.665   1.093   4.909  1.3078  0.7450 -0.0160
 2106SOL    HW217955   0.532   1.058   4.956 -0.6388 -0.4214 -2.4178
 2107SOL     OW17956   2.421   0.693  10.713 -0.1214 -0.4705 -0.1443
 2107SOL    HW117957   2.351   0.649  10.665 -1.7742 -0.5411  2.3458
 2107SOL    HW217958   2.496   0.637  10.696  1.4000  1.0264  1.5471
 2108SOL     OW17959   0.538   3.815   8.323 -0.0589  0.0096  0.3742
 2108SOL    HW117960   0.545   3.797   8.230 -2.2083  0.3626  0.1371
 2108SOL    HW217961   0.456   3.769   8.344  0.3572 -0.1107  1.7861
 2109SOL     OW17962   1.500   2.775   3.183 -0.2626  0.0533  0.0805
 2109SOL    HW117963   1.528   2.860   3.149  0.7174 -0.7013 -1.0201
 2109SOL    HW217964   1.480   2.724   3.105  0.2283 -0.3853  0.2406
 2110SOL     OW17965   0.543   3.058  15.271  1.1040  0.7468  0.4699
 2110SOL    HW117966   0.557   3.147  15.305  2.1059  0.8589 -0.2382
 2110SOL    HW217967   0.572   3.016  15.352  1.3674 -0.9657 -0.5221
 2111SOL     OW17968   1.274   3.372  10.123 -0.0315 -0.3747  0.1025
 2111SOL    HW117969   1.302   3.345  10.210  0.0414  1.5210  0.6643
 2111SOL    HW217970   1.246   3.463  10.133  2.6504  0.3504  1.0205
 2112SOL     OW17971   0.284   1.910   8.987  0.0082  0.2442  0.3604
 2112SOL    HW117972   0.229   1.863   9.050 -0.9513 -0.9672 -1.3532
 2112SOL    HW217973   0.222   1.930   8.916 -1.8767  1.5234  2.3986
 2113SOL     OW17974   3.420   2.346   6.008 -0.7996 -0.0307 -0.0350
 2113SOL    HW117975   3.414   2.392   5.924 -0.1705  0.2782  0.0848
 2113SOL    HW217976   3.369   2.397   6.070  0.3802  0.3025  0.6674
 2114SOL     OW17977   4.563   3.146   5.063  0.5250 -0.1524 -0.4315
 2114SOL    HW117978   4.494   3.153   4.998  0.4650 -0.9257 -0.4492
 2114SOL    HW217979   4.533   3.217   5.119  0.4387 -1.2193  0.8946
 2115SOL     OW17980   3.110   1.940  10.090 -0.5431 -0.2351 -0.2279
 2115SOL    HW117981   3.143   1.868  10.143 -2.2301 -2.1167 -1.7504
 2115SOL    HW217982   3.176   1.941  10.021  1.4359  1.1110  1.7011
 2116SOL     OW17983   2.677   3.721   2.127 -0.0756  0.6053 -0.3203
 2116SOL    HW117984   2.637   3.718   2.214  1.9165  2.2391  0.6578
 2116SOL    HW217985   2.673   3.628   2.109 -1.1399  0.1041  2.4642
 2117SOL     OW17986   3.229   0.179   2.038  0.0968  0.1533  0.1473
 2117SOL    HW117987   3.158   0.174   2.102  0.8629 -2.9493  0.7310
 2117SOL    HW217988   3.281   0.253   2.070  0.8738 -1.1863  1.9948
 2118SOL     OW17989   0.941   4.268  13.718  0.0581  0.5235  0.2040
 2118SOL    HW117990   0.933   4.360  13.694  2.2372 -0.2723 -3.6071
 2118SOL    HW217991   0.901   4.266  13.805 -1.6125 -0.3837 -0.5837
 2119SOL     OW17992   4.449   0.772  11.405 -0.5020 -1.0169  0.4408
 2119SOL    HW117993   4.524   0.759  11.464 -0.2396  1.8740  0.7548
 2119SOL    HW217994   4.480   0.847  11.353 -0.6527  0.0325  1.8517
 2120SOL     OW17995   3.389   2.048   8.102  0.2225  0.0674 -0.0596
 2120SOL    HW117996   3.296   2.040   8.081 -0.3257  0.8281  2.0422
 2120SOL    HW217997   3.430   2.046   8.015  0.1418 -0.5755 -0.0768
 2121SOL     OW17998   1.320   3.692   7.860 -0.4248 -0.1874 -0.0443
 2121SOL    HW117999   1.332   3.705   7.955 -4.1802 -0.0976  0.4050
 2121SOL    HW218000   1.408   3.695   7.821  0.2659  1.3139  1.6082
 2122SOL     OW18001   3.624   2.187   0.120  0.2581 -0.0310 -0.1626
 2122SOL    HW118002   3.613   2.281   0.138  0.1888 -0.1208  0.2585
 2122SOL    HW218003   3.694   2.176   0.184 -0.3336  0.2241  0.5256
 2123SOL     OW18004   4.220   0.584   9.454  0.1848 -0.5868  0.2708
 2123SOL    HW118005   4.279   0.563   9.526  0.7408  0.8867  0.2395
 2123SOL    HW218006   4.281   0.616   9.387  0.0558 -0.2237  0.3258
 2124SOL     OW18007   3.295   3.948   7.395 -0.6731 -0.3077  0.4579
 2124SOL    HW118008   3.271   4.040   7.383  1.9541  0.2545 -0.5604
 2124SOL    HW218009   3.371   3.957   7.453  1.0280 -0.4994 -1.7596
 2125SOL     OW18010   2.604   3.012   2.708  0.2384  0.3591 -0.0134
 2125SOL    HW118011   2.509   3.004   2.708  0.1881  0.9611  2.2093
 2125SOL    HW218012   2.625   3.101   2.680 -0.9847  0.4060 -0.8080
 2126SOL     OW18013   1.363   3.356   9.844 -0.0536 -0.3081  0.0430
 2126SOL    HW118014   1.294   3.408   9.801 -0.1958  1.6388  2.6471
 2126SOL    HW218015   1.357   3.406   9.925  2.0152 -1.8730  1.1520
 2127SOL     OW18016   2.222   3.190  10.265 -0.2664  0.7093  0.3625
 2127SOL    HW118017   2.147   3.247  10.248  0.6228  2.2043  1.4129
 2127SOL    HW218018   2.205   3.142  10.346  0.7754  3.4711  2.2478
 2128SOL     OW18019   4.704   0.434   3.405  0.8083  0.2602  0.4115
 2128SOL    HW118020   4.624   0.386   3.382 -1.0843  2.0948  3.1048
 2128SOL    HW218021   4.685   0.524   3.375  0.0582  0.6386  2.0503
 2129SOL     OW18022   1.764   4.149   4.922 -0.6581  0.3802  0.5821
 2129SOL    HW118023   1.712   4.157   5.002  0.7458  3.9669  1.1397
 2129SOL    HW218024   1.730   4.067   4.887  1.4220 -0.5712  0.7304
 2130SOL     OW18025   2.488   4.218   8.156 -0.0669  0.1853  0.0200
 2130SOL    HW118026   2.470   4.227   8.249 -1.0973  0.1648 -0.1766
 2130SOL    HW218027   2.497   4.308   8.126  1.2883  0.3537  0.9570
 2131SOL     OW18028   2.221   3.647   5.690 -0.0694 -0.1559  0.5764
 2131SOL    HW118029   2.259   3.695   5.764 -1.4184  1.0222  0.5185
 2131SOL    HW218030   2.284   3.578   5.674 -1.3476 -0.9034 -1.1357
 2132SOL     OW18031   1.822   4.717   8.107 -0.1973 -0.2637  0.0570
 2132SOL    HW118032   1.767   4.639   8.106 -0.8228  0.1763 -0.6194
 2132SOL    HW218033   1.820   0.004   8.200 -0.3122  1.3151 -0.3212
 2133SOL     OW18034   3.816   3.243   6.503  0.0466 -0.3480 -0.2380
 2133SOL    HW118035   3.876   3.295   6.557  0.6493 -0.6466 -0.6296
 2133SOL    HW218036   3.796   3.181   6.573  0.1915 -0.1166  0.0096
 2134SOL     OW18037   3.844   2.600  12.328 -0.2295 -0.0234  0.3442
 2134SOL    HW118038   3.935   2.570  12.316 -0.3624 -1.5713  3.0387
 2134SOL    HW218039   3.808   2.536  12.390 -0.0954 -3.0699 -2.7436
 2135SOL     OW18040   1.693   0.245   6.273  0.2346 -0.0462 -0.7186
 2135SOL    HW118041   1.778   0.289   6.282  0.0206  0.2117  0.0724
 2135SOL    HW218042   1.707   0.192   6.195  0.2460  0.1887 -0.8755
 2136SOL     OW18043   3.926   2.963   5.963 -0.3091 -0.8488 -0.0256
 2136SOL    HW118044   3.889   2.949   5.876  0.5899 -0.6881 -0.4352
 2136SOL    HW218045   3.842   2.981   6.006  0.5702  0.9283  0.9715
 2137SOL     OW18046   0.697   0.796   5.278  0.1556  0.5929 -0.2381
 2137SOL    HW118047   0.753   0.831   5.208 -0.6603 -0.7061 -1.5477
 2137SOL    HW218048   0.680   0.710   5.239  2.9518 -0.9877  2.0142
 2138SOL     OW18049   1.536   2.021  13.851  0.1932  0.1359  0.0125
 2138SOL    HW118050   1.574   2.100  13.891  2.2892 -1.3903  1.0441
 2138SOL    HW218051   1.577   2.023  13.764 -0.8698  2.7660 -0.4399
 2139SOL     OW18052   1.619   3.964   3.440  0.1253  0.2378 -0.0868
 2139SOL    HW118053   1.664   3.934   3.518 -0.0033  0.4133  0.0567
 2139SOL    HW218054   1.679   4.035   3.417 -0.7003  0.7443 -0.7279
 2140SOL     OW18055   2.956   1.890   3.086 -0.5017 -0.0952  0.1855
 2140SOL    HW118056   2.960   1.938   3.169 -0.5613  1.1137 -0.5038
 2140SOL    HW218057   3.014   1.945   3.032  0.4621 -0.7105  0.5844
 2141SOL     OW18058   1.434   1.540   4.131 -0.3192  0.0338  0.7547
 2141SOL    HW118059   1.525   1.528   4.156 -0.3154 -1.1283  0.2039
 2141SOL    HW218060   1.399   1.463   4.177 -3.1188  0.2018 -1.0205
 2142SOL     OW18061   4.620   2.498   3.867  0.0910 -0.8282 -0.6084
 2142SOL    HW118062   4.696   2.556   3.880 -0.0728 -0.7220 -0.1005
 2142SOL    HW218063   4.647   2.422   3.815  0.0217 -0.9218 -0.5070
 2143SOL     OW18064   2.173   3.214   5.094 -0.0905  0.4985  0.2844
 2143SOL    HW118065   2.178   3.123   5.124 -0.5646  0.0925 -0.8742
 2143SOL    HW218066   2.152   3.267   5.171 -2.2326  1.6022 -1.0619
 2144SOL     OW18067   3.354   3.846  15.319 -0.6296  0.3688  0.2942
 2144SOL    HW118068   3.355   3.806  15.233 -1.7609 -0.4646  0.6741
 2144SOL    HW218069   3.365   3.764  15.368 -1.9395  0.2975  0.4516
 2145SOL     OW18070   1.562   4.189  12.298  0.1628 -0.2148 -0.5701
 2145SOL    HW118071   1.502   4.260  12.322 -0.3076  0.2613 -3.1042
 2145SOL    HW218072   1.627   4.240  12.251 -0.4500  0.2793 -0.8867
 2146SOL     OW18073   3.311   3.874   7.870 -0.2210  0.4959 -0.2875
 2146SOL    HW118074   3.259   3.953   7.889  0.7766  1.1771 -0.3844
 2146SOL    HW218075   3.238   3.823   7.835  2.0600 -2.1670 -1.0458
 2147SOL     OW18076   0.971   0.860   1.222 -0.0051 -0.0609  0.0282
 2147SOL    HW118077   0.893   0.884   1.173 -1.5843 -0.2588  2.4281
 2147SOL    HW218078   0.985   0.943   1.267  2.9854  0.1759 -1.3322
 2148SOL     OW18079   3.813   1.341   2.825  0.7889  0.1112 -0.4631
 2148SOL    HW118080   3.873   1.287   2.773  2.6905  1.6492  0.1532
 2148SOL    HW218081   3.730   1.307   2.792 -0.3634  1.7075  0.8015
 2149SOL     OW18082   0.370   0.401   6.943 -0.5365 -0.5108 -0.1178
 2149SOL    HW118083   0.392   0.473   6.884  3.1849 -2.4452 -1.1071
 2149SOL    HW218084   0.442   0.341   6.922  0.7715  1.4124 -1.0968
 2150SOL     OW18085   4.704   3.634   2.088  0.2307  0.4316 -0.5068
 2150SOL    HW118086   4.617   3.665   2.064  0.5600  1.0230 -0.9364
 2150SOL    HW218087   0.018   3.684   2.024  0.8489  0.5041  0.0358
 2151SOL     OW18088   2.250   0.873   5.429 -0.4265 -0.2743  0.0932
 2151SOL    HW118089   2.217   0.844   5.515  0.7305 -0.3029  0.5260
 2151SOL    HW218090   2.236   0.967   5.445  0.0866  0.0319 -1.3052
 2152SOL     OW18091   0.461   0.969   1.950 -0.2268  0.4373  0.3984
 2152SOL    HW118092   0.467   0.874   1.945  2.0614  0.5583  0.9455
 2152SOL    HW218093   0.552   0.994   1.965  0.2428  0.8486 -3.2949
 2153SOL     OW18094   0.098   2.650   9.168  0.3184 -0.1980 -0.1643
 2153SOL    HW118095   0.169   2.588   9.153  3.3008  3.2365 -0.0267
 2153SOL    HW218096   0.031   2.613   9.110  1.1977  0.6074 -1.6737
 2154SOL     OW18097   0.630   0.003  17.222 -0.1860  0.1580 -0.7770
 2154SOL    HW118098   0.705   0.019  17.279  0.4039 -2.1549 -0.9126
 2154SOL    HW218099   0.598   0.090  17.200  0.2551  0.5444  0.1112
 2155SOL     OW18100   1.368   4.576   2.052 -0.4380  0.6996  0.1710
 2155SOL    HW118101   1.342   4.566   2.144  1.1420  0.0152  0.5530
 2155SOL    HW218102   1.290   4.548   2.005 -0.2396 -1.5644  1.1700
 2156SOL     OW18103   3.721   1.453   2.151  0.4004 -0.0010 -0.0976
 2156SOL    HW118104   3.700   1.468   2.243  0.3002 -1.0161  0.0430
 2156SOL    HW218105   3.735   1.358   2.156  2.1601  0.2968  0.2905
 2157SOL     OW18106   1.028   3.312   4.022  0.0227  0.1314  0.0676
 2157SOL    HW118107   1.122   3.313   4.005 -0.1908 -0.7631 -1.1368
 2157SOL    HW218108   1.002   3.221   4.013 -0.6772  0.1452  1.9348
 2158SOL     OW18109   0.170   4.710   3.281 -0.2788 -0.4814 -0.0568
 2158SOL    HW118110   0.238   0.038   3.303 -0.2532  0.0732 -1.6768
 2158SOL    HW218111   0.222   4.669   3.212  2.1167  0.1065  1.3953
 2159SOL     OW18112   2.553   3.605   5.558 -0.5201  0.1971 -0.6017
 2159SOL    HW118113   2.580   3.525   5.603 -1.4756 -0.8767 -1.9470
 2159SOL    HW218114   2.620   3.661   5.597 -1.4785  0.6685  0.3861
 2160SOL     OW18115   0.897   4.531  13.857  0.0996 -0.0214  0.2642
 2160SOL    HW118116   0.967   4.547  13.794  0.9346  1.9189  1.7013
 2160SOL    HW218117   0.932   4.572  13.936  0.7894  0.4520 -0.2911
 2161SOL     OW18118   2.010   4.236   5.482  0.3392 -0.2024  0.4560
 2161SOL    HW118119   1.979   4.195   5.563 -0.3315 -1.4387 -0.4351
 2161SOL    HW218120   2.101   4.206   5.479  0.3674 -0.2613  1.7955
 2162SOL     OW18121   2.655   0.833   6.633  0.3605  0.6905  0.2752
 2162SOL    HW118122   2.587   0.766   6.621  0.7797  0.0899  1.3302
 2162SOL    HW218123   2.727   0.799   6.581  0.2800  1.8658 -0.6236
 2163SOL     OW18124   1.392   3.476  10.939 -0.3715 -0.3274 -0.2742
 2163SOL    HW118125   1.309   3.440  10.909 -1.3908  1.3595  0.4862
 2163SOL    HW218126   1.369   3.559  10.980  0.0200 -1.2635  1.8708
 2164SOL     OW18127   4.514   3.153   6.701  0.2964  0.0981 -0.3194
 2164SOL    HW118128   4.604   3.168   6.669  0.4045  1.0333  0.4267
 2164SOL    HW218129   4.473   3.161   6.615  1.0632 -1.6238 -0.8505
 2165SOL     OW18130   3.266   2.033   3.431  0.5528  0.5411  0.2182
 2165SOL    HW118131   3.183   2.006   3.468 -0.0433  0.7846 -0.9335
 2165SOL    HW218132   3.234   2.101   3.372  1.0618 -0.1825 -0.8913
 2166SOL     OW18133   3.968   2.581   8.670 -0.2111 -0.6735  0.4927
 2166SOL    HW118134   3.969   2.642   8.743  2.3941  1.7426 -1.5989
 2166SOL    HW218135   3.886   2.537   8.692  0.0726 -1.0614  0.7713
 2167SOL     OW18136   3.903   3.120  16.887  0.4769 -1.0053 -0.0266
 2167SOL    HW118137   3.906   3.154  16.976 -1.4751  0.7545 -0.6308
 2167SOL    HW218138   3.830   3.167  16.846 -0.1222 -2.4890 -0.6553
 2168SOL     OW18139   4.412   3.395   6.805  0.0786 -0.0311 -0.6303
 2168SOL    HW118140   4.442   3.306   6.789  1.5338  0.5480 -1.1145
 2168SOL    HW218141   4.478   3.451   6.764 -1.3896  1.1260 -1.3991
 2169SOL     OW18142   1.937   3.766   8.916 -0.0886  0.0619  0.3120
 2169SOL    HW118143   1.963   3.857   8.901  1.1978 -0.2987  0.3400
 2169SOL    HW218144   1.946   3.737   8.825 -0.1540  1.5799 -0.1811
 2170SOL     OW18145   3.287   4.103  12.258 -0.1896  0.5212  0.2919
 2170SOL    HW118146   3.352   4.064  12.200 -0.0160  2.0819 -0.5644
 2170SOL    HW218147   3.214   4.144  12.210  0.4466  1.5551  0.1998
 2171SOL     OW18148   2.194   4.611   8.880  0.0297  0.5908  0.6210
 2171SOL    HW118149   2.220   4.665   8.955 -2.2938  1.3991  0.8238
 2171SOL    HW218150   2.187   4.682   8.816  0.4105  0.8200  0.8303
 2172SOL     OW18151   2.447   1.835   6.172 -0.4610  0.5728 -0.3625
 2172SOL    HW118152   2.427   1.747   6.202  0.2659  0.6550  0.3537
 2172SOL    HW218153   2.455   1.823   6.078  1.2571  0.7003 -0.2303
 2173SOL     OW18154   4.657   3.144   6.257  0.4729 -1.1154  0.1407
 2173SOL    HW118155   4.642   3.185   6.171 -0.3251 -1.2452  0.2164
 2173SOL    HW218156   4.578   3.168   6.305  0.3057 -1.7707  0.1932
 2174SOL     OW18157   1.472   2.443   4.261  0.1061  0.0720  0.1476
 2174SOL    HW118158   1.383   2.476   4.272 -0.1194 -0.7021  0.6321
 2174SOL    HW218159   1.500   2.497   4.187  0.6121  1.5256  1.3996
 2175SOL     OW18160   1.500   2.058  13.164  0.3057  0.2209 -0.4302
 2175SOL    HW118161   1.489   2.113  13.241 -0.8209  0.1839 -0.5599
 2175SOL    HW218162   1.415   2.065  13.121  0.2588  1.0991 -0.1992
 2176SOL     OW18163   1.616   1.010   8.793 -0.0788 -0.4886 -0.3528
 2176SOL    HW118164   1.607   0.938   8.856 -1.1772  0.7849  0.9346
 2176SOL    HW218165   1.688   0.983   8.736 -0.1473 -1.2756 -0.0798
 2177SOL     OW18166   2.403   1.366   6.414 -0.0181 -0.5263  0.0871
 2177SOL    HW118167   2.340   1.344   6.483 -0.3121  0.8750  0.2483
 2177SOL    HW218168   2.435   1.278   6.392 -0.7354 -1.2337  1.8615
 2178SOL     OW18169   1.306   3.741   6.892 -0.1629 -0.2609  0.1235
 2178SOL    HW118170   1.233   3.689   6.925  0.5728 -1.9120 -0.8432
 2178SOL    HW218171   1.248   3.801   6.844  0.2802  1.0339  1.2018
 2179SOL     OW18172   1.566   4.128   8.395 -0.1026  0.0165  0.2793
 2179SOL    HW118173   1.630   4.084   8.452 -0.4368 -1.5552 -0.5692
 2179SOL    HW218174   1.565   4.209   8.446  2.0200  1.0333 -1.2980
 2180SOL     OW18175   3.127   3.004  17.125  0.0176 -0.1763  0.2808
 2180SOL    HW118176   3.207   2.957  17.101  1.1535  1.6017  0.5801
 2180SOL    HW218177   3.083   2.988  17.042  0.2950 -1.7447  0.4274
 2181SOL     OW18178   0.109   4.212  16.690 -0.0525  0.0832 -0.0222
 2181SOL    HW118179   0.106   4.297  16.734 -0.1667 -1.0345  2.1336
 2181SOL    HW218180   0.169   4.227  16.617 -0.1652 -1.1848 -0.3781
 2182SOL     OW18181   0.410   4.636   5.563  0.2334 -0.1666  0.2345
 2182SOL    HW118182   0.351   4.669   5.495 -0.7741 -0.4848  0.9533
 2182SOL    HW218183   0.417   4.541   5.551  1.1691 -0.1793  0.8757
 2183SOL     OW18184   4.697   3.544  16.287  0.3193  0.2591  0.1545
 2183SOL    HW118185   4.678   3.480  16.356  1.1230  1.3525  1.3873
 2183SOL    HW218186   4.691   3.624  16.339  1.3993 -0.8105  1.9069
 2184SOL     OW18187   4.359   0.175  16.275 -0.2988 -0.2744  0.2354
 2184SOL    HW118188   4.335   0.214  16.359 -0.9105  0.7926 -0.4402
 2184SOL    HW218189   4.400   0.246  16.226 -1.1193 -0.3787 -0.6081
 2185SOL     OW18190   0.332   2.209   7.593 -0.3062 -0.5687  0.0547
 2185SOL    HW118191   0.292   2.274   7.535  1.0763  0.4277  0.2252
 2185SOL    HW218192   0.418   2.251   7.593 -1.0607  0.9914  0.5848
 2186SOL     OW18193   1.389   2.405   9.801  0.1766  0.8120  0.0700
 2186SOL    HW118194   1.473   2.427   9.842  1.7460 -1.1641 -2.0793
 2186SOL    HW218195   1.348   2.390   9.886  2.6849 -0.9396  0.9733
 2187SOL     OW18196   2.740   3.210  15.396 -0.1138 -0.8002 -0.1566
 2187SOL    HW118197   2.827   3.182  15.425  0.1284  2.2024  1.9121
 2187SOL    HW218198   2.712   3.141  15.335 -3.0898 -0.5423  0.9581
 2188SOL     OW18199   4.416   1.977   8.376 -0.0631 -0.2596 -0.4375
 2188SOL    HW118200   4.372   1.913   8.320 -0.3169 -0.7702  0.3480
 2188SOL    HW218201   4.475   2.017   8.312  0.8890  1.3001  1.4210
 2189SOL     OW18202   0.117   1.761  14.247  0.3954 -0.5267  0.2662
 2189SOL    HW118203   0.089   1.799  14.164  1.4791  1.0684  0.6248
 2189SOL    HW218204   0.068   1.811  14.312 -0.6843 -0.3707 -0.6635
 2190SOL     OW18205   2.303   3.649   8.369  0.6188  0.3351 -0.0842
 2190SOL    HW118206   2.367   3.578   8.361 -0.9833 -1.0940 -0.4380
 2190SOL    HW218207   2.320   3.694   8.451 -2.3757 -0.4277  0.9750
 2191SOL     OW18208   3.561   2.275  13.817  0.3167  0.0270 -0.2434
 2191SOL    HW118209   3.604   2.189  13.814 -2.1416 -1.1298 -1.7168
 2191SOL    HW218210   3.626   2.326  13.768  0.6165 -0.2372 -0.1173
 2192SOL     OW18211   3.698   2.462   8.734  0.2553  0.1819 -0.1321
 2192SOL    HW118212   3.626   2.516   8.701  0.8186  0.8897 -0.2036
 2192SOL    HW218213   3.674   2.430   8.820  0.8581  0.2770  0.0715
 2193SOL     OW18214   3.410   2.609   6.724  0.3257  0.3128  0.0703
 2193SOL    HW118215   3.453   2.529   6.694  2.2752  0.6473  1.9678
 2193SOL    HW218216   3.401   2.662   6.645 -0.9542  1.8247  1.2195
 2194SOL     OW18217   1.930   3.761   2.374  0.3148  0.0794 -0.0698
 2194SOL    HW118218   1.928   3.856   2.375 -2.5539  0.0409 -0.4451
 2194SOL    HW218219   1.841   3.734   2.398  0.0964  0.7889 -0.0763
 2195SOL     OW18220   1.181   0.686   2.628 -0.2410 -0.6960 -0.2877
 2195SOL    HW118221   1.233   0.713   2.703 -1.4405  0.0980  0.2647
 2195SOL    HW218222   1.228   0.608   2.600  0.7584 -0.6424  1.2785
 2196SOL     OW18223   2.717   3.796   0.786 -0.6554 -0.1076  0.1591
 2196SOL    HW118224   2.700   3.784   0.693 -0.0057  1.1944 -0.1252
 2196SOL    HW218225   2.783   3.729   0.801 -0.6917 -0.9394 -3.4527
 2197SOL     OW18226   0.836   1.729   9.521 -0.1067 -0.7872 -0.2096
 2197SOL    HW118227   0.788   1.729   9.438 -0.7314  3.1383  0.1956
 2197SOL    HW218228   0.782   1.797   9.560 -0.3255 -0.2758 -1.4076
 2198SOL     OW18229   0.245   0.225   5.595  0.1221 -0.3846  0.5688
 2198SOL    HW118230   0.238   0.318   5.572  0.4947 -0.5782 -0.3419
 2198SOL    HW218231   0.329   0.222   5.640 -1.0035  1.7243  2.7968
 2199SOL     OW18232   2.150   4.321  15.392  0.6661 -0.0314 -0.4609
 2199SOL    HW118233   2.179   4.352  15.478  1.0447 -3.4260  0.6234
 2199SOL    HW218234   2.227   4.341  15.339  0.8913  0.7068  0.1373
 2200SOL     OW18235   4.033   3.551   4.965 -0.6150  0.5922  0.0043
 2200SOL    HW118236   4.000   3.593   4.886 -1.7070  1.5455  0.9558
 2200SOL    HW218237   3.951   3.560   5.015 -0.6851  1.6853 -0.3119
 2201SOL     OW18238   1.564   1.627  10.301 -0.3554  0.6089  0.1664
 2201SOL    HW118239   1.511   1.705  10.317  1.6015  1.7882  0.8857
 2201SOL    HW218240   1.498   1.560  10.321 -1.0090  1.3260  0.3956
 2202SOL     OW18241   2.236   1.174  16.440 -0.0209 -0.1960  0.1544
 2202SOL    HW118242   2.221   1.090  16.397 -0.0065  0.0383 -0.3114
 2202SOL    HW218243   2.209   1.237  16.373 -0.5263  0.1414  0.6678
 2203SOL     OW18244   0.640   3.809   2.326  0.2061 -0.3431 -0.3210
 2203SOL    HW118245   0.598   3.892   2.304  0.3970 -0.3681 -0.7803
 2203SOL    HW218246   0.572   3.756   2.367 -0.3389  0.4164 -0.2290
 2204SOL     OW18247   3.582   1.233   7.929 -0.0088  0.5081 -0.4996
 2204SOL    HW118248   3.552   1.172   7.996 -1.4765 -0.1758 -1.7778
 2204SOL    HW218249   3.517   1.301   7.947 -1.5925 -1.0378 -0.3830
 2205SOL     OW18250   3.882   2.448   4.750 -0.0799  0.1994  0.2827
 2205SOL    HW118251   3.870   2.375   4.812  0.6768 -0.9825 -0.9681
 2205SOL    HW218252   3.874   2.525   4.806  1.8646  1.0219 -0.5743
 2206SOL     OW18253   2.061   4.373   5.894 -0.5021 -0.1418 -0.2856
 2206SOL    HW118254   1.968   4.390   5.906 -0.4194 -0.4313  0.7951
 2206SOL    HW218255   2.093   4.389   5.982  1.0678 -0.0560 -0.8754
 2207SOL     OW18256   4.645   1.084   1.866  0.4532  0.3117 -0.8016
 2207SOL    HW118257   4.658   1.006   1.921  0.8622  0.6425 -0.4233
 2207SOL    HW218258   4.676   1.049   1.783  1.5833 -1.7469  0.4923
 2208SOL     OW18259   4.112   1.091  15.502  0.5815  0.4149  0.0003
 2208SOL    HW118260   4.188   1.056  15.455  2.3757 -2.7568  5.2475
 2208SOL    HW218261   4.164   1.149  15.556  0.5627  0.3482  0.0916
 2209SOL     OW18262   2.791   3.076   8.779  0.1233  0.0834 -0.2197
 2209SOL    HW118263   2.784   3.132   8.857 -0.7705 -0.6581  0.2289
 2209SOL    HW218264   2.875   3.105   8.744 -0.9522  1.0637 -1.9880
 2210SOL     OW18265   1.792   0.795   3.106  0.0725  0.3865 -0.1282
 2210SOL    HW118266   1.858   0.775   3.039 -0.6092 -3.1764  0.2769
 2210SOL    HW218267   1.827   0.882   3.127 -0.8042  0.6897  0.0633
 2211SOL     OW18268   4.500   1.009   2.345 -0.0249 -0.5017  0.3292
 2211SOL    HW118269   4.581   1.058   2.361  0.8616 -2.0568  0.5267
 2211SOL    HW218270   4.518   0.928   2.392 -0.3249  0.1682  1.6057
 2212SOL     OW18271   1.077   4.405  14.695  0.4394  0.5948 -0.2023
 2212SOL    HW118272   1.091   4.430  14.603 -3.6861  1.5884 -0.5453
 2212SOL    HW218273   1.019   4.330  14.675  1.2717 -0.1953  0.3585
 2213SOL     OW18274   1.003   2.334   9.581 -0.4391 -0.1240 -0.1088
 2213SOL    HW118275   1.083   2.379   9.552 -0.4015 -0.2695 -0.2296
 2213SOL    HW218276   1.035   2.297   9.663 -1.4978  2.3402  1.4472
 2214SOL     OW18277   2.871   2.111   6.962  1.0612  0.2650  0.3141
 2214SOL    HW118278   2.777   2.125   6.954  1.0755  1.1263  1.7799
 2214SOL    HW218279   2.893   2.191   7.008  0.8553  0.7849 -0.4850
 2215SOL     OW18280   3.011   0.563   3.613 -0.3526  0.6156  0.2998
 2215SOL    HW118281   3.090   0.535   3.659 -1.1349 -1.0890  0.6315
 2215SOL    HW218282   2.959   0.617   3.672 -0.0435 -0.6813  1.7773
 2216SOL     OW18283   1.514   2.006   5.229 -0.4139  0.2520 -0.2144
 2216SOL    HW118284   1.419   2.021   5.224  0.0027  2.6187 -0.9702
 2216SOL    HW218285   1.533   2.081   5.287  1.1340  0.5676 -1.1364
 2217SOL     OW18286   0.200   3.912   7.105 -0.6222  0.4562  0.1355
 2217SOL    HW118287   0.266   3.900   7.173 -1.4229 -0.4729  0.7548
 2217SOL    HW218288   0.126   3.867   7.147  1.0557 -1.5271  0.9666
 2218SOL     OW18289   3.447   0.618   2.344  0.1845  0.1986  0.3388
 2218SOL    HW118290   3.365   0.666   2.339 -0.2506 -0.7529 -1.5299
 2218SOL    HW218291   3.431   0.550   2.410 -2.6226  2.2327  1.7371
 2219SOL     OW18292   3.065   0.106   4.211 -0.0714  0.2093 -0.0333
 2219SOL    HW118293   2.977   0.104   4.172  0.0219  0.3760 -0.2460
 2219SOL    HW218294   3.075   0.016   4.243  0.9161  0.2124 -0.3438
 2220SOL     OW18295   3.132   0.956  14.219 -0.2692  0.4317  0.1108
 2220SOL    HW118296   3.183   0.876  14.206  0.4336  0.9119 -0.1211
 2220SOL    HW218297   3.045   0.927  14.194 -0.7595  1.1029  1.0334
 2221SOL     OW18298   2.893   2.930   0.532  0.4824 -0.2434  0.7879
 2221SOL    HW118299   2.935   3.013   0.554 -0.9670  0.3702  1.2332
 2221SOL    HW218300   2.901   2.945   0.438  1.0310 -2.2386  0.5133
 2222SOL     OW18301   0.744   2.160   1.769 -0.1281  0.1086 -0.6287
 2222SOL    HW118302   0.699   2.218   1.830 -2.8376 -1.1325 -1.4357
 2222SOL    HW218303   0.707   2.075   1.793 -2.1085  2.1284  3.4875
 2223SOL     OW18304   4.252   1.412   4.687  0.3247  0.7741 -0.0951
 2223SOL    HW118305   4.324   1.462   4.726  2.1191 -0.7448 -1.4965
 2223SOL    HW218306   4.292   1.399   4.601  0.2649  0.4347 -0.0701
 2224SOL     OW18307   0.808   0.648   8.362  1.1041  0.0424  0.3122
 2224SOL    HW118308   0.771   0.569   8.323 -0.6030  0.6719  0.6179
 2224SOL    HW218309   0.899   0.620   8.355  0.9486 -0.4253  0.1742
 2225SOL     OW18310   3.009   3.299   1.885 -0.0618 -0.2405 -0.0856
 2225SOL    HW118311   2.993   3.383   1.927  0.5506 -1.6820  3.1144
 2225SOL    HW218312   3.025   3.236   1.956  2.3525 -0.2658 -0.6667
 2226SOL     OW18313   2.288   2.829   7.310 -0.0299  1.1268 -0.2656
 2226SOL    HW118314   2.361   2.845   7.251  2.2062 -2.7377  1.5355
 2226SOL    HW218315   2.214   2.853   7.253  1.1828 -0.6505 -2.6158
 2227SOL     OW18316   3.286   2.266   7.744  0.2003 -0.2071  0.5648
 2227SOL    HW118317   3.358   2.233   7.691 -2.1638 -3.1075 -0.8293
 2227SOL    HW218318   3.328   2.347   7.774  0.5594  0.2018 -1.0237
 2228SOL     OW18319   0.064   1.952   8.831  0.0858  0.5424  0.5447
 2228SOL    HW118320   4.723   1.916   8.787  2.6663 -1.1984 -2.6294
 2228SOL    HW218321   0.032   2.039   8.852 -0.7279  0.3419  0.1300
 2229SOL     OW18322   0.383   1.523   3.315  0.0914 -0.0721 -0.0869
 2229SOL    HW118323   0.357   1.431   3.312  0.3833 -0.1763  0.8718
 2229SOL    HW218324   0.457   1.506   3.372 -0.3344 -2.8976 -0.3842
 2230SOL     OW18325   3.757   1.252   0.454 -0.0547 -0.4400  0.1870
 2230SOL    HW118326   3.696   1.232   0.524  0.7709  1.4056  1.4351
 2230SOL    HW218327   3.750   1.348   0.452  1.9096 -0.2758  0.8228
 2231SOL     OW18328   2.704   3.020  17.093  0.1166  0.3264  0.4066
 2231SOL    HW118329   2.758   3.090  17.130  2.3970 -1.5163  0.5679
 2231SOL    HW218330   2.742   2.941  17.130  0.3719 -0.1572 -0.8963
 2232SOL     OW18331   0.667   3.638   8.584  0.5121  0.2409 -0.1889
 2232SOL    HW118332   0.742   3.610   8.636  0.5450 -0.6864 -0.7290
 2232SOL    HW218333   0.688   3.582   8.509  0.2166 -1.9529  1.3573
 2233SOL     OW18334   4.375   3.712   6.370  0.0758  0.0735 -0.4010
 2233SOL    HW118335   4.366   3.627   6.412  1.2366  0.0245 -0.2442
 2233SOL    HW218336   4.309   3.757   6.423  1.7183  0.5082  1.2964
 2234SOL     OW18337   4.017   2.739   6.787 -0.3254  0.0972  0.2677
 2234SOL    HW118338   4.015   2.654   6.743  1.9262 -0.2869  0.9017
 2234SOL    HW218339   3.940   2.744   6.844  1.2745  0.0939  2.4373
 2235SOL     OW18340   4.294   1.950   3.838  0.4255 -0.2771 -0.3609
 2235SOL    HW118341   4.336   1.924   3.756 -1.4232 -1.0729 -1.0628
 2235SOL    HW218342   4.284   1.860   3.868 -1.5448 -0.1663 -0.6364
 2236SOL     OW18343   0.695   3.597   7.357  0.0219  0.0167 -0.3194
 2236SOL    HW118344   0.651   3.539   7.420  0.3465 -2.5783 -2.4804
 2236SOL    HW218345   0.723   3.672   7.409 -0.0631 -0.6269  0.6580
 2237SOL     OW18346   0.170   4.061  14.308 -0.5541  0.4711  0.2269
 2237SOL    HW118347   0.093   4.031  14.357 -2.4697  4.4066 -0.3200
 2237SOL    HW218348   0.192   4.143  14.353 -0.1765 -0.1775  1.2125
 2238SOL     OW18349   1.727   4.729   7.623 -0.3092 -0.1801  0.0404
 2238SOL    HW118350   1.649   4.678   7.644 -0.5885  0.6891  1.1486
 2238SOL    HW218351   1.737   0.044   7.704 -0.9026 -0.1459  0.0888
 2239SOL     OW18352   3.508   3.201   3.944  0.1340  0.1191 -0.7885
 2239SOL    HW118353   3.597   3.237   3.941  0.2030  0.1756  1.6297
 2239SOL    HW218354   3.451   3.273   3.919 -0.5838 -0.2976 -0.3361
 2240SOL     OW18355   2.987   1.786   8.489  0.0137  0.5169  0.4325
 2240SOL    HW118356   2.917   1.728   8.457 -1.0158  3.5022 -2.7331
 2240SOL    HW218357   2.997   1.757   8.579  0.9302  0.6166  0.3564
 2241SOL     OW18358   4.456   0.012  17.186 -0.4223  0.3206 -0.2978
 2241SOL    HW118359   4.441   4.667  17.236  1.6929  1.7073  2.5759
 2241SOL    HW218360   4.476   0.068  17.261  1.1995 -0.1862 -0.3474
 2242SOL     OW18361   3.061   3.797   7.947  0.3407  0.0640  0.1113
 2242SOL    HW118362   3.083   3.770   8.037 -0.6287 -0.5621  0.1640
 2242SOL    HW218363   2.968   3.819   7.953  0.1575 -0.3477 -1.1947
 2243SOL     OW18364   1.450   2.705   8.193 -0.2583 -0.3079  1.1056
 2243SOL    HW118365   1.452   2.794   8.159  3.2814 -0.7288  0.2552
 2243SOL    HW218366   1.512   2.651   8.143 -0.0044 -0.3862  1.5120
 2244SOL     OW18367   3.432   3.116   4.490  0.4098 -0.2351  0.0363
 2244SOL    HW118368   3.462   3.025   4.492  0.9273 -0.0644  0.1026
 2244SOL    HW218369   3.410   3.106   4.397  1.7464  0.0260 -0.3179
 2245SOL     OW18370   1.233   2.345  15.771  0.2275  0.4220 -0.3391
 2245SOL    HW118371   1.306   2.401  15.795 -0.8330  1.9155 -0.6080
 2245SOL    HW218372   1.169   2.359  15.840  0.8153  2.0486 -0.1355
 2246SOL     OW18373   3.291   3.869   5.398 -0.9497 -0.2206 -0.0455
 2246SOL    HW118374   3.283   3.955   5.438 -0.7793 -1.1682  2.0141
 2246SOL    HW218375   3.243   3.803   5.449 -0.7714  0.0759  0.5039
 2247SOL     OW18376   1.991   1.984   3.875 -0.2121  0.1667  0.5476
 2247SOL    HW118377   1.946   2.050   3.928 -2.0232 -0.7487  0.1594
 2247SOL    HW218378   1.992   2.028   3.790  4.3173  0.8267  0.9497
 2248SOL     OW18379   2.424   1.799   6.453  0.0421  0.0439 -0.1588
 2248SOL    HW118380   2.460   1.824   6.368  3.1771 -1.0433  0.8493
 2248SOL    HW218381   2.476   1.719   6.455 -0.4845 -0.2832  0.2762
 2249SOL     OW18382   1.496   1.783   3.309  0.1232  0.1558 -0.3176
 2249SOL    HW118383   1.487   1.735   3.226  0.3976 -2.1889  0.9997
 2249SOL    HW218384   1.448   1.731   3.373  0.8902 -1.2297 -0.8648
 2250SOL     OW18385   0.891   2.709   5.196  0.3242  0.1073  0.2473
 2250SOL    HW118386   0.961   2.666   5.247  0.9149  1.8566  0.9096
 2250SOL    HW218387   0.845   2.771   5.252 -1.1278 -1.4195  0.7644
 2251SOL     OW18388   2.031   2.603   2.394 -0.5840  0.1894 -0.2434
 2251SOL    HW118389   2.124   2.587   2.404 -0.6732 -0.7002 -0.8397
 2251SOL    HW218390   1.999   2.598   2.484 -0.6295 -0.4602 -0.2963
 2252SOL     OW18391   0.165   1.149   4.341 -0.2873  0.2491  0.0572
 2252SOL    HW118392   0.251   1.147   4.383 -1.4306 -2.0603  2.2579
 2252SOL    HW218393   0.174   1.187   4.253 -3.9288  2.2282  0.5430
 2253SOL     OW18394   0.258   1.685  15.807  0.5451 -0.1292 -0.0339
 2253SOL    HW118395   0.201   1.762  15.801  1.5013  0.5874  0.0188
 2253SOL    HW218396   0.249   1.641  15.891 -1.5696  0.1698 -0.1083
 2254SOL     OW18397   3.728   2.099   7.525  0.0675 -0.2196 -0.1999
 2254SOL    HW118398   3.751   2.037   7.594 -0.0056 -1.1784 -1.0202
 2254SOL    HW218399   3.632   2.093   7.516  0.1812 -0.0565 -1.5712
 2255SOL     OW18400   0.808   4.154   5.793  0.1471 -0.6450  0.0155
 2255SOL    HW118401   0.777   4.207   5.720  1.4039  0.1491  0.0605
 2255SOL    HW218402   0.842   4.218   5.856 -1.2168 -0.2144  0.3300
 2256SOL     OW18403   1.067   2.846   7.977  0.0444  0.1656 -0.3376
 2256SOL    HW118404   0.974   2.823   7.977  0.5142 -1.8431  0.7207
 2256SOL    HW218405   1.097   2.803   8.058 -0.5248  1.2875  0.4559
 2257SOL     OW18406   1.758   3.150   0.631 -0.1303  0.1708  0.4475
 2257SOL    HW118407   1.732   3.139   0.540  0.4098 -0.8703  0.4136
 2257SOL    HW218408   1.825   3.083   0.646 -0.1411 -0.1693 -1.0071
 2258SOL     OW18409   3.786   2.221  17.584  0.2839 -0.0101 -0.0274
 2258SOL    HW118410   3.783   2.182  17.671 -0.3293 -1.3960 -0.6721
 2258SOL    HW218411   3.878   2.237  17.603 -0.1277 -0.3809  2.3166
 2259SOL     OW18412   0.063   1.843   4.380 -0.0266  0.3249 -0.0688
 2259SOL    HW118413   4.707   1.854   4.403  0.8764  1.3690  2.9719
 2259SOL    HW218414   0.117   1.883   4.447 -0.7618 -2.8009  2.4156
 2260SOL     OW18415   1.446   3.801   4.159  0.0661  0.3298  0.3398
 2260SOL    HW118416   1.452   3.897   4.161 -0.1661  0.3567 -0.3533
 2260SOL    HW218417   1.409   3.779   4.074  2.0483  1.1654 -0.7475
 2261SOL     OW18418   0.042   0.403   8.953  0.0345  0.1521 -0.1068
 2261SOL    HW118419   0.064   0.479   9.007 -1.3777 -0.9033  1.9142
 2261SOL    HW218420   0.119   0.346   8.961  1.0747  1.6183  0.2626
 2262SOL     OW18421   3.929   0.679  12.744  0.3637  0.5959 -0.0097
 2262SOL    HW118422   3.916   0.591  12.710 -1.3236  0.4704  0.9494
 2262SOL    HW218423   4.025   0.678  12.747  0.4320  0.6827 -2.0555
 2263SOL     OW18424   3.383   2.404   2.487 -0.2634 -0.0093  0.5075
 2263SOL    HW118425   3.430   2.364   2.413  1.0409  0.4581  1.0858
 2263SOL    HW218426   3.390   2.337   2.554  0.5742 -0.2658  0.1703
 2264SOL     OW18427   3.022   3.896  16.315 -0.4160  0.3153 -0.0078
 2264SOL    HW118428   3.059   3.980  16.286  1.6728  0.0881  2.0173
 2264SOL    HW218429   3.016   3.851  16.231  1.4186  1.8121 -0.9426
 2265SOL     OW18430   3.439   2.840   3.027 -0.0460 -0.3645  0.1017
 2265SOL    HW118431   3.470   2.759   2.987  0.0697 -0.5500  0.5629
 2265SOL    HW218432   3.430   2.900   2.953 -1.1746 -0.9931 -0.2660
 2266SOL     OW18433   4.287   2.039   3.042  0.3362 -0.4987  0.3470
 2266SOL    HW118434   4.328   1.955   3.057 -1.1785 -1.2455  0.3187
 2266SOL    HW218435   4.317   2.094   3.115 -1.6368  2.1710 -0.8514
 2267SOL     OW18436   3.602   1.088   7.608 -0.1310  0.1443  0.0589
 2267SOL    HW118437   3.678   1.099   7.665 -1.4036  1.0311  1.5878
 2267SOL    HW218438   3.527   1.072   7.665  1.0216 -0.4133  1.4105
 2268SOL     OW18439   0.934   1.140   3.120 -0.1866  0.3482 -0.5237
 2268SOL    HW118440   0.864   1.199   3.093 -0.1089  1.0683  0.8353
 2268SOL    HW218441   0.898   1.053   3.102  0.2224  0.1742 -0.4834
 2269SOL     OW18442   2.242   0.694  15.283  0.2811 -0.1763 -0.2014
 2269SOL    HW118443   2.296   0.704  15.205  0.1561  1.7778 -0.0357
 2269SOL    HW218444   2.179   0.632  15.248  0.0058  0.6546 -1.1644
 2270SOL     OW18445   3.834   0.628  17.425  0.2579 -0.8368  0.1141
 2270SOL    HW118446   3.799   0.548  17.386  1.5202 -0.6387 -1.4180
 2270SOL    HW218447   3.879   0.588  17.498 -0.0037  1.6681  1.6633
 2271SOL     OW18448   4.108   0.937   6.949  0.2716  0.4641  0.2666
 2271SOL    HW118449   4.026   0.987   6.951 -0.4118 -0.6959  0.6164
 2271SOL    HW218450   4.151   0.985   7.020 -1.8047  3.1232 -0.2746
 2272SOL     OW18451   3.302   4.467  10.476  0.6993 -0.7751  0.2097
 2272SOL    HW118452   3.289   4.482  10.570  0.0549 -0.7103  0.1145
 2272SOL    HW218453   3.216   4.500  10.451  0.8325 -0.3336  0.3461
 2273SOL     OW18454   1.976   1.637  14.043  0.6177 -0.0772 -0.1540
 2273SOL    HW118455   1.903   1.688  14.010  1.0203 -0.7530 -2.0544
 2273SOL    HW218456   2.021   1.691  14.109  0.5988  0.2354 -0.3960
 2274SOL     OW18457   0.484   1.332  11.907 -0.0071  0.1614  0.0625
 2274SOL    HW118458   0.421   1.403  11.917 -1.0914 -0.7026 -0.7655
 2274SOL    HW218459   0.447   1.290  11.830 -0.4799  0.2662  0.2373
 2275SOL     OW18460   2.827   2.341   5.506 -0.1438 -0.2207 -0.3719
 2275SOL    HW118461   2.817   2.428   5.467 -0.8354 -0.0981  0.0660
 2275SOL    HW218462   2.779   2.291   5.440  0.9160 -1.6911 -0.0197
 2276SOL     OW18463   2.118   2.662   6.466 -0.0016  0.2312 -0.1547
 2276SOL    HW118464   2.077   2.745   6.441  2.8297  0.5773 -3.7078
 2276SOL    HW218465   2.166   2.637   6.387 -1.7079 -2.8099 -0.2372
 2277SOL     OW18466   0.331   4.218  14.637  0.1101  0.1013 -0.0391
 2277SOL    HW118467   0.404   4.165  14.604  0.4664  0.3072  0.4140
 2277SOL    HW218468   0.298   4.266  14.561 -0.2510 -0.2855 -0.1236
 2278SOL     OW18469   2.065   3.338   5.346 -0.2560 -0.5103 -0.2059
 2278SOL    HW118470   2.070   3.415   5.403 -4.0554 -1.3469  1.2433
 2278SOL    HW218471   2.090   3.261   5.397 -2.7192 -1.2254 -0.0782
 2279SOL     OW18472   1.493   3.110   3.872 -0.1371  0.5249 -0.0626
 2279SOL    HW118473   1.404   3.076   3.871 -0.2102  0.6711  1.2839
 2279SOL    HW218474   1.538   3.037   3.915  0.1459 -0.1981 -1.5962
 2280SOL     OW18475   1.924   3.725  14.397 -0.0023 -0.1848 -0.1235
 2280SOL    HW118476   1.942   3.636  14.366  0.2358 -0.1528 -0.0736
 2280SOL    HW218477   2.006   3.773  14.392 -0.4191  0.4878 -0.4414
 2281SOL     OW18478   2.214   3.870   0.257 -0.0671  0.4916  0.2410
 2281SOL    HW118479   2.221   3.908   0.170  0.4246 -0.3107 -0.0747
 2281SOL    HW218480   2.219   3.780   0.227 -0.2043  0.3708  0.5720
 2282SOL     OW18481   2.567   0.319   4.927  0.6555 -0.2320  0.0198
 2282SOL    HW118482   2.643   0.344   4.876 -0.0027 -0.3009 -0.9986
 2282SOL    HW218483   2.538   0.234   4.892 -0.7921 -0.6798  2.2676
 2283SOL     OW18484   2.624   4.661  12.721  0.5131  0.4975  0.5125
 2283SOL    HW118485   2.582   0.011  12.727  0.4780  0.4081  1.5158
 2283SOL    HW218486   2.557   4.604  12.759 -0.0564  1.3367  0.7549
 2284SOL     OW18487   1.306   1.817   7.693  0.1205 -0.3963 -0.0364
 2284SOL    HW118488   1.223   1.863   7.710  0.4462  0.6505 -1.1927
 2284SOL    HW218489   1.354   1.852   7.767 -1.1276  1.0259  0.1214
 2285SOL     OW18490   2.249   3.424  17.357 -0.4096  0.3070  0.4128
 2285SOL    HW118491   2.308   3.478  17.304 -0.0399  1.2995  1.8273
 2285SOL    HW218492   2.170   3.437  17.306  1.1864  1.9925 -1.6436
 2286SOL     OW18493   4.629   3.839   8.491 -0.7513 -0.2740 -0.1076
 2286SOL    HW118494   4.696   3.857   8.556  0.4877  0.6944 -1.6383
 2286SOL    HW218495   4.638   3.909   8.426  2.1012 -1.7063 -1.2773
 2287SOL     OW18496   0.192   1.563   0.385 -0.1563  0.3443 -0.0907
 2287SOL    HW118497   0.233   1.620   0.320  1.1613  0.0887  0.4985
 2287SOL    HW218498   0.103   1.556   0.352 -0.5313 -0.1866  1.0548
 2288SOL     OW18499   0.730   3.358   9.463  0.3034  0.1177 -0.3107
 2288SOL    HW118500   0.639   3.344   9.439 -0.7396 -1.0964  4.2859
 2288SOL    HW218501   0.730   3.401   9.549  3.1952 -0.2041 -0.1292
 2289SOL     OW18502   3.259   2.237   4.982 -0.4876  0.1156  0.8994
 2289SOL    HW118503   3.302   2.171   4.927 -0.0240 -0.4399  1.9151
 2289SOL    HW218504   3.221   2.170   5.040  2.0243 -1.2846  0.9069
 2290SOL     OW18505   2.092   0.338   8.529  0.3438 -0.2032 -0.0416
 2290SOL    HW118506   2.030   0.401   8.494  1.5903  1.7433  1.2519
 2290SOL    HW218507   2.090   0.273   8.459 -1.5434 -2.3886  2.0514
 2291SOL     OW18508   3.582   3.788   7.486 -0.2222  0.4272 -0.3099
 2291SOL    HW118509   3.561   3.723   7.420 -1.2266 -0.3768  0.7975
 2291SOL    HW218510   3.676   3.791   7.471 -0.3976  2.0836 -1.1078
 2292SOL     OW18511   1.583   0.984   3.867  0.1629  0.6250 -0.1431
 2292SOL    HW118512   1.639   0.959   3.940 -1.3931  1.3544  1.3148
 2292SOL    HW218513   1.614   1.072   3.846 -3.2810  2.3747  1.9889
 2293SOL     OW18514   3.185   1.993   2.987  0.3904  0.0747  0.2791
 2293SOL    HW118515   3.175   1.994   2.892 -1.2761 -0.3329  0.4534
 2293SOL    HW218516   3.281   1.985   2.993  0.3417  0.9568  2.3357
 2294SOL     OW18517   1.935   1.166   3.494  0.1585 -0.9126 -1.1533
 2294SOL    HW118518   1.849   1.207   3.503  0.8625  0.3804 -0.3398
 2294SOL    HW218519   1.951   1.187   3.402 -1.0502 -1.9723 -1.6115
 2295SOL     OW18520   2.997   3.367   5.474  0.0941  0.4791  0.7765
 2295SOL    HW118521   3.046   3.334   5.399 -2.1647  3.4358 -1.9799
 2295SOL    HW218522   2.906   3.353   5.447  0.3020  2.1428 -0.7571
 2296SOL     OW18523   3.207   0.732   3.296 -0.2552  0.3323  0.2781
 2296SOL    HW118524   3.268   0.736   3.223  1.1789  0.5552  1.4684
 2296SOL    HW218525   3.217   0.820   3.331  1.8789  1.2223 -2.6326
 2297SOL     OW18526   0.625   0.758   2.542  0.8793 -0.5647  0.6173
 2297SOL    HW118527   0.629   0.664   2.529  1.5315 -0.1337 -2.2282
 2297SOL    HW218528   0.717   0.783   2.549  0.6001  0.5588  0.4486
 2298SOL     OW18529   2.045   0.847  10.597 -0.0825 -0.1592  0.2029
 2298SOL    HW118530   2.098   0.828  10.674  0.0305 -2.4360 -0.4301
 2298SOL    HW218531   2.058   0.941  10.588 -1.5472 -0.1310 -1.6431
 2299SOL     OW18532   1.146   2.973   8.679  0.5204  0.7133 -0.3421
 2299SOL    HW118533   1.196   2.986   8.598  1.3693 -0.6040 -0.0149
 2299SOL    HW218534   1.163   3.066   8.699  3.6979  0.1421 -0.3668
 2300SOL     OW18535   3.836   4.374   3.841 -0.1925 -0.1191 -0.8003
 2300SOL    HW118536   3.750   4.385   3.883  0.7076 -0.1605  1.0808
 2300SOL    HW218537   3.858   4.461   3.807 -0.5203 -0.0975 -0.9615
 2301SOL     OW18538   3.627   0.734  13.243 -1.1649  0.2479  0.1893
 2301SOL    HW118539   3.589   0.664  13.297 -0.7610  0.9663  1.3980
 2301SOL    HW218540   3.546   0.755  13.197 -0.1007  2.6592 -0.5650
 2302SOL     OW18541   4.566   0.325  12.841  0.0867  0.2831  0.0021
 2302SOL    HW118542   4.613   0.408  12.840  0.2501  0.1627 -2.2090
 2302SOL    HW218543   4.632   0.255  12.832 -2.2292 -2.1084  1.5811
 2303SOL     OW18544   2.344   4.305  10.118 -0.8399  0.2935 -0.6815
 2303SOL    HW118545   2.437   4.329  10.124 -1.6463  3.1628  0.4664
 2303SOL    HW218546   2.323   4.345  10.203 -0.5401  0.6657 -0.7827
 2304SOL     OW18547   4.118   3.502   7.386  0.1300 -0.5776  0.0139
 2304SOL    HW118548   4.086   3.487   7.297 -2.0608  1.1842  0.5330
 2304SOL    HW218549   4.042   3.487   7.442 -0.3819 -0.7136 -0.7136
 2305SOL     OW18550   0.783   1.548   5.825 -0.2636  0.0433 -0.6210
 2305SOL    HW118551   0.872   1.516   5.844 -0.2598  0.8563  0.7233
 2305SOL    HW218552   0.736   1.533   5.907 -0.0671  0.3762 -0.4488
 2306SOL     OW18553   0.337   2.673   2.305 -0.3095  0.1238  0.5659
 2306SOL    HW118554   0.353   2.583   2.275 -2.0404  0.3899 -1.1982
 2306SOL    HW218555   0.243   2.663   2.324 -0.9455  2.1567 -1.5905
 2307SOL     OW18556   3.438   1.709   1.993  0.3566  0.0224  0.7398
 2307SOL    HW118557   3.479   1.624   1.976  2.2793  1.0524  0.2251
 2307SOL    HW218558   3.356   1.679   2.032 -0.3289  1.3067  0.2662
 2308SOL     OW18559   2.236   4.005   0.844  0.2513 -0.9023  0.2705
 2308SOL    HW118560   2.142   4.018   0.852  0.2442 -0.4677 -0.4782
 2308SOL    HW218561   2.252   3.944   0.916  1.6864  0.0039  0.7096
 2309SOL     OW18562   3.893   2.075   5.190  0.0429 -0.1287 -0.2347
 2309SOL    HW118563   3.854   2.136   5.253  2.9373  0.6946  0.7962
 2309SOL    HW218564   3.832   2.004   5.210  0.6850 -0.9295 -1.1473
 2310SOL     OW18565   1.884   1.675   5.930  0.0162  0.2814 -1.2025
 2310SOL    HW118566   1.851   1.668   6.019  1.6815 -1.1248 -0.7070
 2310SOL    HW218567   1.816   1.726   5.886  0.1260 -1.4251 -3.3550
 2311SOL     OW18568   0.869   2.649   4.143  0.4863 -0.7336 -0.3253
 2311SOL    HW118569   0.887   2.678   4.233 -2.4013 -0.6242  0.2059
 2311SOL    HW218570   0.847   2.737   4.111  1.8858 -0.7561 -1.3475
 2312SOL     OW18571   4.348   1.111   5.134  0.2947  0.4805 -0.1647
 2312SOL    HW118572   4.314   1.054   5.203 -0.3726  0.9957 -0.0699
 2312SOL    HW218573   4.386   1.190   5.174  0.3763 -0.5149  1.7120
 2313SOL     OW18574   2.322   3.055   5.406  0.2166 -0.1291  0.6913
 2313SOL    HW118575   2.227   3.071   5.402  0.0684 -0.9269  0.9428
 2313SOL    HW218576   2.323   2.960   5.390  1.4358  0.0822 -0.4979
 2314SOL     OW18577   2.045   2.249   5.170  0.5692 -0.5356  0.3169
 2314SOL    HW118578   2.028   2.155   5.163 -0.9161 -0.3071  0.8036
 2314SOL    HW218579   1.969   2.290   5.212  1.6335 -0.0039  1.7228
 2315SOL     OW18580   1.363   1.036   1.196 -0.0999  0.1873 -0.1072
 2315SOL    HW118581   1.326   1.016   1.282  3.5030 -0.2902  1.3365
 2315SOL    HW218582   1.366   1.132   1.201 -0.3988  0.2401 -0.9209
 2316SOL     OW18583   0.780   2.417   6.107  0.0070 -0.2915  1.0816
 2316SOL    HW118584   0.858   2.472   6.111 -0.5371  0.5194  0.5625
 2316SOL    HW218585   0.758   2.403   6.199 -1.5277 -0.9729  0.6110
 2317SOL     OW18586   2.861   3.760   1.914 -0.5736 -0.2517  0.1176
 2317SOL    HW118587   2.803   3.765   1.991  1.4590 -0.4811  1.6778
 2317SOL    HW218588   2.808   3.709   1.854 -2.3288  0.2804  1.2241
 2318SOL     OW18589   3.731   0.481   1.732  0.1552 -0.1637 -0.0094
 2318SOL    HW118590   3.765   0.505   1.646  0.3168  0.4999  0.2370
 2318SOL    HW218591   3.800   0.428   1.774 -0.2251 -1.0792 -0.5377
 2319SOL     OW18592   0.612   2.953   6.794 -0.2318 -0.1112  0.3071
 2319SOL    HW118593   0.682   3.018   6.793 -0.0211 -0.3411  0.0736
 2319SOL    HW218594   0.668   2.876   6.782 -1.4833 -0.6434 -1.9383
 2320SOL     OW18595   3.078   4.399   3.174 -0.3116 -0.4166 -0.2126
 2320SOL    HW118596   3.033   4.429   3.095  0.3148 -2.7060 -1.4477
 2320SOL    HW218597   3.051   4.307   3.175  0.7392 -0.7100  0.8998
 2321SOL     OW18598   2.964   0.190   6.407 -0.1004  0.3808 -0.2815
 2321SOL    HW118599   2.883   0.145   6.385 -0.3214  0.6489 -0.0300
 2321SOL    HW218600   2.987   0.145   6.488  0.9044 -0.3517 -0.9851
 2322SOL     OW18601   0.863   3.889   8.819  0.0294 -0.5200  0.0913
 2322SOL    HW118602   0.821   3.945   8.754 -0.3964 -0.7211  0.1988
 2322SOL    HW218603   0.903   3.946   8.886 -1.7269 -1.1452  1.6805
 2323SOL     OW18604   1.629   3.356  10.776 -0.7453  0.2694 -0.0895
 2323SOL    HW118605   1.600   3.354  10.685  1.7639 -2.1037 -0.8292
 2323SOL    HW218606   1.553   3.396  10.818 -0.4854  1.7564 -1.0272
 2324SOL     OW18607   0.896   0.707  13.709  0.0859  0.1396 -0.0921
 2324SOL    HW118608   0.817   0.696  13.656  0.6240 -1.0640 -0.6358
 2324SOL    HW218609   0.926   0.789  13.669 -1.1810 -0.2753 -1.9161
 2325SOL     OW18610   3.229   1.365   2.784  0.4264 -0.2019  0.0006
 2325SOL    HW118611   3.284   1.301   2.828  0.5123 -0.1738 -0.0657
 2325SOL    HW218612   3.198   1.312   2.711 -0.8975 -0.6677  0.8961
 2326SOL     OW18613   1.664   0.346  16.907  0.5396  0.5458 -0.2963
 2326SOL    HW118614   1.655   0.427  16.857 -0.7652  0.1129 -0.7598
 2326SOL    HW218615   1.720   0.288  16.855  1.9332  0.3976  1.3760
 2327SOL     OW18616   3.640   3.636   2.029 -0.4588  0.4753 -0.1809
 2327SOL    HW118617   3.730   3.656   2.006  0.1479 -0.7945  1.0817
 2327SOL    HW218618   3.647   3.552   2.073  1.2151  0.8109  0.2039
 2328SOL     OW18619   0.888   2.580   2.776 -0.2257 -0.8858 -0.0439
 2328SOL    HW118620   0.837   2.548   2.701 -0.2672  1.4060 -1.0103
 2328SOL    HW218621   0.875   2.508   2.837  3.2461 -1.2602  0.2544
 2329SOL     OW18622   3.621   3.387   5.901 -0.0635 -0.3606 -0.0287
 2329SOL    HW118623   3.655   3.327   5.835 -3.1630 -0.6739 -1.3369
 2329SOL    HW218624   3.604   3.328   5.974  1.1624  0.5748  1.0297
 2330SOL     OW18625   1.935   3.839   7.284  0.3992  0.7520  0.2481
 2330SOL    HW118626   1.964   3.751   7.263 -0.8958  0.5521 -0.7251
 2330SOL    HW218627   2.007   3.890   7.246  1.4027 -1.0998 -0.3408
 2331SOL     OW18628   0.851   1.851   2.810 -0.5364  0.3855  0.1702
 2331SOL    HW118629   0.928   1.905   2.829  1.0421 -1.5861 -0.5299
 2331SOL    HW218630   0.851   1.792   2.885 -1.0735  1.2566  0.8585
 2332SOL     OW18631   1.871   4.379   3.886 -0.0079  0.5189  0.4981
 2332SOL    HW118632   1.783   4.417   3.883 -0.4654 -0.4756  1.2410
 2332SOL    HW218633   1.926   4.453   3.910 -1.4010  0.6145  3.4016
 2333SOL     OW18634   2.607   4.555   4.767 -0.3264 -0.0246  0.0517
 2333SOL    HW118635   2.571   4.493   4.704  1.0878 -2.3089  1.4895
 2333SOL    HW218636   2.681   4.499   4.793  0.7176  1.5855  0.5628
 2334SOL     OW18637   3.434   1.597  16.650 -1.2521 -0.1913  0.3632
 2334SOL    HW118638   3.458   1.523  16.706 -0.5235 -1.1322 -1.1973
 2334SOL    HW218639   3.364   1.635  16.703  0.6678  1.4330  1.7234
 2335SOL     OW18640   2.200   0.295   6.522  0.1185  0.3399 -0.2851
 2335SOL    HW118641   2.135   0.365   6.534  1.5022  1.2339  1.9960
 2335SOL    HW218642   2.273   0.330   6.573 -1.7024 -0.6036  3.0344
 2336SOL     OW18643   3.955   1.650   7.093  0.1759 -0.0299  0.2565
 2336SOL    HW118644   3.987   1.608   7.014 -1.8941 -1.5471  0.2126
 2336SOL    HW218645   3.917   1.578   7.144 -1.5091  0.3320 -0.5027
 2337SOL     OW18646   3.170   2.266  17.252 -0.1801  0.0002  0.3210
 2337SOL    HW118647   3.091   2.213  17.240  0.4954 -0.7758 -0.7595
 2337SOL    HW218648   3.177   2.270  17.347 -0.0710  1.8001  0.2457
 2338SOL     OW18649   2.771   1.509   6.830 -0.3573 -0.4537  0.0982
 2338SOL    HW118650   2.799   1.458   6.754 -1.5543 -1.5556  0.3875
 2338SOL    HW218651   2.845   1.568   6.842 -2.3590  2.3377 -1.2241
 2339SOL     OW18652   2.273   3.424   3.494 -0.7027 -0.2207 -0.1814
 2339SOL    HW118653   2.297   3.513   3.469 -0.6929  0.1848  1.2866
 2339SOL    HW218654   2.357   3.378   3.502  0.3536  1.1351 -3.4614
 2340SOL     OW18655   1.491   1.219  12.063 -0.5332  0.0870 -0.5359
 2340SOL    HW118656   1.424   1.156  12.035 -1.0130 -0.5528  1.9725
 2340SOL    HW218657   1.455   1.304  12.039 -3.2686 -1.2009 -1.0340
 2341SOL     OW18658   2.277   3.190   9.502  0.2076  0.3584  0.2497
 2341SOL    HW118659   2.246   3.246   9.573  0.1741 -0.4828  0.8898
 2341SOL    HW218660   2.330   3.129   9.554  1.1476  0.7075 -0.2836
 2342SOL     OW18661   3.292   2.533   6.166 -0.5697 -0.1988 -0.0320
 2342SOL    HW118662   3.249   2.604   6.118 -1.0818  0.2246  1.0550
 2342SOL    HW218663   3.243   2.531   6.248 -0.9463  1.7610 -0.1943
 2343SOL     OW18664   2.443   4.043   7.381  0.5967 -0.3699  0.1134
 2343SOL    HW118665   2.394   3.997   7.448  0.3790  0.2969  0.4169
 2343SOL    HW218666   2.386   4.120   7.368 -1.5446 -1.4932  2.8000
 2344SOL     OW18667   3.715   3.367   4.848 -0.8334 -0.2529 -0.0857
 2344SOL    HW118668   3.638   3.421   4.866  0.3713  0.8279  1.7768
 2344SOL    HW218669   3.694   3.330   4.762 -1.7551  3.2003 -1.3410
 2345SOL     OW18670   4.196   3.836   4.604 -0.3077 -0.1285 -0.5253
 2345SOL    HW118671   4.110   3.851   4.567  0.0723 -0.7657 -1.6611
 2345SOL    HW218672   4.225   3.927   4.603 -1.2702  0.1622 -1.3693
 2346SOL     OW18673   4.004   4.588  14.848  0.1321  0.6247  0.5279
 2346SOL    HW118674   4.063   4.590  14.772  0.4131  1.6065  0.7716
 2346SOL    HW218675   4.056   4.534  14.908 -1.3622 -1.5269 -0.0923
 2347SOL     OW18676   1.673   0.917   4.173 -0.8269  0.0715 -0.3726
 2347SOL    HW118677   1.579   0.922   4.186 -1.0341 -1.5923 -1.2803
 2347SOL    HW218678   1.697   0.957   4.257 -1.3951  0.3394 -0.3429
 2348SOL     OW18679   0.826   1.511  15.592 -0.2636 -0.6367 -0.5964
 2348SOL    HW118680   0.848   1.427  15.553  0.2977 -1.9594  2.6035
 2348SOL    HW218681   0.904   1.561  15.566  1.6163 -3.5492 -0.4584
 2349SOL     OW18682   2.075   1.816   5.345  0.3911 -0.4301  0.3970
 2349SOL    HW118683   2.121   1.837   5.264 -1.2188  1.4291 -0.0104
 2349SOL    HW218684   2.017   1.747   5.313 -0.2847 -0.0868  0.9047
 2350SOL     OW18685   4.379   2.369   9.375  0.2365  0.0432  0.3324
 2350SOL    HW118686   4.441   2.433   9.339 -0.6190  0.8468  0.2841
 2350SOL    HW218687   4.420   2.341   9.457 -1.8290  0.5206  1.5113
 2351SOL     OW18688   3.225   2.764   8.700 -0.2760  0.3048 -0.3216
 2351SOL    HW118689   3.271   2.688   8.737 -0.4152 -0.3269 -1.4526
 2351SOL    HW218690   3.282   2.790   8.627  0.6503 -2.7729 -0.7051
 2352SOL     OW18691   0.843   0.051   7.916  0.1332  0.1083  0.5415
 2352SOL    HW118692   0.788   0.020   7.844  0.3758  1.5789 -0.2901
 2352SOL    HW218693   0.820   0.144   7.917 -0.9539 -0.0968 -3.1877
 2353SOL     OW18694   3.629   4.611  10.806  0.2271 -0.1770 -0.4733
 2353SOL    HW118695   3.646   4.705  10.815 -1.8054  0.2382 -1.0097
 2353SOL    HW218696   3.572   4.604  10.729  0.7832  1.1916 -1.0081
 2354SOL     OW18697   0.381   4.679   3.749 -0.2219 -0.0678 -0.4363
 2354SOL    HW118698   0.468   4.658   3.782 -1.2694 -0.6837  1.9350
 2354SOL    HW218699   0.411   4.695   3.659 -0.8696  0.4488 -0.5604
 2355SOL     OW18700   0.773   1.352  14.121 -0.1826  0.0499 -0.0177
 2355SOL    HW118701   0.841   1.414  14.149 -0.5217 -0.9245  2.8699
 2355SOL    HW218702   0.741   1.381  14.035  0.9863 -2.1722 -1.2141
 2356SOL     OW18703   2.348   1.579   8.441  0.3162 -0.0021 -0.2291
 2356SOL    HW118704   2.301   1.662   8.448  0.4754 -0.0134  0.9252
 2356SOL    HW218705   2.331   1.569   8.347 -2.6451  1.4363  0.1779
 2357SOL     OW18706   4.366   2.595   5.661  0.0745 -0.0532 -0.3663
 2357SOL    HW118707   4.277   2.588   5.628  0.1267 -0.0049 -0.5193
 2357SOL    HW218708   4.422   2.547   5.599  0.0474 -0.6180  0.0478
 2358SOL     OW18709   0.909   2.223   2.654  0.0313  0.1307  0.5028
 2358SOL    HW118710   0.843   2.165   2.618  0.3998  1.3232 -2.0847
 2358SOL    HW218711   0.986   2.180   2.617 -0.0772 -0.3186  0.7952
 2359SOL     OW18712   0.374   2.054   8.738 -0.0742 -0.0612 -0.7337
 2359SOL    HW118713   0.320   2.031   8.813 -0.7789  1.1737 -0.8708
 2359SOL    HW218714   0.414   1.970   8.713  0.5005  0.2223 -0.7694
 2360SOL     OW18715   2.899   3.900   4.932 -0.1387 -0.5347  0.0198
 2360SOL    HW118716   2.847   3.970   4.894 -0.0785 -2.0212 -2.7950
 2360SOL    HW218717   2.975   3.947   4.966 -0.2554  1.0294 -1.9004
 2361SOL     OW18718   3.606   3.137  17.166  0.6412 -0.0049 -0.7966
 2361SOL    HW118719   3.532   3.106  17.218  1.9443  0.6945  1.4408
 2361SOL    HW218720   3.582   3.108  17.078 -0.5662 -0.1578 -0.4159
 2362SOL     OW18721   1.169   0.022   2.406  0.1363  0.3044  0.3896
 2362SOL    HW118722   1.111   0.091   2.438  0.1115  0.5855 -0.2670
 2362SOL    HW218723   1.199   4.734   2.494 -0.3247  0.6630  0.6393
 2363SOL     OW18724   1.062   1.649   6.038 -0.6327  0.3060 -0.0743
 2363SOL    HW118725   1.089   1.580   6.099  1.4988  0.5994 -0.7050
 2363SOL    HW218726   1.019   1.590   5.976 -0.7825  0.6021 -0.2492
 2364SOL     OW18727   2.180   3.348  14.534 -0.0248  0.4433  0.5688
 2364SOL    HW118728   2.264   3.316  14.500 -1.5289 -1.0596 -1.7880
 2364SOL    HW218729   2.210   3.433  14.567  2.5169 -0.3951  0.4425
 2365SOL     OW18730   3.424   2.355   3.375 -0.1695  0.0416  0.4715
 2365SOL    HW118731   3.497   2.316   3.422  0.4877  0.1278 -0.4890
 2365SOL    HW218732   3.418   2.293   3.302 -1.3052  0.4423  0.2173
 2366SOL     OW18733   2.507   1.205   8.901  0.2760  0.0353 -0.2288
 2366SOL    HW118734   2.600   1.226   8.890  0.6560 -1.4883  0.0119
 2366SOL    HW218735   2.522   1.111   8.892 -0.4115 -0.1295  0.3045
 2367SOL     OW18736   4.046   1.848   1.125  0.2278  0.4988 -0.2407
 2367SOL    HW118737   3.961   1.878   1.094  0.6323  0.9090 -0.9534
 2367SOL    HW218738   4.095   1.838   1.043 -1.6620  0.6497 -1.3943
 2368SOL     OW18739   0.363   2.059   1.658  0.5156 -0.4866 -0.4684
 2368SOL    HW118740   0.419   2.134   1.679  0.0577 -0.2005 -0.2512
 2368SOL    HW218741   0.315   2.098   1.585  1.3901  2.5118  0.5539
 2369SOL     OW18742   3.158   0.864   2.580 -0.4147 -0.2983  0.5720
 2369SOL    HW118743   3.098   0.803   2.623  0.5625 -0.4513  1.7469
 2369SOL    HW218744   3.103   0.897   2.509 -0.2580 -0.4895  0.3623
 2370SOL     OW18745   0.028   2.258  13.281 -0.0713  0.7493 -0.1801
 2370SOL    HW118746   0.039   2.164  13.293 -1.3471  0.1895 -3.2850
 2370SOL    HW218747   4.718   2.254  13.197  1.4118 -0.0494 -0.9357
 2371SOL     OW18748   3.397   1.428   0.120 -0.1010  0.0814 -0.5129
 2371SOL    HW118749   3.308   1.406   0.148  0.0405  0.6749  0.4256
 2371SOL    HW218750   3.380   1.500   0.060 -0.4142 -0.2022 -0.7622
 2372SOL     OW18751   3.868   0.547   2.069  0.1294  0.0254  0.1830
 2372SOL    HW118752   3.797   0.514   2.123 -0.2744 -1.4883 -1.2885
 2372SOL    HW218753   3.817   0.603   2.010  0.7012  0.9832  0.5960
 2373SOL     OW18754   3.535   4.070   3.801 -0.2993 -0.0999 -0.2528
 2373SOL    HW118755   3.479   4.071   3.723  0.7219  0.1669 -0.9731
 2373SOL    HW218756   3.617   4.034   3.767 -1.4959 -1.7628 -1.4020
 2374SOL     OW18757   0.243   0.600  12.888 -0.2912  0.3349 -0.1692
 2374SOL    HW118758   0.275   0.525  12.837  0.0321  1.2120 -1.2522
 2374SOL    HW218759   0.314   0.663  12.901 -0.4946  0.5365 -0.0387
 2375SOL     OW18760   4.603   0.831  11.145 -0.5794 -0.7231  0.1819
 2375SOL    HW118761   4.581   0.739  11.152 -1.0371 -0.6231  0.0304
 2375SOL    HW218762   4.696   0.821  11.168 -0.5062  0.3320  0.3792
 2376SOL     OW18763   1.308   1.257   5.432 -0.0807 -0.1726  0.2191
 2376SOL    HW118764   1.389   1.307   5.442 -0.1563  0.0017 -0.0502
 2376SOL    HW218765   1.276   1.262   5.522 -0.1114  0.2646  0.1794
 2377SOL     OW18766   1.236   0.013   0.994  0.2401  0.0699  0.3829
 2377SOL    HW118767   1.190   4.669   1.020  0.1887  0.2466  0.8384
 2377SOL    HW218768   1.316   4.711   0.958 -1.1127 -1.3926 -1.0654
 2378SOL     OW18769   0.495   4.075   3.841 -0.2796  0.4551  0.4688
 2378SOL    HW118770   0.561   4.006   3.852 -1.0756 -0.5406 -0.9015
 2378SOL    HW218771   0.540   4.143   3.890  0.4771  0.7315 -0.6031
 2379SOL     OW18772   2.878   0.796  14.590 -0.0764  0.6542  0.1837
 2379SOL    HW118773   2.873   0.702  14.606  0.9782  0.2746 -1.6940
 2379SOL    HW218774   2.830   0.796  14.507  0.9453  0.4312 -0.4062
 2380SOL     OW18775   3.188   3.240  17.302  0.2407 -0.1328  0.0422
 2380SOL    HW118776   3.171   3.152  17.268 -0.5755 -0.6205  1.7124
 2380SOL    HW218777   3.183   3.290  17.221 -1.8439 -2.1396 -1.0575
 2381SOL     OW18778   0.414   3.827  14.895  0.2442 -0.1870 -0.6050
 2381SOL    HW118779   0.430   3.896  14.960  0.5099  1.1809 -2.1297
 2381SOL    HW218780   0.352   3.868  14.836 -1.2499  0.8474  1.6982
 2382SOL     OW18781   2.981   3.076   5.279  0.3422 -0.2302  0.2217
 2382SOL    HW118782   2.892   3.052   5.307  1.3273 -0.7027  2.9741
 2382SOL    HW218783   3.028   3.039   5.354  0.0616  0.0526  0.5400
 2383SOL     OW18784   0.403   3.342  13.200 -0.6694 -0.0700 -0.0219
 2383SOL    HW118785   0.313   3.360  13.227 -0.4843  2.2624 -0.9792
 2383SOL    HW218786   0.394   3.249  13.181 -0.3349 -0.8797  3.7708
 2384SOL     OW18787   0.561   1.949   4.210  0.1944  0.5607  0.4337
 2384SOL    HW118788   0.559   1.966   4.304 -3.7061  1.9930  0.1005
 2384SOL    HW218789   0.554   2.040   4.181 -1.7912  0.2585 -0.0495
 2385SOL     OW18790   2.048   2.500   4.192 -0.0465  0.0374 -0.3231
 2385SOL    HW118791   1.971   2.450   4.163 -1.1656  1.0302  0.9578
 2385SOL    HW218792   2.075   2.545   4.112  1.1226 -1.5352 -0.8118
 2386SOL     OW18793   1.907   0.068   8.897  1.1506  0.4122  0.7709
 2386SOL    HW118794   1.815   0.088   8.912  0.5607 -0.8610 -1.1470
 2386SOL    HW218795   1.904   4.721   8.945 -1.9754 -1.4814 -2.6997
 2387SOL     OW18796   2.594   3.904   2.992  0.1390  0.0285 -0.1962
 2387SOL    HW118797   2.580   3.917   2.898  2.1386  1.0471 -0.3513
 2387SOL    HW218798   2.682   3.939   3.005 -0.7325  1.3285  2.2669
 2388SOL     OW18799   2.210   1.524  15.996  0.6108  0.2589 -0.0935
 2388SOL    HW118800   2.187   1.434  16.020  1.7297 -0.4378 -1.6355
 2388SOL    HW218801   2.207   1.518  15.901 -1.0756  0.3541 -0.0448
 2389SOL     OW18802   1.399   3.139   7.736 -0.1142 -0.0901  0.2628
 2389SOL    HW118803   1.339   3.148   7.662 -0.9854 -0.1405  0.9708
 2389SOL    HW218804   1.376   3.063   7.789 -3.1368  1.2275  0.8235
 2390SOL     OW18805   3.032   4.462   2.308 -0.4386 -0.2650  0.6573
 2390SOL    HW118806   3.004   4.370   2.307  0.5495 -0.5695  3.6538
 2390SOL    HW218807   3.121   4.456   2.275 -0.9981 -1.1557 -0.7167
 2391SOL     OW18808   3.251   0.636   0.695 -0.2468  0.3584  0.2323
 2391SOL    HW118809   3.219   0.704   0.635 -0.2490 -0.4952 -0.7254
 2391SOL    HW218810   3.326   0.674   0.740  0.6564  0.1762 -1.1335
 2392SOL     OW18811   2.290   2.587   7.174 -0.4401 -0.3384  0.4343
 2392SOL    HW118812   2.212   2.642   7.164  0.1023 -0.2001 -3.2247
 2392SOL    HW218813   2.303   2.596   7.268 -0.5089  1.7098  0.2365
 2393SOL     OW18814   1.373   3.471   0.931 -0.3063  0.3015  0.1108
 2393SOL    HW118815   1.372   3.456   0.836 -0.5151 -0.7184  0.2780
 2393SOL    HW218816   1.292   3.522   0.942 -1.1088 -1.1644  0.9818
 2394SOL     OW18817   3.093   1.945   4.278 -0.5043  0.1830  0.8851
 2394SOL    HW118818   3.068   1.854   4.290  1.0515 -0.5627 -1.5176
 2394SOL    HW218819   3.188   1.932   4.283 -0.4196  0.3374 -0.2873
 2395SOL     OW18820   0.139   1.039  12.935  0.2084  0.0112  0.1922
 2395SOL    HW118821   0.202   1.111  12.934  1.7886 -1.3690  1.3932
 2395SOL    HW218822   0.169   1.003  12.851  1.2278 -0.5396  0.7843
 2396SOL     OW18823   1.253   0.563   3.268  0.2279 -0.1581  0.1453
 2396SOL    HW118824   1.323   0.540   3.207  0.7652 -0.1062  0.7440
 2396SOL    HW218825   1.268   0.509   3.346 -3.7482 -1.3732  0.0635
 2397SOL     OW18826   3.412   4.733   5.557  0.0811  0.3660  0.6007
 2397SOL    HW118827   3.495   0.044   5.563 -0.5069  1.5579 -0.3930
 2397SOL    HW218828   3.435   4.647   5.523  0.2366  0.9300 -0.7248
 2398SOL     OW18829   1.396   2.669  10.281  0.0672 -0.1578  0.4915
 2398SOL    HW118830   1.426   2.699  10.367  0.9176  0.9355 -0.1851
 2398SOL    HW218831   1.423   2.578  10.270 -0.7329 -0.3257 -0.0604
 2399SOL     OW18832   2.497   2.681   3.610 -0.0051  0.2464  0.0644
 2399SOL    HW118833   2.553   2.651   3.682  2.5039 -0.7611 -2.2781
 2399SOL    HW218834   2.486   2.597   3.566  2.3579  1.0356 -2.0043
 2400SOL     OW18835   1.357   4.592  14.788  0.1256  0.4074 -0.1197
 2400SOL    HW118836   1.396   4.677  14.809 -0.1645  0.1688  1.3621
 2400SOL    HW218837   1.266   4.619  14.780  0.2460  0.4405 -1.3968
 2401SOL     OW18838   3.310   1.710  13.535  0.1444 -0.4494  0.1070
 2401SOL    HW118839   3.249   1.769  13.490 -3.3758 -3.8408  0.3889
 2401SOL    HW218840   3.379   1.764  13.573  0.3763  0.3865 -1.5272
 2402SOL     OW18841   2.209   3.533   8.815  0.1474 -0.6065  0.0645
 2402SOL    HW118842   2.258   3.461   8.775  2.3956  0.1161  1.4993
 2402SOL    HW218843   2.189   3.498   8.902  3.1295 -0.0585  0.9575
 2403SOL     OW18844   4.170   3.784  15.239  0.1288  0.2704  0.0154
 2403SOL    HW118845   4.198   3.749  15.154 -1.4861 -0.0140 -0.3890
 2403SOL    HW218846   4.133   3.869  15.215 -1.4092 -0.8280 -1.4894
 2404SOL     OW18847   2.691   3.554   4.505 -0.5952 -0.0411  0.5568
 2404SOL    HW118848   2.744   3.481   4.537  0.5407  1.3431  1.8352
 2404SOL    HW218849   2.674   3.615   4.577 -1.7883 -1.9729  1.9017
 2405SOL     OW18850   3.037   2.207   4.351  0.1985  0.6107 -0.2440
 2405SOL    HW118851   3.123   2.236   4.320 -0.7600 -0.2842 -3.7567
 2405SOL    HW218852   3.036   2.112   4.339  1.3652  0.5368  0.3161
 2406SOL     OW18853   0.517   3.107   2.966  0.1023 -0.0383 -0.3729
 2406SOL    HW118854   0.445   3.057   2.928  0.3590  0.1312 -1.0970
 2406SOL    HW218855   0.597   3.075   2.923  0.8738 -1.0158  1.8335
 2407SOL     OW18856   2.757   3.181  14.980 -0.3276  0.4085  0.2525
 2407SOL    HW118857   2.744   3.122  15.053  1.0804 -0.9040 -0.5476
 2407SOL    HW218858   2.688   3.165  14.916  1.6089 -0.1324 -1.7299
 2408SOL     OW18859   2.284   1.795   4.522  0.0889  0.4550 -0.1490
 2408SOL    HW118860   2.338   1.873   4.520 -1.5879  1.6303  0.1946
 2408SOL    HW218861   2.216   1.830   4.464 -2.4475  0.1496  2.6314
 2409SOL     OW18862   4.342   0.360   3.532 -0.0818  0.0062 -0.4208
 2409SOL    HW118863   4.358   0.277   3.487 -1.7654 -0.8844  0.6401
 2409SOL    HW218864   4.252   0.335   3.555 -0.2425  1.0762  0.0944
 2410SOL     OW18865   3.566   2.867   4.461 -0.3771  0.0702 -0.5223
 2410SOL    HW118866   3.643   2.912   4.496  0.4744 -3.3589  2.0198
 2410SOL    HW218867   3.591   2.858   4.369 -0.9338 -0.9483 -0.5746
 2411SOL     OW18868   1.399   0.085   1.937  0.3899  0.2250 -0.2278
 2411SOL    HW118869   1.406   4.728   1.959  1.5186  0.2226 -0.5894
 2411SOL    HW218870   1.387   0.125   2.023  1.7383  1.6223 -0.7005
 2412SOL     OW18871   4.217   3.843   8.191  0.8179 -0.4009  0.2063
 2412SOL    HW118872   4.216   3.751   8.219 -1.2927 -0.3431  0.3543
 2412SOL    HW218873   4.129   3.854   8.154  0.5825  0.8478  1.1481
 2413SOL     OW18874   4.334   0.152   6.045  0.5066 -1.0252 -0.5231
 2413SOL    HW118875   4.253   0.199   6.028 -0.5141 -2.2191  1.1028
 2413SOL    HW218876   4.306   0.076   6.096  0.6413 -1.4066 -1.0137
 2414SOL     OW18877   4.660   1.074  15.894  0.7033  0.6724  0.4773
 2414SOL    HW118878   4.711   0.996  15.916  0.5488  0.6441  0.7363
 2414SOL    HW218879   4.623   1.047  15.810 -2.6654  2.2570  1.4735
 2415SOL     OW18880   0.167   0.264   8.268  0.4020 -0.0300  0.5892
 2415SOL    HW118881   0.120   0.348   8.270 -0.5063 -0.5733  2.7176
 2415SOL    HW218882   0.186   0.248   8.361 -0.1928  0.1236  0.7385
 2416SOL     OW18883   0.850   2.509   3.377 -0.1834  0.2259 -0.2806
 2416SOL    HW118884   0.936   2.482   3.345 -0.0599 -1.2754  1.2894
 2416SOL    HW218885   0.790   2.476   3.310  0.3582  2.5106 -1.8941
 2417SOL     OW18886   1.961   1.764   7.613  0.3534  0.3655  0.0443
 2417SOL    HW118887   1.928   1.823   7.545  1.4756 -1.6141 -2.1897
 2417SOL    HW218888   1.964   1.682   7.565 -1.0933  1.5073 -2.0112
 2418SOL     OW18889   4.101   3.624   2.703  0.7783 -0.5450  0.0974
 2418SOL    HW118890   4.102   3.694   2.768  3.2236 -0.3838 -0.1299
 2418SOL    HW218891   4.193   3.604   2.685  0.5030 -0.1133 -1.7513
 2419SOL     OW18892   0.312   0.846   9.600 -0.2615 -0.1678  0.1887
 2419SOL    HW118893   0.312   0.899   9.680 -2.1461 -1.1601  0.8474
 2419SOL    HW218894   0.377   0.780   9.622  0.2317  0.5856  1.0188
 2420SOL     OW18895   4.485   0.887   7.419 -0.1448  0.2450 -0.0077
 2420SOL    HW118896   4.450   0.947   7.353  2.0197  0.4973 -0.9209
 2420SOL    HW218897   4.558   0.938   7.451  1.8877 -2.8897  0.3378
 2421SOL     OW18898   1.789   2.485  13.265  0.1357  0.5552  0.1142
 2421SOL    HW118899   1.784   2.487  13.169 -2.5064  0.6732  0.2463
 2421SOL    HW218900   1.884   2.481  13.279  0.1216 -1.0540 -0.2867
 2422SOL     OW18901   1.149   3.080   3.788  0.1731  0.5141 -0.0479
 2422SOL    HW118902   1.150   3.026   3.709 -1.4718  0.7385 -0.2243
 2422SOL    HW218903   1.103   3.159   3.760 -0.2057 -0.2299 -1.5225
 2423SOL     OW18904   2.846   1.002   5.418  1.2201 -0.2681  0.0847
 2423SOL    HW118905   2.751   0.996   5.411  1.1706  0.4834  0.1502
 2423SOL    HW218906   2.869   0.941   5.348 -0.4741 -0.0189 -0.6763
 2424SOL     OW18907   0.081   4.500  16.748 -0.0137 -0.2543  0.0760
 2424SOL    HW118908   0.105   4.591  16.767  0.5802 -1.0477  3.1987
 2424SOL    HW218909   0.103   4.497  16.655  1.0790 -0.3484  0.3314
 2425SOL     OW18910   3.135   2.272   8.098  0.1393  0.3370 -0.6059
 2425SOL    HW118911   3.216   2.237   8.134 -1.9453 -1.3158  2.4600
 2425SOL    HW218912   3.104   2.189   8.060 -0.3233 -0.1218  0.7651
 2426SOL     OW18913   0.480   0.697  13.059 -0.0777  0.0672  0.3537
 2426SOL    HW118914   0.575   0.688  13.068 -0.1599 -0.4523  0.6860
 2426SOL    HW218915   0.469   0.759  13.131  0.0666  1.2143 -0.6028
 2427SOL     OW18916   1.325   2.492   5.199  0.4662 -0.4619  0.1780
 2427SOL    HW118917   1.337   2.404   5.235  0.5960 -0.8570 -0.8190
 2427SOL    HW218918   1.337   2.481   5.105 -1.9303 -0.9600 -0.0518
 2428SOL     OW18919   0.431   0.037  12.243  0.5433  0.5669  0.2671
 2428SOL    HW118920   0.347   0.070  12.277 -0.2862  0.2093 -1.4337
 2428SOL    HW218921   0.431   0.070  12.153  0.0985 -0.0071  0.0625
 2429SOL     OW18922   1.629   3.076   3.081  0.9953  0.5622  0.1760
 2429SOL    HW118923   1.603   3.160   3.119 -0.7127  1.0946 -2.1670
 2429SOL    HW218924   1.704   3.061   3.137  0.7963  1.2365  0.6241
 2430SOL     OW18925   3.626   1.770   8.758 -0.0416 -0.1264  0.0854
 2430SOL    HW118926   3.563   1.746   8.826 -1.7626 -1.3523 -1.9256
 2430SOL    HW218927   3.713   1.753   8.794 -1.3531 -1.7476  2.4639
 2431SOL     OW18928   4.483   2.480   6.373 -0.7601  0.4440  0.4872
 2431SOL    HW118929   4.536   2.530   6.311  0.3850 -2.4456 -0.8525
 2431SOL    HW218930   4.399   2.470   6.327 -0.2714  2.1126 -0.7901
 2432SOL     OW18931   1.031   2.044  16.034  0.3615 -0.3093 -0.0169
 2432SOL    HW118932   0.994   2.053  16.122 -0.6636  0.4428 -0.5322
 2432SOL    HW218933   1.013   1.951  16.019 -0.2125 -0.1192 -0.4867
 2433SOL     OW18934   0.690   4.273   3.200  0.0588 -0.3739 -0.5832
 2433SOL    HW118935   0.741   4.211   3.147 -1.0920 -1.5147 -0.3824
 2433SOL    HW218936   0.759   4.337   3.217  0.7742 -1.3541  0.1889
 2434SOL     OW18937   1.930   1.586   1.542  0.2143 -0.3353  0.3378
 2434SOL    HW118938   1.993   1.524   1.505 -0.7163 -1.7725  1.1386
 2434SOL    HW218939   1.986   1.627   1.608 -2.5129 -0.2018  2.5774
 2435SOL     OW18940   3.692   1.539   5.435 -0.4888 -0.5686 -0.2607
 2435SOL    HW118941   3.646   1.614   5.397  0.9724  0.8574  0.7644
 2435SOL    HW218942   3.728   1.587   5.509  0.6145  2.7314 -2.9229
 2436SOL     OW18943   4.293   0.268  14.493 -0.3224  0.3373  0.2367
 2436SOL    HW118944   4.344   0.188  14.496  0.9985  1.1193 -1.5235
 2436SOL    HW218945   4.282   0.271  14.588 -0.1408 -0.7721  0.2875
 2437SOL     OW18946   2.485   0.415  15.736 -0.5915 -0.3069  0.4925
 2437SOL    HW118947   2.519   0.504  15.735  2.2192 -1.3604  1.3798
 2437SOL    HW218948   2.519   0.380  15.819 -0.7546  0.1405  0.7516
 2438SOL     OW18949   2.937   1.658  12.682  0.3703 -0.3418  0.5340
 2438SOL    HW118950   2.906   1.694  12.599 -0.4614  1.7638  1.7340
 2438SOL    HW218951   2.989   1.584  12.653 -0.6995 -0.8123 -0.1943
 2439SOL     OW18952   1.765   1.960   8.817 -0.3571 -0.3932 -0.3662
 2439SOL    HW118953   1.714   1.880   8.802 -1.3612  0.1891 -0.0497
 2439SOL    HW218954   1.700   2.019   8.853 -1.4912 -1.2339 -1.0367
 2440SOL     OW18955   1.400   1.003  16.584 -0.2862 -0.2753  0.4803
 2440SOL    HW118956   1.389   1.077  16.524  1.4928 -0.6233 -0.2677
 2440SOL    HW218957   1.319   0.999  16.634 -0.0689  2.4280  1.0789
 2441SOL     OW18958   1.091   2.095  13.550 -0.1240  0.0231  0.0327
 2441SOL    HW118959   1.031   2.076  13.623 -0.1701 -0.9678 -0.2655
 2441SOL    HW218960   1.168   2.040  13.564 -0.0412 -0.2748 -1.6308
 2442SOL     OW18961   1.590   1.625   6.905  0.5297  0.5573  0.0639
 2442SOL    HW118962   1.664   1.634   6.965 -0.0435  0.2817  0.8140
 2442SOL    HW218963   1.531   1.690   6.944  1.7704  1.8191 -0.1512
 2443SOL     OW18964   1.680   1.342   2.570  0.1066 -0.0028  0.1340
 2443SOL    HW118965   1.621   1.344   2.495  2.9624  0.3534 -2.1121
 2443SOL    HW218966   1.666   1.256   2.610  0.2540  0.3130  0.8562
 2444SOL     OW18967   4.582   4.192   2.066  0.1995  0.4207 -0.0071
 2444SOL    HW118968   4.604   4.182   2.158 -0.6234  1.7975  0.3274
 2444SOL    HW218969   4.616   4.279   2.047 -1.7198  1.0209 -0.5973
 2445SOL     OW18970   1.255   4.351  10.651  0.0899 -0.3473  0.1231
 2445SOL    HW118971   1.246   4.444  10.672 -0.4015 -0.4935  0.5590
 2445SOL    HW218972   1.208   4.311  10.725  0.7060 -0.9095  0.2140
 2446SOL     OW18973   3.767   2.051   8.965 -0.1644  0.3891 -0.0319
 2446SOL    HW118974   3.679   2.059   9.001 -0.5136  1.2293 -1.0826
 2446SOL    HW218975   3.818   2.062   9.045 -0.3542  0.9419  0.0074
 2447SOL     OW18976   3.768   3.283   3.339 -0.4545  0.0806 -0.3530
 2447SOL    HW118977   3.779   3.320   3.251 -0.7386  1.7208  0.3183
 2447SOL    HW218978   3.832   3.213   3.351  0.6881  0.9360 -1.3742
 2448SOL     OW18979   1.197   2.969   6.330 -0.1440 -0.0406 -0.5726
 2448SOL    HW118980   1.291   2.974   6.312  0.0014  0.1205  0.2323
 2448SOL    HW218981   1.160   2.987   6.244  0.1565 -1.1538 -0.9320
 2449SOL     OW18982   2.125   1.755   8.702  0.1160  0.7487  0.3381
 2449SOL    HW118983   2.037   1.721   8.687  0.7550 -0.7178 -0.0773
 2449SOL    HW218984   2.158   1.768   8.614  0.3477  0.1052  0.3292
 2450SOL     OW18985   4.114   0.620   8.493  0.6345 -0.4214  0.8772
 2450SOL    HW118986   4.190   0.584   8.538  0.3774 -1.2736  0.6231
 2450SOL    HW218987   4.093   0.700   8.542 -1.5294  0.1758 -1.0343
 2451SOL     OW18988   2.717   1.891  16.996 -0.1073  0.2459  0.2777
 2451SOL    HW118989   2.781   1.935  16.940  1.5521 -0.9546  1.2210
 2451SOL    HW218990   2.684   1.971  17.036  1.3749  0.3462  1.2592
 2452SOL     OW18991   3.616   1.294   5.964 -0.7365 -0.3410 -0.3324
 2452SOL    HW118992   3.658   1.209   5.955 -1.7030 -0.8301 -0.2438
 2452SOL    HW218993   3.569   1.298   5.881 -0.4613  0.4918 -0.4492
 2453SOL     OW18994   2.711   2.854   4.999 -0.1830  0.1614  0.4028
 2453SOL    HW118995   2.645   2.914   5.034 -0.5182  0.8908 -1.4498
 2453SOL    HW218996   2.691   2.776   5.050  0.8092 -0.6906 -0.5164
 2454SOL     OW18997   4.167   2.829   3.535 -0.0887 -0.0167 -0.6870
 2454SOL    HW118998   4.106   2.758   3.517 -0.8493  0.4107  0.1891
 2454SOL    HW218999   4.234   2.808   3.470  0.3576  1.6732 -0.7664
 2455SOL     OW19000   4.121   0.494   3.992 -0.1155  0.0480 -0.4211
 2455SOL    HW119001   4.123   0.532   3.904 -2.4658  2.5391  0.5894
 2455SOL    HW219002   4.030   0.508   4.017 -0.8412 -0.7289 -2.6046
 2456SOL     OW19003   3.116   4.630   8.103  0.1842 -0.3038 -0.1751
 2456SOL    HW119004   3.181   4.617   8.171 -1.7178 -2.4709  1.2274
 2456SOL    HW219005   3.062   4.552   8.115  2.0352 -1.4168  0.9149
 2457SOL     OW19006   0.824   0.043   2.336  0.0221 -0.0278 -0.9082
 2457SOL    HW119007   0.858   4.717   2.400  1.8951  0.6027 -1.2925
 2457SOL    HW219008   0.733   0.015   2.333  0.0186 -0.1785  0.7261
 2458SOL     OW19009   4.484   3.442  10.913 -0.7990  0.2482  0.0609
 2458SOL    HW119010   4.565   3.490  10.930 -0.5258 -0.0364 -0.4468
 2458SOL    HW219011   4.427   3.518  10.901 -1.0899 -0.0178 -0.2378
 2459SOL     OW19012   0.662   0.453  11.352 -0.1871 -0.1156 -0.3046
 2459SOL    HW119013   0.663   0.535  11.400 -0.2522  0.6063 -1.5456
 2459SOL    HW219014   0.751   0.421  11.369 -0.2646  0.8064  1.8705
 2460SOL     OW19015   0.473   3.133   5.783 -0.2911 -0.3798  0.0817
 2460SOL    HW119016   0.424   3.167   5.709 -0.0367  0.3872  0.2660
 2460SOL    HW219017   0.562   3.163   5.766 -1.1340  2.2944  0.4551
 2461SOL     OW19018   2.903   3.334  11.891  0.1039 -0.0550  0.0615
 2461SOL    HW119019   2.974   3.358  11.832 -0.2062 -0.0853 -0.3239
 2461SOL    HW219020   2.923   3.241  11.905  4.6927  1.0757  0.9657
 2462SOL     OW19021   2.858   3.903   2.351 -0.0395  0.1579 -0.0620
 2462SOL    HW119022   2.872   3.936   2.262  0.3488 -2.2462 -0.9041
 2462SOL    HW219023   2.765   3.884   2.358  0.1988 -0.1290  2.3882
 2463SOL     OW19024   1.980   2.369  12.704 -0.2812  0.2403  0.2736
 2463SOL    HW119025   1.886   2.389  12.710 -0.9614 -2.5658 -0.8651
 2463SOL    HW219026   2.020   2.454  12.687 -0.0656 -0.4321 -2.6670
 2464SOL     OW19027   0.106   2.556   5.840  0.0658 -0.0219 -0.2556
 2464SOL    HW119028   0.011   2.554   5.833  0.1082  0.5187 -1.0495
 2464SOL    HW219029   0.126   2.476   5.889 -0.2193 -0.6251 -1.1110
 2465SOL     OW19030   2.985   2.273   0.121 -0.3328 -0.0916  0.1659
 2465SOL    HW119031   3.057   2.332   0.098 -0.1973  0.0859  1.0254
 2465SOL    HW219032   2.952   2.242   0.037 -1.1388  0.8850  0.1100
 2466SOL     OW19033   2.323   2.924  17.253  0.4905  0.1206  0.2789
 2466SOL    HW119034   2.321   2.881  17.339  1.4561  0.3735  0.4299
 2466SOL    HW219035   2.301   3.013  17.283  1.2626  0.8102 -1.2160
 2467SOL     OW19036   3.374   2.838   8.462  0.7442  0.1038 -0.2381
 2467SOL    HW119037   3.400   2.930   8.457 -0.4689  0.4895  0.5878
 2467SOL    HW219038   3.417   2.814   8.380  0.4542 -2.1454  0.2663
 2468SOL     OW19039   4.450   2.894  12.654  0.3072  0.2688 -0.5276
 2468SOL    HW119040   4.545   2.910  12.655  0.5368 -1.0605 -0.9172
 2468SOL    HW219041   4.436   2.913  12.561 -2.0199  2.5379  0.2806
 2469SOL     OW19042   4.526   1.058  13.388 -0.3809  0.0981  0.6603
 2469SOL    HW119043   4.608   1.008  13.396 -0.7808 -1.1553 -3.0816
 2469SOL    HW219044   4.560   1.148  13.395 -0.2340  0.2308 -1.7373
 2470SOL     OW19045   4.577   3.847   0.257  0.4451  0.6697 -0.1354
 2470SOL    HW119046   4.545   3.855   0.168  0.1797  1.0837 -0.0031
 2470SOL    HW219047   4.509   3.888   0.311 -0.6563  0.8805 -1.6871
 2471SOL     OW19048   3.148   1.635  10.268  0.2437 -0.1904  0.1508
 2471SOL    HW119049   3.176   1.602  10.353 -1.1938 -1.6048  0.0846
 2471SOL    HW219050   3.126   1.727  10.283  1.3566  0.2125 -0.7249
 2472SOL     OW19051   3.892   1.574   3.973  0.1880 -1.0715 -0.2129
 2472SOL    HW119052   3.979   1.539   3.990  0.1855 -0.1427  1.6571
 2472SOL    HW219053   3.841   1.495   3.955  0.2759 -1.5778  1.8171
 2473SOL     OW19054   3.765   1.088   1.675  0.3646 -0.1820  0.8814
 2473SOL    HW119055   3.849   1.127   1.700 -0.0417  2.0155 -1.2133
 2473SOL    HW219056   3.798   1.011   1.629 -2.0820  0.6100 -2.1474
 2474SOL     OW19057   4.661   1.617   2.916  0.1402 -0.2426  0.7449
 2474SOL    HW119058   4.726   1.685   2.901  1.0096 -0.5007  3.2855
 2474SOL    HW219059   4.646   1.579   2.830  0.8769 -0.7195  0.8229
 2475SOL     OW19060   2.109   3.317   7.240  0.5011 -0.1618 -0.3131
 2475SOL    HW119061   2.065   3.244   7.197 -0.6083 -0.3138  1.0811
 2475SOL    HW219062   2.188   3.310   7.187  0.9325 -0.2661  0.3465
 2476SOL     OW19063   3.373   0.302   8.026 -0.3301  0.0144 -0.0797
 2476SOL    HW119064   3.360   0.346   8.110  0.5706 -0.8854  0.5369
 2476SOL    HW219065   3.452   0.261   8.063 -0.3802  0.0857  0.1054
 2477SOL     OW19066   1.041   2.485   6.190 -0.4434 -0.0856 -0.7966
 2477SOL    HW119067   1.019   2.553   6.126 -0.6142  0.5424 -0.0682
 2477SOL    HW219068   1.040   2.529   6.275  0.3220 -0.7258 -0.4571
 2478SOL     OW19069   0.661   4.505   8.731  0.1891 -0.1752 -0.5565
 2478SOL    HW119070   0.581   4.555   8.714 -1.0335 -0.4730  4.1766
 2478SOL    HW219071   0.673   4.437   8.664 -0.1078 -0.3232 -0.4606
 2479SOL     OW19072   2.008   2.895   2.203 -0.1303  0.1118  0.4559
 2479SOL    HW119073   2.046   2.927   2.285 -2.2312 -0.5052  1.6700
 2479SOL    HW219074   1.971   2.974   2.164  0.7638  0.4875  0.3699
 2480SOL     OW19075   3.475   1.177   8.996  0.3775 -0.0591  0.4118
 2480SOL    HW119076   3.536   1.158   8.925 -1.4718  0.0880 -1.2191
 2480SOL    HW219077   3.497   1.124   9.072  1.0346 -1.4299 -0.7212
 2481SOL     OW19078   0.813   1.259   8.280 -0.2404 -0.1067 -0.1424
 2481SOL    HW119079   0.776   1.328   8.335 -0.0345 -0.2675  0.2009
 2481SOL    HW219080   0.851   1.206   8.350  1.9772  2.2535  0.4210
 2482SOL     OW19081   2.695   2.850   8.650  0.0091 -0.3757 -0.3974
 2482SOL    HW119082   2.721   2.938   8.677  1.0647 -0.2511 -1.8357
 2482SOL    HW219083   2.609   2.872   8.613  0.4671 -1.9276 -2.3906
 2483SOL     OW19084   3.468   2.574   2.836  0.2266  0.1037 -0.1007
 2483SOL    HW119085   3.554   2.535   2.823 -0.1738 -0.2402 -1.6890
 2483SOL    HW219086   3.401   2.510   2.857  1.4880 -0.3490  2.6101
 2484SOL     OW19087   1.185   1.121   3.000 -0.1849 -0.3126  0.0764
 2484SOL    HW119088   1.203   1.178   2.925  2.6325  0.9948  1.7282
 2484SOL    HW219089   1.101   1.154   3.031  0.5623  1.2523  0.4609
 2485SOL     OW19090   4.373   3.173   3.148  0.0041 -0.2884  0.4019
 2485SOL    HW119091   4.453   3.121   3.153  2.2255  3.1257  0.3127
 2485SOL    HW219092   4.348   3.182   3.056 -2.0520  2.4257  1.1866
 2486SOL     OW19093   2.093   4.138  17.615  0.0346  0.2514 -0.0652
 2486SOL    HW119094   2.004   4.105  17.609  0.4863 -0.9392 -0.1074
 2486SOL    HW219095   2.137   4.062  17.652  1.8451  1.1924 -0.2553
 2487SOL     OW19096   1.587   1.381   3.725 -0.5661 -0.9384  0.0053
 2487SOL    HW119097   1.535   1.439   3.780  1.0963  1.9247 -1.4138
 2487SOL    HW219098   1.637   1.333   3.791 -0.2141 -1.1146 -0.3833
 2488SOL     OW19099   2.612   2.903  16.822 -0.3663 -0.0595  0.1736
 2488SOL    HW119100   2.589   2.932  16.910  0.5506 -1.3421  0.8359
 2488SOL    HW219101   2.602   2.810  16.841  1.1735  0.0680  1.5777
 2489SOL     OW19102   0.308   3.094   3.466 -0.2649  0.5158  0.2679
 2489SOL    HW119103   0.394   3.069   3.433 -1.9687 -1.9392 -2.2710
 2489SOL    HW219104   0.253   3.052   3.400  0.4207  0.1945 -0.0994
 2490SOL     OW19105   2.106   2.318   8.765  0.3274  0.8652  0.1710
 2490SOL    HW119106   2.141   2.231   8.783 -1.2398  0.2144  0.0930
 2490SOL    HW219107   2.163   2.346   8.694 -0.8906 -0.3298 -1.2931
 2491SOL     OW19108   4.390   4.085   4.245  0.6372  0.3963 -0.3359
 2491SOL    HW119109   4.480   4.114   4.231  0.3982  1.7851  1.0046
 2491SOL    HW219110   4.374   4.092   4.339  0.7233 -0.5547 -0.2589
 2492SOL     OW19111   4.403   0.780  15.604 -0.4446  0.5362  0.3375
 2492SOL    HW119112   4.401   0.685  15.610  3.3992  0.5198  1.6234
 2492SOL    HW219113   4.310   0.800  15.615 -0.2344  0.9029  1.4672
 2493SOL     OW19114   1.107   3.899   2.604 -0.3311 -0.3701 -0.3199
 2493SOL    HW119115   1.022   3.870   2.571 -0.8958 -1.0217  1.6932
 2493SOL    HW219116   1.084   3.935   2.689 -1.7095  0.4249 -1.0317
 2494SOL     OW19117   2.513   0.178   8.953 -0.3964 -0.0679 -0.1806
 2494SOL    HW119118   2.539   0.098   8.907 -2.8613 -0.3923 -0.9898
 2494SOL    HW219119   2.567   0.247   8.914 -0.7543 -0.6887 -1.7632
 2495SOL     OW19120   2.007   3.550   8.629 -0.2652  0.3674  0.0760
 2495SOL    HW119121   2.056   3.544   8.711 -1.4650  0.6949  0.8149
 2495SOL    HW219122   1.973   3.639   8.623 -0.2579  0.3798  0.2173
 2496SOL     OW19123   4.171   0.948   5.841 -0.4011  0.1602  0.0888
 2496SOL    HW119124   4.184   0.942   5.936  0.6256  0.2063 -0.0493
 2496SOL    HW219125   4.173   0.858   5.808  1.5250  0.2701 -0.0437
 2497SOL     OW19126   1.698   4.263   8.760  0.0208 -0.4180  0.6966
 2497SOL    HW119127   1.685   4.245   8.853 -1.8533 -1.2920  0.2468
 2497SOL    HW219128   1.787   4.298   8.765 -0.4881  1.0169  0.0530
 2498SOL     OW19129   2.109   3.855   9.176  0.4064  0.0408 -0.2401
 2498SOL    HW119130   2.198   3.828   9.154 -0.4618 -4.0936  1.2576
 2498SOL    HW219131   2.073   3.768   9.193  0.5470  0.0577  0.1481
 2499SOL     OW19132   3.969   3.829   8.077 -0.4992  0.3216  0.0510
 2499SOL    HW119133   3.887   3.780   8.066  0.4070 -0.8441 -1.5204
 2499SOL    HW219134   3.975   3.855   7.985 -1.0967 -1.8040 -0.5811
 2500SOL     OW19135   2.768   1.233  13.057 -0.2356 -0.1067 -0.2490
 2500SOL    HW119136   2.849   1.202  13.097 -1.6727 -0.9200  2.0478
 2500SOL    HW219137   2.708   1.166  13.089 -0.5283 -1.0258 -2.7195
 2501SOL     OW19138   0.385   3.990   6.895 -0.1330  0.0096 -0.2368
 2501SOL    HW119139   0.353   3.976   6.985  1.7656 -2.1405  0.0924
 2501SOL    HW219140   0.390   3.901   6.860 -2.9517 -0.2664 -0.0108
 2502SOL     OW19141   1.205   0.737   7.993 -0.1275 -0.6793 -0.0350
 2502SOL    HW119142   1.272   0.676   7.963 -0.5047 -1.3648  0.5355
 2502SOL    HW219143   1.227   0.807   7.931 -1.2049 -1.9433 -1.8214
 2503SOL     OW19144   1.979   1.309   2.898  0.2441  0.5899  0.3379
 2503SOL    HW119145   2.050   1.253   2.931 -1.1208  0.1306  2.5038
 2503SOL    HW219146   1.964   1.355   2.981 -0.6514 -0.5721  0.8264
 2504SOL     OW19147   3.972   1.298  13.452  0.0691  0.0187 -0.2386
 2504SOL    HW119148   3.885   1.260  13.468  0.1616  0.1455  0.5723
 2504SOL    HW219149   3.960   1.389  13.479  0.5723  0.2676 -0.8670
 2505SOL     OW19150   2.667   4.210  16.365 -0.6088  0.2694 -0.1208
 2505SOL    HW119151   2.693   4.231  16.275  2.4466 -1.2293  0.4273
 2505SOL    HW219152   2.735   4.245  16.422 -0.8817 -2.8671  2.0827
 2506SOL     OW19153   3.807   4.189   6.219 -0.0714  0.2358  0.1168
 2506SOL    HW119154   3.756   4.114   6.187 -0.8472  1.4618 -1.5035
 2506SOL    HW219155   3.739   4.254   6.232 -2.5701 -2.1215 -1.2239
 2507SOL     OW19156   4.253   2.504  10.366 -0.6551 -0.3027 -0.0148
 2507SOL    HW119157   4.195   2.447  10.315  0.6282  0.7891 -2.6856
 2507SOL    HW219158   4.335   2.455  10.358  0.0877  1.2474 -1.7471
 2508SOL     OW19159   0.542   0.213   0.874  0.1287  0.8472 -0.1597
 2508SOL    HW119160   0.502   0.287   0.919 -0.6885  0.4069 -0.1529
 2508SOL    HW219161   0.485   0.139   0.894  0.9598 -0.3914 -2.4291
 2509SOL     OW19162   0.758   3.984   5.561  0.6257  0.0181  0.4557
 2509SOL    HW119163   0.777   4.023   5.646 -1.8438  0.7088  0.6986
 2509SOL    HW219164   0.663   3.974   5.570  0.5697 -0.2917 -0.5128
 2510SOL     OW19165   4.314   1.898   5.018 -0.7147  0.2813 -0.5126
 2510SOL    HW119166   4.381   1.925   4.956 -0.5852 -1.1990 -0.9981
 2510SOL    HW219167   4.290   1.982   5.058 -1.3427 -0.4041  0.5612
 2511SOL     OW19168   2.241   0.129   4.880 -0.7760  0.5335 -0.0898
 2511SOL    HW119169   2.324   0.097   4.916 -0.2279 -0.6339 -2.3718
 2511SOL    HW219170   2.260   0.111   4.787  1.8756 -0.7522  0.6970
 2512SOL     OW19171   3.538   3.133  13.447  0.0629  0.0890  0.1235
 2512SOL    HW119172   3.471   3.072  13.413 -1.2981  0.9317  1.3154
 2512SOL    HW219173   3.615   3.081  13.423  0.4527 -0.9632  3.6580
 2513SOL     OW19174   3.897   0.894   2.187 -0.3671  0.2681 -0.2485
 2513SOL    HW119175   3.973   0.893   2.129  0.2984 -0.4080  0.6396
 2513SOL    HW219176   3.913   0.821   2.246 -0.9760  0.1799 -0.1916
 2514SOL     OW19177   2.578   1.263  16.637 -0.2673 -0.1802 -0.7595
 2514SOL    HW119178   2.608   1.335  16.581  0.1620 -0.5042 -0.9511
 2514SOL    HW219179   2.665   1.230  16.661  1.0254  1.6805 -2.9230
 2515SOL     OW19180   2.591   3.662   4.276  0.2465  0.4264 -0.3193
 2515SOL    HW119181   2.604   3.629   4.365  1.7756  1.3278 -0.1884
 2515SOL    HW219182   2.497   3.665   4.264  0.2363 -1.5500 -0.7142
 2516SOL     OW19183   0.897   0.149   0.002  0.2837  0.0887 -0.5440
 2516SOL    HW119184   0.931   0.210  17.679  0.8331 -3.5495 -3.6858
 2516SOL    HW219185   0.955   0.074  17.731 -0.1638 -0.2161 -0.7958
 2517SOL     OW19186   1.117   1.617   9.486  0.3293  1.1496 -0.0194
 2517SOL    HW119187   1.159   1.570   9.558 -0.2964 -2.0958 -1.7948
 2517SOL    HW219188   1.024   1.612   9.504  1.3013 -1.9204  4.2044
 2518SOL     OW19189   3.206   3.400   4.744 -0.1293  0.3236 -0.0503
 2518SOL    HW119190   3.280   3.458   4.732 -0.3379  1.1713  2.6751
 2518SOL    HW219191   3.244   3.369   4.827  2.1335  1.0045 -0.8567
 2519SOL     OW19192   0.802   0.547   2.749 -0.2134  0.3052  0.3017
 2519SOL    HW119193   0.814   0.619   2.688 -0.4672  1.1670  1.2815
 2519SOL    HW219194   0.720   0.511   2.716 -0.7245  1.3969  0.3894
 2520SOL     OW19195   0.831   2.941   0.352 -0.0702 -0.2516 -0.2070
 2520SOL    HW119196   0.872   3.027   0.346 -1.7392  0.6898  1.7619
 2520SOL    HW219197   0.836   2.915   0.444  1.0926  1.4685  0.2064
 2521SOL     OW19198   3.030   0.362  13.095  0.1388  0.1324  0.0580
 2521SOL    HW119199   3.119   0.374  13.130  0.5108  1.6390 -1.4041
 2521SOL    HW219200   3.045   0.290  13.034 -1.4942  0.3746 -0.6203
 2522SOL     OW19201   0.715   0.725   4.219 -0.1167 -0.0541 -0.2879
 2522SOL    HW119202   0.806   0.700   4.232 -0.0930  1.2111  1.9586
 2522SOL    HW219203   0.719   0.770   4.135 -2.7878  1.0516  0.1600
 2523SOL     OW19204   1.601   0.700   5.669 -0.0698 -0.5419  0.3799
 2523SOL    HW119205   1.609   0.713   5.575 -1.3357 -0.5658  0.2725
 2523SOL    HW219206   1.552   0.618   5.670  0.6213 -0.9506  2.1065
 2524SOL     OW19207   3.726   0.898   3.193  0.5283 -0.1567 -0.3059
 2524SOL    HW119208   3.691   0.907   3.104 -0.9512 -0.9836  0.1936
 2524SOL    HW219209   3.754   0.987   3.214 -0.5200  0.2496 -0.6457
 2525SOL     OW19210   2.173   3.601   7.485  0.2450  0.0017  0.4983
 2525SOL    HW119211   2.223   3.633   7.559  0.5485  0.6889  0.0017
 2525SOL    HW219212   2.233   3.615   7.412 -0.1607  0.1058  0.1806
 2526SOL     OW19213   2.675   0.997   0.160  0.2629  0.1131  0.7141
 2526SOL    HW119214   2.694   1.053   0.085 -1.0858 -1.0993 -0.5438
 2526SOL    HW219215   2.757   0.971   0.200  0.2151  1.4112  1.6663
 2527SOL     OW19216   4.093   3.630   0.713  0.0935  0.3519  0.3230
 2527SOL    HW119217   4.068   3.546   0.751 -0.5166  0.1973 -0.4300
 2527SOL    HW219218   4.118   3.609   0.623 -1.4197  1.6832 -0.3922
 2528SOL     OW19219   3.702   3.157  10.460 -0.2650  0.1016  0.3604
 2528SOL    HW119220   3.645   3.147  10.384  0.6205  0.1464 -0.3204
 2528SOL    HW219221   3.637   3.171  10.528 -2.0797  1.7750 -1.7386
 2529SOL     OW19222   1.226   3.274   2.620 -0.0896 -0.1323 -0.0706
 2529SOL    HW119223   1.150   3.291   2.676 -1.2403 -2.8017 -0.8144
 2529SOL    HW219224   1.305   3.281   2.673 -1.0985  1.3955  1.2534
 2530SOL     OW19225   0.534   2.757   9.373  0.5779  0.0653 -0.3045
 2530SOL    HW119226   0.518   2.836   9.424  4.0462 -0.2223  1.2415
 2530SOL    HW219227   0.466   2.707   9.418  0.8544  0.2624  0.3357
 2531SOL     OW19228   0.499   0.528   4.200 -0.1855  0.4140  0.3749
 2531SOL    HW119229   0.549   0.610   4.201  1.0733 -0.3886  2.6477
 2531SOL    HW219230   0.570   0.467   4.219  0.7174  0.8153 -1.7155
 2532SOL     OW19231   1.998   0.393   3.070 -0.9083 -0.3275  0.2008
 2532SOL    HW119232   1.988   0.330   2.999 -1.0412  0.2388 -0.2902
 2532SOL    HW219233   1.963   0.344   3.144 -1.2875 -0.5346 -0.1154
 2533SOL     OW19234   3.723   3.788   1.713 -0.5365 -0.3979 -0.3660
 2533SOL    HW119235   3.731   3.876   1.749  2.5976 -0.8348 -0.0342
 2533SOL    HW219236   3.632   3.768   1.735  0.0258 -2.8334 -0.2631
 2534SOL     OW19237   4.692   4.300   7.189 -0.3984  0.1170 -0.1842
 2534SOL    HW119238   0.025   4.345   7.238  0.4980 -2.2445  0.7180
 2534SOL    HW219239   4.709   4.340   7.104  2.8455 -0.2669  0.2812
 2535SOL     OW19240   1.770   2.857   3.316 -0.8866  0.1802 -0.7084
 2535SOL    HW119241   1.804   2.856   3.226  0.4283  2.8723 -0.2205
 2535SOL    HW219242   1.789   2.948   3.339  2.7197 -0.5371 -0.9713
 2536SOL     OW19243   2.901   0.764   3.411 -0.0648 -0.3184  0.3890
 2536SOL    HW119244   2.940   0.694   3.462 -0.3354 -0.8323 -0.1116
 2536SOL    HW219245   2.945   0.839   3.452  0.6387  0.1329 -1.1376
 2537SOL     OW19246   2.684   4.042   7.486  0.2274 -0.0112 -0.7459
 2537SOL    HW119247   2.605   4.072   7.441  1.0965 -1.1798 -3.0619
 2537SOL    HW219248   2.654   4.030   7.575  0.1221 -0.4895 -0.8503
 2538SOL     OW19249   0.165   4.452  13.224 -0.8781  0.4673  0.0596
 2538SOL    HW119250   0.249   4.430  13.184 -0.3349  0.6146  1.1159
 2538SOL    HW219251   0.196   4.467  13.313 -0.5803  0.2521 -0.0100
 2539SOL     OW19252   3.465   1.070   8.126  0.4086  0.0414 -0.2165
 2539SOL    HW119253   3.458   1.001   8.192  1.0158  1.0678  0.9288
 2539SOL    HW219254   3.374   1.093   8.108 -0.7364 -2.3467  2.5169
 2540SOL     OW19255   1.932   2.375   3.000 -0.6182  0.4245  0.1555
 2540SOL    HW119256   1.983   2.452   3.026 -0.1569  0.5775 -1.1804
 2540SOL    HW219257   1.962   2.320   3.072 -0.8451  1.4330  1.0198
 2541SOL     OW19258   1.151   3.117   4.230  0.3446  0.2240  0.4738
 2541SOL    HW119259   1.127   3.159   4.313  1.0775  0.4600  0.5667
 2541SOL    HW219260   1.067   3.117   4.185  0.2536 -1.7279  0.6287
 2542SOL     OW19261   0.956   4.609  12.440 -0.3451  0.0824  0.0343
 2542SOL    HW119262   0.918   4.649  12.362 -1.2945 -0.5929  0.1544
 2542SOL    HW219263   1.025   4.674  12.454 -2.1194  1.3180  3.1460
 2543SOL     OW19264   0.011   2.325   9.169 -0.6886  0.3101 -0.3580
 2543SOL    HW119265   0.042   2.277   9.246  2.5704 -0.5846 -2.2339
 2543SOL    HW219266   4.677   2.379   9.207 -0.5242  0.0424  0.3209
 2544SOL     OW19267   1.244   4.268   0.520  0.1508  0.4240  0.6473
 2544SOL    HW119268   1.256   4.337   0.585  3.7011  0.0261  0.4371
 2544SOL    HW219269   1.196   4.207   0.576 -1.0650  2.0510  1.3739
 2545SOL     OW19270   1.492   2.720   8.925 -0.7385  0.3316 -0.0801
 2545SOL    HW119271   1.475   2.813   8.910  3.4278  1.2290  0.7342
 2545SOL    HW219272   1.410   2.679   8.897 -0.7367  0.1673  0.1568
 2546SOL     OW19273   1.957   3.732   5.845 -0.0471 -0.5990 -0.0544
 2546SOL    HW119274   2.040   3.710   5.803  0.3775  1.9877 -0.5692
 2546SOL    HW219275   1.975   3.693   5.930  1.7627  0.6826  0.1494
 2547SOL     OW19276   0.990   2.822   6.527 -0.0748  0.0653 -0.1936
 2547SOL    HW119277   1.048   2.885   6.569 -1.3795  2.3255 -1.7992
 2547SOL    HW219278   0.939   2.880   6.471 -1.5538 -0.9198  0.1138
 2548SOL     OW19279   0.544   4.437   3.000  0.1821 -0.1766  0.1171
 2548SOL    HW119280   0.599   4.359   3.008 -2.1846 -1.8648 -0.0933
 2548SOL    HW219281   0.580   4.497   3.065  0.0153  0.7311 -0.6289
 2549SOL     OW19282   0.918   1.977   3.916  0.4534  0.0409  0.5723
 2549SOL    HW119283   0.966   2.001   3.995  0.9037 -2.7099  1.1088
 2549SOL    HW219284   0.994   1.945   3.867 -1.5395  0.8269 -3.0492
 2550SOL     OW19285   2.042   2.722   2.722 -0.1536 -0.0837  0.4403
 2550SOL    HW119286   2.134   2.729   2.697 -0.6431 -0.6279 -1.5031
 2550SOL    HW219287   2.027   2.627   2.716  0.9135 -0.2562  0.3747
 2551SOL     OW19288   1.078   1.135   6.777  0.3906 -0.2499 -0.1418
 2551SOL    HW119289   1.162   1.130   6.732  0.7309  2.4112  0.2014
 2551SOL    HW219290   1.086   1.061   6.838 -1.2183 -0.5571 -0.3125
 2552SOL     OW19291   0.064   2.998   2.139  0.0503 -0.5092 -0.1717
 2552SOL    HW119292   0.088   2.925   2.083 -2.5308  1.0843 -3.3347
 2552SOL    HW219293   0.145   3.013   2.187 -0.8962  1.0113  0.9790
 2553SOL     OW19294   2.977   2.542  10.814 -0.2821  0.4028  0.4017
 2553SOL    HW119295   2.922   2.593  10.754 -1.0490 -0.8410  0.0424
 2553SOL    HW219296   2.926   2.507  10.887  1.5771  0.5240  1.7480
 2554SOL     OW19297   4.567   4.140   2.812  0.5710 -0.2722 -0.0238
 2554SOL    HW119298   4.556   4.180   2.898  0.4066  0.1409 -0.2353
 2554SOL    HW219299   4.660   4.117   2.808 -0.0878 -2.7871 -0.9032
 2555SOL     OW19300   3.007   2.426   5.858 -0.6452  0.0027 -0.4369
 2555SOL    HW119301   3.041   2.498   5.805 -0.4680  0.5760  0.4530
 2555SOL    HW219302   3.026   2.348   5.805  0.5584 -0.1785  0.2595
 2556SOL     OW19303   0.420   0.116  12.925  0.0165  0.5571 -0.1486
 2556SOL    HW119304   0.447   0.073  12.844 -0.9676  3.5280 -2.0578
 2556SOL    HW219305   0.394   0.042  12.979 -1.4171  1.1554 -0.0340
 2557SOL     OW19306   4.626   2.163  17.459 -0.2596  0.1906  0.4330
 2557SOL    HW119307   4.571   2.212  17.398 -0.8670 -0.5639  0.3750
 2557SOL    HW219308   4.612   2.207  17.543  1.5986 -0.2538  0.9583
 2558SOL     OW19309   4.310   4.309  10.104 -0.7064 -0.5173 -0.0282
 2558SOL    HW119310   4.348   4.287  10.018 -0.9286 -0.2008 -0.2045
 2558SOL    HW219311   4.394   4.325  10.148 -1.4614  0.8600  0.8866
 2559SOL     OW19312   4.188   0.886  17.263 -0.2688  0.1107  0.3398
 2559SOL    HW119313   4.096   0.897  17.288 -0.2921 -1.9337  1.1098
 2559SOL    HW219314   4.189   0.953  17.194 -2.3425  0.8422  1.0166
 2560SOL     OW19315   1.190   0.228   0.474  0.0447  0.0347  0.2141
 2560SOL    HW119316   1.231   0.314   0.487  1.4272 -0.4556 -0.8227
 2560SOL    HW219317   1.155   0.222   0.562  0.1351  0.4376  0.2796
 2561SOL     OW19318   4.197   1.970   1.541  0.4465 -0.0160 -0.5880
 2561SOL    HW119319   4.231   1.923   1.617 -0.8468 -0.6162 -0.3780
 2561SOL    HW219320   4.119   2.011   1.578  0.8933  0.4165 -0.1370
 2562SOL     OW19321   2.590   4.016   8.906  0.0236 -0.1268 -0.3935
 2562SOL    HW119322   2.673   3.969   8.910  0.8792  1.2718 -1.8187
 2562SOL    HW219323   2.582   4.050   8.995  0.0962  0.4744 -0.6191
 2563SOL     OW19324   1.116   4.620  13.709 -0.5695  0.2108 -0.0208
 2563SOL    HW119325   1.193   4.673  13.688  0.1719 -1.4363 -1.4191
 2563SOL    HW219326   1.049   4.664  13.655 -1.1517  0.4142  0.8702
 2564SOL     OW19327   1.600   3.041  10.401 -0.3014 -0.0654  0.8595
 2564SOL    HW119328   1.572   2.995  10.480 -0.5498 -0.9146  0.2779
 2564SOL    HW219329   1.527   3.014  10.345  1.6685  2.6427 -3.0615
 2565SOL     OW19330   3.779   1.443   4.996 -0.4809  0.1141  1.1062
 2565SOL    HW119331   3.755   1.419   4.907  0.7285  2.5199  0.1661
 2565SOL    HW219332   3.863   1.486   4.979  0.6260 -2.6543 -0.4457
 2566SOL     OW19333   3.933   3.212   7.057  0.1090  0.1796 -0.4074
 2566SOL    HW119334   3.846   3.176   7.078  0.9379 -1.4986  0.1237
 2566SOL    HW219335   3.995   3.146   7.085 -0.3984 -0.2941 -0.3990
 2567SOL     OW19336   2.410   1.150   8.486  0.3304  0.6084  0.1307
 2567SOL    HW119337   2.358   1.152   8.567  1.4991  2.3909  0.8357
 2567SOL    HW219338   2.413   1.058   8.463  1.2423  0.7581 -0.3325
 2568SOL     OW19339   0.279   2.429   4.884 -0.3455 -0.6021  0.0660
 2568SOL    HW119340   0.306   2.513   4.922 -0.2074  0.1557 -1.7009
 2568SOL    HW219341   0.362   2.390   4.857  0.3012 -0.1427  1.3849
 2569SOL     OW19342   1.353   1.722  17.599 -0.4000 -0.3105  0.2415
 2569SOL    HW119343   1.337   1.656  17.666 -3.4370 -1.6816 -1.8675
 2569SOL    HW219344   1.378   1.793  17.658 -3.5010  1.6410 -0.8084
 2570SOL     OW19345   1.793   0.992   9.189 -0.0914  0.3185  0.3839
 2570SOL    HW119346   1.741   1.035   9.120 -0.7169 -1.3922 -0.1937
 2570SOL    HW219347   1.731   0.947   9.245 -0.8624  1.1292  0.1840
 2571SOL     OW19348   2.402   3.367   0.366  0.5080  0.4195 -0.1311
 2571SOL    HW119349   2.429   3.335   0.280  0.0471  1.1824 -0.5637
 2571SOL    HW219350   2.307   3.379   0.357  0.2105 -2.1125 -0.1999
 2572SOL     OW19351   1.253   1.683   3.024  0.0781 -0.2095  0.4672
 2572SOL    HW119352   1.298   1.607   2.985 -0.1270 -0.5535  0.8975
 2572SOL    HW219353   1.259   1.732   2.942 -0.6049  1.6452  1.5322
 2573SOL     OW19354   0.207   1.674   7.407 -0.0862 -0.1426 -0.1170
 2573SOL    HW119355   0.185   1.732   7.479  0.6829  0.6441 -0.5191
 2573SOL    HW219356   0.292   1.711   7.382  0.5166 -1.8477 -0.5860
 2574SOL     OW19357   1.078   2.511  10.786 -0.4886  0.0757 -0.6776
 2574SOL    HW119358   1.115   2.541  10.703  0.4422  1.4866  0.2301
 2574SOL    HW219359   1.086   2.591  10.838  0.4964 -0.2282 -0.3649
 2575SOL     OW19360   2.098   0.049   7.623  0.2750  0.4168 -0.3809
 2575SOL    HW119361   2.088   4.689   7.618 -0.3158  0.5677 -2.0403
 2575SOL    HW219362   2.113   0.082   7.534  1.1386  0.3894 -0.2408
 2576SOL     OW19363   2.679   4.561   2.562 -0.0224 -0.2701  0.2483
 2576SOL    HW119364   2.584   4.550   2.571  0.3106 -3.0011  0.2844
 2576SOL    HW219365   2.689   4.637   2.619 -0.8789  0.2349 -0.2684
 2577SOL     OW19366   0.770   0.814   1.768  0.1363  0.0549 -0.5647
 2577SOL    HW119367   0.843   0.875   1.754  0.3696 -0.4687 -1.6145
 2577SOL    HW219368   0.800   0.736   1.722  1.7956  1.7336 -2.3588
 2578SOL     OW19369   1.498   3.545   3.017 -0.5807  0.5435 -0.0807
 2578SOL    HW119370   1.593   3.556   3.009 -0.1573 -2.0262  1.1665
 2578SOL    HW219371   1.483   3.601   3.093  0.0058 -0.2676  0.6379
 2579SOL     OW19372   1.985   2.378   5.627 -0.3801  0.3110 -0.0823
 2579SOL    HW119373   2.038   2.452   5.657 -0.2031 -0.6575  2.0025
 2579SOL    HW219374   1.994   2.313   5.697  0.6583  0.0480 -0.4553
 2580SOL     OW19375   1.058   2.656   3.165 -0.6351 -0.3382 -0.6801
 2580SOL    HW119376   1.097   2.653   3.252  0.1878  0.0288 -1.0326
 2580SOL    HW219377   1.119   2.707   3.111 -1.9648 -1.1112 -2.9157
 2581SOL     OW19378   1.715   4.131  13.471  0.0224 -0.3515 -0.0956
 2581SOL    HW119379   1.783   4.113  13.537 -0.3357 -0.8332  0.1470
 2581SOL    HW219380   1.631   4.138  13.516 -0.1926 -2.9894 -0.0565
 2582SOL     OW19381   3.950   1.594   5.638 -0.2979 -0.1876 -0.0002
 2582SOL    HW119382   3.942   1.659   5.568 -0.4929  0.0110  0.2090
 2582SOL    HW219383   4.020   1.539   5.601  1.1509  0.8774  1.1542
 2583SOL     OW19384   1.712   3.828  16.898  0.6434 -0.4525 -0.1296
 2583SOL    HW119385   1.710   3.795  16.808 -1.7345  0.5497 -0.4557
 2583SOL    HW219386   1.793   3.880  16.895  1.3712 -1.6037 -0.4873
 2584SOL     OW19387   0.141   3.750  15.438 -0.0762  0.3980 -0.0564
 2584SOL    HW119388   0.113   3.701  15.361 -1.7504  2.1056 -0.5138
 2584SOL    HW219389   0.234   3.760  15.415  0.0186  1.5117  0.8083
 2585SOL     OW19390   4.715   1.486   3.447 -0.1916 -0.0819 -0.7424
 2585SOL    HW119391   4.689   1.532   3.367 -1.7580 -0.1570 -0.2746
 2585SOL    HW219392   4.631   1.488   3.492  0.6068  3.1043  0.5996
 2586SOL     OW19393   1.187   4.029   9.089  0.7026 -0.0320 -0.4743
 2586SOL    HW119394   1.216   3.967   9.022 -1.2109 -2.1479  0.6420
 2586SOL    HW219395   1.258   4.041   9.152  0.1521  1.1031 -0.0626
 2587SOL     OW19396   2.011   1.584   4.441  1.3995 -0.2415 -0.4917
 2587SOL    HW119397   2.049   1.521   4.503  0.3974 -0.1508  0.2107
 2587SOL    HW219398   2.034   1.661   4.492 -0.0024 -0.6948  0.8421
 2588SOL     OW19399   0.071   1.836   5.070 -0.2666 -0.4857 -0.4408
 2588SOL    HW119400   0.148   1.855   5.017  0.4158 -1.0456  0.3503
 2588SOL    HW219401   0.010   1.803   5.004  0.7082 -1.3521 -0.9085
 2589SOL     OW19402   3.539   4.087   8.595 -0.1548  0.3047  0.0162
 2589SOL    HW119403   3.628   4.060   8.619 -0.5779  0.2471  1.5052
 2589SOL    HW219404   3.507   4.142   8.666  0.0266  0.6080 -0.1391
 2590SOL     OW19405   4.619   2.228  13.530  0.1739 -0.7220 -0.3047
 2590SOL    HW119406   4.685   2.256  13.467 -1.1376 -0.3045 -1.4887
 2590SOL    HW219407   4.659   2.221  13.616  2.2341  1.7963 -1.0766
 2591SOL     OW19408   0.931   0.671   7.138 -0.1435 -0.1979 -0.1325
 2591SOL    HW119409   1.025   0.676   7.127 -0.1219  2.5501  1.3676
 2591SOL    HW219410   0.909   0.647   7.228 -0.4902  1.2581  0.1707
 2592SOL     OW19411   2.959   1.243   8.982  0.0722 -0.1034 -0.6268
 2592SOL    HW119412   2.944   1.313   8.918  0.8101  2.4076  1.9495
 2592SOL    HW219413   3.047   1.213   8.962 -0.4939 -2.4081  0.4348
 2593SOL     OW19414   3.317   1.839  12.863  0.2719 -0.0577 -0.4351
 2593SOL    HW119415   3.405   1.802  12.857 -0.4192 -1.6971 -0.4605
 2593SOL    HW219416   3.308   1.878  12.950 -2.3454 -1.1301 -0.2382
 2594SOL     OW19417   1.071   1.507   5.441  0.0066  0.0252 -0.9393
 2594SOL    HW119418   1.161   1.538   5.453 -0.2995  0.7373 -0.3996
 2594SOL    HW219419   1.072   1.429   5.386  1.9382 -0.2471 -0.5000
 2595SOL     OW19420   0.838   1.448  17.038 -0.9747  0.5698  0.2295
 2595SOL    HW119421   0.865   1.488  17.121  0.1163  0.2639  0.0217
 2595SOL    HW219422   0.924   1.406  17.029 -0.1906  2.3086 -0.4043
 2596SOL     OW19423   4.286   2.436  15.116  0.1258  0.3812 -0.5284
 2596SOL    HW119424   4.382   2.438  15.124  0.3021  1.6241 -3.0476
 2596SOL    HW219425   4.254   2.508  15.170  1.5627 -0.1493  1.0456
 2597SOL     OW19426   3.313   4.324   5.052 -0.0924  0.6957  0.0054
 2597SOL    HW119427   3.390   4.380   5.046  0.6223 -0.6507 -2.9308
 2597SOL    HW219428   3.261   4.390   5.098 -0.8165  1.1762 -1.4867
 2598SOL     OW19429   1.640   3.758   7.112 -0.0969  0.2271 -0.2980
 2598SOL    HW119430   1.689   3.722   7.187 -1.2070 -0.7032 -0.0205
 2598SOL    HW219431   1.560   3.789   7.153 -0.4601 -2.3269  0.9148
 2599SOL     OW19432   2.144   2.504   9.190 -0.1262 -0.1900 -0.2263
 2599SOL    HW119433   2.108   2.547   9.267  3.0646 -0.3193  1.3425
 2599SOL    HW219434   2.176   2.422   9.227  1.0023  1.0944  1.6628
 2600SOL     OW19435   1.994   1.038   6.138  0.1186 -0.8844  0.5364
 2600SOL    HW119436   2.014   0.959   6.190  1.6594  0.5360  2.0841
 2600SOL    HW219437   1.998   1.107   6.204  0.8021 -1.3800  1.0134
 2601SOL     OW19438   0.937   2.170   8.095  0.1480 -0.2045  0.0053
 2601SOL    HW119439   0.882   2.105   8.051  0.9258 -0.7960 -0.0765
 2601SOL    HW219440   0.968   2.124   8.173 -0.0404  0.3998  0.4473
 2602SOL     OW19441   4.267   4.363   5.614  0.1736  0.0581 -0.1640
 2602SOL    HW119442   4.309   4.447   5.631  0.1751 -0.4073  2.2251
 2602SOL    HW219443   4.297   4.317   5.693  2.3335 -1.0322 -1.6454
 2603SOL     OW19444   2.676   0.887  12.601  0.1199 -0.0585 -0.4653
 2603SOL    HW119445   2.599   0.941  12.582  0.6297  1.4575  1.8383
 2603SOL    HW219446   2.734   0.944  12.551 -0.9794  2.5343  1.2197
 2604SOL     OW19447   4.125   4.164   5.956  0.2342  0.2958  0.4715
 2604SOL    HW119448   4.208   4.208   5.970  1.0654 -1.4580  1.0099
 2604SOL    HW219449   4.052   4.224   5.973 -0.5432 -0.1721 -1.1279
 2605SOL     OW19450   1.549   2.148   7.576 -0.0774  0.5886  0.0534
 2605SOL    HW119451   1.490   2.172   7.505  0.9576 -1.9873 -1.6580
 2605SOL    HW219452   1.581   2.061   7.551  2.9369  2.3244 -1.9745
 2606SOL     OW19453   2.979   1.210   2.835  0.1222  0.2688  0.1119
 2606SOL    HW119454   3.048   1.156   2.872  0.0968 -0.8161 -1.4525
 2606SOL    HW219455   2.990   1.299   2.869  1.4409 -0.1442  0.7798
 2607SOL     OW19456   1.136   4.166  11.250 -0.4041 -0.3702  0.3166
 2607SOL    HW119457   1.111   4.096  11.310  2.2799  1.4903  3.6353
 2607SOL    HW219458   1.093   4.145  11.167  1.8664 -0.3212 -0.8849
 2608SOL     OW19459   0.026   0.443   4.505  0.0321 -0.2039 -0.8254
 2608SOL    HW119460   4.723   0.473   4.423 -0.8741  0.4804 -0.1433
 2608SOL    HW219461   0.102   0.393   4.476  0.4037 -1.2527  1.9824
 2609SOL     OW19462   1.777   1.796   7.088 -0.1258  0.3460 -0.2059
 2609SOL    HW119463   1.722   1.863   7.128  0.2941  0.6098 -0.0810
 2609SOL    HW219464   1.805   1.832   7.004 -0.6945  0.5713 -0.3040
 2610SOL     OW19465   1.260   3.666   2.419 -0.3208  0.0472  0.0799
 2610SOL    HW119466   1.189   3.601   2.422 -0.5231  0.2115 -0.8778
 2610SOL    HW219467   1.325   3.617   2.368 -2.1935 -2.2683 -0.1495
 2611SOL     OW19468   4.387   3.319   1.257 -0.0402  0.1506  0.0998
 2611SOL    HW119469   4.362   3.276   1.339  0.7281  1.4105  0.9992
 2611SOL    HW219470   4.349   3.403   1.283  2.3581  0.7161  1.7832
 2612SOL     OW19471   3.981   1.993   6.095  0.2564  0.2419  0.1298
 2612SOL    HW119472   3.941   1.912   6.063 -1.2075  0.2471  1.9204
 2612SOL    HW219473   4.029   2.025   6.019 -0.1690  1.5482  0.4047
 2613SOL     OW19474   2.411   0.722  11.062 -0.0344  0.1104 -0.0661
 2613SOL    HW119475   2.407   0.772  11.144 -0.4399  0.7211 -0.4531
 2613SOL    HW219476   2.469   0.774  11.006 -1.4949  2.6344  0.7526
 2614SOL     OW19477   4.688   3.308  10.406  0.3223  0.4502 -0.3914
 2614SOL    HW119478   4.682   3.363  10.484  1.5870  0.0311 -0.0010
 2614SOL    HW219479   4.687   3.224  10.452  0.7444  0.8492  0.3485
 2615SOL     OW19480   1.405   0.881  10.591  0.3431 -0.0672  0.0307
 2615SOL    HW119481   1.342   0.948  10.617  0.9552  0.6862 -0.4328
 2615SOL    HW219482   1.416   0.845  10.678 -0.3040  1.4201  0.7255
 2616SOL     OW19483   2.741   1.392   2.445 -0.2215  0.2836  0.1604
 2616SOL    HW119484   2.693   1.438   2.514  1.1773 -0.6155  1.7333
 2616SOL    HW219485   2.802   1.465   2.426  1.2971 -1.5667 -2.0522
 2617SOL     OW19486   1.458   0.781  14.024  0.3555  0.2368 -0.4583
 2617SOL    HW119487   1.387   0.731  14.064 -1.0702  1.9568 -0.8582
 2617SOL    HW219488   1.532   0.721  14.037  0.3273  0.2789 -0.1056
 2618SOL     OW19489   1.729   1.876   5.821 -0.5476 -0.3532  0.1139
 2618SOL    HW119490   1.801   1.912   5.770 -0.3093 -0.4813  0.3588
 2618SOL    HW219491   1.688   1.956   5.854  1.8499  1.2509 -0.8683
 2619SOL     OW19492   1.733   1.238   3.901 -0.2512 -0.7417 -0.2322
 2619SOL    HW119493   1.827   1.243   3.917 -0.1327 -3.7445  0.1292
 2619SOL    HW219494   1.707   1.226   3.992 -1.3613  0.1776 -0.4258
 2620SOL     OW19495   2.685   4.163   5.430  0.1137 -0.2143 -0.5492
 2620SOL    HW119496   2.682   4.075   5.390 -1.3213 -0.2606 -0.3636
 2620SOL    HW219497   2.767   4.156   5.479 -0.6764 -0.6483  0.7118
 2621SOL     OW19498   0.774   2.483   8.321  0.2094  0.0136 -0.4199
 2621SOL    HW119499   0.846   2.441   8.369 -1.1456 -1.1810  0.5887
 2621SOL    HW219500   0.759   2.561   8.374  3.7335  1.0828 -0.9688
 2622SOL     OW19501   4.688   2.269   6.377 -0.0129 -0.4655 -0.0754
 2622SOL    HW119502   4.678   2.211   6.302  0.8195  1.2997 -1.5409
 2622SOL    HW219503   4.705   2.355   6.339 -0.1216 -0.2367  0.4031
 2623SOL     OW19504   1.344   4.232   6.522  0.6939 -0.0279 -0.1111
 2623SOL    HW119505   1.397   4.280   6.459  0.1884 -1.9266 -1.9827
 2623SOL    HW219506   1.353   4.139   6.501 -0.5216 -0.3018  0.5969
 2624SOL     OW19507   4.002   0.610   3.539  0.4206 -0.1576  0.4677
 2624SOL    HW119508   3.912   0.591   3.567 -0.3215 -0.4235 -2.0888
 2624SOL    HW219509   4.012   0.539   3.476 -1.9785 -0.5664  0.5372
 2625SOL     OW19510   1.486   4.115   7.830 -0.1461 -0.0444 -0.4799
 2625SOL    HW119511   1.445   4.071   7.904 -0.9259  1.7543  0.1553
 2625SOL    HW219512   1.424   4.100   7.759  0.7972  0.2806 -1.3616
 2626SOL     OW19513   1.319   0.757  12.389  0.1639 -0.2086  0.0011
 2626SOL    HW119514   1.402   0.711  12.393  2.6756  4.4040  1.1619
 2626SOL    HW219515   1.301   0.783  12.479 -1.3946  2.7002 -1.1297
 2627SOL     OW19516   4.397   1.962   2.437 -0.1759 -0.0775 -0.2489
 2627SOL    HW119517   4.315   2.006   2.414  1.7090  3.0531 -1.0292
 2627SOL    HW219518   4.363   1.873   2.446 -3.7941  1.4755  1.5768
 2628SOL     OW19519   4.678   1.679   2.203 -0.1372  0.2077 -0.3671
 2628SOL    HW119520   0.027   1.705   2.166 -0.0160 -0.6356 -0.6660
 2628SOL    HW219521   4.639   1.766   2.218  0.7273  0.2033  1.8062
 2629SOL     OW19522   2.540   3.148  16.405 -0.6854 -0.5572  0.0765
 2629SOL    HW119523   2.597   3.206  16.455  1.5675 -0.1668 -2.9583
 2629SOL    HW219524   2.546   3.057  16.433 -2.5867 -1.1771 -1.5139
 2630SOL     OW19525   4.499   4.197   7.721  0.2107 -0.3669  0.1948
 2630SOL    HW119526   4.442   4.274   7.723 -0.1277 -0.6777  2.3503
 2630SOL    HW219527   4.576   4.240   7.685 -0.0312 -0.7709 -0.7898
 2631SOL     OW19528   1.259   2.182   3.500 -0.6838 -0.1759 -0.2289
 2631SOL    HW119529   1.348   2.205   3.474  0.8990 -4.7844  1.1274
 2631SOL    HW219530   1.260   2.090   3.475  0.9322 -0.4650  0.9214
 2632SOL     OW19531   0.109   1.341   4.086 -0.2519  0.3483 -0.0571
 2632SOL    HW119532   0.171   1.298   4.027 -1.0946 -0.5924 -0.2476
 2632SOL    HW219533   0.168   1.400   4.133 -1.2544 -0.4623  2.1842
 2633SOL     OW19534   0.080   2.881   6.286  0.1231  0.1666  0.1368
 2633SOL    HW119535   0.038   2.967   6.284 -0.1139  0.0063 -1.4697
 2633SOL    HW219536   0.073   2.853   6.195 -2.0513 -1.2115  0.7145
 2634SOL     OW19537   3.384   3.502   8.112  0.0701 -0.4469  0.3080
 2634SOL    HW119538   3.428   3.542   8.037 -0.9639  0.8922  0.4076
 2634SOL    HW219539   3.426   3.417   8.104  2.1371  0.7579 -1.5089
 2635SOL     OW19540   3.460   1.874   1.603  0.2268  0.1603  0.5266
 2635SOL    HW119541   3.549   1.889   1.633  0.1085  2.1095 -0.0998
 2635SOL    HW219542   3.473   1.849   1.511 -1.1525  1.0416  0.0887
 2636SOL     OW19543   1.045   2.980   5.521 -0.0119 -0.6625  0.0176
 2636SOL    HW119544   0.991   2.918   5.472 -2.1552  0.5511  0.8843
 2636SOL    HW219545   1.133   2.959   5.488 -0.1201 -1.2127  0.0713
 2637SOL     OW19546   2.487   0.089   3.379  0.2633  0.1667  0.0420
 2637SOL    HW119547   2.430   0.013   3.370  0.1425  0.2298  0.2654
 2637SOL    HW219548   2.472   0.118   3.289 -2.0165  0.0832  0.3833
 2638SOL     OW19549   4.416   0.837   8.114 -0.1789 -0.4908 -1.1239
 2638SOL    HW119550   4.456   0.924   8.116  1.9305 -1.4557 -0.9633
 2638SOL    HW219551   4.344   0.838   8.177 -0.4816 -0.4545 -1.4780
 2639SOL     OW19552   2.342   4.540   6.204 -0.1527 -0.0910  0.5564
 2639SOL    HW119553   2.434   4.563   6.188 -0.4389  0.6342 -0.0650
 2639SOL    HW219554   2.321   4.587   6.285 -2.2073 -0.1143  0.0128
 2640SOL     OW19555   1.340   2.534   3.792  0.6222 -0.0966  0.0573
 2640SOL    HW119556   1.337   2.438   3.797 -2.3150 -0.0007  0.0885
 2640SOL    HW219557   1.268   2.558   3.735  0.3458  1.2381  0.9808
 2641SOL     OW19558   0.159   1.543   7.859  0.0297 -0.0980  0.1044
 2641SOL    HW119559   0.085   1.570   7.805  0.3304  1.0046  0.2625
 2641SOL    HW219560   0.226   1.537   7.791 -0.4568 -1.7119 -0.2507
 2642SOL     OW19561   4.190   0.889   8.904  0.2820  0.7043  0.1082
 2642SOL    HW119562   4.171   0.848   8.989  1.0278  2.8866  1.3483
 2642SOL    HW219563   4.230   0.971   8.935 -2.1430  1.9381  0.0103
 2643SOL     OW19564   0.019   1.131   9.365 -0.3278 -0.3740  0.0612
 2643SOL    HW119565   0.015   1.095   9.276 -0.3669  0.9992 -0.4879
 2643SOL    HW219566   0.104   1.094   9.390 -0.7316 -0.7707  0.8557
 2644SOL     OW19567   3.869   3.133   7.517  0.5439  0.1409 -0.0755
 2644SOL    HW119568   3.792   3.086   7.484 -0.3100  0.6801  1.1476
 2644SOL    HW219569   3.858   3.111   7.609  0.5750  0.7227  0.0677
 2645SOL     OW19570   0.190   3.958   9.618  0.2891  0.3068 -0.0881
 2645SOL    HW119571   0.208   4.024   9.685  2.1166 -1.9949  1.7085
 2645SOL    HW219572   0.274   3.968   9.574 -1.1350  2.0933 -2.4022
 2646SOL     OW19573   1.772   2.362   4.176  0.3104  0.3719  0.1670
 2646SOL    HW119574   1.677   2.359   4.167  0.1862  0.1649  1.6372
 2646SOL    HW219575   1.781   2.432   4.241  2.6392 -0.2846  0.5715
 2647SOL     OW19576   3.405   0.627  12.548 -0.7130  0.1612 -0.1572
 2647SOL    HW119577   3.458   0.550  12.567 -2.9074 -1.1867  0.4792
 2647SOL    HW219578   3.416   0.668  12.634  0.2717  0.7356 -0.5597
 2648SOL     OW19579   1.852   3.468  14.359  0.1673 -0.2721 -0.0459
 2648SOL    HW119580   1.764   3.505  14.369  0.0838 -0.1827 -1.0599
 2648SOL    HW219581   1.895   3.482  14.443  0.9375  0.0130 -0.4796
 2649SOL     OW19582   1.829   1.633   4.097  0.0327  0.4027  0.0649
 2649SOL    HW119583   1.808   1.679   4.015 -1.5603 -0.1202  0.1844
 2649SOL    HW219584   1.924   1.624   4.088 -0.0786  1.4666 -2.2192
 2650SOL     OW19585   0.658   1.909   1.783  0.5433 -0.5284  0.0858
 2650SOL    HW119586   0.587   1.845   1.782  1.1987 -1.2463  0.0923
 2650SOL    HW219587   0.668   1.910   1.688  0.6888 -0.8741  0.0980
 2651SOL     OW19588   0.636   4.340   0.251 -0.1545  0.2091  0.2421
 2651SOL    HW119589   0.719   4.388   0.250  0.5595 -1.0790 -0.8765
 2651SOL    HW219590   0.605   4.355   0.162 -1.0212  1.2818  0.7253
 2652SOL     OW19591   2.391   0.465  13.738  0.0683  0.0643  0.0383
 2652SOL    HW119592   2.427   0.527  13.674  0.8891 -1.3960 -0.9136
 2652SOL    HW219593   2.446   0.492  13.812  1.6881 -0.7255 -0.8882
 2653SOL     OW19594   4.404   0.121   4.782 -0.0658 -0.0698 -0.8074
 2653SOL    HW119595   4.447   0.140   4.866 -0.9402  1.5662 -0.7183
 2653SOL    HW219596   4.419   0.200   4.729 -1.8743  1.5857  1.1185
 2654SOL     OW19597   1.530   2.395   5.997  0.1125 -0.1904 -0.4239
 2654SOL    HW119598   1.498   2.402   6.087  0.9537  1.0377 -0.2256
 2654SOL    HW219599   1.606   2.452   6.007 -0.6280  0.0596  3.9474
 2655SOL     OW19600   0.404   3.396   2.508  0.7101 -0.4723 -0.0132
 2655SOL    HW119601   0.462   3.351   2.571  1.2484 -0.5941 -0.5962
 2655SOL    HW219602   0.320   3.375   2.547  1.2907  0.8514  1.9571
 2656SOL     OW19603   2.577   2.372   2.221  0.4805  0.7141 -0.6716
 2656SOL    HW119604   2.571   2.286   2.180  0.8269 -0.4026  1.6282
 2656SOL    HW219605   2.672   2.375   2.221  0.6176 -2.9776 -1.1935
 2657SOL     OW19606   3.264   0.338   5.279  0.8208  0.4044  0.4932
 2657SOL    HW119607   3.274   0.374   5.367 -0.0829 -0.7016  1.0445
 2657SOL    HW219608   3.323   0.265   5.264 -1.4903 -0.9643 -1.9874
 2658SOL     OW19609   0.245   2.595  12.594 -0.5505  0.4020 -0.3522
 2658SOL    HW119610   0.278   2.662  12.534 -0.6002 -1.1323 -2.0909
 2658SOL    HW219611   0.322   2.572  12.646 -0.8361 -0.1660 -0.1827
 2659SOL     OW19612   1.293   0.916  16.090  0.0427 -0.8209 -0.0074
 2659SOL    HW119613   1.332   0.905  16.176 -1.3914 -1.9799  0.4953
 2659SOL    HW219614   1.275   1.010  16.089 -2.2751 -1.2781 -0.6237
 2660SOL     OW19615   1.636   2.889  16.919  0.0831  0.1305 -0.4276
 2660SOL    HW119616   1.566   2.911  16.857 -0.2159 -0.4218 -0.2882
 2660SOL    HW219617   1.588   2.890  17.001  2.8760  1.4427  1.1638
 2661SOL     OW19618   4.608   0.639   7.795 -0.4053  0.0239 -0.0586
 2661SOL    HW119619   4.552   0.576   7.841  0.9677 -1.3590 -0.2751
 2661SOL    HW219620   4.544   0.671   7.732  0.4903  0.0044 -0.9724
 2662SOL     OW19621   1.304   0.311   8.224 -0.3866 -0.9465 -0.1568
 2662SOL    HW119622   1.371   0.326   8.291 -1.5261  2.9513  0.1618
 2662SOL    HW219623   1.370   0.303   8.155 -0.5132  1.5606 -0.5733
 2663SOL     OW19624   1.027   2.398   3.787 -0.1989 -0.1329  0.0164
 2663SOL    HW119625   1.111   2.353   3.793 -0.1830 -0.2015 -0.6672
 2663SOL    HW219626   1.037   2.473   3.844 -0.1462  1.7612 -2.4684
 2664SOL     OW19627   1.635   2.090   4.616  0.4184 -0.1482 -0.1144
 2664SOL    HW119628   1.557   2.120   4.569  0.5470  1.2424  0.5675
 2664SOL    HW219629   1.679   2.034   4.552  0.4209 -0.0866 -0.1674
 2665SOL     OW19630   4.534   4.278   3.386  0.5951 -0.2059  0.2227
 2665SOL    HW119631   4.581   4.356   3.415 -2.0197  1.7948 -0.9599
 2665SOL    HW219632   4.468   4.265   3.455  0.5542 -0.2297  0.1788
 2666SOL     OW19633   2.249   3.444  15.329  0.3944 -0.1525 -0.0378
 2666SOL    HW119634   2.345   3.438  15.332  0.5542  2.4267  0.2774
 2666SOL    HW219635   2.220   3.358  15.299 -1.1721 -0.3837  2.0815
 2667SOL     OW19636   0.057   4.322   9.650  0.1411  0.3377 -0.0583
 2667SOL    HW119637   0.134   4.315   9.594  0.6855 -0.6526  0.8142
 2667SOL    HW219638   0.093   4.355   9.733 -1.6644  1.3187  0.3500
 2668SOL     OW19639   0.028   0.134   1.968  0.1524  0.2030 -0.1498
 2668SOL    HW119640   0.019   0.221   1.929 -3.1872 -0.3711 -0.6230
 2668SOL    HW219641   0.047   0.091   1.884 -0.0877  1.7730 -1.0024
 2669SOL     OW19642   4.437   1.664   5.418 -0.3997  0.0588  0.5860
 2669SOL    HW119643   4.502   1.602   5.451 -0.4202 -0.4229 -0.2857
 2669SOL    HW219644   4.397   1.607   5.352  0.8320  2.8962 -2.6188
 2670SOL     OW19645   3.437   2.507  15.617  0.8773  0.1603  0.2147
 2670SOL    HW119646   3.422   2.447  15.690  0.4184  1.2051  0.9740
 2670SOL    HW219647   3.375   2.579  15.625 -1.5485 -1.7421 -1.2447
 2671SOL     OW19648   2.283   4.148  13.622 -0.1292  0.0687  0.8135
 2671SOL    HW119649   2.378   4.154  13.617 -0.3066  2.3761  0.1019
 2671SOL    HW219650   2.275   4.128  13.715  0.3950 -1.0420  0.6136
 2672SOL     OW19651   2.415   4.333  12.418 -0.1962  0.2647  0.2520
 2672SOL    HW119652   2.364   4.356  12.341  0.4739  1.4282  0.1563
 2672SOL    HW219653   2.351   4.322  12.488 -1.0380 -2.6465 -0.9965
 2673SOL     OW19654   2.204   3.278   5.600 -0.7699  0.1502 -0.4341
 2673SOL    HW119655   2.216   3.198   5.651  0.1332 -1.0841 -2.5589
 2673SOL    HW219656   2.127   3.323   5.634  0.5633  1.6387  0.6330
 2674SOL     OW19657   0.814   1.891   5.422 -0.0910  0.7605  0.0286
 2674SOL    HW119658   0.849   1.805   5.396 -1.7272 -0.3962  1.6549
 2674SOL    HW219659   0.755   1.866   5.493 -1.4405  0.0599 -1.3536
 2675SOL     OW19660   1.671   3.134   8.056 -0.4548 -0.7568  0.7661
 2675SOL    HW119661   1.600   3.082   8.018 -0.7707  1.5935 -1.8190
 2675SOL    HW219662   1.712   3.058   8.097 -1.2674 -1.4264  0.3236
 2676SOL     OW19663   1.105   1.617   7.520 -0.6446  0.5106 -0.3104
 2676SOL    HW119664   1.166   1.655   7.582 -0.6721  1.3537 -0.7909
 2676SOL    HW219665   1.088   1.695   7.467  2.0517 -0.3697 -2.4541
 2677SOL     OW19666   1.554   3.467   6.298  0.2262 -0.0395  0.0844
 2677SOL    HW119667   1.537   3.532   6.230 -2.1052 -1.2001 -0.4534
 2677SOL    HW219668   1.493   3.488   6.369 -0.0096 -0.1353 -0.0894
 2678SOL     OW19669   3.962   3.152   3.063  0.1928  0.2108 -0.2203
 2678SOL    HW119670   3.866   3.154   3.059  0.2545  2.5396 -0.0845
 2678SOL    HW219671   3.973   3.099   2.984  0.6914 -1.9694  1.3152
 2679SOL     OW19672   0.333   2.308   7.963 -0.6816  0.4534 -0.2007
 2679SOL    HW119673   0.324   2.243   7.893 -1.6216  0.3165  0.0434
 2679SOL    HW219674   0.244   2.343   7.965 -1.9620 -2.7998 -0.3638
 2680SOL     OW19675   3.726   2.056   2.855  0.4039 -0.1790 -0.1662
 2680SOL    HW119676   3.798   1.998   2.879  1.3658  0.2007 -2.1981
 2680SOL    HW219677   3.692   2.017   2.775 -1.6312  2.4091 -0.5559
 2681SOL     OW19678   2.675   1.923   4.497 -0.0332 -0.3138  0.0059
 2681SOL    HW119679   2.727   1.993   4.536 -0.6163  0.8977 -1.4294
 2681SOL    HW219680   2.601   1.905   4.555  1.6547 -1.4037  1.8493
 2682SOL     OW19681   1.766   3.935   3.689 -0.0882 -0.5127  0.2916
 2682SOL    HW119682   1.725   3.973   3.767  1.2714  1.3242  0.0869
 2682SOL    HW219683   1.857   3.963   3.697 -0.8281  2.3860 -1.4981
 2683SOL     OW19684   2.834   1.596   3.392 -0.3370 -0.2305 -0.2097
 2683SOL    HW119685   2.788   1.523   3.352  0.6837  0.2247 -2.1856
 2683SOL    HW219686   2.878   1.557   3.467  1.3692  0.0921 -1.0530
 2684SOL     OW19687   3.386   2.033  15.785 -0.0934  0.0937  0.1578
 2684SOL    HW119688   3.435   1.952  15.773  1.0198  0.8562 -0.4525
 2684SOL    HW219689   3.375   2.070  15.698 -1.2892 -1.3110 -0.3018
 2685SOL     OW19690   3.956   2.869  16.771  0.0836 -0.1451  0.2417
 2685SOL    HW119691   4.047   2.852  16.792 -0.7166 -0.7540  3.2230
 2685SOL    HW219692   3.937   2.937  16.836 -1.7009 -1.9152  1.6040
 2686SOL     OW19693   3.617   3.689   7.234 -0.0439 -0.1324  0.1840
 2686SOL    HW119694   3.708   3.681   7.205 -0.4984  1.9463 -1.8362
 2686SOL    HW219695   3.601   3.780   7.209 -1.1578 -1.4133 -3.7978
 2687SOL     OW19696   0.445   1.505   8.879  0.7555  0.4220  0.3661
 2687SOL    HW119697   0.428   1.496   8.785 -1.1741 -1.4482  0.8643
 2687SOL    HW219698   0.437   1.414   8.907 -2.3217  0.4128 -0.4660
 2688SOL     OW19699   2.953   0.695   4.742 -0.1194 -0.7015  0.6825
 2688SOL    HW119700   2.866   0.723   4.716  0.2644 -0.0678  0.0760
 2688SOL    HW219701   3.013   0.741   4.683 -2.0284 -1.5094 -1.8878
 2689SOL     OW19702   3.350   2.357  15.386 -0.5609  0.0434 -0.0845
 2689SOL    HW119703   3.429   2.375  15.335 -1.5189 -1.4057 -2.0769
 2689SOL    HW219704   3.365   2.412  15.462  1.0387 -0.4987 -0.0189
 2690SOL     OW19705   0.631   2.546   9.972 -0.2775  0.3247  0.1080
 2690SOL    HW119706   0.572   2.481   9.934  0.1394 -0.7362  1.2614
 2690SOL    HW219707   0.715   2.499   9.978  0.6401  1.7676 -1.6744
 2691SOL     OW19708   1.342   3.286  11.962  0.4061  0.2614  0.5282
 2691SOL    HW119709   1.430   3.313  11.936  0.0557  0.1688 -0.7342
 2691SOL    HW219710   1.293   3.322  11.889 -0.4900  0.5065  1.2486
 2692SOL     OW19711   3.791   1.005   8.258 -0.0552  0.0702  0.4966
 2692SOL    HW119712   3.790   1.082   8.316 -1.8388  0.7666 -0.4448
 2692SOL    HW219713   3.818   1.048   8.176  2.1822  1.1544  1.8188
 2693SOL     OW19714   0.680   1.923  17.276 -0.1003  0.3140 -0.4761
 2693SOL    HW119715   0.613   1.900  17.213 -1.1127  1.3414  0.2203
 2693SOL    HW219716   0.661   2.017  17.281  3.2668  1.0705 -1.3196
 2694SOL     OW19717   1.162   2.640   3.470 -0.0463 -1.0249 -0.4098
 2694SOL    HW119718   1.253   2.637   3.444  0.5346 -1.6468  1.6635
 2694SOL    HW219719   1.131   2.549   3.468 -1.5346 -0.4973 -1.9885
 2695SOL     OW19720   3.214   4.349   7.536 -0.6135 -0.2092 -0.0118
 2695SOL    HW119721   3.122   4.332   7.557 -0.7504  1.5089  0.7540
 2695SOL    HW219722   3.227   4.443   7.534 -2.9145  0.1025 -0.7610
 2696SOL     OW19723   2.118   4.449   4.355  0.2830  0.4647 -0.7401
 2696SOL    HW119724   2.083   4.537   4.337  0.3546  0.6710  0.1544
 2696SOL    HW219725   2.066   4.415   4.428  0.9675  0.8010 -0.1015
 2697SOL     OW19726   3.881   4.626   3.722  1.0019 -0.2681  0.3898
 2697SOL    HW119727   3.808   4.666   3.674  1.8482  0.5886 -0.1927
 2697SOL    HW219728   3.952   4.621   3.659  1.5877  2.3903  0.8245
 2698SOL     OW19729   0.310   4.630   5.833 -0.0484 -1.0159 -0.0718
 2698SOL    HW119730   0.367   4.670   5.898 -3.0224  1.8544  0.7986
 2698SOL    HW219731   0.366   4.645   5.757 -2.4747 -0.3036 -1.7354
 2699SOL     OW19732   3.865   3.918  16.746 -0.0452 -0.4098  0.4210
 2699SOL    HW119733   3.782   3.929  16.701  1.4302 -0.8119 -2.4492
 2699SOL    HW219734   3.917   3.862  16.688  1.6161 -1.3180  2.7906
 2700SOL     OW19735   2.643   0.845  10.972  0.3559  0.0532 -0.1813
 2700SOL    HW119736   2.670   0.851  11.063 -2.5930  0.4789  0.6464
 2700SOL    HW219737   2.632   0.936  10.946  2.7010  0.1485 -0.8243
 2701SOL     OW19738   4.388   1.601  12.423  0.5707 -0.4541 -0.1969
 2701SOL    HW119739   4.437   1.618  12.503  2.1709  0.4446 -1.3529
 2701SOL    HW219740   4.446   1.649  12.363 -0.6598 -0.4900 -1.3956
 2702SOL     OW19741   1.473   0.088   5.392 -0.0554  0.6488 -0.0511
 2702SOL    HW119742   1.565   0.079   5.417 -0.3334 -1.0131  0.3655
 2702SOL    HW219743   1.425   0.097   5.474 -1.4176  1.2959 -0.9220
 2703SOL     OW19744   2.777   2.291   9.272 -0.2010  0.4991  0.0535
 2703SOL    HW119745   2.844   2.336   9.322 -1.1725  1.9153  0.0946
 2703SOL    HW219746   2.743   2.231   9.338 -3.2217  3.7413  1.4384
 2704SOL     OW19747   0.038   0.385   1.880 -0.3366  0.1035  0.9717
 2704SOL    HW119748   4.707   0.423   1.823  0.3239 -1.8511 -1.0914
 2704SOL    HW219749   0.062   0.452   1.944 -2.9600  0.9304  1.0797
 2705SOL     OW19750   1.653   2.861  14.696  0.1692 -0.1880 -0.0557
 2705SOL    HW119751   1.645   2.937  14.639  4.1603  0.6987  0.5727
 2705SOL    HW219752   1.747   2.848  14.690  0.3479  0.7049  0.7428
 2706SOL     OW19753   0.072   3.056   4.293 -0.0596 -0.5878  0.2365
 2706SOL    HW119754   0.156   3.011   4.300  0.2823  0.5936  3.4152
 2706SOL    HW219755   0.015   3.000   4.345  1.6077 -1.6324  0.9643
 2707SOL     OW19756   3.787   2.036   6.270 -0.1229 -0.3147  0.0632
 2707SOL    HW119757   3.780   2.125   6.303  3.1376  0.1406 -0.4833
 2707SOL    HW219758   3.862   2.028   6.211  0.0884  2.0166  0.0433
 2708SOL     OW19759   2.058   2.945   6.425  0.2620  0.0956 -0.1923
 2708SOL    HW119760   1.990   2.926   6.490 -0.1745  0.0501 -0.6645
 2708SOL    HW219761   2.134   2.939   6.484 -0.4878  0.0019  0.7512
 2709SOL     OW19762   0.502   2.643   8.313  0.2046 -0.3237  0.2948
 2709SOL    HW119763   0.438   2.697   8.360 -2.3224 -3.6856  0.6493
 2709SOL    HW219764   0.582   2.664   8.362  0.6391 -1.6751  0.1491
 2710SOL     OW19765   4.106   2.107   8.460  0.2171  0.1555  0.1635
 2710SOL    HW119766   4.184   2.053   8.451 -1.1380 -1.9072  0.7870
 2710SOL    HW219767   4.126   2.156   8.540 -0.3037  0.1066  0.3279
 2711SOL     OW19768   4.013   0.615   5.530  0.2300  0.1799  0.1119
 2711SOL    HW119769   4.079   0.668   5.485 -0.0658 -0.5524 -1.1589
 2711SOL    HW219770   3.940   0.675   5.510  0.4492  1.4022  2.9886
 2712SOL     OW19771   3.369   0.587   1.872  0.2918  0.0994 -0.3838
 2712SOL    HW119772   3.308   0.592   1.799 -0.9655  1.8524  0.8123
 2712SOL    HW219773   3.327   0.655   1.925  0.7813  0.9116 -1.0521
 2713SOL     OW19774   4.724   0.202  13.748 -0.2709 -0.1559 -0.2774
 2713SOL    HW119775   4.637   0.241  13.743  0.9359  2.4756 -0.9120
 2713SOL    HW219776   4.699   0.110  13.760  0.3041 -0.2199  0.4081
 2714SOL     OW19777   0.651   3.920   8.608  0.4430 -0.6704  0.0309
 2714SOL    HW119778   0.672   3.827   8.609  0.9909 -0.5377  0.5809
 2714SOL    HW219779   0.624   3.929   8.516 -0.9511  0.8281  0.5649
 2715SOL     OW19780   2.365   4.477  13.690  0.5452  0.0645  0.4716
 2715SOL    HW119781   2.275   4.463  13.660  1.0904 -0.5461 -0.8635
 2715SOL    HW219782   2.376   4.404  13.752 -0.7079 -2.2367 -1.9899
 2716SOL     OW19783   4.345   2.429   3.159 -0.1541  0.0090 -0.2131
 2716SOL    HW119784   4.374   2.339   3.175 -0.1664 -0.1136 -0.8476
 2716SOL    HW219785   4.255   2.423   3.191 -0.4154  0.6556 -0.8152
 2717SOL     OW19786   0.656   3.279  10.311  0.2572  0.4166 -0.0187
 2717SOL    HW119787   0.650   3.372  10.292 -1.3770  0.2524 -0.3572
 2717SOL    HW219788   0.739   3.271  10.357 -0.1219 -0.4711  0.5224
 2718SOL     OW19789   4.230   3.668   5.277 -0.6201 -0.5340  0.6848
 2718SOL    HW119790   4.152   3.712   5.309 -0.7180 -0.6727  0.6412
 2718SOL    HW219791   4.300   3.690   5.338 -0.3909 -0.6337  0.4627
 2719SOL     OW19792   1.862   2.927   5.773 -0.0985  0.4279  0.3488
 2719SOL    HW119793   1.840   3.019   5.761  1.4778  0.6331 -1.0186
 2719SOL    HW219794   1.908   2.931   5.857  0.4709 -1.6334  0.1559
 2720SOL     OW19795   2.621   4.559   6.477 -0.1500  0.4272 -0.1768
 2720SOL    HW119796   2.661   4.474   6.495  2.0032  1.3836 -0.4288
 2720SOL    HW219797   2.529   4.538   6.469 -0.4101  0.9430  1.3392
 2721SOL     OW19798   3.747   2.026   8.674  0.1682 -0.4653 -0.0003
 2721SOL    HW119799   3.769   1.939   8.707  2.4690  0.0692 -0.1104
 2721SOL    HW219800   3.728   2.077   8.753  1.6731  0.9357 -0.5288
 2722SOL     OW19801   0.291   3.875   7.889 -0.3742 -0.5026 -0.2629
 2722SOL    HW119802   0.261   3.946   7.945 -0.2439  0.7580 -1.7966
 2722SOL    HW219803   0.267   3.799   7.942 -1.5332 -0.6306 -0.9708
 2723SOL     OW19804   4.524   0.088  10.228  0.2287 -0.4227  0.1298
 2723SOL    HW119805   4.605   0.125  10.191 -0.5908 -2.2738 -3.4500
 2723SOL    HW219806   4.507   0.139  10.308 -1.0419 -1.2311  0.3714
 2724SOL     OW19807   2.851   1.177   3.460  0.7897  0.5610  0.1631
 2724SOL    HW119808   2.855   1.119   3.537  0.0924 -0.1995 -0.3839
 2724SOL    HW219809   2.912   1.247   3.486 -0.1675  1.0983  0.9933
 2725SOL     OW19810   4.100   0.747   6.349  0.6367 -0.0941 -0.3869
 2725SOL    HW119811   4.022   0.693   6.357  0.3549  0.4072  0.1775
 2725SOL    HW219812   4.074   0.786   6.433  0.2310  1.0624 -1.0557
 2726SOL     OW19813   0.538   1.855   8.654 -0.2936 -1.0424  0.9362
 2726SOL    HW119814   0.497   1.803   8.584  0.4960  2.3355 -2.0395
 2726SOL    HW219815   0.616   1.803   8.670  0.1670 -0.6148  0.1076
 2727SOL     OW19816   1.951   1.925   6.590  0.2140  0.2571  0.3989
 2727SOL    HW119817   1.897   2.001   6.570 -1.1639 -1.2069 -1.4602
 2727SOL    HW219818   2.036   1.955   6.558 -2.1193 -0.6634 -6.7265
 2728SOL     OW19819   4.007   3.840   1.094  0.1185 -0.0074  0.5539
 2728SOL    HW119820   4.099   3.853   1.069  0.0295  1.6609  1.1540
 2728SOL    HW219821   3.983   3.927   1.124  0.8559  0.0314  1.0263
 2729SOL     OW19822   0.248   1.021  12.683  0.3846  0.5959 -0.4613
 2729SOL    HW119823   0.242   1.096  12.623 -0.8834  0.9336  0.1033
 2729SOL    HW219824   0.260   0.951  12.619  1.6082 -0.2433  0.6641
 2730SOL     OW19825   0.463   2.624  17.069 -0.3435  0.0084 -0.8519
 2730SOL    HW119826   0.442   2.590  17.156 -1.9053  0.6147 -0.9809
 2730SOL    HW219827   0.449   2.717  17.082  3.6601  0.4923 -0.0142
 2731SOL     OW19828   3.840   1.249   7.820  0.3265 -0.7893 -0.2246
 2731SOL    HW119829   3.832   1.259   7.726 -0.1642 -2.3278 -0.3425
 2731SOL    HW219830   3.751   1.259   7.854  2.2618  2.5648  3.8275
 2732SOL     OW19831   4.197   0.883   2.437  0.3031  0.1534  0.4316
 2732SOL    HW119832   4.151   0.813   2.390  0.8613  0.8686 -1.1835
 2732SOL    HW219833   4.226   0.835   2.515 -1.2953 -0.3364  0.7244
 2733SOL     OW19834   2.855   4.637   2.338  0.2904 -0.7950  0.5141
 2733SOL    HW119835   2.822   4.595   2.417  2.2060 -1.3752  0.9998
 2733SOL    HW219836   2.930   4.580   2.322  0.2796 -0.5675 -0.3665
 2734SOL     OW19837   2.359   0.272   8.422 -0.1019 -0.3452 -0.4255
 2734SOL    HW119838   2.305   0.298   8.497  0.3645 -0.2646 -0.1140
 2734SOL    HW219839   2.328   0.339   8.361 -3.3825 -1.9347 -0.5258
 2735SOL     OW19840   1.443   2.193   5.591  0.3962 -0.2966  0.4268
 2735SOL    HW119841   1.526   2.240   5.595 -0.2581  0.7782  1.3698
 2735SOL    HW219842   1.432   2.168   5.499 -3.3346  1.9482  0.2405
 2736SOL     OW19843   1.609   3.545  14.381 -0.1320  0.0161 -0.3438
 2736SOL    HW119844   1.557   3.528  14.303  0.9149 -1.6545 -0.6940
 2736SOL    HW219845   1.537   3.548  14.444  2.2281  0.5286  2.3172
 2737SOL     OW19846   2.597   3.733   6.938 -0.0309  0.0806  0.6798
 2737SOL    HW119847   2.548   3.774   7.008 -0.2919  0.8773  0.0313
 2737SOL    HW219848   2.672   3.793   6.931  0.3691 -0.5645 -0.6585
 2738SOL     OW19849   2.305   1.368  12.024 -0.1847  0.4893  0.2732
 2738SOL    HW119850   2.220   1.325  12.032 -0.1671  0.5042  0.5310
 2738SOL    HW219851   2.309   1.426  12.099 -1.3460 -2.1816  2.4054
 2739SOL     OW19852   2.487   4.149   6.875  0.0038 -0.5694  0.2111
 2739SOL    HW119853   2.521   4.128   6.962 -1.6526 -0.4311  0.8791
 2739SOL    HW219854   2.408   4.095   6.878  1.6452 -3.0256 -0.4217
 2740SOL     OW19855   0.346   0.716   5.366  0.4118 -0.0770  0.4736
 2740SOL    HW119856   0.389   0.688   5.447  1.7823  0.6579  0.0099
 2740SOL    HW219857   0.388   0.802   5.361  1.2173 -0.4603  0.5972
 2741SOL     OW19858   2.342   1.374   4.336 -0.1046 -0.8285  0.7044
 2741SOL    HW119859   2.373   1.394   4.248  1.9601 -2.8039  0.9855
 2741SOL    HW219860   2.393   1.442   4.381 -1.2474 -0.8537  2.0364
 2742SOL     OW19861   1.523   1.001   5.301 -0.1568 -0.1171  0.4773
 2742SOL    HW119862   1.476   1.080   5.330 -0.5932 -0.0343 -0.4266
 2742SOL    HW219863   1.462   0.964   5.237 -0.2177  1.2243 -0.2403
 2743SOL     OW19864   0.865   1.190   6.359  0.1437  0.0100 -0.9230
 2743SOL    HW119865   0.803   1.212   6.289 -1.2287  1.6426  0.8207
 2743SOL    HW219866   0.871   1.095   6.352 -3.1342 -0.1255 -1.8472
 2744SOL     OW19867   1.289   3.656   8.532 -0.0453 -0.2383  0.1076
 2744SOL    HW119868   1.376   3.630   8.502  0.7786  1.1128  1.3049
 2744SOL    HW219869   1.273   3.600   8.608  0.8115  0.2112  0.6193
 2745SOL     OW19870   0.502   1.188   8.683 -0.9279 -0.4889  0.2015
 2745SOL    HW119871   0.449   1.151   8.754 -2.2340  0.6001 -0.1916
 2745SOL    HW219872   0.588   1.158   8.713 -0.8873 -1.8636 -1.3472
 2746SOL     OW19873   1.531   0.764   2.629 -0.3835  0.0657 -0.0087
 2746SOL    HW119874   1.593   0.838   2.632  0.5635 -0.7552  0.5922
 2746SOL    HW219875   1.495   0.775   2.717  1.7851  0.0317  0.8797
 2747SOL     OW19876   3.472   3.061   6.581 -0.1914 -0.3010  0.3141
 2747SOL    HW119877   3.427   3.030   6.660 -1.3545  2.1619  0.5947
 2747SOL    HW219878   3.495   3.151   6.603 -1.5972  0.3649 -0.9740
 2748SOL     OW19879   0.982   0.615   4.881  0.2322  0.0460 -0.1925
 2748SOL    HW119880   1.071   0.650   4.890  0.5028 -0.1837 -2.0689
 2748SOL    HW219881   0.964   0.624   4.788 -1.8241  2.2456  0.4090
 2749SOL     OW19882   2.225   2.427  12.057  0.0919  0.4059 -0.3087
 2749SOL    HW119883   2.252   2.486  11.986 -1.3599  2.0969  0.5295
 2749SOL    HW219884   2.260   2.341  12.035  0.1793  0.1614  0.8406
 2750SOL     OW19885   2.301   3.749   5.103  0.4478 -0.3533 -0.1341
 2750SOL    HW119886   2.362   3.821   5.090 -0.4493  0.5541  0.6434
 2750SOL    HW219887   2.345   3.701   5.173 -0.1608 -2.4371 -1.1781
 2751SOL     OW19888   0.748   3.099   4.739 -0.0689  0.1669 -0.1514
 2751SOL    HW119889   0.738   3.041   4.814 -0.6476 -0.9939 -1.1211
 2751SOL    HW219890   0.791   3.174   4.780  0.2262  0.1966 -0.5132
 2752SOL     OW19891   0.800   2.444   9.177  0.3230 -0.0712 -0.1381
 2752SOL    HW119892   0.795   2.534   9.210 -0.0299 -0.1575  0.0348
 2752SOL    HW219893   0.890   2.443   9.143 -0.4124  0.1027 -2.0541
 2753SOL     OW19894   1.773   0.690   7.912  0.2226 -0.0740  0.3447
 2753SOL    HW119895   1.761   0.773   7.959  0.6553  0.6936 -0.9109
 2753SOL    HW219896   1.734   0.711   7.827  0.9960  0.0906  0.0369
 2754SOL     OW19897   3.037   2.759  16.701 -0.3261  0.5749  0.2011
 2754SOL    HW119898   3.100   2.694  16.732 -0.8161 -0.6554 -1.4001
 2754SOL    HW219899   2.957   2.707  16.709 -0.2031  0.3043 -0.3513
 2755SOL     OW19900   3.058   4.429   6.998  0.5544  0.3039 -0.1973
 2755SOL    HW119901   3.152   4.434   7.016  0.5132 -0.0098  0.1011
 2755SOL    HW219902   3.036   4.517   6.967  1.6657  1.4541  2.2701
 2756SOL     OW19903   3.308   2.895   3.552 -0.3717  0.0243  0.2433
 2756SOL    HW119904   3.303   2.801   3.565  0.5513  0.2079  1.9860
 2756SOL    HW219905   3.338   2.906   3.462  2.4788 -2.0473  0.9449
 2757SOL     OW19906   0.895   3.548  11.371 -0.4198 -0.3212  0.0737
 2757SOL    HW119907   0.852   3.514  11.292  1.7955  2.4373 -2.3090
 2757SOL    HW219908   0.986   3.526  11.355 -0.4379  0.4832 -1.0892
 2758SOL     OW19909   1.785   1.516  11.291  0.4634 -0.0992 -0.6444
 2758SOL    HW119910   1.760   1.606  11.271  0.0586 -0.4463 -1.6860
 2758SOL    HW219911   1.710   1.480  11.338 -0.3846  0.9165 -1.2149
 2759SOL     OW19912   2.351   2.811  17.506  0.6138  0.5269 -0.2431
 2759SOL    HW119913   2.389   2.730  17.539  2.4010  0.9239 -1.3437
 2759SOL    HW219914   2.258   2.790  17.512  0.9018 -0.5099  0.6732
 2760SOL     OW19915   4.677   2.129   7.548  0.0952  0.2481  0.0980
 2760SOL    HW119916   4.713   2.202   7.497  0.0299 -0.7850 -1.4066
 2760SOL    HW219917   4.596   2.107   7.503  0.2371 -0.6846  0.2914
 2761SOL     OW19918   4.726   1.886  14.462 -0.1585 -0.1104 -0.1846
 2761SOL    HW119919   4.646   1.938  14.458 -1.8412 -2.8149 -1.5785
 2761SOL    HW219920   4.701   1.806  14.508 -0.5791  0.5801  0.7948
 2762SOL     OW19921   3.258   2.214   7.301 -0.5632  0.2715  0.2335
 2762SOL    HW119922   3.233   2.195   7.392  0.5185  0.4567  0.5783
 2762SOL    HW219923   3.327   2.280   7.312 -0.4418  0.3034 -0.8049
 2763SOL     OW19924   1.948   1.009   0.300  0.0113  0.4156  0.4421
 2763SOL    HW119925   1.953   1.039   0.209  0.1634 -1.3551 -0.1195
 2763SOL    HW219926   2.039   0.993   0.327  0.1726  0.7975  0.1310
 2764SOL     OW19927   3.619   3.823  14.206  0.3510 -0.2025 -0.0638
 2764SOL    HW119928   3.653   3.910  14.228 -0.2831  0.4804 -1.8190
 2764SOL    HW219929   3.592   3.843  14.117 -0.8784  0.2849  0.4177
 2765SOL     OW19930   2.712   4.123   3.179 -0.1021 -0.2046 -0.0037
 2765SOL    HW119931   2.796   4.083   3.156  0.3795  0.9344 -0.2728
 2765SOL    HW219932   2.690   4.169   3.098 -0.0634  0.6235  0.4570
 2766SOL     OW19933   4.538   0.807  14.759  0.3070  0.0655  0.1996
 2766SOL    HW119934   4.552   0.808  14.665 -0.6148  1.5156  0.0711
 2766SOL    HW219935   4.462   0.864  14.773 -1.2224 -1.6501 -1.2113
 2767SOL     OW19936   4.619   4.271   8.464  0.7610 -0.2038  0.0561
 2767SOL    HW119937   4.628   4.364   8.480  0.2272 -0.2603  0.7006
 2767SOL    HW219938   4.678   4.237   8.532  1.8810  0.5298 -0.5516
 2768SOL     OW19939   2.738   3.764   3.416 -0.0804 -0.4562 -0.0180
 2768SOL    HW119940   2.710   3.853   3.440 -0.0481 -0.5253  0.2808
 2768SOL    HW219941   2.756   3.738   3.506 -0.5389 -0.4192  0.0814
 2769SOL     OW19942   4.712   2.708   1.881 -0.3337 -0.0754 -0.0579
 2769SOL    HW119943   4.618   2.712   1.862  0.1603  0.9403 -2.3340
 2769SOL    HW219944   0.005   2.798   1.869  2.4333 -0.9758 -0.1717
 2770SOL     OW19945   1.606   3.785   9.372  0.1510 -0.1088  0.3412
 2770SOL    HW119946   1.632   3.702   9.332  2.4996  0.5615  0.4810
 2770SOL    HW219947   1.511   3.786   9.358 -0.1892 -2.2691  2.5233
 2771SOL     OW19948   4.606   3.531   9.909 -0.4186 -0.0959  0.3474
 2771SOL    HW119949   4.569   3.610   9.950 -2.3853 -1.4502  1.2111
 2771SOL    HW219950   4.666   3.568   9.844  2.3640 -1.0174  2.4202
 2772SOL     OW19951   3.169   4.187   8.028 -0.2957  0.2300  0.1503
 2772SOL    HW119952   3.262   4.209   8.020 -0.1784 -0.8375 -1.3859
 2772SOL    HW219953   3.167   4.142   7.944  0.0244 -2.3849  1.5392
 2773SOL     OW19954   0.471   0.192   2.549 -0.6298 -1.2942 -0.4230
 2773SOL    HW119955   0.493   0.109   2.591  0.5703 -1.1503 -0.7463
 2773SOL    HW219956   0.550   0.220   2.503 -0.1924 -1.9943 -0.1005
 2774SOL     OW19957   3.802   3.910   3.681  0.1628 -0.3776  0.2830
 2774SOL    HW119958   3.854   3.989   3.688  0.4932 -0.7256  1.8137
 2774SOL    HW219959   3.740   3.942   3.615 -0.1370 -1.3126  0.1088
 2775SOL     OW19960   3.654   4.722  15.607  0.1174  0.1579  0.1818
 2775SOL    HW119961   3.591   0.012  15.540 -2.0921  2.6390  3.2841
 2775SOL    HW219962   3.642   4.627  15.597 -2.4450  0.6199 -1.0940
 2776SOL     OW19963   2.783   2.068   3.701  0.0232  0.0854 -0.0502
 2776SOL    HW119964   2.709   2.058   3.642 -0.0596  1.9663 -0.2630
 2776SOL    HW219965   2.780   1.982   3.743  2.0923  0.1520  0.2286
 2777SOL     OW19966   4.228   0.258   4.085  0.4417 -0.0272 -0.2691
 2777SOL    HW119967   4.262   0.290   4.169  1.8792  0.4078 -1.0220
 2777SOL    HW219968   4.192   0.339   4.050 -0.7191 -0.0104  0.9523
 2778SOL     OW19969   4.066   4.457   2.135  0.1963 -0.0871 -0.1185
 2778SOL    HW119970   4.065   4.542   2.092  0.3706  0.0349  0.1234
 2778SOL    HW219971   4.156   4.461   2.166 -0.6898 -1.1807  2.5806
 2779SOL     OW19972   1.541   1.138   6.511 -0.5436  0.2651  0.5660
 2779SOL    HW119973   1.515   1.220   6.470 -2.7117 -1.8204 -2.2575
 2779SOL    HW219974   1.550   1.088   6.430  0.7992  1.5841 -0.0824
 2780SOL     OW19975   3.030   1.163   8.261 -0.0804 -0.3373 -0.7493
 2780SOL    HW119976   2.936   1.182   8.268 -0.0338 -0.9149  1.3214
 2780SOL    HW219977   3.063   1.194   8.345 -1.8590  2.9893 -1.2624
 2781SOL     OW19978   4.076   0.804  17.609  0.1528 -0.2040  0.0314
 2781SOL    HW119979   4.116   0.724  17.576  0.5354 -0.1852  0.4558
 2781SOL    HW219980   4.014   0.833  17.542  0.4557 -0.9591 -0.5741
 2782SOL     OW19981   1.889   4.716  16.044 -0.0353 -0.5454  0.2241
 2782SOL    HW119982   1.804   0.024  16.032  1.9462  2.3634 -3.2560
 2782SOL    HW219983   1.855   4.627  16.049 -1.2095 -0.1010  0.3903
 2783SOL     OW19984   3.786   0.086   1.772  0.1933 -0.4063 -0.5584
 2783SOL    HW119985   3.805   0.052   1.685  0.9627  0.1204 -0.5979
 2783SOL    HW219986   3.716   0.143   1.742 -0.6764 -2.0168 -1.5808
 2784SOL     OW19987   4.525   0.418   1.280 -0.3759  0.8101 -0.2522
 2784SOL    HW119988   4.585   0.489   1.255  0.1185  0.0001 -1.3342
 2784SOL    HW219989   4.575   0.368   1.345 -1.5120 -0.7802 -0.6197
 2785SOL     OW19990   1.258   2.020   1.796 -0.0388  0.0029 -0.1267
 2785SOL    HW119991   1.170   2.057   1.799  1.0557  2.6787 -0.9360
 2785SOL    HW219992   1.273   2.034   1.702  1.0647  0.0720  0.0570
 2786SOL     OW19993   0.527   0.453   2.202 -0.4226 -0.5595  0.4081
 2786SOL    HW119994   0.446   0.470   2.152  1.1405 -2.1441 -2.6721
 2786SOL    HW219995   0.577   0.406   2.135 -1.1923  0.4290 -0.8700
 2787SOL     OW19996   0.412   2.080   2.366  0.0226  0.1591 -0.2805
 2787SOL    HW119997   0.424   1.985   2.374 -0.0580  0.3147  1.6778
 2787SOL    HW219998   0.424   2.081   2.271  0.8285 -0.6155 -0.1870
 2788SOL     OW19999   1.628   1.561   5.005 -0.4464  0.3623  0.0513
 2788SOL    HW120000   1.620   1.619   5.081  3.1296  0.8449  0.0518
 2788SOL    HW220001   1.719   1.531   5.013 -0.6885 -0.4217 -0.2260
 2789SOL     OW20002   2.433   4.617   2.843 -0.0308 -0.4457 -0.0444
 2789SOL    HW120003   2.343   4.639   2.864 -0.0333 -2.1662  1.7891
 2789SOL    HW220004   2.426   4.602   2.749 -0.4437  2.8812 -0.5413
 2790SOL     OW20005   1.242   2.780   4.948  0.2755 -0.9015 -0.1402
 2790SOL    HW120006   1.188   2.705   4.969  2.2437 -2.3899 -0.4089
 2790SOL    HW220007   1.250   2.786   4.853 -0.7471  0.7768 -0.1331
 2791SOL     OW20008   0.377   3.864  13.453 -0.1036 -0.2460 -0.2088
 2791SOL    HW120009   0.450   3.806  13.429 -0.1067  0.2141 -1.3447
 2791SOL    HW220010   0.302   3.805  13.468  0.1724 -0.3048  0.9574
 2792SOL     OW20011   1.063   2.050   7.216  0.7992  0.1576 -0.5485
 2792SOL    HW120012   0.985   2.104   7.223  0.3566 -0.3083 -1.7997
 2792SOL    HW220013   1.050   2.031   7.123  0.6025 -1.7406 -0.1494
 2793SOL     OW20014   3.663   0.258   3.769  0.2334 -0.5387  0.8837
 2793SOL    HW120015   3.681   0.274   3.676 -0.7238 -3.3035  0.2231
 2793SOL    HW220016   3.752   0.260   3.804  0.1787  1.0681  0.9171
 2794SOL     OW20017   1.248   3.961   3.082  0.1780  0.2851  0.0123
 2794SOL    HW120018   1.269   3.868   3.073 -3.1886 -0.7503  2.6404
 2794SOL    HW220019   1.207   3.966   3.169  0.6473 -0.0968  0.2609
 2795SOL     OW20020   4.496   0.488   2.402 -0.3501  0.0009  0.3892
 2795SOL    HW120021   4.535   0.463   2.319  1.2736  0.5129  0.9991
 2795SOL    HW220022   4.410   0.510   2.366 -1.6099 -0.7076  2.9702
 2796SOL     OW20023   4.042   0.422   2.584  0.1182  0.6355 -0.0794
 2796SOL    HW120024   3.980   0.373   2.530 -0.8505 -2.1529  3.5666
 2796SOL    HW220025   3.977   0.478   2.627 -1.6165 -0.4255 -1.3449
 2797SOL     OW20026   0.551   4.553  12.386 -0.1557 -0.4685 -0.4014
 2797SOL    HW120027   0.494   4.619  12.346  2.2388  1.8436  0.0161
 2797SOL    HW220028   0.574   4.586  12.472 -1.6206 -2.3134  0.7024
 2798SOL     OW20029   3.951   2.122   5.567 -0.0862 -0.0707  0.0940
 2798SOL    HW120030   4.045   2.112   5.554 -0.3092 -2.9620  0.7098
 2798SOL    HW220031   3.942   2.175   5.646  1.2936 -2.1531  1.6572
 2799SOL     OW20032   1.879   2.292  17.151 -0.3967 -0.2697 -0.4851
 2799SOL    HW120033   1.837   2.227  17.208 -0.0635 -1.8385 -2.0357
 2799SOL    HW220034   1.970   2.277  17.175 -0.6081 -0.3281  0.2762
 2800SOL     OW20035   2.849   3.522   1.303  0.0717  0.1854 -0.6787
 2800SOL    HW120036   2.909   3.468   1.251  1.8364  0.9658  0.5370
 2800SOL    HW220037   2.845   3.470   1.384 -0.2767  1.6961  0.2702
 2801SOL     OW20038   0.017   3.836   2.610  0.0715 -0.7550  0.0031
 2801SOL    HW120039   4.687   3.903   2.597  0.5774 -0.0996  0.7913
 2801SOL    HW220040   0.096   3.890   2.604 -0.1790 -0.1732  1.9766
 2802SOL     OW20041   3.285   4.537   8.295  0.0883  0.2606 -0.7790
 2802SOL    HW120042   3.238   4.474   8.350  1.7621  0.6212  1.0822
 2802SOL    HW220043   3.339   4.478   8.242 -0.1447  0.0107 -0.7406
 2803SOL     OW20044   2.123   1.802   6.011 -0.2918 -0.1326 -0.3077
 2803SOL    HW120045   2.184   1.745   6.059  0.0340  1.9262  1.7493
 2803SOL    HW220046   2.045   1.747   6.002 -1.1176  1.0137 -0.1499
 2804SOL     OW20047   4.216   2.872   4.978 -0.1414 -0.0840 -0.6304
 2804SOL    HW120048   4.188   2.928   4.905 -2.8028 -1.9153 -0.9873
 2804SOL    HW220049   4.250   2.931   5.045 -2.0100  1.0461 -0.6944
 2805SOL     OW20050   1.438   3.342  11.448 -0.1326 -0.3220 -0.2043
 2805SOL    HW120051   1.351   3.321  11.416 -0.2939 -0.4814  0.3348
 2805SOL    HW220052   1.498   3.308  11.382  0.3308  0.8154 -0.3743
 2806SOL     OW20053   3.381   2.153  17.111  0.1343  0.2032 -0.5834
 2806SOL    HW120054   3.311   2.203  17.154  1.6441 -0.7901  3.0567
 2806SOL    HW220055   3.344   2.066  17.121 -1.5647  0.8748 -0.9680
 2807SOL     OW20056   4.054   1.589   5.878  0.1312  0.6227  0.0681
 2807SOL    HW120057   4.095   1.675   5.884  0.5000  0.4169  0.5515
 2807SOL    HW220058   4.016   1.591   5.790 -2.6882  0.1900  1.2740
 2808SOL     OW20059   0.054   2.376   7.950  0.3267 -0.1321 -0.3537
 2808SOL    HW120060   0.005   2.415   8.023  0.8566 -0.6085  0.2575
 2808SOL    HW220061   4.725   2.384   7.880  0.4989 -1.9559 -0.7274
 2809SOL     OW20062   0.531   0.744   7.572  0.2502  0.0251 -0.2204
 2809SOL    HW120063   0.593   0.810   7.541 -0.0373  1.0747  1.4547
 2809SOL    HW220064   0.460   0.741   7.508  1.5684 -0.8404 -1.6495
 2810SOL     OW20065   1.761   4.421  17.327 -0.1957  0.3475 -0.1580
 2810SOL    HW120066   1.818   4.498  17.335 -1.0756  0.7597  2.1161
 2810SOL    HW220067   1.808   4.364  17.388  1.3991 -1.8390 -3.4106
 2811SOL     OW20068   0.993   3.389  10.315 -0.0205 -0.2657 -0.3482
 2811SOL    HW120069   0.932   3.415  10.245 -1.4572 -0.2848  0.8919
 2811SOL    HW220070   1.045   3.469  10.323 -3.6438  2.0466  0.3488
 2812SOL     OW20071   2.046   1.955   7.154 -0.1350  0.0254 -0.2948
 2812SOL    HW120072   2.138   1.980   7.151 -0.0411 -0.5340 -1.8990
 2812SOL    HW220073   2.051   1.874   7.103 -0.0967 -0.5001  0.5427
 2813SOL     OW20074   2.093   1.211   7.934  0.5333 -0.0263  0.2485
 2813SOL    HW120075   2.042   1.130   7.927  0.6315 -0.2678  2.2232
 2813SOL    HW220076   2.176   1.175   7.966 -0.2173 -2.2251 -0.2856
 2814SOL     OW20077   2.639   3.197  10.584  0.0059 -0.0178 -0.1677
 2814SOL    HW120078   2.550   3.227  10.606 -0.1097 -1.3873  1.2033
 2814SOL    HW220079   2.681   3.280  10.607  1.3680 -1.1087  1.2385
 2815SOL     OW20080   1.371   0.104  13.089  0.3463  0.3214  0.3554
 2815SOL    HW120081   1.314   0.056  13.030 -0.4079  1.3100  0.3033
 2815SOL    HW220082   1.457   0.084  13.051 -0.0852 -2.2630  0.7017
 2816SOL     OW20083   1.989   3.407   9.440 -0.1829  0.0982  0.2310
 2816SOL    HW120084   1.960   3.326   9.399  1.0571  0.0567 -0.5668
 2816SOL    HW220085   1.913   3.427   9.495 -0.3105  0.5946 -0.1293
 2817SOL     OW20086   4.480   3.094  13.344  0.7089 -0.1247  0.2694
 2817SOL    HW120087   4.525   3.104  13.428  3.3321 -0.7560 -1.0507
 2817SOL    HW220088   4.398   3.057  13.376  0.1857 -0.1566 -1.1199
 2818SOL     OW20089   4.583   0.493   3.147 -0.3960  0.4388 -0.7019
 2818SOL    HW120090   4.558   0.401   3.156 -1.2427  0.6729 -0.7010
 2818SOL    HW220091   4.672   0.478   3.114 -1.1210 -2.1638 -1.4640
 2819SOL     OW20092   4.049   2.272   5.792  0.7265 -0.2358  0.4362
 2819SOL    HW120093   3.999   2.321   5.857 -1.8930  0.2285 -1.8759
 2819SOL    HW220094   4.121   2.334   5.800  1.3874 -1.0372  0.6662
 2820SOL     OW20095   4.413   2.069   7.483  0.0661  0.1869 -0.4812
 2820SOL    HW120096   4.349   2.122   7.531 -1.8232 -1.9899 -0.5884
 2820SOL    HW220097   4.406   2.126   7.406 -0.3929  2.7000  1.4191
 2821SOL     OW20098   2.212   2.568   3.401  0.1324 -0.0544  0.3441
 2821SOL    HW120099   2.269   2.613   3.339 -1.1511 -0.0244 -0.8275
 2821SOL    HW220100   2.128   2.576   3.355  0.8244  0.9738 -0.7221
 2822SOL     OW20101   3.100   3.641  16.907 -0.7231 -0.2661 -0.1438
 2822SOL    HW120102   3.107   3.619  16.814  1.9363 -0.2492  0.0614
 2822SOL    HW220103   3.028   3.704  16.899 -1.0722 -0.6824 -0.3487
 2823SOL     OW20104   4.735   3.382   3.526  0.4935  0.0259  0.1028
 2823SOL    HW120105   4.677   3.402   3.600 -1.1445 -0.3159 -1.0706
 2823SOL    HW220106   4.731   3.287   3.524  1.0087  0.0369 -1.1525
 2824SOL     OW20107   4.170   0.893  13.741  0.7022 -0.6502 -0.8168
 2824SOL    HW120108   4.210   0.858  13.821 -0.1282 -0.8093 -0.4662
 2824SOL    HW220109   4.227   0.965  13.713 -0.0450  0.1846 -0.1990
 2825SOL     OW20110   1.846   4.399   4.808  0.0274 -0.0713  0.6176
 2825SOL    HW120111   1.833   4.317   4.856 -2.3729  0.5271  0.9892
 2825SOL    HW220112   1.895   4.445   4.876 -0.5884  1.6374 -0.1161
 2826SOL     OW20113   3.248   1.452   5.328  0.2231  0.3064 -0.2234
 2826SOL    HW120114   3.213   1.541   5.322  1.9538  1.0959  1.5567
 2826SOL    HW220115   3.259   1.428   5.236  0.6172 -0.5097  0.0325
 2827SOL     OW20116   0.595   3.898   8.912 -0.2666 -0.3719  0.1566
 2827SOL    HW120117   0.684   3.867   8.895 -0.2070 -0.0585 -0.0994
 2827SOL    HW220118   0.540   3.820   8.921 -0.1760 -0.3455  0.8853
 2828SOL     OW20119   1.438   1.905   9.580 -0.1038  0.6601 -0.6401
 2828SOL    HW120120   1.443   2.001   9.571  4.2794  0.5771  1.2011
 2828SOL    HW220121   1.362   1.899   9.639  0.4111  1.3726  0.0989
 2829SOL     OW20122   3.678   2.483   7.499 -0.2125 -0.0643 -0.0586
 2829SOL    HW120123   3.732   2.495   7.577  0.6060  0.8855 -0.7727
 2829SOL    HW220124   3.626   2.563   7.499 -1.8722 -1.1495 -0.5756
 2830SOL     OW20125   1.510   3.868   5.369 -0.1520  0.1325 -0.1895
 2830SOL    HW120126   1.441   3.839   5.310  0.1553  0.1561 -0.5539
 2830SOL    HW220127   1.585   3.821   5.332 -0.7208 -0.2106 -0.9090
 2831SOL     OW20128   0.111   3.757   3.358 -0.5870 -0.1427  0.0652
 2831SOL    HW120129   0.114   3.819   3.431 -1.1727 -1.1142  0.9009
 2831SOL    HW220130   0.076   3.823   3.298 -1.4817 -1.0368 -0.3878
 2832SOL     OW20131   2.700   2.025   4.242 -0.6557  0.1932  0.0219
 2832SOL    HW120132   2.659   2.109   4.263  0.3077  0.6037  0.2693
 2832SOL    HW220133   2.695   1.981   4.327 -0.4340 -2.0953 -1.1384
 2833SOL     OW20134   4.440   2.283  11.751 -0.5514 -0.1627 -0.5990
 2833SOL    HW120135   4.451   2.304  11.658  3.0878 -2.1614 -0.6489
 2833SOL    HW220136   4.473   2.193  11.755  2.2981  0.9493  0.8879
 2834SOL     OW20137   2.501   0.147  13.530  0.4531  0.2459  0.1202
 2834SOL    HW120138   2.421   0.174  13.486  0.9939  0.0011 -1.0126
 2834SOL    HW220139   2.519   0.057  13.505 -0.4069  0.1522 -0.1409
 2835SOL     OW20140   1.518   0.847   8.985 -0.0394  0.4123  0.5498
 2835SOL    HW120141   1.483   0.899   9.057 -0.3316 -1.2675  1.6047
 2835SOL    HW220142   1.586   0.796   9.029  1.2658  0.2251 -1.6449
 2836SOL     OW20143   3.415   3.562   7.350 -0.1653 -0.4918 -0.6072
 2836SOL    HW120144   3.394   3.508   7.274 -0.0623 -0.7767 -0.4308
 2836SOL    HW220145   3.497   3.601   7.322  0.6102 -2.2064 -0.7293
 2837SOL     OW20146   3.166   0.629   6.356 -0.1178  0.3343 -0.3479
 2837SOL    HW120147   3.159   0.620   6.261 -1.2136  0.9874 -0.3215
 2837SOL    HW220148   3.131   0.718   6.355 -4.4183 -1.4002 -2.3783
 2838SOL     OW20149   0.269   3.022   8.108  0.2289 -0.3297 -0.2607
 2838SOL    HW120150   0.221   3.029   8.191 -1.1703  0.6452 -1.1584
 2838SOL    HW220151   0.273   2.928   8.091 -0.6695 -0.2566 -0.8400
 2839SOL     OW20152   3.599   2.282   3.969  0.0270  0.1631  0.4654
 2839SOL    HW120153   3.518   2.316   4.008  0.2362 -1.5184  2.4235
 2839SOL    HW220154   3.663   2.336   4.015 -1.5675  1.1626  1.5594
 2840SOL     OW20155   0.690   2.292  11.042  0.3228  0.2593 -0.3357
 2840SOL    HW120156   0.673   2.321  10.952  0.3177  0.2009 -0.3539
 2840SOL    HW220157   0.775   2.334  11.050 -0.3556  1.6069 -0.0868
 2841SOL     OW20158   3.595   1.272   1.574 -0.2986  0.2533 -0.3772
 2841SOL    HW120159   3.636   1.190   1.601 -1.2070 -0.4720 -1.2021
 2841SOL    HW220160   3.640   1.330   1.636  0.4730 -0.9281  0.1582
 2842SOL     OW20161   4.337   1.684   3.391 -0.0230  0.0562 -0.1387
 2842SOL    HW120162   4.245   1.662   3.376  0.1957  0.4410 -2.0385
 2842SOL    HW220163   4.372   1.607   3.436 -2.0139 -0.6341  0.1995
 2843SOL     OW20164   1.436   3.067   7.023  0.1810  0.6854  0.6496
 2843SOL    HW120165   1.366   3.060   6.957 -1.3118 -2.6899  2.5565
 2843SOL    HW220166   1.391   3.006   7.082 -2.1348  0.6856 -1.0905
 2844SOL     OW20167   1.104   3.316   6.251 -1.0808 -0.1946  0.4197
 2844SOL    HW120168   1.197   3.307   6.234 -1.2405  0.1815 -0.6716
 2844SOL    HW220169   1.072   3.298   6.162 -0.6375 -1.1499  0.4585
 2845SOL     OW20170   4.616   1.231   2.105 -0.0013 -0.2388 -0.5231
 2845SOL    HW120171   4.599   1.309   2.052  2.1659  0.8746  0.4688
 2845SOL    HW220172   4.632   1.162   2.040 -0.7539 -1.6291  0.7624
 2846SOL     OW20173   2.513   0.611   7.418 -0.0186  0.3897 -0.4984
 2846SOL    HW120174   2.594   0.624   7.369 -0.5363  0.1096 -1.4228
 2846SOL    HW220175   2.456   0.566   7.356  1.6286  0.9651 -2.4307
 2847SOL     OW20176   2.388   0.388   2.908 -0.3955  0.0539 -0.1158
 2847SOL    HW120177   2.408   0.482   2.908 -1.3592  0.2519 -0.2493
 2847SOL    HW220178   2.453   0.347   2.850  0.1818  0.1201  0.4739
 2848SOL     OW20179   4.124   4.020   1.993  0.3494  0.3026  0.0723
 2848SOL    HW120180   4.103   3.991   1.904 -0.1287  2.8947 -0.6537
 2848SOL    HW220181   4.218   4.026   1.975  0.5770 -2.2279  0.4581
 2849SOL     OW20182   4.260   2.460   6.992 -0.1804 -0.3489 -0.0345
 2849SOL    HW120183   4.217   2.408   6.924  1.2719  2.2840 -2.9608
 2849SOL    HW220184   4.261   2.538   6.937 -0.5417  0.4295  1.0626
 2850SOL     OW20185   3.731   1.887   1.728  0.0070  0.3538  0.0666
 2850SOL    HW120186   3.681   1.867   1.807 -1.2893  1.4576 -0.4865
 2850SOL    HW220187   3.807   1.830   1.742 -0.6124 -0.6362 -0.6132
 2851SOL     OW20188   1.294   3.137  11.044 -0.5209 -0.1860 -0.6494
 2851SOL    HW120189   1.294   3.114  11.137  2.2489  1.4041 -0.2719
 2851SOL    HW220190   1.241   3.216  11.050  0.6535  0.5925 -0.6494
 2852SOL     OW20191   0.794   0.866   9.319  0.9596  0.4693  0.8542
 2852SOL    HW120192   0.717   0.922   9.331  0.2927 -0.5998  1.5937
 2852SOL    HW220193   0.831   0.866   9.408 -1.3645 -1.9347  1.8344
 2853SOL     OW20194   0.298   1.192   2.016 -0.6660 -0.0139  0.1996
 2853SOL    HW120195   0.329   1.102   2.009 -0.2332  0.2128 -0.7472
 2853SOL    HW220196   0.251   1.189   2.100 -0.9909  3.1912  0.1240
 2854SOL     OW20197   2.515   0.030  13.272 -0.1917  0.0144  0.2236
 2854SOL    HW120198   2.606   0.019  13.301  0.2270  1.9023 -0.3479
 2854SOL    HW220199   2.510   0.124  13.252  0.6536 -0.3253 -1.6228
 2855SOL     OW20200   3.094   1.785   6.762 -0.2903 -0.3970  0.4544
 2855SOL    HW120201   3.133   1.851   6.820  1.1470 -0.7130 -0.1407
 2855SOL    HW220202   3.009   1.829   6.760  1.0944  2.1731 -1.8170
 2856SOL     OW20203   2.010   3.860  16.584  0.7388  0.9951  0.1475
 2856SOL    HW120204   2.074   3.812  16.635 -1.5993  1.3646  3.4381
 2856SOL    HW220205   1.959   3.899  16.655  0.5341 -0.7164  0.9347
 2857SOL     OW20206   2.948   3.892   0.982  1.0172  0.2976  0.0554
 2857SOL    HW120207   2.874   3.849   1.026  0.6087  1.0273  0.0911
 2857SOL    HW220208   2.987   3.953   1.045  0.8823 -0.0958  0.5186
 2858SOL     OW20209   3.395   0.602  11.564  0.0895 -0.0980  0.3773
 2858SOL    HW120210   3.485   0.590  11.537  1.0752  1.4095  2.9582
 2858SOL    HW220211   3.398   0.691  11.601  0.2999 -0.3668  1.0075
 2859SOL     OW20212   3.203   3.108   8.146  0.4636  0.7928 -0.0467
 2859SOL    HW120213   3.251   3.027   8.134  1.5540  1.6654 -1.5624
 2859SOL    HW220214   3.249   3.167   8.086  2.2747  0.3423  0.8882
 2860SOL     OW20215   3.551   0.443   3.100 -0.3351  0.1247  0.4174
 2860SOL    HW120216   3.471   0.425   3.050  0.0850 -0.9894  0.1330
 2860SOL    HW220217   3.533   0.413   3.189 -1.8272  2.2711  0.8389
 2861SOL     OW20218   0.939   3.733   9.310 -0.0786 -0.2500  1.0013
 2861SOL    HW120219   0.860   3.764   9.266  0.6909  0.5784  0.1903
 2861SOL    HW220220   0.930   3.641   9.287  0.5659  0.0208 -0.3451
 2862SOL     OW20221   2.267   2.444   3.942  0.1385 -0.3327  0.4684
 2862SOL    HW120222   2.266   2.463   3.849  0.2771  1.2959  0.8044
 2862SOL    HW220223   2.300   2.523   3.983  1.4355  0.6267 -2.4889
 2863SOL     OW20224   1.825   2.405  13.007 -0.0591 -0.0344 -0.6446
 2863SOL    HW120225   1.783   2.324  12.979 -0.9753  0.0754  0.4459
 2863SOL    HW220226   1.840   2.453  12.925  2.5258 -0.3922 -0.3602
 2864SOL     OW20227   2.582   3.492  17.471  0.2352  0.0318  0.3244
 2864SOL    HW120228   2.517   3.422  17.469  0.1471  0.0692  1.9445
 2864SOL    HW220229   2.660   3.443  17.496  1.9182  0.8936 -3.2291
 2865SOL     OW20230   2.602   0.490   7.634  0.4553  0.2418 -0.4099
 2865SOL    HW120231   2.557   0.515   7.553  0.3252 -1.1931 -0.7673
 2865SOL    HW220232   2.543   0.440   7.690 -1.0520 -0.2556 -2.4433
 2866SOL     OW20233   3.064   3.583  11.244  0.0758 -0.4711 -0.6779
 2866SOL    HW120234   3.098   3.501  11.209 -0.6950 -1.9073  2.0067
 2866SOL    HW220235   3.068   3.633  11.162  1.7414  1.4626  0.5803
 2867SOL     OW20236   3.575   4.285   6.829  0.0961  0.4127  0.2366
 2867SOL    HW120237   3.649   4.345   6.818  0.1779  0.2520 -0.0822
 2867SOL    HW220238   3.500   4.335   6.795 -0.8087 -1.1076  0.0109
 2868SOL     OW20239   4.543   3.656  16.569  0.1110  0.3230  0.2601
 2868SOL    HW120240   4.450   3.657  16.593  0.3616  0.3278  1.2426
 2868SOL    HW220241   4.553   3.560  16.571  0.5452  0.3851  1.1197
 2869SOL     OW20242   0.298   0.902   6.192 -0.3591  0.0186  0.2953
 2869SOL    HW120243   0.275   0.810   6.205 -0.6994 -0.0816 -0.9751
 2869SOL    HW220244   0.379   0.885   6.145  0.1736  1.0017  0.8697
 2870SOL     OW20245   0.202   2.490   0.864  0.1900 -0.0111 -0.1777
 2870SOL    HW120246   0.115   2.456   0.844  0.9330 -1.5322 -0.7937
 2870SOL    HW220247   0.200   2.585   0.848  3.1048  0.0826 -0.0152
 2871SOL     OW20248   4.598   0.371   2.159  0.6305 -0.8504 -0.0541
 2871SOL    HW120249   4.628   0.294   2.208 -3.1038 -0.9659  2.1177
 2871SOL    HW220250   4.510   0.335   2.146  1.1657 -2.3598  0.5149
 2872SOL     OW20251   3.951   3.732   1.334 -0.2820 -0.2749 -0.0805
 2872SOL    HW120252   3.874   3.682   1.305 -0.3370 -1.1819  1.6334
 2872SOL    HW220253   3.976   3.779   1.254  1.2785 -1.0023 -0.0085
 2873SOL     OW20254   3.869   3.061   7.780  0.0777  0.9509 -0.2612
 2873SOL    HW120255   3.810   3.114   7.834 -1.4816 -0.4759 -0.5578
 2873SOL    HW220256   3.950   3.075   7.830  1.0430 -0.4340 -1.4322
 2874SOL     OW20257   2.604   0.426   5.151  0.3885 -0.5010 -0.2625
 2874SOL    HW120258   2.699   0.422   5.142  0.1075  0.6382 -3.6784
 2874SOL    HW220259   2.579   0.392   5.065  0.8570 -2.4294  0.3551
 2875SOL     OW20260   1.466   3.534   3.909 -0.4139 -1.0033 -0.6636
 2875SOL    HW120261   1.406   3.592   3.957  1.5798  1.1445 -0.7729
 2875SOL    HW220262   1.414   3.531   3.828 -0.4123 -1.6520 -0.6417
 2876SOL     OW20263   2.662   0.327   3.847 -0.2626  0.6734  0.5809
 2876SOL    HW120264   2.686   0.381   3.771 -1.0289  0.6242  0.3076
 2876SOL    HW220265   2.602   0.261   3.813  0.9092 -0.6413  1.0944
 2877SOL     OW20266   2.703   3.532   6.413 -0.5952 -0.1734  0.4278
 2877SOL    HW120267   2.740   3.518   6.500 -0.2894  1.9262  0.6359
 2877SOL    HW220268   2.780   3.511   6.361 -0.9221 -1.2137  0.3557
 2878SOL     OW20269   1.106   0.916  13.326  0.3305  0.7748  0.3996
 2878SOL    HW120270   1.198   0.913  13.301 -0.7008 -1.2650 -3.0668
 2878SOL    HW220271   1.055   0.919  13.245 -0.3327  0.6996  0.8124
 2879SOL     OW20272   4.467   4.705   4.255  0.3838  0.3425  0.2376
 2879SOL    HW120273   4.410   0.046   4.266 -0.3084 -0.6062  3.0583
 2879SOL    HW220274   4.555   0.005   4.243  0.5422  0.5585  2.0339
 2880SOL     OW20275   3.123   2.509   7.042  0.1114  0.1955 -0.2105
 2880SOL    HW120276   3.099   2.592   7.084 -3.1200 -0.0632 -1.4958
 2880SOL    HW220277   3.136   2.548   6.956 -0.8649  0.1454 -0.3806
 2881SOL     OW20278   3.659   2.686   9.149 -0.3062 -0.0663 -0.5592
 2881SOL    HW120279   3.719   2.676   9.223 -0.6424 -1.1512 -0.4346
 2881SOL    HW220280   3.577   2.699   9.195  1.1660  0.9301  1.7920
 2882SOL     OW20281   0.815   1.588   1.784 -0.0131 -0.0236 -0.6344
 2882SOL    HW120282   0.850   1.532   1.853 -1.5765 -1.3410 -0.9222
 2882SOL    HW220283   0.878   1.567   1.715  0.7803 -2.4620  0.8378
 2883SOL     OW20284   1.328   1.475  12.690  0.3346  0.5498  0.4426
 2883SOL    HW120285   1.417   1.510  12.688  0.6093  0.0692  3.5346
 2883SOL    HW220286   1.345   1.395  12.642 -0.7372 -0.0284  1.0112
 2884SOL     OW20287   4.614   2.589  10.937  0.2658 -0.3124 -0.0983
 2884SOL    HW120288   4.576   2.532  10.870 -2.4694  2.8842 -1.2428
 2884SOL    HW220289   4.550   2.575  11.007 -2.3535  0.7214 -2.3127
 2885SOL     OW20290   2.697   1.624   4.384 -0.7910  0.5068  0.3919
 2885SOL    HW120291   2.628   1.611   4.449 -2.2081  0.1660 -1.1671
 2885SOL    HW220292   2.723   1.716   4.387 -0.1961  0.3249  0.9271
 2886SOL     OW20293   1.961   4.100   2.280 -0.0110  0.4696  0.5617
 2886SOL    HW120294   2.015   4.042   2.226  1.0386  1.9816 -0.0198
 2886SOL    HW220295   1.871   4.067   2.269  0.8355 -1.3376 -1.1496
 2887SOL     OW20296   2.779   3.910  15.757  0.1024  0.6663 -0.5248
 2887SOL    HW120297   2.743   3.881  15.673  4.4569  0.4863 -2.3409
 2887SOL    HW220298   2.852   3.969  15.736  1.2140  0.0267  1.6320
 2888SOL     OW20299   1.240   0.808   9.281  0.0847 -0.0502  0.2422
 2888SOL    HW120300   1.247   0.723   9.324 -0.2170  0.9355  2.2436
 2888SOL    HW220301   1.229   0.782   9.190  2.1835  0.1730 -0.0627
 2889SOL     OW20302   3.711   0.934  17.020 -0.0758 -0.5703 -0.1138
 2889SOL    HW120303   3.794   0.964  17.057 -0.5857  0.3234  0.3053
 2889SOL    HW220304   3.718   0.842  17.043 -1.8144 -0.7310 -0.2550
 2890SOL     OW20305   0.883   1.363   3.330  0.1629 -0.0851 -0.0083
 2890SOL    HW120306   0.902   1.389   3.239  0.0132  0.0859  0.0106
 2890SOL    HW220307   0.973   1.379   3.360 -0.2420 -0.8287  1.5695
 2891SOL     OW20308   4.276   3.647   3.014  0.0645 -0.9077 -0.2425
 2891SOL    HW120309   4.319   3.651   3.100  0.1879 -1.8217 -0.2561
 2891SOL    HW220310   4.201   3.590   3.033 -0.1561 -0.2459  0.9029
 2892SOL     OW20311   4.236   2.142   4.425  0.4443  0.0061 -0.2298
 2892SOL    HW120312   4.212   2.135   4.517 -1.5595  0.4037 -0.7074
 2892SOL    HW220313   4.147   2.149   4.390 -0.3287 -0.9460  1.5462
 2893SOL     OW20314   0.970   4.187  14.519 -0.2211  0.0337 -0.2619
 2893SOL    HW120315   0.898   4.153  14.467 -2.1325 -0.7318  2.8541
 2893SOL    HW220316   1.019   4.250  14.466  0.5576 -0.6760 -0.3980
 2894SOL     OW20317   3.723   1.988   5.610  0.2673 -0.4189 -0.3178
 2894SOL    HW120318   3.738   1.988   5.704 -1.4081 -1.0770 -0.0474
 2894SOL    HW220319   3.794   2.043   5.577  0.1197  0.4588  0.8406
 2895SOL     OW20320   2.494   1.902   6.924 -0.9441  0.1866  0.4043
 2895SOL    HW120321   2.514   1.873   6.835  0.8401 -0.2693  0.9484
 2895SOL    HW220322   2.490   1.996   6.906  0.6448  0.1889  0.0580
 2896SOL     OW20323   1.431   0.560   7.928  0.3574  0.2390  0.1711
 2896SOL    HW120324   1.421   0.465   7.922 -0.5171  0.3254  0.2718
 2896SOL    HW220325   1.517   0.570   7.968  0.5735 -0.9512 -0.0071
 2897SOL     OW20326   0.006   3.938   4.633 -0.3480  0.0152  0.1803
 2897SOL    HW120327   0.021   3.912   4.724 -0.1165  0.7687  0.3620
 2897SOL    HW220328   0.070   4.010   4.630 -0.9156  0.4751 -0.8766
 2898SOL     OW20329   4.727   0.888   8.101  0.2131  0.6021 -0.4977
 2898SOL    HW120330   4.712   0.921   8.012  0.7076 -0.2580 -0.9009
 2898SOL    HW220331   0.030   0.962   8.148 -0.2870  0.2231  0.4947
 2899SOL     OW20332   2.188   0.549   9.390  0.5088 -0.1663  0.6286
 2899SOL    HW120333   2.233   0.494   9.326  0.5775  0.6038  0.0111
 2899SOL    HW220334   2.166   0.479   9.451  0.1111 -0.2090  0.4376
 2900SOL     OW20335   3.812   1.466   8.955  0.6203  0.2590  0.2664
 2900SOL    HW120336   3.854   1.391   8.999 -0.9509 -1.2810 -0.8506
 2900SOL    HW220337   3.846   1.524   9.023 -0.4460  1.7513 -0.5024
 2901SOL     OW20338   0.601   4.192   7.619  0.3754  0.2751 -0.0216
 2901SOL    HW120339   0.672   4.130   7.609 -0.9146 -1.1357 -0.3411
 2901SOL    HW220340   0.547   4.160   7.546  0.0299  1.1233 -0.1454
 2902SOL     OW20341   1.440   3.436  12.192  0.1986 -0.2151  0.4583
 2902SOL    HW120342   1.406   3.525  12.189 -2.1556 -1.1497 -0.5819
 2902SOL    HW220343   1.393   3.403  12.115 -2.5856  0.3250  1.9221
 2903SOL     OW20344   0.297   3.236   3.999  0.2003  0.2412  0.1063
 2903SOL    HW120345   0.299   3.166   3.934 -0.8821  0.2126  0.1074
 2903SOL    HW220346   0.283   3.308   3.937  1.1539 -0.1207 -0.5252
 2904SOL     OW20347   1.169   4.276   8.197 -0.0574 -0.2761 -0.5268
 2904SOL    HW120348   1.214   4.205   8.243 -0.2204 -0.5159 -0.7354
 2904SOL    HW220349   1.108   4.222   8.147 -0.2950 -1.7838  1.4249
 2905SOL     OW20350   1.067   0.754   3.240 -0.5109 -0.5353 -0.4736
 2905SOL    HW120351   0.998   0.705   3.195 -0.2370 -1.8158  0.4841
 2905SOL    HW220352   1.126   0.683   3.268  1.5792  0.8690 -1.2965
 2906SOL     OW20353   3.044   4.716  14.719  0.3329  0.1831 -0.4089
 2906SOL    HW120354   2.952   4.708  14.695  0.3862  1.0195 -0.8747
 2906SOL    HW220355   3.078   4.664  14.646 -1.6921 -0.3181 -0.9844
 2907SOL     OW20356   0.524   0.240   8.311 -0.3284  0.0722  0.0357
 2907SOL    HW120357   0.606   0.252   8.263  0.0955 -3.1967 -0.0994
 2907SOL    HW220358   0.473   0.305   8.264 -1.8273 -1.4857 -0.5150
 2908SOL     OW20359   2.245   3.998  16.280  0.0738  0.0258  0.1039
 2908SOL    HW120360   2.191   4.003  16.201  1.8952 -1.2844 -1.2394
 2908SOL    HW220361   2.226   3.908  16.305  0.8393 -0.0284  0.5042
 2909SOL     OW20362   0.051   1.865   7.578 -0.4699 -0.4083  0.0577
 2909SOL    HW120363   4.711   1.923   7.567 -0.5029 -0.1727  1.5321
 2909SOL    HW220364   0.117   1.924   7.541 -0.7119 -0.2583 -0.1356
 2910SOL     OW20365   2.192   1.806   8.427  0.5841 -0.2214  0.2582
 2910SOL    HW120366   2.135   1.754   8.370  2.4688 -2.3842  0.3705
 2910SOL    HW220367   2.170   1.894   8.398 -2.6485 -1.0986 -0.0196
 2911SOL     OW20368   3.474   0.167   4.811 -1.3143  0.1318  0.0134
 2911SOL    HW120369   3.400   0.111   4.836 -0.2922 -0.5960  1.4535
 2911SOL    HW220370   3.508   0.212   4.888  0.5004 -0.3613 -0.4902
 2912SOL     OW20371   1.219   2.239   6.890  0.5763 -0.0975  0.2761
 2912SOL    HW120372   1.268   2.321   6.893 -0.3673  0.4859 -0.3822
 2912SOL    HW220373   1.275   2.178   6.938 -0.9878  1.3588  3.8832
 2913SOL     OW20374   0.324   3.276   7.567  0.1014 -0.0660  0.1707
 2913SOL    HW120375   0.247   3.332   7.578 -0.5791 -0.9720 -0.0541
 2913SOL    HW220376   0.369   3.287   7.650  0.2286  0.0940  0.0814
 2914SOL     OW20377   2.868   2.298   8.828 -0.1899  0.5400  0.2596
 2914SOL    HW120378   2.773   2.293   8.838 -0.2380 -0.6713 -0.7817
 2914SOL    HW220379   2.880   2.392   8.818  0.9090  0.2253 -1.3433
 2915SOL     OW20380   2.826   4.084   5.166 -0.1060  0.3022 -0.4138
 2915SOL    HW120381   2.901   4.109   5.113  2.0547 -0.1090  2.4237
 2915SOL    HW220382   2.882   4.032   5.224  0.9872  0.5927 -1.2064
 2916SOL     OW20383   2.075   1.537   5.800 -0.6456 -0.0708  0.8252
 2916SOL    HW120384   2.025   1.591   5.862  1.0320 -0.5026  2.5484
 2916SOL    HW220385   1.999   1.502   5.754 -0.2665  0.0283  0.1277
 2917SOL     OW20386   1.957   0.099  16.271  0.1640  0.1815  0.2336
 2917SOL    HW120387   1.939   0.192  16.256  0.9844  0.5937  1.7136
 2917SOL    HW220388   1.933   0.058  16.189  2.6413 -0.5597 -0.1111
 2918SOL     OW20389   1.220   2.752   4.194  0.3578  0.1952  0.2288
 2918SOL    HW120390   1.138   2.798   4.212  0.4182 -0.4643  2.2254
 2918SOL    HW220391   1.243   2.796   4.113  0.2987  0.1656  0.1954
 2919SOL     OW20392   2.628   0.073  16.698 -0.1904 -0.0507  0.7708
 2919SOL    HW120393   2.559   0.136  16.675 -1.5870 -2.3441 -1.2585
 2919SOL    HW220394   2.679   0.053  16.619  0.1712 -1.3777  1.3435
 2920SOL     OW20395   1.995   1.197   4.027 -0.8108  0.2469 -0.1151
 2920SOL    HW120396   2.023   1.113   4.065  2.3364  0.8075 -1.2279
 2920SOL    HW220397   2.020   1.256   4.098  1.1094 -1.1054  0.3284
 2921SOL     OW20398   0.339   1.996   3.588  0.0738  0.3845 -0.0319
 2921SOL    HW120399   0.388   1.916   3.571 -0.4105  0.3812 -1.4333
 2921SOL    HW220400   0.365   2.009   3.679 -0.4554 -1.2935  0.3601
 2922SOL     OW20401   0.739   1.742   4.899 -0.0345 -0.2178 -0.4148
 2922SOL    HW120402   0.697   1.680   4.958 -1.5655  1.7663  0.5746
 2922SOL    HW220403   0.660   1.765   4.849 -0.5981  0.6268  0.8567
 2923SOL     OW20404   2.475   3.222   3.097 -0.4743 -0.2563  0.3836
 2923SOL    HW120405   2.558   3.189   3.062  0.7349  3.1869  0.0366
 2923SOL    HW220406   2.441   3.139   3.133 -0.1549  0.0875  1.4971
 2924SOL     OW20407   1.753   1.158   4.829 -0.0136  0.0788  0.0098
 2924SOL    HW120408   1.722   1.248   4.820 -0.4937 -0.0970 -0.1325
 2924SOL    HW220409   1.831   1.140   4.777 -0.8418  2.9949 -2.2180
 2925SOL     OW20410   3.484   0.938   5.524 -0.2245 -0.0037  0.2614
 2925SOL    HW120411   3.399   0.968   5.556 -0.1299  0.3839  0.1465
 2925SOL    HW220412   3.554   0.989   5.566  0.5733  0.1899 -1.3150
 2926SOL     OW20413   1.739   0.155   4.839 -0.4752 -0.4265 -0.6095
 2926SOL    HW120414   1.648   0.147   4.809  0.2806 -0.0698 -3.0209
 2926SOL    HW220415   1.761   0.248   4.839  0.6905 -0.7139  0.6714
 2927SOL     OW20416   0.725   0.989   8.155  0.4744 -0.3939 -0.4201
 2927SOL    HW120417   0.750   1.078   8.182  0.2135 -0.0800 -1.2159
 2927SOL    HW220418   0.811   0.948   8.150  1.6577  2.4615 -3.3881
 2928SOL     OW20419   0.397   4.237   0.589 -0.1548  0.7310 -0.6479
 2928SOL    HW120420   0.329   4.188   0.635 -0.2704 -1.5360 -3.2443
 2928SOL    HW220421   0.462   4.171   0.568 -1.3376 -0.8553  0.7181
 2929SOL     OW20422   1.460   0.572   3.654  0.6295  0.2649 -0.1756
 2929SOL    HW120423   1.515   0.582   3.733  0.4651 -0.2791  0.0091
 2929SOL    HW220424   1.392   0.638   3.668 -0.5928 -0.4955 -2.6446
 2930SOL     OW20425   1.407   2.970  10.215  0.7326 -0.4398  0.3154
 2930SOL    HW120426   1.411   2.880  10.182  1.4911 -0.1855 -0.2635
 2930SOL    HW220427   1.408   3.018  10.133 -0.1210 -0.1433  0.4821
 2931SOL     OW20428   1.105   4.493   3.493  0.6976  0.3659  0.6865
 2931SOL    HW120429   1.084   4.557   3.561  3.0414 -0.3600  2.1093
 2931SOL    HW220430   1.196   4.517   3.477 -0.0749  3.7891  1.4842
 2932SOL     OW20431   3.470   1.751  16.238  0.3678  0.1084  0.3759
 2932SOL    HW120432   3.431   1.815  16.179 -0.9505 -0.0732  1.0609
 2932SOL    HW220433   3.541   1.707  16.190  0.1806 -0.6722  0.8044
 2933SOL     OW20434   2.397   0.643  15.509  0.4618  0.2735  0.0619
 2933SOL    HW120435   2.331   0.661  15.441  1.2774  3.7924  0.1846
 2933SOL    HW220436   2.427   0.556  15.483 -0.9450 -0.4648  0.8653
 2934SOL     OW20437   3.184   1.737   5.297 -0.0979  0.1006 -0.1755
 2934SOL    HW120438   3.148   1.751   5.384  0.9198  0.5235  0.1796
 2934SOL    HW220439   3.116   1.774   5.241  0.2070  1.2232  0.1961
 2935SOL     OW20440   4.471   0.533   4.351  0.2903  0.0272 -0.0767
 2935SOL    HW120441   4.559   0.559   4.324  1.4126 -2.2103  1.4357
 2935SOL    HW220442   4.429   0.514   4.267  0.9968 -2.1427  0.0824
 2936SOL     OW20443   2.116   4.157   5.057 -0.2480 -0.2230  0.9908
 2936SOL    HW120444   2.167   4.211   5.118  0.5284  1.3095 -1.0434
 2936SOL    HW220445   2.154   4.070   5.068  1.6252  0.4879  0.0288
 2937SOL     OW20446   1.161   2.686   8.216  0.5215  0.4187  0.2050
 2937SOL    HW120447   1.160   2.604   8.265 -3.7228  0.7324  0.6461
 2937SOL    HW220448   1.252   2.691   8.188  0.1964  2.5157 -0.4802
 2938SOL     OW20449   1.552   4.733   3.723 -0.3255 -0.2291 -0.9330
 2938SOL    HW120450   1.581   4.704   3.637  2.1105  0.1600 -0.2385
 2938SOL    HW220451   1.579   0.089   3.733  2.0389 -0.7787 -2.4615
 2939SOL     OW20452   4.007   3.386  15.421 -0.0689 -0.5025 -0.4691
 2939SOL    HW120453   3.930   3.388  15.479  0.9067 -2.5306  0.9079
 2939SOL    HW220454   4.036   3.477  15.418  0.6875 -0.6268  2.9811
 2940SOL     OW20455   1.892   1.243   8.691  0.0648 -0.0919 -0.0040
 2940SOL    HW120456   1.895   1.203   8.778  2.5263  0.3700  0.1141
 2940SOL    HW220457   1.907   1.335   8.711  3.1322 -0.5557 -0.2203
 2941SOL     OW20458   1.900   3.792   7.596 -0.3395 -0.0158 -0.1298
 2941SOL    HW120459   1.893   3.760   7.686  0.4206  0.8514  0.2328
 2941SOL    HW220460   1.935   3.712   7.556 -0.3854 -0.8799  1.5690
 2942SOL     OW20461   0.429   1.197   3.458  0.0057 -0.0889 -0.4341
 2942SOL    HW120462   0.461   1.172   3.371  0.4217  1.9940 -0.8993
 2942SOL    HW220463   0.348   1.246   3.442 -0.0711 -0.0710  0.0161
 2943SOL     OW20464   1.553   0.511  10.644 -0.2797  1.3812 -0.0073
 2943SOL    HW120465   1.618   0.501  10.576 -1.9224 -0.5254 -1.2941
 2943SOL    HW220466   1.523   0.597  10.614 -0.7452  1.0746 -0.4321
 2944SOL     OW20467   2.118   0.822  15.568 -0.0014 -0.5561  0.1098
 2944SOL    HW120468   2.142   0.773  15.490 -3.0142 -2.1442  0.1751
 2944SOL    HW220469   2.089   0.902  15.524 -0.6241  0.5535  2.4809
 2945SOL     OW20470   0.518   2.375   2.409  0.5834 -0.5422  0.1142
 2945SOL    HW120471   0.490   2.291   2.446 -1.1722 -0.6284 -1.4172
 2945SOL    HW220472   0.452   2.394   2.343  1.6469 -1.0902 -1.1003
 2946SOL     OW20473   1.729   1.028   8.315  0.0418  0.6912 -0.1753
 2946SOL    HW120474   1.670   1.080   8.262 -1.0289  1.8600  2.1476
 2946SOL    HW220475   1.721   1.089   8.388 -2.3359 -1.7529  1.6060
 2947SOL     OW20476   1.782   2.678   9.090 -0.1663 -0.2775 -0.6666
 2947SOL    HW120477   1.732   2.674   9.009  1.3829 -0.0574 -1.6514
 2947SOL    HW220478   1.828   2.594   9.093  0.8589  0.3688  1.7587
 2948SOL     OW20479   3.147   0.708  15.245 -0.1504  0.0870  0.4307
 2948SOL    HW120480   3.121   0.800  15.235 -0.9611 -0.2273 -0.3628
 2948SOL    HW220481   3.081   0.667  15.190 -1.0723  0.4997  1.2237
 2949SOL     OW20482   4.695   2.327   5.704 -0.5000 -0.3352 -0.1670
 2949SOL    HW120483   0.050   2.322   5.673  0.4487  1.8939  2.1460
 2949SOL    HW220484   4.652   2.380   5.637  0.4076  0.1259 -0.3941
 2950SOL     OW20485   3.867   4.662  12.728  0.4443  0.0676 -0.0155
 2950SOL    HW120486   3.957   4.684  12.750  0.4899 -0.2371  0.1060
 2950SOL    HW220487   3.868   4.568  12.747  0.1782 -0.0593 -0.5995
 2951SOL     OW20488   0.482   4.735   6.000 -0.3187  0.1455  0.3302
 2951SOL    HW120489   0.482   0.093   5.980 -3.9055 -0.4114 -2.2853
 2951SOL    HW220490   0.436   4.735   6.084  0.7862 -0.5091  0.9358
 2952SOL     OW20491   4.468   3.338  10.244 -0.0389  0.2775  0.1113
 2952SOL    HW120492   4.540   3.332  10.307 -0.6827  0.0184  0.8272
 2952SOL    HW220493   4.414   3.262  10.264 -0.1808  0.7130  1.3702
 2953SOL     OW20494   0.304   3.686   8.425 -0.5542  0.0537 -0.4566
 2953SOL    HW120495   0.219   3.713   8.391 -0.4575 -1.1773 -1.6645
 2953SOL    HW220496   0.318   3.605   8.376  0.7063 -0.9000  1.4936
 2954SOL     OW20497   2.599   1.326   3.601  0.2762 -0.0119  0.5995
 2954SOL    HW120498   2.549   1.246   3.618  2.4128 -1.7908 -1.3946
 2954SOL    HW220499   2.672   1.287   3.553 -0.4093  0.1870 -0.6066
 2955SOL     OW20500   2.432   0.888   0.833  0.0920 -0.5516  0.3620
 2955SOL    HW120501   2.413   0.799   0.803  1.3909 -0.1564 -1.6525
 2955SOL    HW220502   2.453   0.874   0.925 -1.8472  0.8908  1.0214
 2956SOL     OW20503   3.517   0.171  11.773  0.2241 -0.2323  0.0074
 2956SOL    HW120504   3.577   0.099  11.750  0.2424 -0.1144 -0.3145
 2956SOL    HW220505   3.429   0.137  11.756  0.4545 -0.9605  0.2623
 2957SOL     OW20506   2.218   3.463  17.654  0.5322  0.0646  0.8035
 2957SOL    HW120507   2.238   3.506  17.570  1.7225 -2.8970 -0.4159
 2957SOL    HW220508   2.227   3.369  17.638 -0.1541  0.5935 -2.7925
 2958SOL     OW20509   2.842   1.868   6.675 -0.4826  0.0151  0.0084
 2958SOL    HW120510   2.838   1.849   6.581  1.1192  1.2992 -0.3331
 2958SOL    HW220511   2.758   1.837   6.707 -0.6165  1.2647  0.8680
 2959SOL     OW20512   0.967   4.229   0.313  0.5733 -0.0456  0.2774
 2959SOL    HW120513   0.927   4.188   0.390  3.6478  2.0460  3.0001
 2959SOL    HW220514   1.055   4.192   0.310  1.0125  1.0587 -0.8466
 2960SOL     OW20515   0.673   0.568  10.678  0.6181 -0.4372 -0.0134
 2960SOL    HW120516   0.723   0.616  10.744  1.2345 -0.3860 -0.5225
 2960SOL    HW220517   0.725   0.492  10.653  0.6736 -0.6610  0.7668
 2961SOL     OW20518   1.953   4.683   5.883  0.5246  0.0782 -0.0427
 2961SOL    HW120519   1.931   4.640   5.965  1.4108 -1.5485 -0.6578
 2961SOL    HW220520   1.943   4.609   5.823 -0.4315 -0.1793  0.4415
 2962SOL     OW20521   0.462   1.672   6.022  0.2257 -0.2860 -0.2740
 2962SOL    HW120522   0.468   1.766   6.005  2.0722 -0.5419 -0.9719
 2962SOL    HW220523   0.370   1.648   6.034 -0.0009  2.0022  2.6816
 2963SOL     OW20524   4.708   2.465   6.147 -0.0798  0.0686 -0.9190
 2963SOL    HW120525   0.007   2.549   6.178  0.5277 -0.1694 -0.9604
 2963SOL    HW220526   0.047   2.436   6.096  2.2115  3.0338  0.7382
 2964SOL     OW20527   2.928   1.169   8.531  0.1062 -0.2108  0.3341
 2964SOL    HW120528   2.845   1.148   8.488  0.3189  0.8908 -0.6102
 2964SOL    HW220529   2.933   1.094   8.590  0.7337 -0.7870 -0.4397
 2965SOL     OW20530   1.659   3.881  11.806 -1.0027 -0.3370  0.4718
 2965SOL    HW120531   1.713   3.944  11.759 -2.3886  0.5714  0.0844
 2965SOL    HW220532   1.718   3.862  11.879 -0.9881  2.1727  1.1387
 2966SOL     OW20533   1.806   2.635   4.914 -0.1594  0.5516 -0.3116
 2966SOL    HW120534   1.796   2.703   4.980  0.5364 -0.5452  0.9176
 2966SOL    HW220535   1.717   2.637   4.880  0.2858 -1.2389 -1.5850
 2967SOL     OW20536   2.663   2.002  16.394  0.1046  0.6822 -0.2897
 2967SOL    HW120537   2.590   1.983  16.453 -0.7479  0.7190 -1.3422
 2967SOL    HW220538   2.615   2.047  16.325 -0.1299 -2.0804 -1.9373
 2968SOL     OW20539   1.515   3.248  12.387  0.4371  0.2081  0.2826
 2968SOL    HW120540   1.501   3.307  12.314  1.8239 -0.8884 -0.8912
 2968SOL    HW220541   1.607   3.235  12.364  0.6139 -0.3679  1.2785
 2969SOL     OW20542   0.956   3.477   3.543  0.6096 -0.5047 -0.4857
 2969SOL    HW120543   0.903   3.522   3.608  0.5702  0.3199 -1.0831
 2969SOL    HW220544   0.981   3.551   3.486 -1.3266 -0.8332 -1.7711
 2970SOL     OW20545   1.995   0.598  10.969 -0.3555  0.0733 -0.1969
 2970SOL    HW120546   2.017   0.540  11.042 -4.5283  0.7297  1.5919
 2970SOL    HW220547   1.902   0.576  10.969  0.0155 -1.5176  0.4072
 2971SOL     OW20548   2.416   4.065   0.008  0.7736  0.2277  0.3160
 2971SOL    HW120549   2.349   4.000  17.732  0.1218  1.7066 -2.6061
 2971SOL    HW220550   2.375   4.138  17.703 -0.7145 -1.8071 -1.5380
 2972SOL     OW20551   3.310   1.690  17.146 -0.4522  0.0416 -0.3727
 2972SOL    HW120552   3.262   1.667  17.226 -0.3093 -0.7943 -0.5274
 2972SOL    HW220553   3.294   1.609  17.098 -2.0735 -0.0119  0.2619
 2973SOL     OW20554   4.143   2.006  11.040 -0.1436 -0.0433  0.3308
 2973SOL    HW120555   4.177   2.055  11.114 -0.1578  0.2262  0.1587
 2973SOL    HW220556   4.220   2.009  10.984  0.1675  1.8713  0.8780
 2974SOL     OW20557   3.092   3.846  16.061 -0.3764 -0.4655  0.4498
 2974SOL    HW120558   3.136   3.764  16.039 -0.4442  0.3968 -2.7858
 2974SOL    HW220559   2.999   3.826  16.056 -0.5490  0.1233  1.3357
 2975SOL     OW20560   0.218   4.428   3.813 -0.0262 -0.3506  0.2988
 2975SOL    HW120561   0.216   4.415   3.907  0.6548 -0.1419  0.3415
 2975SOL    HW220562   0.298   4.479   3.799  0.3774 -1.1773 -0.5161
 2976SOL     OW20563   1.322   0.019   1.449  0.3999  0.0906 -0.0843
 2976SOL    HW120564   1.294   0.066   1.370  1.3185  0.4572 -0.2008
 2976SOL    HW220565   1.405   0.062   1.469  0.1344  1.2512 -1.4882
 2977SOL     OW20566   0.781   1.241  16.417 -0.5791  0.0216  0.2117
 2977SOL    HW120567   0.846   1.172  16.429  0.1553  0.2781 -2.1988
 2977SOL    HW220568   0.847   1.309  16.428 -1.6156  0.9324  0.9192
 2978SOL     OW20569   0.907   1.303   4.526 -0.1042  0.1086 -0.3641
 2978SOL    HW120570   0.824   1.311   4.479 -1.2120 -5.2734  0.5736
 2978SOL    HW220571   0.947   1.387   4.505 -0.1557  0.2045 -0.0836
 2979SOL     OW20572   1.013   3.241  11.720  0.1923  0.0311  0.4522
 2979SOL    HW120573   0.954   3.194  11.661 -2.4757  1.6302  1.8571
 2979SOL    HW220574   1.010   3.192  11.803 -0.9607  2.3635  1.7968
 2980SOL     OW20575   3.944   2.915   5.296  0.6269  0.1056  0.3272
 2980SOL    HW120576   4.014   2.977   5.279  0.8003 -0.3941 -0.7970
 2980SOL    HW220577   3.993   2.834   5.283 -1.4836 -1.1126 -0.0959
 2981SOL     OW20578   3.449   1.160   0.490 -0.2872 -0.0615  0.7369
 2981SOL    HW120579   3.376   1.117   0.534  0.1234 -1.0321  0.4638
 2981SOL    HW220580   3.423   1.252   0.499  0.5418  0.2895 -0.3876
 2982SOL     OW20581   3.944   0.684   2.659  0.2191 -0.0877  0.5985
 2982SOL    HW120582   3.851   0.690   2.636 -0.0393 -1.8138  1.2432
 2982SOL    HW220583   3.940   0.709   2.751  0.5135 -1.9396  1.1060
 2983SOL     OW20584   3.307   1.512   4.876  0.0608  0.2382  0.0613
 2983SOL    HW120585   3.273   1.467   4.798  1.8625  2.7452 -2.1732
 2983SOL    HW220586   3.253   1.591   4.881 -0.5044 -0.2214  1.0933
 2984SOL     OW20587   3.508   1.424  16.850  0.2685  0.2310 -0.5205
 2984SOL    HW120588   3.525   1.347  16.905  2.5716  0.6643 -0.6160
 2984SOL    HW220589   3.572   1.483  16.891  0.2453  1.0873 -1.7295
 2985SOL     OW20590   2.502   2.469  10.497  0.2199  0.2557 -0.4384
 2985SOL    HW120591   2.574   2.441  10.555  0.6022 -0.1176 -1.0956
 2985SOL    HW220592   2.532   2.550  10.455  1.6765 -0.7372 -1.3064
 2986SOL     OW20593   4.338   4.607  13.645  0.2357  0.2364  0.0411
 2986SOL    HW120594   4.255   4.564  13.623 -0.0095  1.3285 -1.1401
 2986SOL    HW220595   4.327   4.681  13.585  0.4338  1.0188  0.9804
 2987SOL     OW20596   2.384   3.779   0.716  0.1975  1.1350 -0.0827
 2987SOL    HW120597   2.458   3.834   0.744 -0.9924  3.0247 -0.6124
 2987SOL    HW220598   2.331   3.845   0.670 -0.0700  0.7410 -0.3311
 2988SOL     OW20599   3.904   1.794  15.583 -0.4254  0.1588  0.2523
 2988SOL    HW120600   3.978   1.770  15.639 -2.1368  0.6869  2.7240
 2988SOL    HW220601   3.904   1.728  15.513 -0.1786  0.6926 -0.2483
 2989SOL     OW20602   1.750   2.514  12.739  0.2300  0.3982  0.2938
 2989SOL    HW120603   1.667   2.522  12.785  0.9529 -2.0503  2.0118
 2989SOL    HW220604   1.741   2.585  12.675 -3.7270  0.9359  1.4912
 2990SOL     OW20605   0.166   4.661   4.545 -0.7817  0.7887 -0.1935
 2990SOL    HW120606   0.250   4.664   4.500 -0.8668 -1.1580 -0.4993
 2990SOL    HW220607   0.188   4.726   4.611 -1.8010  0.9845 -0.0429
 2991SOL     OW20608   4.227   4.281   0.722  0.3014 -0.6870  0.4924
 2991SOL    HW120609   4.213   4.368   0.761  2.9110 -0.3572  0.7376
 2991SOL    HW220610   4.145   4.265   0.677  1.2142 -1.3411 -0.9378
 2992SOL     OW20611   1.699   1.563   6.401  0.5722 -0.0513  0.1127
 2992SOL    HW120612   1.778   1.585   6.450  0.5474  0.6891 -0.1799
 2992SOL    HW220613   1.635   1.548   6.471  1.3062 -2.7449  0.2086
 2993SOL     OW20614   2.117   4.230   6.997  0.2046  0.6780 -0.4080
 2993SOL    HW120615   2.171   4.303   6.968 -1.3897  0.4655 -3.9033
 2993SOL    HW220616   2.101   4.186   6.914  0.0584 -1.5556  0.7987
 2994SOL     OW20617   3.540   4.546   1.660  0.1295 -0.3698 -0.2458
 2994SOL    HW120618   3.497   4.463   1.680  0.4252 -0.8729 -1.6787
 2994SOL    HW220619   3.573   4.524   1.573 -0.5913  1.1365 -0.9006
 2995SOL     OW20620   2.515   4.384   9.057 -0.1637  0.4259 -0.3141
 2995SOL    HW120621   2.604   4.390   9.091  0.1733 -1.8440 -0.8059
 2995SOL    HW220622   2.473   4.331   9.125  0.4966  0.0733 -0.1857
 2996SOL     OW20623   3.647   1.534  16.376  0.1454  0.1642 -0.3447
 2996SOL    HW120624   3.619   1.486  16.298 -2.0050  0.0940  0.4648
 2996SOL    HW220625   3.715   1.477  16.412 -0.4929 -1.1664 -1.2448
 2997SOL     OW20626   2.302   0.038   9.090  0.3375  0.6650  0.0722
 2997SOL    HW120627   2.383   0.078   9.059 -0.6322  0.7807 -2.2629
 2997SOL    HW220628   2.253   0.116   9.114  0.9230  0.6247  1.4048
 2998SOL     OW20629   4.381   3.470   9.812  0.0875 -0.0456 -0.1357
 2998SOL    HW120630   4.472   3.489   9.833  0.4427  0.0958 -1.7463
 2998SOL    HW220631   4.377   3.376   9.832 -0.2985 -0.1064 -0.4782
 2999SOL     OW20632   4.683   3.151  16.998 -0.5989  0.8698  0.5411
 2999SOL    HW120633   4.664   3.070  17.045  2.2279 -0.3924 -0.4921
 2999SOL    HW220634   4.621   3.151  16.925 -0.1505 -2.1498  0.1761
 3000SOL     OW20635   1.195   2.044   5.878 -0.0554 -0.5672  0.7749
 3000SOL    HW120636   1.210   2.117   5.939  2.3001 -1.1176  0.8637
 3000SOL    HW220637   1.165   1.982   5.944  0.8692 -1.3578  0.4555
 3001SOL     OW20638   2.848   3.962   1.565 -0.7951  0.7084 -0.4581
 3001SOL    HW120639   2.927   3.964   1.512 -1.5089  0.4980 -1.5405
 3001SOL    HW220640   2.859   3.871   1.591  0.7828  1.5744  1.8626
 3002SOL     OW20641   1.024   3.669   9.594 -0.4475 -0.3111  0.0887
 3002SOL    HW120642   0.959   3.653   9.526 -0.1114  3.5043 -1.1838
 3002SOL    HW220643   0.973   3.719   9.658 -3.6976 -1.6020 -1.5000
 3003SOL     OW20644   1.212   4.168   5.725 -0.0475  0.2296  0.1623
 3003SOL    HW120645   1.235   4.110   5.653 -0.1938  1.5636 -0.9743
 3003SOL    HW220646   1.222   4.111   5.802 -0.2060 -1.2770 -0.9410
 3004SOL     OW20647   2.058   0.715  13.630 -0.1844  0.6779  0.5273
 3004SOL    HW120648   2.013   0.760  13.558 -0.4569  0.9408  0.8637
 3004SOL    HW220649   2.143   0.757  13.619 -0.3453  0.9567  0.3499
 3005SOL     OW20650   0.527   2.912   3.344  0.0750  0.2945 -0.0855
 3005SOL    HW120651   0.596   2.897   3.279  0.9906 -0.4534  1.0513
 3005SOL    HW220652   0.535   2.839   3.406  0.8715 -0.0855 -0.6275
 3006SOL     OW20653   2.042   2.519   7.298 -0.1610  0.1441  0.1587
 3006SOL    HW120654   1.974   2.536   7.364 -0.3476  0.4431 -0.1137
 3006SOL    HW220655   2.122   2.502   7.348 -0.4905  0.5203  0.8156
 3007SOL     OW20656   3.676   0.033   4.514  0.7994 -0.5364  0.3194
 3007SOL    HW120657   3.586   0.023   4.484  0.2272  1.2508  1.3754
 3007SOL    HW220658   3.694   4.677   4.535  0.1156 -0.4134  1.4743
 3008SOL     OW20659   0.842   3.806   5.152  0.0946  0.4494  0.0503
 3008SOL    HW120660   0.892   3.854   5.086 -1.3452  1.6108 -0.2063
 3008SOL    HW220661   0.875   3.842   5.235  0.8187  2.5984 -1.1826
 3009SOL     OW20662   2.589   1.468   3.846  0.0856 -0.1047  0.3384
 3009SOL    HW120663   2.598   1.421   3.763  1.5674 -0.9237  0.9752
 3009SOL    HW220664   2.508   1.517   3.832  0.6307  0.7000 -0.0273
 3010SOL     OW20665   1.914   0.322  17.514  0.6190 -0.4659 -0.1776
 3010SOL    HW120666   1.929   0.414  17.493 -1.0037 -0.0702  0.3549
 3010SOL    HW220667   1.885   0.331  17.605 -0.3822 -1.6348 -0.3709
 3011SOL     OW20668   1.582   3.652  14.032  0.6011  0.6901  0.1947
 3011SOL    HW120669   1.664   3.669  14.078  0.4724 -1.1931  1.1040
 3011SOL    HW220670   1.561   3.561  14.053  1.0269  0.6898  0.5957
 3012SOL     OW20671   3.325   1.097   2.497  0.3719 -0.4351  0.0109
 3012SOL    HW120672   3.405   1.056   2.465  0.4359 -1.7544  1.8953
 3012SOL    HW220673   3.283   1.016   2.524  0.3369 -0.4805 -0.1788
 3013SOL     OW20674   1.102   3.754   4.553 -0.3500 -0.9342 -0.5682
 3013SOL    HW120675   1.156   3.831   4.535  0.4942 -1.4283 -0.1251
 3013SOL    HW220676   1.013   3.786   4.564 -0.6338 -0.9428 -2.6904
 3014SOL     OW20677   1.505   3.388  17.362  0.3171  0.1617  0.1212
 3014SOL    HW120678   1.556   3.466  17.340  1.5806 -1.4217 -2.5311
 3014SOL    HW220679   1.420   3.402  17.319  0.6264  0.2530 -0.4631
 3015SOL     OW20680   3.340   2.165  11.439  0.1798 -0.0882  0.0738
 3015SOL    HW120681   3.348   2.092  11.378 -0.6550 -0.1609  0.0486
 3015SOL    HW220682   3.248   2.179  11.462  0.4080 -1.3997  1.8420
 3016SOL     OW20683   1.758   0.914   8.074  0.5106  0.0449  0.2750
 3016SOL    HW120684   1.751   0.933   8.167 -2.2309 -1.7462  0.4402
 3016SOL    HW220685   1.674   0.956   8.055  1.9072  2.6308 -0.1333
 3017SOL     OW20686   0.117   4.553   2.831 -0.0380  0.2554  0.3611
 3017SOL    HW120687   0.115   4.649   2.835 -0.5259  0.3197 -1.5030
 3017SOL    HW220688   0.126   4.542   2.736  2.4710  1.8387  0.4138
 3018SOL     OW20689   3.910   0.875  17.386  0.0830  0.1749  0.2312
 3018SOL    HW120690   3.836   0.927  17.417  1.2375  1.0265  1.5267
 3018SOL    HW220691   3.872   0.788  17.393 -0.5746  0.4406 -0.0438
 3019SOL     OW20692   0.052   4.466   5.012 -0.2236 -0.0497 -0.4335
 3019SOL    HW120693   4.697   4.438   5.006  0.6343 -2.8588 -0.4194
 3019SOL    HW220694   0.094   4.387   4.976 -1.0375 -0.1925 -1.0581
 3020SOL     OW20695   3.744   1.616   6.650  0.4728  0.3769  0.1275
 3020SOL    HW120696   3.708   1.603   6.562  0.4656  0.2599  0.1471
 3020SOL    HW220697   3.786   1.532   6.671 -1.5614 -1.1417 -1.7960
 3021SOL     OW20698   2.629   3.084   0.783 -0.9678 -0.2022 -0.6512
 3021SOL    HW120699   2.611   2.991   0.771  2.6671 -1.3950  3.3137
 3021SOL    HW220700   2.612   3.109   0.692  0.7698 -0.4736 -1.0397
 3022SOL     OW20701   3.199   1.958  11.014  0.0726  0.5451 -0.1834
 3022SOL    HW120702   3.249   2.040  11.020 -1.4497  1.4565 -0.0106
 3022SOL    HW220703   3.154   1.967  10.930 -0.6674  1.5986  0.3238
 3023SOL     OW20704   4.240   1.816   4.289  0.2695 -0.2157 -0.6392
 3023SOL    HW120705   4.288   1.898   4.278  1.3347 -0.7186  0.1140
 3023SOL    HW220706   4.162   1.849   4.246 -1.2660 -0.7072  1.7988
 3024SOL     OW20707   3.856   2.253  17.300  0.2003  0.4659 -0.1350
 3024SOL    HW120708   3.875   2.199  17.377  0.6591  1.2994  0.3380
 3024SOL    HW220709   3.765   2.233  17.281  0.0837 -0.5896  1.4609
 3025SOL     OW20710   4.151   1.650   4.517  0.2258 -1.0209 -0.0968
 3025SOL    HW120711   4.201   1.674   4.595 -0.5372 -0.0355  0.1034
 3025SOL    HW220712   4.191   1.702   4.447  0.3189  1.0294  1.4585
 3026SOL     OW20713   3.158   4.079   7.769  0.3380  0.4593  0.2060
 3026SOL    HW120714   3.219   4.066   7.697  0.2528 -1.8093  0.5424
 3026SOL    HW220715   3.078   4.061   7.719  1.9848  2.3103 -3.0715
 3027SOL     OW20716   4.100   2.445   4.560  0.1863 -0.0928  0.3743
 3027SOL    HW120717   4.047   2.521   4.584 -2.6104 -1.9922  0.2140
 3027SOL    HW220718   4.080   2.375   4.621 -2.0669  0.8956  0.7879
 3028SOL     OW20719   2.159   1.869   1.514  0.0494  0.1023  0.2318
 3028SOL    HW120720   2.088   1.872   1.451  0.4931 -1.2670 -0.3343
 3028SOL    HW220721   2.193   1.959   1.512  0.2655 -0.0018 -0.5885
 3029SOL     OW20722   3.883   1.760   8.887  0.4497 -0.3892 -0.0642
 3029SOL    HW120723   3.827   1.742   8.963  1.2997  0.1038  0.6789
 3029SOL    HW220724   3.937   1.833   8.918  0.6531 -0.4651 -0.2423
 3030SOL     OW20725   0.864   4.126   8.574 -0.0000  0.2007  0.0313
 3030SOL    HW120726   0.929   4.165   8.515  0.6289  1.1380  1.3373
 3030SOL    HW220727   0.795   4.192   8.570 -0.4562 -0.1523  2.3099
 3031SOL     OW20728   1.158   0.051  15.201  0.0283  0.2865  0.2041
 3031SOL    HW120729   1.119   4.713  15.248  1.2740 -1.1683 -1.0210
 3031SOL    HW220730   1.164   0.123  15.264 -1.6436  0.8552 -0.2951
 3032SOL     OW20731   2.555   2.754   6.363 -0.1467  0.4053  0.1395
 3032SOL    HW120732   2.587   2.836   6.401  0.8464 -0.0029  0.1877
 3032SOL    HW220733   2.571   2.696   6.437  2.6784 -0.3630 -1.0602
 3033SOL     OW20734   1.289   1.872  13.382 -0.0866 -0.3674  0.1743
 3033SOL    HW120735   1.307   1.908  13.468  0.2814  0.9192 -0.4453
 3033SOL    HW220736   1.375   1.855  13.343 -1.3276  0.0842 -2.8149
 3034SOL     OW20737   0.038   3.411  17.027 -0.0546  0.1073 -0.0011
 3034SOL    HW120738   4.735   3.324  17.013 -0.3924  0.1479  0.6873
 3034SOL    HW220739   0.106   3.417  16.960 -0.3609  1.4132 -0.1921
 3035SOL     OW20740   1.497   2.601   4.497  0.1538  0.3627 -0.2851
 3035SOL    HW120741   1.517   2.545   4.571  2.2986  0.5656 -0.7312
 3035SOL    HW220742   1.520   2.538   4.429  0.9885 -1.8533  2.0651
 3036SOL     OW20743   0.156   2.990   5.740  0.0676  0.2452 -0.0704
 3036SOL    HW120744   0.223   2.923   5.754  0.2907  0.2543 -1.1523
 3036SOL    HW220745   0.124   2.958   5.656  0.0476 -2.5966  1.0174
 3037SOL     OW20746   0.972   4.482   9.183 -0.4866 -0.5044 -0.3465
 3037SOL    HW120747   0.961   4.405   9.127  0.0530 -0.6944 -0.1865
 3037SOL    HW220748   0.882   4.513   9.196  1.1411  3.1078  2.1816
 3038SOL     OW20749   3.579   0.672   2.955  0.2786 -0.6491 -0.5655
 3038SOL    HW120750   3.517   0.731   2.998  1.9690  1.5457 -1.1406
 3038SOL    HW220751   3.575   0.592   3.008 -1.5115 -0.3577 -0.2771
 3039SOL     OW20752   3.111   4.136   4.493 -0.6407 -0.2667  0.1650
 3039SOL    HW120753   3.069   4.062   4.538  0.4597 -1.3397 -0.5731
 3039SOL    HW220754   3.143   4.088   4.417  1.3641  2.6830 -0.8256
 3040SOL     OW20755   3.519   1.871  17.269  0.0767  0.0269  0.1616
 3040SOL    HW120756   3.585   1.841  17.206  1.2143 -0.1788  1.4560
 3040SOL    HW220757   3.444   1.818  17.243  0.0222 -0.2850  0.9630
 3041SOL     OW20758   1.109   1.540  14.583 -0.1411  0.9842 -0.2456
 3041SOL    HW120759   1.092   1.446  14.583 -0.9405  1.1213  1.1734
 3041SOL    HW220760   1.127   1.556  14.676 -0.9393 -1.8025  0.3832
 3042SOL     OW20761   1.786   0.890  10.955  0.0921  0.1294 -0.0030
 3042SOL    HW120762   1.714   0.949  10.979 -0.3034 -1.4151  2.6080
 3042SOL    HW220763   1.861   0.918  11.008  0.2096 -0.7427  0.2930
 3043SOL     OW20764   1.689   3.454   2.149 -0.1717 -0.6483 -0.0206
 3043SOL    HW120765   1.714   3.542   2.123  2.6316 -1.2646  0.5857
 3043SOL    HW220766   1.630   3.469   2.223 -0.2320 -1.0251  0.0123
 3044SOL     OW20767   0.462   4.360  11.401  0.0824  0.4741 -0.2445
 3044SOL    HW120768   0.494   4.449  11.415 -0.5062  0.9336 -1.7663
 3044SOL    HW220769   0.368   4.377  11.404  0.1499  0.2575  2.6343
 3045SOL     OW20770   3.128   1.393   7.299  0.3694  0.6825 -0.2573
 3045SOL    HW120771   3.059   1.442   7.253 -1.1707 -0.6704  0.6065
 3045SOL    HW220772   3.195   1.456   7.327  1.1736  0.3578 -1.4476
 3046SOL     OW20773   4.265   1.711   3.935 -0.7458 -0.3093  0.1930
 3046SOL    HW120774   4.174   1.695   3.913 -0.5657 -1.3343  0.2240
 3046SOL    HW220775   4.265   1.682   4.026  1.0602 -1.9154 -0.3154
 3047SOL     OW20776   3.413   4.252   7.716 -0.1152  0.2897  0.1106
 3047SOL    HW120777   3.346   4.306   7.675 -0.4902 -0.5174 -0.3345
 3047SOL    HW220778   3.466   4.222   7.642 -1.1034 -0.2038 -0.3914
 3048SOL     OW20779   3.317   1.168  13.507 -0.0424 -0.0072  0.0129
 3048SOL    HW120780   3.384   1.193  13.569  0.3585  2.7181 -1.4924
 3048SOL    HW220781   3.275   1.091  13.545 -1.7481  0.4808 -0.8782
 3049SOL     OW20782   0.494   0.260   7.867  0.0074 -0.6214  0.1477
 3049SOL    HW120783   0.473   0.304   7.785  0.5211 -1.3735 -0.3853
 3049SOL    HW220784   0.417   0.284   7.919 -0.1857 -0.6492 -0.1291
 3050SOL     OW20785   2.335   1.239   3.178 -0.3907 -0.0756  0.2194
 3050SOL    HW120786   2.274   1.313   3.185 -1.6401 -0.8401 -2.8148
 3050SOL    HW220787   2.414   1.289   3.154  0.9259 -2.1760  0.2142
 3051SOL     OW20788   3.787   0.061   4.838 -0.1752 -0.0439  0.5986
 3051SOL    HW120789   3.832   0.000   4.780 -1.1136  0.3392 -0.5363
 3051SOL    HW220790   3.699   0.065   4.801 -0.2679 -1.6305  0.6573
 3052SOL     OW20791   4.090   3.668   6.780  0.1296  0.7310 -0.1430
 3052SOL    HW120792   4.033   3.605   6.823 -0.7268  0.7250 -1.2746
 3052SOL    HW220793   4.101   3.741   6.841  0.1837  1.6149 -1.2085
 3053SOL     OW20794   4.673   2.218   5.127 -0.0012  0.0144 -0.2812
 3053SOL    HW120795   4.670   2.314   5.123  0.6359  0.0765  0.6626
 3053SOL    HW220796   0.025   2.190   5.152  0.6653  1.7115 -0.7338
 3054SOL     OW20797   1.529   1.743  16.683 -0.3505  0.0896  0.5238
 3054SOL    HW120798   1.476   1.818  16.712 -1.2977 -0.5938  0.5453
 3054SOL    HW220799   1.521   1.685  16.758 -0.1110 -1.6796 -0.8233
 3055SOL     OW20800   4.042   1.255  13.751 -0.1621 -1.1165 -0.3970
 3055SOL    HW120801   4.063   1.248  13.657 -0.3097  0.6430 -0.5751
 3055SOL    HW220802   3.983   1.181  13.764  1.5835 -2.0711  1.9600
 3056SOL     OW20803   2.914   3.604   4.339  0.2772 -0.4303 -0.1853
 3056SOL    HW120804   2.837   3.560   4.375  1.5649 -0.2296  2.7902
 3056SOL    HW220805   2.926   3.553   4.259 -1.7365 -0.4818 -0.4558
 3057SOL     OW20806   0.280   3.928   2.379  0.1946  0.2523 -0.1512
 3057SOL    HW120807   0.345   3.859   2.391 -0.3418 -0.1988  0.1468
 3057SOL    HW220808   0.322   4.001   2.423  0.5926  0.0277 -0.1549
 3058SOL     OW20809   0.551   1.882   7.140 -0.0510  0.4531 -0.1750
 3058SOL    HW120810   0.606   1.926   7.075  0.6646  0.0061  0.1321
 3058SOL    HW220811   0.617   1.855   7.204 -1.5673 -2.1335  0.2992
 3059SOL     OW20812   1.154   4.285  17.690  0.1721 -0.2850  0.0320
 3059SOL    HW120813   1.200   4.319  17.613 -0.7541  0.6317 -0.1231
 3059SOL    HW220814   1.159   4.362   0.005 -1.2074 -0.6298  0.6201
 3060SOL     OW20815   2.880   3.552   2.361  0.2514 -0.2133  0.5627
 3060SOL    HW120816   2.796   3.506   2.362  1.5976 -2.6922 -0.9970
 3060SOL    HW220817   2.875   3.616   2.432  0.7764 -1.0459  1.3452
 3061SOL     OW20818   0.667   3.210   7.001 -0.2929 -0.1409 -0.0363
 3061SOL    HW120819   0.618   3.290   6.982 -1.5995 -0.7774  0.6392
 3061SOL    HW220820   0.715   3.204   6.918 -1.3164  0.8581 -0.6993
 3062SOL     OW20821   4.086   3.200   7.857 -0.1811 -0.4476  0.2086
 3062SOL    HW120822   4.167   3.166   7.896 -0.1362 -2.4657 -1.6606
 3062SOL    HW220823   4.119   3.207   7.767 -2.0381  1.9019 -0.2793
 3063SOL     OW20824   4.706   2.510   5.089  0.2748  0.2304  0.2870
 3063SOL    HW120825   4.652   2.501   5.011  0.9160 -0.3639 -0.0883
 3063SOL    HW220826   0.060   2.513   5.056 -0.8664  1.3670 -2.7498
 3064SOL     OW20827   4.558   3.033   7.117  0.5130 -0.2676  0.3349
 3064SOL    HW120828   4.626   3.055   7.052  1.1018 -1.5866  0.5126
 3064SOL    HW220829   4.491   3.094   7.088 -0.5590 -0.6522  2.0596
 3065SOL     OW20830   2.515   1.786   5.379  0.0789  0.1955 -0.0904
 3065SOL    HW120831   2.517   1.691   5.376 -1.1075  0.0841  3.0027
 3065SOL    HW220832   2.602   1.815   5.408 -0.3336  1.0755  0.2731
 3066SOL     OW20833   3.122   3.615   5.254 -0.5902 -0.4193  0.6583
 3066SOL    HW120834   3.181   3.621   5.330  0.9371  0.2883 -0.5882
 3066SOL    HW220835   3.155   3.540   5.204 -1.5598 -0.4582  0.0806
 3067SOL     OW20836   4.676   3.024  16.334  0.0952  0.6679 -0.2199
 3067SOL    HW120837   0.023   3.017  16.285  1.0567  2.4451  1.1428
 3067SOL    HW220838   4.671   2.932  16.358 -0.3713  0.8785  0.4905
 3068SOL     OW20839   3.353   0.520   2.643 -0.4961 -0.1577  0.0852
 3068SOL    HW120840   3.310   0.583   2.702 -2.6328 -2.4638  0.9870
 3068SOL    HW220841   3.303   0.446   2.677 -1.4149 -0.1572 -1.2574
 3069SOL     OW20842   3.360   1.029  12.991  0.2941  0.4318 -0.1520
 3069SOL    HW120843   3.314   1.108  12.962 -0.9876  0.5095  2.1398
 3069SOL    HW220844   3.445   1.026  12.948  0.9628  0.7712  1.1408
 3070SOL     OW20845   2.301   1.531   9.092  0.0270  0.0882 -0.1556
 3070SOL    HW120846   2.324   1.541   9.000 -0.1121 -2.1631 -0.4239
 3070SOL    HW220847   2.206   1.537   9.095  0.0755  0.2129  1.2297
 3071SOL     OW20848   1.030   0.175   5.941  0.2946  0.3118  0.3757
 3071SOL    HW120849   0.947   0.144   5.904  1.1609 -0.2007 -1.1421
 3071SOL    HW220850   1.051   0.243   5.877 -2.2867  0.1782 -0.5957
 3072SOL     OW20851   2.046   2.023   8.321  0.6765 -0.4638 -0.0600
 3072SOL    HW120852   1.973   2.034   8.260  2.4859  0.9768 -1.9889
 3072SOL    HW220853   2.056   2.115   8.347  1.0421 -0.6766  0.5419
 3073SOL     OW20854   2.472   3.400   6.358  0.0985  0.0007  0.4985
 3073SOL    HW120855   2.410   3.457   6.404 -0.2457 -0.7025  0.8982
 3073SOL    HW220856   2.558   3.425   6.391 -0.1687  0.6294  0.7198
 3074SOL     OW20857   1.104   1.366   6.966 -0.2015  0.1515 -0.0431
 3074SOL    HW120858   1.186   1.321   6.944 -0.1865  1.0057 -1.7567
 3074SOL    HW220859   1.112   1.407   7.052  0.4353 -1.3962  0.6486
 3075SOL     OW20860   4.585   4.514   6.868  0.0760 -0.0830  0.3207
 3075SOL    HW120861   4.547   4.589   6.914  0.5605 -0.8109  1.9132
 3075SOL    HW220862   4.509   4.467   6.834  1.3493 -0.8097 -1.5039
 3076SOL     OW20863   3.293   2.194  15.004 -0.0387 -0.6064  0.8607
 3076SOL    HW120864   3.386   2.215  14.991 -0.5372  0.7366 -0.6316
 3076SOL    HW220865   3.293   2.123  14.940  1.2365  0.3480 -0.1898
 3077SOL     OW20866   1.522   1.392   1.838 -0.0369 -0.1578 -0.0538
 3077SOL    HW120867   1.552   1.317   1.889  0.8531  0.3543  0.1652
 3077SOL    HW220868   1.601   1.406   1.787 -0.6990  2.0510 -0.4857
 3078SOL     OW20869   0.028   0.137  12.852  0.3226 -0.0222  0.5581
 3078SOL    HW120870   0.062   0.084  12.925 -0.3740 -2.5929 -0.9876
 3078SOL    HW220871   4.725   0.068  12.797  1.5836 -0.1024 -0.2184
 3079SOL     OW20872   3.780   3.615   9.100 -0.0077 -0.1862  0.1665
 3079SOL    HW120873   3.752   3.539   9.049  1.9079 -0.7136 -0.0940
 3079SOL    HW220874   3.756   3.591   9.190 -2.6801 -1.0625 -0.7840
 3080SOL     OW20875   1.229   3.999   4.469  0.7517 -0.2428  0.7573
 3080SOL    HW120876   1.219   3.984   4.375  0.1834 -0.2589  0.8224
 3080SOL    HW220877   1.141   4.021   4.500  0.0491 -1.1940 -0.5341
 3081SOL     OW20878   3.932   3.065   1.865  0.0896 -0.3633  0.4841
 3081SOL    HW120879   3.863   3.054   1.930 -0.8346 -1.0688 -0.6442
 3081SOL    HW220880   3.999   3.116   1.912 -0.0518  0.0272  0.2615
 3082SOL     OW20881   1.836   3.128   3.241  0.1200 -0.5505 -0.3665
 3082SOL    HW120882   1.901   3.110   3.173 -1.1562 -3.4683 -0.8062
 3082SOL    HW220883   1.885   3.188   3.297  1.0361 -1.4373 -0.2318
 3083SOL     OW20884   2.338   1.247   6.800  0.3716 -0.6313 -0.1986
 3083SOL    HW120885   2.340   1.183   6.871  1.6371 -1.1376 -0.6895
 3083SOL    HW220886   2.312   1.182   6.735  2.4522 -0.8151 -0.8569
 3084SOL     OW20887   3.562   4.386   8.794  0.1303  0.3593  0.2158
 3084SOL    HW120888   3.501   4.313   8.787  0.3776  0.2435 -0.7536
 3084SOL    HW220889   3.587   4.384   8.887 -1.1668 -0.4604  0.5499
 3085SOL     OW20890   1.934   4.150  12.320  0.5265 -0.0835 -0.4122
 3085SOL    HW120891   1.997   4.079  12.330 -1.4518 -1.2543  3.5076
 3085SOL    HW220892   1.855   4.101  12.295  1.0774 -0.3435 -1.6427
 3086SOL     OW20893   0.056   1.089   3.313  0.1250 -0.9176  0.6343
 3086SOL    HW120894   0.100   1.042   3.242 -3.7605  0.4755 -2.7012
 3086SOL    HW220895   4.700   1.080   3.285 -0.2775  2.0906  1.0122
 3087SOL     OW20896   4.058   1.513   2.650  0.0725  0.2486 -0.5905
 3087SOL    HW120897   4.085   1.421   2.649 -0.7553  0.0003  0.4736
 3087SOL    HW220898   4.074   1.537   2.741  0.1736 -0.4085 -0.4341
 3088SOL     OW20899   3.142   4.063   2.602  1.0023 -0.1583 -0.1217
 3088SOL    HW120900   3.234   4.043   2.585  1.8502  3.8937 -0.3101
 3088SOL    HW220901   3.161   4.142   2.653 -1.3659 -0.8168  1.7886
 3089SOL     OW20902   4.406   2.330  17.357 -0.0512  0.3611 -0.2424
 3089SOL    HW120903   4.432   2.327  17.264 -2.1090  2.1513 -0.8758
 3089SOL    HW220904   4.418   2.420  17.386  0.8842  0.1548 -0.0175
 3090SOL     OW20905   4.335   0.262  16.548  0.0422 -0.0108 -0.0425
 3090SOL    HW120906   4.374   0.338  16.592  1.7807 -0.3913 -0.9316
 3090SOL    HW220907   4.361   0.189  16.604 -0.2833 -0.7415 -0.8421
 3091SOL     OW20908   3.550   0.473   6.708 -0.2406  0.3381  0.1612
 3091SOL    HW120909   3.474   0.474   6.649 -0.8715  1.1923  0.9941
 3091SOL    HW220910   3.602   0.394   6.691 -0.4499  0.0893  0.6873
 3092SOL     OW20911   2.710   2.143  17.094 -0.3938 -0.2238  0.2199
 3092SOL    HW120912   2.743   2.233  17.096 -0.4627 -0.1791 -0.6011
 3092SOL    HW220913   2.772   2.101  17.155  0.7045  0.6422 -0.3067
 3093SOL     OW20914   1.101   2.357   4.810  0.3681 -0.2774  0.1950
 3093SOL    HW120915   1.068   2.443   4.785 -1.0944 -1.1230 -0.7713
 3093SOL    HW220916   1.037   2.287   4.792 -0.6827  1.5778 -3.1571
 3094SOL     OW20917   1.075   2.457   0.906  0.1128  0.4253  0.0455
 3094SOL    HW120918   1.133   2.532   0.897  0.9826 -0.1155  1.2559
 3094SOL    HW220919   1.023   2.483   0.982 -1.8907 -1.8266 -0.5422
 3095SOL     OW20920   2.878   4.524   6.313  0.0829 -0.1033  0.0190
 3095SOL    HW120921   2.901   4.521   6.406  0.3832 -0.8645 -0.0804
 3095SOL    HW220922   2.886   4.432   6.287  1.0714 -0.8773  3.0953
 3096SOL     OW20923   2.555   0.953  12.855 -0.0914 -0.3280 -0.3904
 3096SOL    HW120924   2.505   0.872  12.865 -0.4194  0.0735  1.2195
 3096SOL    HW220925   2.635   0.902  12.839 -0.8137 -1.7105  0.4224
 3097SOL     OW20926   3.500   2.294   2.275 -0.2677  0.9247  0.3009
 3097SOL    HW120927   3.537   2.371   2.232  0.4196 -0.1833 -1.0717
 3097SOL    HW220928   3.511   2.232   2.203  0.5573  0.9555  0.3976
 3098SOL     OW20929   4.723   1.341  15.104  0.0751 -0.8330 -0.0496
 3098SOL    HW120930   4.730   1.356  15.199  1.0077  0.7844 -0.3539
 3098SOL    HW220931   0.059   1.279  15.091  0.0388 -0.6433 -1.1440
 3099SOL     OW20932   3.240   4.139  15.831 -0.0938 -0.2202  0.1876
 3099SOL    HW120933   3.318   4.188  15.805 -0.2014  1.2619  2.6763
 3099SOL    HW220934   3.275   4.083  15.901 -2.2628 -2.1138 -0.2296
 3100SOL     OW20935   2.751   3.287  16.659 -0.2866  0.5022  0.0358
 3100SOL    HW120936   2.766   3.335  16.578  1.5429  0.1416  0.1431
 3100SOL    HW220937   2.696   3.345  16.711 -1.2158  0.5487 -1.0190
 3101SOL     OW20938   3.148   2.293   9.159  0.0425  0.0000  0.5639
 3101SOL    HW120939   3.230   2.327   9.195  0.6889 -0.5143 -0.4197
 3101SOL    HW220940   3.152   2.200   9.181  0.1583 -0.1505 -0.0936
 3102SOL     OW20941   1.293   2.305   9.559 -0.1506 -0.0905  0.2374
 3102SOL    HW120942   1.326   2.357   9.632 -0.5787 -1.1515  1.1886
 3102SOL    HW220943   1.286   2.222   9.607 -0.5079  0.1118  0.5397
 3103SOL     OW20944   2.238   1.941   3.601 -0.1940 -0.4997  0.0460
 3103SOL    HW120945   2.198   1.875   3.545 -0.0322  0.4967 -1.2402
 3103SOL    HW220946   2.286   1.996   3.540 -1.8571 -0.0450 -0.8650
 3104SOL     OW20947   0.647   2.683   3.170  0.0527 -0.3716 -0.1973
 3104SOL    HW120948   0.727   2.723   3.138  0.2082 -0.4108  0.1391
 3104SOL    HW220949   0.591   2.711   3.098 -1.5071 -0.3886  1.0055
 3105SOL     OW20950   2.818   1.021   8.912  0.3528  0.0160  0.0563
 3105SOL    HW120951   2.813   1.030   8.816 -1.5375  0.4082  0.1935
 3105SOL    HW220952   2.866   1.103   8.925  0.8055 -0.2846  0.2420
 3106SOL     OW20953   1.196   1.426  17.523  0.3074  0.1766  0.0732
 3106SOL    HW120954   1.207   1.476  17.604  0.8579 -0.3283  0.3108
 3106SOL    HW220955   1.258   1.357  17.547 -2.6862 -1.7128  2.2013
 3107SOL     OW20956   0.881   2.061  17.026 -0.2334 -0.2349 -0.9384
 3107SOL    HW120957   0.796   2.096  17.053  0.3116 -1.4806  2.4515
 3107SOL    HW220958   0.908   2.128  16.964 -0.1029 -0.8702 -1.5622
 3108SOL     OW20959   0.951   3.583   5.720 -0.6421 -0.0483  0.0437
 3108SOL    HW120960   0.925   3.670   5.690 -0.1186 -0.0587 -0.4227
 3108SOL    HW220961   1.043   3.602   5.736 -0.2454 -1.4524 -0.6315
 3109SOL     OW20962   1.758   3.873   4.366 -0.4987 -0.2986 -0.2069
 3109SOL    HW120963   1.778   3.965   4.382 -0.4542 -0.5786  1.3679
 3109SOL    HW220964   1.833   3.825   4.401 -0.2111 -0.6957 -1.3614
 3110SOL     OW20965   3.271   4.702   5.150  0.0170 -0.2675  0.0215
 3110SOL    HW120966   3.339   0.029   5.174  0.8730 -1.7213  1.4493
 3110SOL    HW220967   3.198   0.014   5.191 -1.5741 -0.7684 -2.2353
 3111SOL     OW20968   4.712   4.176   5.591 -0.4462  0.0402  0.3457
 3111SOL    HW120969   4.732   4.180   5.685  2.6625  0.5240 -0.3360
 3111SOL    HW220970   4.671   4.262   5.600  0.7813  1.0699 -4.1478
 3112SOL     OW20971   1.684   2.340   5.570 -0.4051  0.2891  0.2476
 3112SOL    HW120972   1.769   2.382   5.586  1.5722 -2.7389 -2.3839
 3112SOL    HW220973   1.633   2.419   5.591  0.7137  1.0307  0.1861
 3113SOL     OW20974   2.607   3.414   7.372 -0.3360  0.2335  0.5006
 3113SOL    HW120975   2.580   3.506   7.368 -3.0224 -0.4589  2.7477
 3113SOL    HW220976   2.664   3.414   7.449 -0.2813  3.3828  0.4843
 3114SOL     OW20977   3.384   4.480   3.978  0.0152 -0.1857  0.3344
 3114SOL    HW120978   3.395   4.574   3.989  2.0649 -0.3241 -0.5061
 3114SOL    HW220979   3.291   4.479   3.958 -0.1368  2.7552  0.9040
 3115SOL     OW20980   4.543   3.439   7.340 -0.3493 -0.2830  0.2046
 3115SOL    HW120981   4.524   3.454   7.248  2.4867  1.4548 -0.1000
 3115SOL    HW220982   4.466   3.387   7.362  0.5682 -2.5741 -1.9590
 3116SOL     OW20983   4.514   0.310   5.242  0.4183  0.0765 -0.0423
 3116SOL    HW120984   4.500   0.221   5.209  0.8643  0.1273 -0.3678
 3116SOL    HW220985   4.531   0.366   5.166 -0.8862 -1.5100 -1.4919
 3117SOL     OW20986   4.419   3.415   9.541 -0.5438 -0.2555  0.2782
 3117SOL    HW120987   4.378   3.429   9.626  2.1382  1.0616  1.3308
 3117SOL    HW220988   4.397   3.322   9.531 -0.3914 -0.1774 -0.8737
 3118SOL     OW20989   3.509   2.624   8.630  0.5767 -0.1399 -0.6621
 3118SOL    HW120990   3.454   2.642   8.555 -0.0571  1.3941  0.1795
 3118SOL    HW220991   3.565   2.702   8.628  1.2840 -0.5856  1.1531
 3119SOL     OW20992   3.928   2.102   9.211 -0.5041  0.1101 -0.2297
 3119SOL    HW120993   4.022   2.094   9.194 -0.6772 -0.9194 -0.6853
 3119SOL    HW220994   3.917   2.076   9.302 -0.2613  0.4021 -0.1168
 3120SOL     OW20995   1.247   3.682   3.020 -0.2025 -0.6928  0.0611
 3120SOL    HW120996   1.239   3.613   2.954 -0.9249  0.5720 -1.1858
 3120SOL    HW220997   1.247   3.626   3.097  2.0437  1.6114  1.7275
 3121SOL     OW20998   3.258   2.609  14.665  0.0113  0.0703 -0.3412
 3121SOL    HW120999   3.203   2.544  14.709  1.2300 -0.3191  0.6065
 3121SOL    HW221000   3.249   2.586  14.572  2.9698 -1.0676 -0.3446
 3122SOL     OW21001   1.849   0.426  12.028  0.1395  0.0278  0.2392
 3122SOL    HW121002   1.831   0.345  11.980  0.4647  0.4293 -0.5614
 3122SOL    HW221003   1.888   0.481  11.960 -0.3937  0.0820 -0.0309
 3123SOL     OW21004   3.204   0.587   9.696 -0.1054  0.0392 -0.7287
 3123SOL    HW121005   3.189   0.564   9.604  1.7026  0.7630 -1.2057
 3123SOL    HW221006   3.180   0.508   9.744 -0.2896 -0.2771 -1.3360
 3124SOL     OW21007   2.481   2.875  12.674  0.3127 -0.2594  0.0257
 3124SOL    HW121008   2.541   2.923  12.731  0.9338  0.7984 -1.5239
 3124SOL    HW221009   2.401   2.928  12.679  0.0461 -0.7445  0.9956
 3125SOL     OW21010   0.823   2.288   7.499 -0.5915  0.4100 -0.2187
 3125SOL    HW121011   0.837   2.253   7.587 -0.2726  2.7184  0.6537
 3125SOL    HW221012   0.888   2.358   7.499  0.1137 -0.2332 -0.7354
 3126SOL     OW21013   0.472   0.395  12.245  0.2417 -0.1457  0.0975
 3126SOL    HW121014   0.436   0.327  12.188 -0.0778 -0.7725  1.0381
 3126SOL    HW221015   0.386   0.423  12.275  0.0430  0.4387 -1.0570
 3127SOL     OW21016   1.852   4.150   1.166  0.2938  0.1344 -0.1184
 3127SOL    HW121017   1.851   4.058   1.143  0.4420  0.3533 -0.9849
 3127SOL    HW221018   1.831   4.140   1.259 -0.4365  0.9621 -0.1820
 3128SOL     OW21019   4.531   2.217   5.371 -0.3198 -0.8798  0.2516
 3128SOL    HW121020   4.513   2.126   5.396 -0.0345 -0.5449  1.6523
 3128SOL    HW221021   4.573   2.200   5.286  0.0495 -0.0778  0.2795
 3129SOL     OW21022   4.372   4.577   6.249 -0.2667 -0.4517 -0.0215
 3129SOL    HW121023   4.449   4.602   6.300 -0.7989  1.9785 -0.4232
 3129SOL    HW221024   4.303   4.598   6.312  0.6812 -0.8965  1.1605
 3130SOL     OW21025   0.361   4.312   5.046 -0.1848  0.4551 -0.0795
 3130SOL    HW121026   0.327   4.286   5.131  1.7323  1.8865  1.1243
 3130SOL    HW221027   0.357   4.408   5.050  3.3217  0.5388  1.4177
 3131SOL     OW21028   4.458   2.810   8.319 -0.3759  0.0915  0.1838
 3131SOL    HW121029   4.399   2.885   8.325 -0.6440 -0.4432  3.9530
 3131SOL    HW221030   4.424   2.740   8.375  0.2469  0.2446  0.7523
 3132SOL     OW21031   0.274   2.742   6.840 -0.1556 -0.1371  0.1496
 3132SOL    HW121032   0.339   2.677   6.816  0.6566  0.7372 -0.0491
 3132SOL    HW221033   0.252   2.709   6.927  0.3319 -1.0733 -0.0874
 3133SOL     OW21034   4.732   2.855   8.449  0.0998  0.0132 -0.0112
 3133SOL    HW121035   4.688   2.894   8.524  1.8881 -1.9104  2.0360
 3133SOL    HW221036   4.657   2.832   8.392  0.5045  0.1705 -0.6097
 3134SOL     OW21037   3.126   2.408   3.108  0.1019  0.1270 -0.2499
 3134SOL    HW121038   3.040   2.395   3.149  0.0624  0.6204 -0.1798
 3134SOL    HW221039   3.150   2.488   3.154  0.3649 -1.0032  1.5527
 3135SOL     OW21040   0.335   0.099   1.761 -0.7854  0.6215 -0.1741
 3135SOL    HW121041   0.352   0.068   1.850 -0.0512 -2.3554 -1.3629
 3135SOL    HW221042   0.427   0.108   1.735 -0.2647 -0.6933  1.2202
 3136SOL     OW21043   2.979   4.205   2.220  0.3310  0.1988 -0.4905
 3136SOL    HW121044   3.069   4.185   2.242 -0.4771  0.1978  2.8997
 3136SOL    HW221045   2.956   4.127   2.170 -3.2024  1.0015 -0.1563
 3137SOL     OW21046   1.633   3.747   7.436 -0.2818 -0.6737 -0.1142
 3137SOL    HW121047   1.665   3.674   7.489 -0.0230 -0.2547  0.3029
 3137SOL    HW221048   1.537   3.748   7.443 -0.2992 -1.8155 -0.1342
 3138SOL     OW21049   2.599   3.522   7.934 -0.7487 -0.3864  0.2269
 3138SOL    HW121050   2.584   3.590   7.999 -1.0586 -1.5059  1.3407
 3138SOL    HW221051   2.666   3.548   7.871 -1.3577 -1.2036 -0.7502
 3139SOL     OW21052   1.544   3.859  12.186  0.0467 -0.0337  0.9443
 3139SOL    HW121053   1.620   3.909  12.215 -0.8665  0.9382  1.6317
 3139SOL    HW221054   1.509   3.837  12.272 -0.3104 -0.3292  0.7280
 3140SOL     OW21055   4.109   3.619  15.443 -0.6042 -0.0262  0.3211
 3140SOL    HW121056   4.043   3.662  15.497 -1.4428 -0.2579 -0.5089
 3140SOL    HW221057   4.118   3.670  15.362 -1.4259  0.1055  0.3134
 3141SOL     OW21058   4.159   1.231   2.523 -0.2573  0.1540  0.0031
 3141SOL    HW121059   4.240   1.218   2.573  0.1432  3.4281  0.2301
 3141SOL    HW221060   4.176   1.185   2.441 -0.2059  1.3109 -0.6493
 3142SOL     OW21061   2.822   1.286   7.713 -0.0303  0.4111  0.1896
 3142SOL    HW121062   2.764   1.265   7.640  2.3632 -1.8251 -1.0576
 3142SOL    HW221063   2.812   1.197   7.748 -0.1660  0.0888 -0.6757
 3143SOL     OW21064   2.039   4.574   0.814 -0.0751  0.5022  0.4497
 3143SOL    HW121065   2.059   4.531   0.897 -0.5961  0.3323  0.4911
 3143SOL    HW221066   2.121   4.618   0.794 -0.4285  1.1774  0.5127
 3144SOL     OW21067   4.521   2.234   5.936  0.2091 -0.6952 -0.8315
 3144SOL    HW121068   4.527   2.263   5.845 -1.6997 -2.5403 -1.5340
 3144SOL    HW221069   4.486   2.311   5.980  0.1198 -0.9156 -0.5191
 3145SOL     OW21070   0.888   2.349   2.916  0.2490 -0.2128  0.0792
 3145SOL    HW121071   0.972   2.345   2.961 -1.0024  1.6647  2.5241
 3145SOL    HW221072   0.899   2.281   2.849  0.6178  0.2987 -0.3832
 3146SOL     OW21073   1.830   0.789   4.492 -0.3393  0.5796  0.0590
 3146SOL    HW121074   1.826   0.712   4.549  0.1204  0.4659 -0.0656
 3146SOL    HW221075   1.859   0.748   4.411  1.3843  0.8559  0.5260
 3147SOL     OW21076   2.447   3.247   4.623 -0.1485  0.4039  0.0479
 3147SOL    HW121077   2.441   3.230   4.717 -0.1577  1.0852  0.1740
 3147SOL    HW221078   2.405   3.164   4.600 -2.0941  1.3301  0.2487
 3148SOL     OW21079   4.071   0.319   2.866  0.1719  0.0755  0.0744
 3148SOL    HW121080   4.137   0.343   2.801 -0.2398  1.7625  0.2693
 3148SOL    HW221081   4.091   0.226   2.867  2.0377  0.5001  1.1436
 3149SOL     OW21082   0.131   4.324  11.110  0.5438 -0.7075  0.2366
 3149SOL    HW121083   0.055   4.309  11.166 -1.2564  3.0765 -1.1206
 3149SOL    HW221084   0.200   4.303  11.173 -1.0706  0.4201  2.3770
 3150SOL     OW21085   0.892   4.097   8.258 -0.8085  0.2484  0.3373
 3150SOL    HW121086   0.921   4.064   8.173 -0.2361  0.5587  0.4185
 3150SOL    HW221087   0.906   4.015   8.306 -0.2779 -1.2423 -2.3521
 3151SOL     OW21088   2.517   3.909   0.941 -0.7798  1.1125 -0.5129
 3151SOL    HW121089   2.595   3.914   0.886 -1.4807  0.0688 -1.6076
 3151SOL    HW221090   2.535   3.837   1.002  0.1801  0.1783 -1.8958
 3152SOL     OW21091   1.004   3.795  11.346 -0.0007  0.1978  0.3298
 3152SOL    HW121092   0.966   3.707  11.355 -1.1120  0.3666 -2.8517
 3152SOL    HW221093   0.931   3.853  11.365 -0.3584 -1.1847  3.3093
 3153SOL     OW21094   3.862   0.957   7.325 -0.6754 -0.1573  0.1204
 3153SOL    HW121095   3.791   0.908   7.366 -1.2262 -0.0872 -0.7322
 3153SOL    HW221096   3.885   0.904   7.248 -0.1938 -2.0101  1.5415
 3154SOL     OW21097   2.001   3.190  14.374 -0.3805 -0.5858  0.3559
 3154SOL    HW121098   2.079   3.226  14.417 -0.9200 -0.7841  1.4868
 3154SOL    HW221099   1.976   3.267  14.323  1.7629 -0.9888 -1.3609
 3155SOL     OW21100   4.406   1.622   6.353  0.0460  0.1455 -0.3478
 3155SOL    HW121101   4.441   1.537   6.325  0.5592 -0.1085  1.0729
 3155SOL    HW221102   4.406   1.668   6.269 -1.4993 -0.2418 -0.5673
 3156SOL     OW21103   1.082   4.044   7.725 -0.5832 -0.2913  0.3483
 3156SOL    HW121104   1.166   4.074   7.691 -0.3659 -0.4960  0.6935
 3156SOL    HW221105   1.088   3.949   7.708  0.6659 -0.5216  2.0523
 3157SOL     OW21106   0.573   3.508   5.602 -0.6300  0.3311  0.3153
 3157SOL    HW121107   0.589   3.490   5.509 -2.9447  2.3796 -0.5203
 3157SOL    HW221108   0.644   3.462   5.645 -0.6114  0.2524  0.2020
 3158SOL     OW21109   0.682   1.504   6.578  0.1592  0.4597 -0.1220
 3158SOL    HW121110   0.772   1.527   6.601 -0.0207  0.8171  0.2209
 3158SOL    HW221111   0.644   1.450   6.648 -2.2771  0.1758 -1.6443
 3159SOL     OW21112   4.563   2.451   5.508 -0.2156  0.0506  0.0119
 3159SOL    HW121113   4.597   2.513   5.444  0.8289 -1.2374 -0.6852
 3159SOL    HW221114   4.550   2.370   5.459  2.2205 -1.3539  1.7378
 3160SOL     OW21115   4.209   4.735   3.988  0.3252 -0.1724  0.0111
 3160SOL    HW121116   4.218   0.090   4.019  1.7105 -0.7034  1.1375
 3160SOL    HW221117   4.204   0.020   3.895 -0.9541  2.6575  0.6882
 3161SOL     OW21118   0.807   2.487   7.176 -0.0997  0.0838  0.4358
 3161SOL    HW121119   0.816   2.558   7.112 -0.9666  1.8383  2.2542
 3161SOL    HW221120   0.730   2.511   7.228 -1.0114 -2.5260  0.3013
 3162SOL     OW21121   3.114   2.494  11.197  0.2362 -0.1023  0.0243
 3162SOL    HW121122   3.148   2.524  11.112 -0.0014 -0.1059 -0.0721
 3162SOL    HW221123   3.060   2.569  11.222 -0.9615 -0.9602  0.0013
 3163SOL     OW21124   4.505   2.882   5.662 -0.4059 -0.2767 -0.1275
 3163SOL    HW121125   4.450   2.959   5.646  0.9771  0.8971  0.7548
 3163SOL    HW221126   4.444   2.809   5.672  0.8579 -1.1562  1.1748
 3164SOL     OW21127   3.488   3.299   2.760 -0.5302  0.2361 -0.3011
 3164SOL    HW121128   3.576   3.264   2.772 -0.3447  1.3883  1.6121
 3164SOL    HW221129   3.443   3.230   2.810  0.1010  0.1331  0.1272
 3165SOL     OW21130   2.434   0.643  12.290  0.0382  0.6822  0.3629
 3165SOL    HW121131   2.366   0.626  12.225  0.8258 -2.1173  0.2896
 3165SOL    HW221132   2.401   0.593  12.365  0.5138  0.4655  0.4285
 3166SOL     OW21133   4.003   3.235   5.668 -0.5202 -0.4763  0.0455
 3166SOL    HW121134   4.041   3.157   5.708  1.2136  0.8030  0.8983
 3166SOL    HW221135   4.072   3.297   5.693 -1.2193 -0.0262  0.8377
 3167SOL     OW21136   3.122   0.198   2.401  0.0081 -0.5911  0.0642
 3167SOL    HW121137   3.085   0.266   2.458  2.6016  1.8737 -1.1746
 3167SOL    HW221138   3.058   0.180   2.332  0.7037  2.2198 -1.3051
 3168SOL     OW21139   1.262   2.312  11.231  0.2271  0.4030  0.2313
 3168SOL    HW121140   1.271   2.341  11.321  1.5593  4.1554 -1.0946
 3168SOL    HW221141   1.225   2.390  11.188 -1.2695 -0.1010  0.6037
 3169SOL     OW21142   0.641   1.520   4.000  0.5824 -0.3670  0.5798
 3169SOL    HW121143   0.598   1.489   3.920  2.8801 -0.9273 -0.4407
 3169SOL    HW221144   0.570   1.577   4.030  0.1006 -0.9142  0.4698
 3170SOL     OW21145   2.614   4.597   1.373  0.2405  0.1303 -0.9273
 3170SOL    HW121146   2.568   4.633   1.296 -1.6028 -1.8008 -0.7376
 3170SOL    HW221147   2.652   4.674   1.414 -0.5631  0.3975 -0.6932
 3171SOL     OW21148   0.603   3.894   4.791  0.0576 -0.2013 -0.3255
 3171SOL    HW121149   0.542   3.907   4.718 -1.0325  1.1812  0.8160
 3171SOL    HW221150   0.572   3.966   4.846  2.6147  2.0839 -1.8403
 3172SOL     OW21151   1.915   0.866   2.549 -0.5288  0.1417 -0.6054
 3172SOL    HW121152   1.996   0.897   2.509  0.7029 -2.9500 -0.4936
 3172SOL    HW221153   1.862   0.854   2.470 -1.3941  0.9476 -0.1580
 3173SOL     OW21154   3.425   0.843  16.944  0.5008 -0.2343  0.1585
 3173SOL    HW121155   3.504   0.810  16.988 -0.4706 -2.7194  0.0206
 3173SOL    HW221156   3.458   0.932  16.926  1.1231 -0.1979  1.4589
 3174SOL     OW21157   4.048   4.078   5.284 -0.3314  0.4544 -0.5555
 3174SOL    HW121158   4.043   3.989   5.318 -1.3971  1.5575  2.2563
 3174SOL    HW221159   4.060   4.065   5.190  2.4034 -1.1193  0.0104
 3175SOL     OW21160   4.155   4.024   3.100 -0.2988  0.0136 -0.2062
 3175SOL    HW121161   4.111   4.098   3.140 -0.6591 -0.1645 -0.2779
 3175SOL    HW221162   4.133   3.959   3.166 -0.5591 -0.1591 -0.4619
 3176SOL     OW21163   1.542   4.091  11.543  0.1761  0.0379 -0.0958
 3176SOL    HW121164   1.499   4.123  11.464  0.3089  1.4827  0.4090
 3176SOL    HW221165   1.496   4.011  11.565  0.3443 -0.8139 -2.8864
 3177SOL     OW21166   3.334   4.337   3.234  0.4406  0.0887  0.0637
 3177SOL    HW121167   3.353   4.326   3.327  2.3581 -1.8322 -0.5486
 3177SOL    HW221168   3.238   4.340   3.242  0.1939 -1.3201 -2.2618
 3178SOL     OW21169   3.470   3.970   7.642  0.1194 -0.1489  0.0004
 3178SOL    HW121170   3.426   3.925   7.714 -1.4085  0.3776 -0.5987
 3178SOL    HW221171   3.507   3.902   7.586 -1.4048  0.3488 -1.6479
 3179SOL     OW21172   4.577   0.789   5.876 -0.5331  0.5347 -0.0879
 3179SOL    HW121173   4.567   0.875   5.917 -1.0241  1.0129 -1.1928
 3179SOL    HW221174   4.609   0.738   5.950  2.0612  0.2069 -1.4292
 3180SOL     OW21175   2.805   1.966   6.249  0.4427  0.0995 -0.5361
 3180SOL    HW121176   2.900   1.981   6.247  0.4266  0.2092 -0.4535
 3180SOL    HW221177   2.792   1.880   6.290 -0.4393  0.3242 -0.3545
 3181SOL     OW21178   4.688   3.863   6.082 -0.0471 -0.6249  0.1236
 3181SOL    HW121179   4.693   3.769   6.099  2.1555 -0.4292  0.5963
 3181SOL    HW221180   4.623   3.891   6.147 -0.7420  0.4084 -1.0267
 3182SOL     OW21181   4.270   0.860   3.989 -0.2500  0.6591  0.2869
 3182SOL    HW121182   4.220   0.796   3.939  1.1435  2.1118 -3.0013
 3182SOL    HW221183   4.333   0.888   3.921  0.2402 -1.7644 -0.2787
 3183SOL     OW21184   1.449   3.648  13.380 -0.2561 -0.6620  0.0286
 3183SOL    HW121185   1.524   3.588  13.375 -0.7970 -1.3586  0.4192
 3183SOL    HW221186   1.491   3.734  13.390  2.6492 -1.9117 -1.4151
 3184SOL     OW21187   3.948   2.157   2.223 -0.0263 -0.0413  0.0491
 3184SOL    HW121188   3.919   2.073   2.187 -0.0506  0.4516 -1.0873
 3184SOL    HW221189   4.002   2.122   2.293 -0.9513 -0.1210  0.7240
 3185SOL     OW21190   2.924   0.443  16.329 -0.0535  0.2363  0.3400
 3185SOL    HW121191   2.872   0.508  16.281 -1.8757 -1.1608  0.3950
 3185SOL    HW221192   3.013   0.449  16.296 -0.7532 -1.6777 -1.9139
 3186SOL     OW21193   2.735   2.121   7.497  0.0003 -0.5883  0.1149
 3186SOL    HW121194   2.766   2.121   7.588  0.2743 -1.2962  0.0298
 3186SOL    HW221195   2.786   2.189   7.454  2.4208 -0.0413  3.8242
 3187SOL     OW21196   2.824   4.095   4.114  0.1166 -0.3203 -0.1006
 3187SOL    HW121197   2.859   4.006   4.108  1.5371  0.4223 -2.5267
 3187SOL    HW221198   2.855   4.137   4.195 -1.3881 -0.3190  0.4696
 3188SOL     OW21199   1.208   4.503   3.024  0.3288  0.0767  0.6804
 3188SOL    HW121200   1.253   4.537   3.102 -0.2301  2.9528 -0.2585
 3188SOL    HW221201   1.261   4.542   2.955  3.1804 -0.8206  2.3652
 3189SOL     OW21202   2.047   3.098   3.079  0.1114  0.3694  0.2662
 3189SOL    HW121203   2.044   3.049   2.997 -1.4891 -1.2149  1.2672
 3189SOL    HW221204   2.118   3.052   3.124 -1.9735 -1.0429  2.1482
 3190SOL     OW21205   3.293   3.199  14.866  0.1284  0.0792  0.0584
 3190SOL    HW121206   3.320   3.154  14.786  0.8141 -0.7400  0.7475
 3190SOL    HW221207   3.201   3.219  14.848 -0.3586 -1.7015  0.5517
 3191SOL     OW21208   3.963   3.243   4.716  0.7471 -0.0704  0.3337
 3191SOL    HW121209   3.960   3.338   4.714  1.6527 -0.0585 -0.5618
 3191SOL    HW221210   3.870   3.226   4.726  0.5608  0.2327 -0.9898
 3192SOL     OW21211   4.069   3.459   5.952  0.5378 -0.0980  0.2549
 3192SOL    HW121212   4.098   3.413   6.030  2.6739  0.7746 -0.0435
 3192SOL    HW221213   3.981   3.422   5.946  0.4432  0.3094 -0.9747
 3193SOL     OW21214   3.060   3.160   0.867 -0.0002  0.0110  0.3568
 3193SOL    HW121215   3.132   3.210   0.906 -1.5194  0.8002  2.1630
 3193SOL    HW221216   3.100   3.074   0.867 -0.5617 -0.2495 -0.3134
 3194SOL     OW21217   4.687   0.547   7.228 -0.4563  0.7649  0.0430
 3194SOL    HW121218   4.684   0.582   7.317  2.5139  1.3239 -0.0709
 3194SOL    HW221219   0.046   0.549   7.214 -0.2000 -0.3347  1.5418
 3195SOL     OW21220   2.852   3.532   0.839  0.1961  0.0310 -0.2012
 3195SOL    HW121221   2.857   3.464   0.772  1.8006 -0.3128  0.2528
 3195SOL    HW221222   2.757   3.537   0.849  0.3164  2.1656 -0.2389
 3196SOL     OW21223   1.734   2.748   2.183 -0.0304 -0.6510  0.2057
 3196SOL    HW121224   1.789   2.794   2.246 -0.8224 -0.0696  0.4705
 3196SOL    HW221225   1.806   2.730   2.123 -1.0198 -2.4627 -0.4553
 3197SOL     OW21226   3.673   2.788   2.372 -0.8082  0.5863  0.4102
 3197SOL    HW121227   3.645   2.718   2.432 -1.0666 -0.2928 -0.7455
 3197SOL    HW221228   3.657   2.863   2.430 -1.9563  1.5588 -1.1668
 3198SOL     OW21229   3.093   1.276   7.816 -0.4106  0.1830  0.6011
 3198SOL    HW121230   3.093   1.341   7.886 -2.0523  1.2455 -0.3594
 3198SOL    HW221231   3.000   1.255   7.803 -0.0621 -0.3835 -0.9664
 3199SOL     OW21232   3.306   1.828   4.587  0.4237  0.2321  0.8744
 3199SOL    HW121233   3.392   1.837   4.629  0.9933  0.2320 -0.2769
 3199SOL    HW221234   3.331   1.762   4.522  1.0176  0.1243  1.2115
 3200SOL     OW21235   0.415   4.547   8.520 -0.3316  0.3139  0.3813
 3200SOL    HW121236   0.454   4.599   8.450 -0.3825 -0.5733 -0.3088
 3200SOL    HW221237   0.331   4.527   8.480  0.3164 -0.4100 -0.6228
 3201SOL     OW21238   1.351   2.373  13.948 -0.0690  0.6468  0.3503
 3201SOL    HW121239   1.337   2.452  14.001  1.6713  0.1630  1.5167
 3201SOL    HW221240   1.446   2.360  13.953 -0.0457  0.3744 -0.7660
 3202SOL     OW21241   3.180   3.692   8.183 -0.2641 -0.3590  0.3271
 3202SOL    HW121242   3.235   3.754   8.231 -0.1354  1.8339 -2.6497
 3202SOL    HW221243   3.242   3.626   8.152 -1.2298 -0.6170 -1.0562
 3203SOL     OW21244   2.127   0.808  14.010  0.1654 -0.6419 -0.4065
 3203SOL    HW121245   2.136   0.721  14.048 -0.3732 -0.2167  0.7009
 3203SOL    HW221246   2.068   0.850  14.072  0.0057  0.7730 -1.5279
 3204SOL     OW21247   1.826   1.885   6.848 -0.5269  0.1369  0.7032
 3204SOL    HW121248   1.738   1.919   6.833 -0.4253  0.3365  0.5574
 3204SOL    HW221249   1.869   1.906   6.765 -0.7057  0.2632  0.6424
 3205SOL     OW21250   2.957   3.806   5.871 -0.1042  0.3601 -0.8976
 3205SOL    HW121251   2.909   3.749   5.931 -1.2535 -0.5554 -2.6819
 3205SOL    HW221252   2.966   3.877   5.934  0.4065 -1.7691  1.4241
 3206SOL     OW21253   2.353   3.552   4.901 -0.7146  0.0068 -0.2486
 3206SOL    HW121254   2.348   3.617   4.972 -0.8634 -0.7550  0.4415
 3206SOL    HW221255   2.421   3.493   4.931 -0.3941  0.2165 -0.5668
 3207SOL     OW21256   4.313   1.450   2.340 -0.4667  0.1249  0.5253
 3207SOL    HW121257   4.319   1.407   2.255 -0.2643 -0.4279  0.8201
 3207SOL    HW221258   4.253   1.394   2.389 -0.9543  1.4780  1.4694
 3208SOL     OW21259   2.242   3.146  17.345 -0.1690  0.3557 -0.8438
 3208SOL    HW121260   2.262   3.240  17.345  0.9133  0.1297  1.6337
 3208SOL    HW221261   2.214   3.130  17.435  1.2675 -0.4167 -0.5190
 3209SOL     OW21262   3.849   1.698   4.198  0.1944  0.4908 -0.3618
 3209SOL    HW121263   3.942   1.711   4.214  0.2903 -2.1600  1.1901
 3209SOL    HW221264   3.850   1.665   4.108 -0.6727  0.0641 -0.2217
 3210SOL     OW21265   1.507   1.439  12.391 -0.1127  0.5916  0.4107
 3210SOL    HW121266   1.597   1.411  12.375 -0.4713  1.0775 -2.5001
 3210SOL    HW221267   1.465   1.354  12.405  1.0712 -0.1332 -0.3979
 3211SOL     OW21268   3.720   0.313   4.097  0.0581  0.0837 -0.0029
 3211SOL    HW121269   3.648   0.314   4.033 -0.9872 -0.1906  1.1775
 3211SOL    HW221270   3.692   0.239   4.151 -0.8031  1.1790  1.0469
 3212SOL     OW21271   1.223   1.216   2.708 -0.0785 -0.3973  0.1020
 3212SOL    HW121272   1.177   1.193   2.627 -1.6391  0.9389  0.6277
 3212SOL    HW221273   1.301   1.163   2.690 -0.6481 -1.7156  1.6018
 3213SOL     OW21274   1.063   3.945   5.625 -0.1879 -0.3642 -0.0856
 3213SOL    HW121275   1.032   4.033   5.648  1.1591 -0.1738  1.0030
 3213SOL    HW221276   1.091   3.903   5.707  1.3673  0.4368 -0.1949
 3214SOL     OW21277   0.650   3.750   7.771  0.4891  0.3610  0.9701
 3214SOL    HW121278   0.657   3.780   7.681 -3.2464  2.4367  1.3669
 3214SOL    HW221279   0.740   3.767   7.799  0.6838  1.8645 -0.5370
 3215SOL     OW21280   2.025   0.613   6.949  0.1873 -0.2107  0.3659
 3215SOL    HW121281   2.045   0.690   7.002 -1.3165 -0.4657  1.2791
 3215SOL    HW221282   1.994   0.658   6.870 -1.6510  2.4070  2.6013
 3216SOL     OW21283   1.103   0.468   0.836 -0.2992  0.3983  0.6296
 3216SOL    HW121284   1.115   0.528   0.762 -1.6650 -0.2141 -0.0846
 3216SOL    HW221285   1.073   0.540   0.892 -1.2237  0.3480  0.1876
 3217SOL     OW21286   2.099   0.876   8.143 -0.5589  0.4642  0.0310
 3217SOL    HW121287   2.189   0.844   8.138 -0.3295  1.1889 -0.3982
 3217SOL    HW221288   2.063   0.794   8.176  1.5322 -0.3458  0.3095
 3218SOL     OW21289   2.779   1.988   7.944 -0.1922 -0.3455 -0.0605
 3218SOL    HW121290   2.684   1.994   7.943 -0.1698 -0.1835 -0.7681
 3218SOL    HW221291   2.786   1.987   8.040  2.3060  2.1021 -0.1921
 3219SOL     OW21292   0.589   4.602  13.338 -0.2911  0.8933  0.6051
 3219SOL    HW121293   0.574   4.694  13.361 -0.6566  1.6117 -2.5077
 3219SOL    HW221294   0.646   4.612  13.262  0.5418  1.0186  1.2510
 3220SOL     OW21295   1.321   2.419  15.489 -0.1547 -0.0027 -0.1655
 3220SOL    HW121296   1.297   2.437  15.580  0.0517  0.6447 -0.2422
 3220SOL    HW221297   1.363   2.503  15.469  0.9018 -0.4835  0.0243
 3221SOL     OW21298   2.472   2.357   6.238 -0.5125  0.6649 -0.8254
 3221SOL    HW121299   2.396   2.301   6.219  0.0609  0.6654 -3.1376
 3221SOL    HW221300   2.544   2.304   6.203 -1.0238  0.5363 -1.6864
 3222SOL     OW21301   0.940   3.426   4.264  0.3607  0.8552 -0.2744
 3222SOL    HW121302   0.844   3.417   4.267  0.5387 -0.7108  0.5680
 3222SOL    HW221303   0.960   3.388   4.179  2.1952 -2.6598  1.6996
 3223SOL     OW21304   4.210   0.164   7.554  0.4047 -0.0119  0.5150
 3223SOL    HW121305   4.235   0.088   7.607  1.5049 -1.8222 -2.5789
 3223SOL    HW221306   4.297   0.201   7.565  0.9160 -0.7990 -0.8448
 3224SOL     OW21307   1.188   3.791   0.867  0.0687 -0.3818 -0.1112
 3224SOL    HW121308   1.236   3.859   0.915  1.6691 -1.3443 -0.3654
 3224SOL    HW221309   1.240   3.776   0.788  0.1672 -1.3014  0.1312
 3225SOL     OW21310   4.669   0.217   6.896  0.4060 -0.5020  0.1291
 3225SOL    HW121311   4.618   0.246   6.970 -0.0795 -0.9790 -0.0151
 3225SOL    HW221312   0.023   0.224   6.927  1.2467  0.3613 -2.4466
 3226SOL     OW21313   3.367   2.997   6.807 -0.1409  0.1928  0.4016
 3226SOL    HW121314   3.376   2.912   6.852 -3.3874 -0.2103  0.2717
 3226SOL    HW221315   3.273   3.010   6.803 -0.4327 -1.8486  0.3326
 3227SOL     OW21316   1.670   0.586   7.476  0.2543  0.1693 -0.3841
 3227SOL    HW121317   1.682   0.499   7.513  1.3358  0.3020 -0.4256
 3227SOL    HW221318   1.676   0.633   7.559 -0.8661  2.5269 -1.6337
 3228SOL     OW21319   2.610   1.823  11.444  0.1542 -0.1095  0.2954
 3228SOL    HW121320   2.675   1.882  11.481 -0.0898  0.3174  0.0376
 3228SOL    HW221321   2.645   1.735  11.456  0.6375  0.0275 -0.1037
 3229SOL     OW21322   4.145   0.866   2.904 -0.5571  0.4447 -0.2855
 3229SOL    HW121323   4.120   0.911   2.984 -0.5588  1.1052 -0.6508
 3229SOL    HW221324   4.070   0.807   2.899 -1.1223  1.1209  0.3961
 3230SOL     OW21325   3.331   3.746   4.148 -0.9816 -0.2243 -0.3285
 3230SOL    HW121326   3.419   3.710   4.146  0.1068  2.5411 -2.6388
 3230SOL    HW221327   3.337   3.801   4.069 -2.3317  1.0608  0.4481
 3231SOL     OW21328   1.919   4.331   7.720  0.7627  0.2805  0.3638
 3231SOL    HW121329   1.824   4.327   7.733  0.6406  0.5328 -0.4913
 3231SOL    HW221330   1.937   4.237   7.710 -1.6502 -0.0203 -1.1088
 3232SOL     OW21331   4.600   3.246   3.962  0.2701 -0.5280 -0.4149
 3232SOL    HW121332   4.671   3.185   3.943  0.3235 -0.4337 -0.5133
 3232SOL    HW221333   4.549   3.213   4.037  0.4821 -1.2097 -0.5713
 3233SOL     OW21334   0.654   3.364   2.282 -0.0748 -0.3448  0.1138
 3233SOL    HW121335   0.717   3.361   2.209 -1.1728  0.2545 -0.8605
 3233SOL    HW221336   0.568   3.340   2.249 -0.1255 -1.0958  0.8110
 3234SOL     OW21337   0.610   2.872   5.236 -0.4459  0.4505 -0.3049
 3234SOL    HW121338   0.614   2.966   5.254 -0.3139  0.2625  0.6365
 3234SOL    HW221339   0.522   2.860   5.272  0.5968  1.3268  2.5420
 3235SOL     OW21340   3.606   3.090   5.077 -0.5139 -0.0006 -0.2333
 3235SOL    HW121341   3.692   3.133   5.073 -0.9361  1.1274  2.8347
 3235SOL    HW221342   3.590   3.076   4.983  0.5242 -1.1026 -0.2498
 3236SOL     OW21343   0.848   1.427   5.577  0.1615 -0.0541  0.0381
 3236SOL    HW121344   0.941   1.449   5.568  0.1131  0.8672  1.7070
 3236SOL    HW221345   0.801   1.506   5.605  0.0789 -0.2400  0.4258
 3237SOL     OW21346   1.935   3.713  12.662 -0.7517  0.2302 -0.6001
 3237SOL    HW121347   1.876   3.701  12.587 -1.7318  0.2318  0.1689
 3237SOL    HW221348   1.884   3.655  12.718  2.1971 -3.1780 -1.4400
 3238SOL     OW21349   3.970   2.297  10.802 -0.5453  0.1392  0.1887
 3238SOL    HW121350   4.062   2.290  10.827 -0.0175 -2.5251 -2.5155
 3238SOL    HW221351   3.926   2.252  10.874 -1.3576  0.3052 -0.2052
 3239SOL     OW21352   2.810   3.220   0.940  0.1961  0.2794  0.1199
 3239SOL    HW121353   2.900   3.197   0.920  0.2949  0.1446  0.7201
 3239SOL    HW221354   2.764   3.153   0.888 -0.1082  0.5663  0.0204
 3240SOL     OW21355   4.670   2.834   4.935 -0.1686  0.3483  0.1135
 3240SOL    HW121356   4.613   2.789   4.872  0.6046 -1.1736  0.4911
 3240SOL    HW221357   0.005   2.858   4.875  1.5073 -1.7570  1.2391
 3241SOL     OW21358   1.078   1.195   3.859 -0.1032  0.1388 -0.2910
 3241SOL    HW121359   1.034   1.220   3.778 -0.1731  0.1319 -0.2551
 3241SOL    HW221360   1.163   1.172   3.823  0.9850  3.1354  0.3717
 3242SOL     OW21361   2.628   4.585   7.263 -0.2547 -0.7090  0.6043
 3242SOL    HW121362   2.696   4.579   7.196  0.7602 -1.3046  1.6906
 3242SOL    HW221363   2.629   4.680   7.269  0.8680 -0.6646 -0.2908
 3243SOL     OW21364   2.445   1.947   0.344  1.1181  0.2034 -0.1652
 3243SOL    HW121365   2.436   1.854   0.325 -1.4943  0.5945 -0.7650
 3243SOL    HW221366   2.497   1.968   0.266  1.1933 -1.5491 -0.5809
 3244SOL     OW21367   2.793   3.476   0.389  0.9718 -0.0021 -0.0107
 3244SOL    HW121368   2.836   3.448   0.469  2.8344 -3.0616 -2.0923
 3244SOL    HW221369   2.834   3.561   0.375 -1.5493  1.1268 -0.5101
 3245SOL     OW21370   0.706   1.310  12.249 -0.0382  0.0655  0.1954
 3245SOL    HW121371   0.772   1.286  12.314  1.4797 -2.6867 -2.3394
 3245SOL    HW221372   0.733   1.398  12.224 -1.0692  0.2565 -0.2337
 3246SOL     OW21373   1.343   3.858   7.469  0.0426  0.6828 -0.1367
 3246SOL    HW121374   1.264   3.897   7.432  1.7260  1.9777 -2.3372
 3246SOL    HW221375   1.397   3.861   7.390 -1.4556  0.8583 -1.1539
 3247SOL     OW21376   1.417   1.688   5.916  0.0236 -0.5872  0.1107
 3247SOL    HW121377   1.372   1.757   5.868 -0.0235 -1.2228 -0.7490
 3247SOL    HW221378   1.491   1.671   5.859 -0.2650  0.1745 -0.4776
 3248SOL     OW21379   1.568   0.559   9.269 -0.3968  0.2289 -0.2586
 3248SOL    HW121380   1.653   0.592   9.240 -0.8233 -0.3820 -2.2138
 3248SOL    HW221381   1.603   0.477   9.304  2.0706  2.3396  2.2956
 3249SOL     OW21382   1.081   4.222   6.391  0.4755 -0.2110 -0.2473
 3249SOL    HW121383   1.113   4.237   6.301  2.6488 -2.0613  0.2358
 3249SOL    HW221384   1.154   4.231   6.452  0.2063  0.0923  0.0250
 3250SOL     OW21385   0.271   1.070   3.729  0.0812 -0.2813  0.0225
 3250SOL    HW121386   0.300   0.979   3.725  2.4850  0.4353  0.9655
 3250SOL    HW221387   0.276   1.113   3.643  0.8495  3.4578  1.9364
 3251SOL     OW21388   1.358   3.740   1.817 -0.5425 -0.3274  0.3814
 3251SOL    HW121389   1.330   3.797   1.889 -0.8188  0.9093 -0.7153
 3251SOL    HW221390   1.279   3.755   1.764  0.5488 -0.0184 -1.1388
 3252SOL     OW21391   2.561   0.691   1.278 -0.5438 -0.5115 -0.5929
 3252SOL    HW121392   2.517   0.756   1.223 -0.8539  0.1045  0.3660
 3252SOL    HW221393   2.608   0.740   1.346 -1.2224  2.4111 -2.2497
 3253SOL     OW21394   4.215   1.714   2.336 -0.4974 -0.1192  0.3154
 3253SOL    HW121395   4.126   1.681   2.349 -1.3019  2.0480  0.3135
 3253SOL    HW221396   4.264   1.632   2.337 -0.5842 -0.2057 -2.5292
 3254SOL     OW21397   4.323   1.086  10.086 -0.9301  0.2546  0.9012
 3254SOL    HW121398   4.232   1.055  10.084 -0.5527 -0.7715 -0.0993
 3254SOL    HW221399   4.364   1.062  10.003  0.2761  2.1619  0.9398
 3255SOL     OW21400   2.533   3.609   8.970  0.1914 -0.6866 -0.3802
 3255SOL    HW121401   2.603   3.599   9.034  0.0853 -1.1511 -0.3366
 3255SOL    HW221402   2.469   3.660   9.019  0.4747 -0.6821 -0.0152
 3256SOL     OW21403   0.917   4.449   6.545 -0.4255  0.9014  0.6866
 3256SOL    HW121404   0.961   4.377   6.500 -0.1457  0.4804  1.6429
 3256SOL    HW221405   0.827   4.420   6.557  0.4533 -0.7412  3.1998
 3257SOL     OW21406   0.870   3.099   9.452 -0.1264 -0.1704  0.0424
 3257SOL    HW121407   0.803   3.036   9.427  1.3848 -0.2543 -3.6710
 3257SOL    HW221408   0.822   3.182   9.448 -1.5311 -1.0165 -0.2667
 3258SOL     OW21409   1.249   1.133   0.045  0.3429  0.3945  0.3778
 3258SOL    HW121410   1.273   1.042   0.064 -1.4129  0.0909  1.1465
 3258SOL    HW221411   1.323   1.159  17.732 -1.5881  0.7764 -2.0798
 3259SOL     OW21412   2.817   1.711   5.677 -0.2568 -0.2776 -0.2337
 3259SOL    HW121413   2.760   1.786   5.693 -1.0267 -0.9190  0.0710
 3259SOL    HW221414   2.884   1.716   5.745  0.8303 -1.2977 -1.2289
 3260SOL     OW21415   3.324   3.502   2.441  0.0744  0.1728 -0.2092
 3260SOL    HW121416   3.331   3.407   2.450 -0.9451  0.1183  0.0070
 3260SOL    HW221417   3.404   3.528   2.488 -0.6236 -0.1945  1.1869
 3261SOL     OW21418   2.968   1.137  13.204  0.3743 -0.0384 -0.0343
 3261SOL    HW121419   3.041   1.077  13.188 -0.1978 -0.3947 -1.3645
 3261SOL    HW221420   2.931   1.078  13.269  0.5653  1.0748  1.0760
 3262SOL     OW21421   0.662   2.665  10.279 -0.1387  0.4361 -0.1501
 3262SOL    HW121422   0.641   2.572  10.288  3.0043 -0.6866 -4.5592
 3262SOL    HW221423   0.600   2.691  10.211  0.5532  2.9000  0.1581
 3263SOL     OW21424   4.668   0.912   2.688 -0.1682  0.1925 -0.0444
 3263SOL    HW121425   4.699   0.834   2.735 -1.7667 -0.6348 -0.3635
 3263SOL    HW221426   4.627   0.864   2.616  1.4186 -1.2247 -0.0057
 3264SOL     OW21427   2.746   0.640   7.856 -0.3023 -0.3112 -0.0335
 3264SOL    HW121428   2.772   0.567   7.913  1.2073  0.7854  0.6859
 3264SOL    HW221429   2.699   0.592   7.787  1.7736  1.1868 -2.4877
 3265SOL     OW21430   2.511   4.308  15.447 -0.2780  0.0227 -0.1911
 3265SOL    HW121431   2.482   4.344  15.364  0.6549 -0.9576 -0.9544
 3265SOL    HW221432   2.569   4.380  15.472 -0.9399  0.3971  0.2488
 3266SOL     OW21433   4.658   2.230   1.359 -0.1074 -0.1546  0.0759
 3266SOL    HW121434   4.690   2.233   1.450  1.5941  2.3901 -0.6088
 3266SOL    HW221435   4.588   2.164   1.365 -0.4600  0.2193  0.0239
 3267SOL     OW21436   3.177   0.480   3.859 -0.1346  0.2469 -0.3790
 3267SOL    HW121437   3.225   0.443   3.933 -0.7676  0.6105  0.2178
 3267SOL    HW221438   3.094   0.432   3.867  0.3304 -0.7418 -1.4164
 3268SOL     OW21439   2.724   0.393   6.257 -0.2476 -0.0938  0.1962
 3268SOL    HW121440   2.767   0.458   6.201  1.0062 -1.2674 -0.1855
 3268SOL    HW221441   2.777   0.403   6.337 -0.9357 -0.0408  0.6467
 3269SOL     OW21442   4.501   2.621   4.071 -0.1469  0.1587  0.2199
 3269SOL    HW121443   4.493   2.536   4.113  0.9821 -0.4004 -0.7080
 3269SOL    HW221444   4.541   2.606   3.985 -0.3160  1.9167 -0.1882
 3270SOL     OW21445   4.586   4.632   7.828  0.4761 -0.4354  0.1239
 3270SOL    HW121446   4.533   4.570   7.878  0.4939 -0.3664  0.2288
 3270SOL    HW221447   4.602   4.705   7.888  1.2847  0.3896 -1.0981
 3271SOL     OW21448   0.869   3.589   6.765 -0.2168 -0.3828 -0.0620
 3271SOL    HW121449   0.927   3.598   6.841 -1.7037 -4.6352  1.5729
 3271SOL    HW221450   0.920   3.613   6.687  1.0588  2.8621  1.7898
 3272SOL     OW21451   2.730   1.507  10.334  0.2600  0.0423  0.1669
 3272SOL    HW121452   2.743   1.550  10.418 -1.2296 -0.8041  0.8363
 3272SOL    HW221453   2.779   1.569  10.280  0.9274 -0.5213  0.1390
 3273SOL     OW21454   1.721   2.067   9.377 -0.1927 -0.1574 -0.1381
 3273SOL    HW121455   1.667   2.146   9.387 -2.1763 -1.6556  0.8977
 3273SOL    HW221456   1.665   2.000   9.337  0.7427 -0.0788 -1.5946
 3274SOL     OW21457   2.213   2.461   2.009 -0.5660  0.4962 -0.3290
 3274SOL    HW121458   2.260   2.524   1.954 -0.0540  0.2690 -0.1564
 3274SOL    HW221459   2.158   2.527   2.051 -0.9573  0.7306 -1.2262
 3275SOL     OW21460   3.026   0.773   9.094  0.0731  0.2916 -0.6775
 3275SOL    HW121461   2.965   0.766   9.021 -0.4871  1.6989 -0.3333
 3275SOL    HW221462   2.968   0.788   9.169  2.5517 -0.1739  1.3084
 3276SOL     OW21463   3.427   1.170   4.305 -0.4864  0.1105  0.0859
 3276SOL    HW121464   3.407   1.189   4.396 -1.5138  0.1162 -0.1373
 3276SOL    HW221465   3.522   1.160   4.295 -0.7714 -1.8617 -0.6619
 3277SOL     OW21466   0.661   1.306   9.031  0.4393 -0.1410 -0.1193
 3277SOL    HW121467   0.572   1.275   9.016 -0.0863  1.6346 -0.6772
 3277SOL    HW221468   0.674   1.232   9.090  0.1748 -0.0620  0.0414
 3278SOL     OW21469   0.572   3.731   9.517  0.4376 -0.1133 -0.1117
 3278SOL    HW121470   0.605   3.759   9.431 -2.0651 -0.0194 -1.0218
 3278SOL    HW221471   0.535   3.813   9.551  0.5669 -0.0315 -0.1668
 3279SOL     OW21472   1.402   3.339   8.415  0.2031 -0.1247  0.3245
 3279SOL    HW121473   1.450   3.303   8.340 -1.5302 -0.3102 -0.7146
 3279SOL    HW221474   1.467   3.407   8.432 -0.9847  0.7425  1.3844
 3280SOL     OW21475   2.020   4.319   3.018 -0.3825  0.0794 -0.3531
 3280SOL    HW121476   2.044   4.268   2.940  0.7532  2.5472 -1.6014
 3280SOL    HW221477   2.005   4.243   3.074  2.3898  0.6893  1.1712
 3281SOL     OW21478   3.970   1.865   6.852 -0.1919  0.5829  0.3925
 3281SOL    HW121479   3.961   1.816   6.933  1.6144  0.2751  0.4067
 3281SOL    HW221480   4.057   1.902   6.864 -0.1544  0.1676  1.3396
 3282SOL     OW21481   3.493   0.281   8.537 -0.1368  0.0797 -0.3662
 3282SOL    HW121482   3.539   0.219   8.593 -2.4716 -0.0652  1.4081
 3282SOL    HW221483   3.462   0.219   8.472  0.8288 -1.2664  0.4443
 3283SOL     OW21484   0.970   2.792   3.597 -0.0536 -0.2917 -0.5104
 3283SOL    HW121485   0.893   2.817   3.545  1.7248  1.3552 -2.3642
 3283SOL    HW221486   1.027   2.733   3.548 -0.0664 -0.2708 -0.5505
 3284SOL     OW21487   0.152   1.787   2.854 -0.4351  0.4526  0.1231
 3284SOL    HW121488   0.227   1.727   2.855 -1.5204 -0.9704 -2.7460
 3284SOL    HW221489   0.154   1.796   2.759 -0.6033  0.9620  0.1698
 3285SOL     OW21490   4.122   3.829   2.884 -0.4634 -0.7829 -0.3006
 3285SOL    HW121491   4.099   3.885   2.958  0.8221 -1.2591  0.4508
 3285SOL    HW221492   4.174   3.763   2.928 -1.1159 -1.6349 -0.7939
 3286SOL     OW21493   4.557   0.458  14.541  0.2424  0.0390  0.0849
 3286SOL    HW121494   4.463   0.471  14.536  0.2461 -0.0988 -0.3264
 3286SOL    HW221495   4.584   0.548  14.521  2.2850 -0.4073  0.7625
 3287SOL     OW21496   1.519   0.593   4.552 -0.6903  0.1314 -0.0591
 3287SOL    HW121497   1.547   0.502   4.548 -1.7051 -0.2232  1.0327
 3287SOL    HW221498   1.454   0.586   4.482  0.3004 -1.0635 -0.8807
 3288SOL     OW21499   4.226   0.311   5.139 -0.0181  0.2853 -0.6618
 3288SOL    HW121500   4.157   0.313   5.072  0.1476 -1.6697 -0.9048
 3288SOL    HW221501   4.261   0.399   5.153  2.1157 -0.7635  0.6894
 3289SOL     OW21502   3.697   2.953   2.597  0.2593 -0.2016 -0.2815
 3289SOL    HW121503   3.620   2.934   2.650 -0.2717 -1.3638 -1.4500
 3289SOL    HW221504   3.724   3.038   2.631  0.8636 -1.6123  2.7896
 3290SOL     OW21505   2.371   1.814   2.905 -0.2595  0.6667 -0.3137
 3290SOL    HW121506   2.382   1.811   3.000  1.5534 -0.4872 -0.5536
 3290SOL    HW221507   2.439   1.877   2.878  0.8699 -0.2818  0.3114
 3291SOL     OW21508   0.425   2.248   4.619 -0.2462  0.2589 -0.0996
 3291SOL    HW121509   0.476   2.288   4.689 -0.8424  0.9560 -0.0572
 3291SOL    HW221510   0.359   2.214   4.680 -1.0201  0.0580 -1.0482
 3292SOL     OW21511   0.787   0.094   8.219  0.3494  0.2796 -0.4507
 3292SOL    HW121512   0.777   4.735   8.207  0.4626  0.3972 -1.4599
 3292SOL    HW221513   0.825   0.119   8.135  0.4816  0.7561 -0.2484
 3293SOL     OW21514   1.638   4.672   1.834  0.1083 -0.3707  0.6209
 3293SOL    HW121515   1.625   0.018   1.883 -1.6813 -1.7863  2.4579
 3293SOL    HW221516   1.559   4.670   1.780  0.6818  1.6119 -0.3054
 3294SOL     OW21517   0.007   2.349   1.606 -0.2553  0.6032  0.0888
 3294SOL    HW121518   0.004   2.281   1.673  3.1080  1.4191  1.0933
 3294SOL    HW221519   4.670   2.410   1.615  0.2546  0.8213  2.7470
 3295SOL     OW21520   0.535   1.321   7.240  0.1932  0.1051  0.2073
 3295SOL    HW121521   0.535   1.286   7.150  1.1560 -1.2065  0.7188
 3295SOL    HW221522   0.475   1.265   7.288  0.2965 -0.4020 -0.2568
 3296SOL     OW21523   2.484   2.616   2.604  0.1015 -0.5120 -0.2358
 3296SOL    HW121524   2.428   2.618   2.682  1.0504  0.8223  0.4219
 3296SOL    HW221525   2.515   2.525   2.605 -1.6741 -1.1122  0.9954
 3297SOL     OW21526   1.648   4.307   2.667 -0.1667 -0.1040 -0.1994
 3297SOL    HW121527   1.727   4.277   2.623 -0.0580 -0.7360  0.4277
 3297SOL    HW221528   1.620   4.229   2.715 -1.5250  0.5784  0.1290
 3298SOL     OW21529   2.702   3.155   4.609 -0.2290 -0.2805 -0.6837
 3298SOL    HW121530   2.691   3.070   4.650  1.1183 -0.4766 -0.7163
 3298SOL    HW221531   2.619   3.201   4.621 -0.6459 -1.8435  2.3166
 3299SOL     OW21532   0.421   2.533   6.734  0.1179 -0.0050  0.0177
 3299SOL    HW121533   0.439   2.550   6.642 -1.4021 -0.0860 -0.2804
 3299SOL    HW221534   0.444   2.440   6.735  2.2437  0.5163 -1.2667
 3300SOL     OW21535   2.265   1.195   9.065  0.2784 -0.2280  0.1261
 3300SOL    HW121536   2.338   1.201   9.003  0.0588  2.1673  0.0758
 3300SOL    HW221537   2.304   1.157   9.143 -3.0634 -0.8584  1.5129
 3301SOL     OW21538   0.012   2.280   2.124 -0.1993  0.0984 -0.3737
 3301SOL    HW121539   0.021   2.353   2.063  1.7122 -0.9758 -1.4004
 3301SOL    HW221540   4.656   2.286   2.149 -0.3536 -0.3841 -0.8095
 3302SOL     OW21541   2.026   2.023  15.028 -0.3743  0.9491  0.0564
 3302SOL    HW121542   1.947   1.970  15.037  1.0604 -1.1455  0.3096
 3302SOL    HW221543   2.092   1.955  15.038 -0.3348  1.0708  0.6061
 3303SOL     OW21544   2.960   1.694   4.537 -0.4542 -0.4651 -0.1149
 3303SOL    HW121545   2.915   1.751   4.600 -0.5454  0.5970 -1.1443
 3303SOL    HW221546   2.920   1.607   4.537  1.5267 -1.3556 -0.3946
 3304SOL     OW21547   4.406   3.622   4.073  0.3167 -0.1913  0.0940
 3304SOL    HW121548   4.340   3.689   4.091 -0.3213 -0.9071  0.4038
 3304SOL    HW221549   4.365   3.551   4.121 -1.3608 -1.0155 -2.5428
 3305SOL     OW21550   1.555   2.823  17.692 -0.3547  0.0206 -0.3851
 3305SOL    HW121551   1.488   2.866  17.639 -0.6068  1.9062  1.4477
 3305SOL    HW221552   1.629   2.800  17.636  0.0014 -2.7833  1.2250
 3306SOL     OW21553   0.384   2.150   2.054  0.5367 -0.1480  0.1488
 3306SOL    HW121554   0.443   2.075   2.050  1.6284  0.7641 -1.0986
 3306SOL    HW221555   0.444   2.218   2.022 -0.0013  0.6032  0.7482
 3307SOL     OW21556   3.379   0.862   7.485 -0.2890 -0.3031 -0.0966
 3307SOL    HW121557   3.345   0.930   7.427 -1.5113  0.3613  1.4241
 3307SOL    HW221558   3.399   0.916   7.561  2.1402 -1.2291 -0.0719
 3308SOL     OW21559   0.271   4.401   7.750  1.0463  0.1037  0.2850
 3308SOL    HW121560   0.295   4.309   7.750 -0.1061 -0.1848  1.8512
 3308SOL    HW221561   0.323   4.437   7.822  1.2083 -1.1896  0.8104
 3309SOL     OW21562   1.935   1.007   1.849  0.1769  0.5379 -0.1567
 3309SOL    HW121563   1.973   0.947   1.785  0.6318  0.2694  0.3564
 3309SOL    HW221564   1.908   0.956   1.926  1.3164 -1.3103 -0.9913
 3310SOL     OW21565   2.866   4.338  16.543  0.3113  0.3470  0.3659
 3310SOL    HW121566   2.920   4.417  16.534  1.6395 -0.3456  2.1771
 3310SOL    HW221567   2.939   4.276  16.549  0.1475  0.0887 -0.3505
 3311SOL     OW21568   0.581   3.133   0.243 -0.9172 -0.2049  0.5677
 3311SOL    HW121569   0.517   3.061   0.244 -0.3446 -0.6951  1.3305
 3311SOL    HW221570   0.639   3.103   0.312  1.9625  0.9845 -1.3434
 3312SOL     OW21571   1.666   3.560   5.935  0.3598  0.6785 -0.2735
 3312SOL    HW121572   1.581   3.596   5.959 -0.2948 -0.6727 -0.5654
 3312SOL    HW221573   1.705   3.626   5.878  1.3343  1.1986  0.9861
 3313SOL     OW21574   2.541   1.978   3.313 -0.2902  0.2571  0.3648
 3313SOL    HW121575   2.458   2.011   3.346  0.5256  1.3666  1.3016
 3313SOL    HW221576   2.580   2.048   3.260 -0.0034 -2.0651 -2.4969
 3314SOL     OW21577   1.612   3.144   4.339 -0.3360  0.5207 -0.2021
 3314SOL    HW121578   1.547   3.098   4.286  0.2532  0.0209 -0.4946
 3314SOL    HW221579   1.554   3.178   4.407  0.3990  1.2414  0.0722
 3315SOL     OW21580   3.129   3.585   4.519 -0.0822  0.3895  0.1710
 3315SOL    HW121581   3.212   3.576   4.472 -0.0791  0.5006  0.1561
 3315SOL    HW221582   3.060   3.586   4.453 -0.1262 -2.8374  0.1626
 3316SOL     OW21583   0.537   3.640   4.899 -0.0422  0.1364 -0.6290
 3316SOL    HW121584   0.594   3.591   4.958 -0.0452  1.8642  0.8086
 3316SOL    HW221585   0.582   3.724   4.887 -1.5023  0.9733 -0.1908
 3317SOL     OW21586   0.567   2.582   7.280  0.1252 -0.0688  0.4619
 3317SOL    HW121587   0.479   2.550   7.261 -0.3947  0.0773  2.6976
 3317SOL    HW221588   0.577   2.573   7.374  0.8422  2.4796  0.6147
 3318SOL     OW21589   2.544   4.226  16.912 -0.2268  0.3643 -0.8148
 3318SOL    HW121590   2.595   4.153  16.876  2.8497  2.1125  0.0169
 3318SOL    HW221591   2.562   4.226  17.006 -0.5229 -0.2902 -0.7586
 3319SOL     OW21592   2.816   1.026   2.185 -0.0624  0.3720 -0.2502
 3319SOL    HW121593   2.731   0.986   2.168  0.2919  0.5291 -2.3901
 3319SOL    HW221594   2.789   1.117   2.201 -2.5594 -0.4332  0.1511
 3320SOL     OW21595   1.537   2.110  12.694  0.2820 -0.3927  0.0402
 3320SOL    HW121596   1.589   2.185  12.666  0.5207  0.2423  2.1643
 3320SOL    HW221597   1.579   2.100  12.779 -0.4835 -1.9041  0.2433
 3321SOL     OW21598   2.785   4.692   0.313  0.5923 -0.3257  0.4010
 3321SOL    HW121599   2.723   4.701   0.240  0.4780  0.9332  0.6539
 3321SOL    HW221600   2.724   4.685   0.386 -0.8536  2.7830 -0.5142
 3322SOL     OW21601   0.865   2.330  10.163  0.6154 -0.0052 -0.7250
 3322SOL    HW121602   0.823   2.269  10.102 -1.7738  0.9137 -0.0310
 3322SOL    HW221603   0.798   2.357  10.226  0.5990 -1.1756 -0.2650
 3323SOL     OW21604   3.961   3.649  13.208  0.7090  0.1601 -0.1194
 3323SOL    HW121605   4.029   3.653  13.141 -1.6298 -1.9952 -2.6275
 3323SOL    HW221606   3.892   3.696  13.162  0.5504  1.4382  1.4390
 3324SOL     OW21607   0.921   0.972   4.189  0.5491  0.2152 -0.4314
 3324SOL    HW121608   0.959   1.059   4.177  2.6776 -0.6368  0.0060
 3324SOL    HW221609   0.862   0.965   4.114  2.9389 -0.2768 -2.2804
 3325SOL     OW21610   2.433   0.181   7.611  0.1319 -0.2170  0.1922
 3325SOL    HW121611   2.447   0.246   7.542  1.1859 -1.2382 -0.5516
 3325SOL    HW221612   2.356   0.128   7.589 -1.3363  1.0032  2.3904
 3326SOL     OW21613   3.038   1.390  13.204 -0.0664 -0.4699 -0.1445
 3326SOL    HW121614   2.994   1.308  13.224  0.4986 -0.7215  0.0702
 3326SOL    HW221615   3.105   1.406  13.270 -1.0003 -0.9489  0.9155
 3327SOL     OW21616   4.323   4.602   2.436 -0.1790  0.3911  0.2150
 3327SOL    HW121617   4.306   4.681   2.384 -0.2593  0.1039 -0.1897
 3327SOL    HW221618   4.263   4.616   2.509 -0.1337  0.7798  0.1794
 3328SOL     OW21619   0.718   0.115  12.296  0.0762  0.0119 -0.5570
 3328SOL    HW121620   0.725   0.071  12.381 -2.9388 -3.1661 -1.9665
 3328SOL    HW221621   0.626   0.140  12.294  0.2311  0.7561  1.2275
 3329SOL     OW21622   1.210   4.407   5.823  0.4099 -0.1625 -0.4078
 3329SOL    HW121623   1.192   4.474   5.757  0.5681 -0.7312 -1.0261
 3329SOL    HW221624   1.209   4.324   5.777  0.4466  0.6240 -1.8248
 3330SOL     OW21625   0.491   1.854   5.198 -0.2291 -0.1678  0.1852
 3330SOL    HW121626   0.562   1.888   5.253  1.1463  1.1120 -2.4076
 3330SOL    HW221627   0.501   1.759   5.199  1.8288  0.0518  3.0960
 3331SOL     OW21628   3.830   1.342  12.368  0.5110 -0.4479  0.7835
 3331SOL    HW121629   3.777   1.263  12.374 -0.6288  0.2588  0.0186
 3331SOL    HW221630   3.912   1.318  12.325  1.1346  0.1082  1.6438
 3332SOL     OW21631   4.139   2.653   1.013  0.2437  0.0328  0.0403
 3332SOL    HW121632   4.147   2.746   0.992  0.6161 -0.4589 -1.9425
 3332SOL    HW221633   4.088   2.617   0.940  1.5025 -1.3965 -0.1350
 3333SOL     OW21634   1.366   1.187   7.723  0.6020  0.0330 -0.4061
 3333SOL    HW121635   1.305   1.233   7.781  1.2282  0.6863 -0.2679
 3333SOL    HW221636   1.329   1.238   7.651  1.8504  1.4187 -0.0516
 3334SOL     OW21637   3.897   4.000   1.607  0.0083  0.0131 -0.3194
 3334SOL    HW121638   3.832   3.961   1.548 -1.7490  0.1713  1.5213
 3334SOL    HW221639   3.846   4.022   1.685  0.7809 -1.0133  0.4753
 3335SOL     OW21640   4.220   3.194   8.149  0.1433 -0.0064 -0.0620
 3335SOL    HW121641   4.196   3.107   8.118  0.4119  0.3339 -1.2660
 3335SOL    HW221642   4.262   3.231   8.071  0.9112 -0.5518  0.0868
 3336SOL     OW21643   3.040   0.512   3.338  0.3752 -0.1946 -0.4064
 3336SOL    HW121644   3.051   0.519   3.433 -2.5472  3.0157 -0.2979
 3336SOL    HW221645   3.093   0.588   3.315  1.3378 -0.8215 -0.2956
 3337SOL     OW21646   2.807   2.229  13.264 -0.5672  0.1617  0.0846
 3337SOL    HW121647   2.801   2.289  13.190 -1.4051  1.0668  0.8781
 3337SOL    HW221648   2.883   2.250  13.317 -1.9476  0.4253  1.9652
 3338SOL     OW21649   0.744   2.401  14.267 -0.3738  0.5845 -0.0596
 3338SOL    HW121650   0.782   2.395  14.180  0.2900  0.5419  0.2401
 3338SOL    HW221651   0.808   2.462  14.304 -0.9193  0.3841  1.2242
 3339SOL     OW21652   1.875   3.132   4.794  0.4979  0.4188 -0.8098
 3339SOL    HW121653   1.897   3.182   4.716  1.8585  0.2421 -0.5353
 3339SOL    HW221654   1.904   3.046   4.762 -0.0871  0.2724 -0.9540
 3340SOL     OW21655   0.832   4.646   3.775  0.4026  0.3184 -0.3505
 3340SOL    HW121656   0.825   0.004   3.755  0.7627  1.3653  4.4841
 3340SOL    HW221657   0.773   4.619   3.706 -1.8607 -0.2115  1.8072
 3341SOL     OW21658   2.198   0.948  13.173  0.2242  0.0113  0.3661
 3341SOL    HW121659   2.142   0.955  13.250  0.1608 -0.1739  0.3380
 3341SOL    HW221660   2.259   1.021  13.174 -1.3975  1.3465  0.4155
 3342SOL     OW21661   2.313   2.605  11.720 -0.6914 -0.2921 -0.3379
 3342SOL    HW121662   2.266   2.668  11.775 -0.9762 -1.4006  0.6984
 3342SOL    HW221663   2.312   2.521  11.766 -0.4568 -0.6960 -1.0749
 3343SOL     OW21664   0.004   0.208   4.707 -0.1254 -0.4829  0.2115
 3343SOL    HW121665   4.669   0.165   4.660  0.6167 -0.9306 -0.4882
 3343SOL    HW221666   0.035   0.280   4.652 -2.2279  0.2613  0.0006
 3344SOL     OW21667   3.011   0.871   6.337 -0.4770 -0.0031 -0.4576
 3344SOL    HW121668   3.007   0.966   6.325 -2.3365 -0.1110 -0.7120
 3344SOL    HW221669   3.057   0.841   6.258 -0.0542 -0.1481 -0.1593
 3345SOL     OW21670   2.100   4.188   2.799  0.0076 -0.4181 -0.3535
 3345SOL    HW121671   2.173   4.126   2.790  0.1458 -0.2658 -0.2962
 3345SOL    HW221672   2.035   4.143   2.745  2.4603 -1.5355 -2.3734
 3346SOL     OW21673   0.288   4.106   6.455 -0.5276  0.4459 -0.4306
 3346SOL    HW121674   0.363   4.093   6.514 -1.2077 -0.7692  0.1777
 3346SOL    HW221675   0.316   4.181   6.403 -3.3792  1.7473 -0.0595
 3347SOL     OW21676   1.283   0.606  10.898  0.1588 -0.6166  0.1178
 3347SOL    HW121677   1.312   0.693  10.873 -1.0495 -0.2932 -0.1295
 3347SOL    HW221678   1.273   0.612  10.993  2.2714 -1.5818  0.4088
 3348SOL     OW21679   4.359   3.326   6.231 -0.1500 -0.1227 -0.5005
 3348SOL    HW121680   4.383   3.416   6.208 -1.2488  0.2459 -0.2069
 3348SOL    HW221681   4.264   3.324   6.225 -0.2749  2.7196  0.5223
 3349SOL     OW21682   0.443   1.345   8.299  0.4849  0.2044  0.4849
 3349SOL    HW121683   0.525   1.378   8.336  0.6518 -0.8514  1.0560
 3349SOL    HW221684   0.470   1.304   8.218  1.0338 -0.6170  1.0932
 3350SOL     OW21685   0.192   3.057  15.209  0.2012  0.8856 -0.1849
 3350SOL    HW121686   0.283   3.028  15.219  0.6653  1.7304 -1.9261
 3350SOL    HW221687   0.159   2.993  15.146 -0.8409 -1.4232  2.6917
 3351SOL     OW21688   2.125   0.799   5.667 -0.3263  1.0219  0.0541
 3351SOL    HW121689   2.122   0.817   5.761 -0.8157  1.4148 -0.0345
 3351SOL    HW221690   2.103   0.707   5.682  0.4022  0.8728  0.2237
 3352SOL     OW21691   0.523   3.003   4.368  0.5064 -0.6315  0.2796
 3352SOL    HW121692   0.465   2.936   4.405 -0.2616 -0.6561 -0.9717
 3352SOL    HW221693   0.452   3.056   4.334  0.9545 -1.0493 -1.3554
 3353SOL     OW21694   2.061   3.546  14.986 -0.3695  0.1157  0.4047
 3353SOL    HW121695   2.012   3.469  15.014  0.2175 -0.3992 -0.0023
 3353SOL    HW221696   2.115   3.561  15.063 -0.2580 -1.3825  0.6069
 3354SOL     OW21697   0.030   0.104   0.458  0.4725 -0.5731  0.1751
 3354SOL    HW121698   0.038   0.086   0.365  1.0505 -2.3599  0.5584
 3354SOL    HW221699   0.114   0.077   0.496  0.5936  0.9196  0.9755
 3355SOL     OW21700   3.715   2.591   2.603  0.3012 -0.7016  0.4108
 3355SOL    HW121701   3.708   2.498   2.623 -0.7321 -0.3304  1.7368
 3355SOL    HW221702   3.734   2.633   2.687  0.2259 -0.9778  0.5658
 3356SOL     OW21703   4.367   1.956   6.753 -0.3209  0.5813 -0.0338
 3356SOL    HW121704   4.335   1.914   6.673  0.6707  0.2849 -0.2742
 3356SOL    HW221705   4.460   1.938   6.738 -0.3448  0.4648 -0.0424
 3357SOL     OW21706   0.433   3.330   5.980 -0.3672  0.3127  0.4874
 3357SOL    HW121707   0.338   3.338   5.974 -0.0800  0.1917 -3.7850
 3357SOL    HW221708   0.444   3.250   5.929 -1.1261 -0.0868  0.9568
 3358SOL     OW21709   2.436   0.350   9.195  0.4409 -0.2268  0.0193
 3358SOL    HW121710   2.348   0.357   9.159  1.4084 -0.8385 -2.5095
 3358SOL    HW221711   2.470   0.295   9.124 -2.8370 -0.1125 -1.6294
 3359SOL     OW21712   0.078   2.755   7.298 -0.1842 -0.3386  0.4380
 3359SOL    HW121713   0.164   2.714   7.300 -0.0377 -0.0985 -0.8113
 3359SOL    HW221714   0.109   2.841   7.326  0.7854 -0.8328  0.8868
 3360SOL     OW21715   2.979   3.822   6.734 -0.1552  0.1117 -0.0661
 3360SOL    HW121716   3.065   3.784   6.754 -0.4589 -1.4817 -1.8785
 3360SOL    HW221717   3.004   3.855   6.648 -0.2735  1.0558  0.2526
 3361SOL     OW21718   4.667   4.539   8.500 -0.3566  0.2409 -0.2455
 3361SOL    HW121719   4.653   4.622   8.454  1.8683  0.4179 -0.5857
 3361SOL    HW221720   4.729   4.561   8.570  0.2434  1.1195 -1.0559
 3362SOL     OW21721   3.758   0.039   8.260 -0.2323 -0.4356 -0.5533
 3362SOL    HW121722   3.846   0.058   8.227 -0.0708  0.0136  0.1376
 3362SOL    HW221723   3.715   0.123   8.241  0.6713  0.5475  1.7753
 3363SOL     OW21724   2.395   1.953   4.747 -0.0497 -0.0332 -0.0213
 3363SOL    HW121725   2.363   1.966   4.657 -0.0934 -0.6335 -0.0912
 3363SOL    HW221726   2.361   2.026   4.799  0.3789 -0.0439  0.2724
 3364SOL     OW21727   1.724   1.722  13.114  0.0316  0.2350 -0.4086
 3364SOL    HW121728   1.721   1.658  13.185 -0.9655  0.5586 -0.1546
 3364SOL    HW221729   1.819   1.729  13.100  0.0601 -0.5621 -0.5718
 3365SOL     OW21730   2.742   3.347   5.384  0.2521 -0.6608 -0.0723
 3365SOL    HW121731   2.669   3.289   5.403 -2.1622  1.7740 -2.0021
 3365SOL    HW221732   2.704   3.432   5.362  2.4499  0.7584  1.5899
 3366SOL     OW21733   0.170   0.021  12.530 -0.5720 -0.0472 -0.0126
 3366SOL    HW121734   0.103   0.085  12.505 -0.3764  0.6129  1.1485
 3366SOL    HW221735   0.112   4.691  12.568 -1.5786  2.4227  2.8281
 3367SOL     OW21736   3.803   1.677   9.150 -0.0164  0.0076 -0.5646
 3367SOL    HW121737   3.764   1.755   9.189 -0.9201 -1.1733  0.8852
 3367SOL    HW221738   3.739   1.617   9.189  1.8944 -1.0654  0.9435
 3368SOL     OW21739   2.836   2.173  14.656  0.4472  0.7940 -0.0257
 3368SOL    HW121740   2.769   2.181  14.725 -2.3029 -0.6760 -2.5388
 3368SOL    HW221741   2.810   2.086  14.626 -1.2712 -0.0804  3.9248
 3369SOL     OW21742   1.316   4.180   8.689  0.2381  0.1986 -0.4150
 3369SOL    HW121743   1.317   4.132   8.606 -2.1604  0.7703 -0.7682
 3369SOL    HW221744   1.408   4.209   8.692  0.2854  0.0794 -0.7001
 3370SOL     OW21745   2.715   2.310   8.277  0.7699  0.4150  0.2864
 3370SOL    HW121746   2.806   2.316   8.249  0.5003  0.5538 -0.5817
 3370SOL    HW221747   2.710   2.348   8.365  0.5047  0.1600  0.3814
 3371SOL     OW21748   2.832   1.655  15.628  0.6982 -0.2496  0.2636
 3371SOL    HW121749   2.883   1.724  15.586 -0.0475  0.3149  0.2792
 3371SOL    HW221750   2.818   1.600  15.551 -0.5510 -0.8453  0.9048
 3372SOL     OW21751   3.491   0.635  13.778 -0.0190 -0.3767 -0.1961
 3372SOL    HW121752   3.510   0.571  13.710  0.5642 -0.5737  0.1566
 3372SOL    HW221753   3.521   0.588  13.856 -0.8694 -0.7213 -0.0696
 3373SOL     OW21754   2.614   0.857   7.971  0.0189 -0.6430  0.0093
 3373SOL    HW121755   2.538   0.801   7.959  1.0463 -1.5841 -2.1202
 3373SOL    HW221756   2.687   0.813   7.929 -1.7924 -1.9083 -1.7983
 3374SOL     OW21757   2.399   4.433   8.803  0.5242  0.5046 -0.1362
 3374SOL    HW121758   2.435   4.414   8.890 -0.8394 -2.5064 -0.2152
 3374SOL    HW221759   2.327   4.490   8.832  0.4066  0.5378 -0.5021
 3375SOL     OW21760   0.380   3.199   4.255  0.1308  0.9310 -0.2555
 3375SOL    HW121761   0.366   3.255   4.332  0.4626  1.3965 -0.5303
 3375SOL    HW221762   0.340   3.257   4.190  2.2179  0.8220 -1.6421
 3376SOL     OW21763   1.996   1.758   1.309 -0.1061 -0.1211  0.0262
 3376SOL    HW121764   1.907   1.779   1.337 -1.6117 -2.6521 -2.8626
 3376SOL    HW221765   1.981   1.663   1.308  1.1728 -0.2978 -1.7218
 3377SOL     OW21766   4.441   0.335   6.258 -0.1485 -0.4189 -0.1934
 3377SOL    HW121767   4.431   0.282   6.179 -1.9159 -1.0777  0.4843
 3377SOL    HW221768   4.382   0.408   6.239  1.8322  1.0628 -0.6942
 3378SOL     OW21769   0.989   0.196  12.311 -0.1900  0.4154 -0.3339
 3378SOL    HW121770   1.033   0.133  12.368  0.7266  1.3465 -0.0145
 3378SOL    HW221771   0.899   0.162  12.305  0.6334 -1.6678 -0.7926
 3379SOL     OW21772   3.726   2.013   4.230  0.1866 -0.0480 -0.3045
 3379SOL    HW121773   3.704   2.004   4.138  1.4005  0.5747 -0.6545
 3379SOL    HW221774   3.740   2.108   4.233  1.1984 -0.2011 -0.1877
 3380SOL     OW21775   2.893   2.632   6.350  0.4277 -0.2465  0.1989
 3380SOL    HW121776   2.818   2.571   6.347  0.5248 -0.3708  0.2892
 3380SOL    HW221777   2.922   2.638   6.259 -0.8387  1.6118 -0.0797
 3381SOL     OW21778   3.374   0.234   9.551  0.3308 -0.2661 -0.6694
 3381SOL    HW121779   3.363   0.303   9.617 -0.5492 -0.5176 -0.5530
 3381SOL    HW221780   3.323   0.258   9.473 -0.0076 -2.7579 -1.1957
 3382SOL     OW21781   2.067   3.923  12.780 -0.4173 -0.5899  0.0553
 3382SOL    HW121782   1.993   3.982  12.773  1.0557  1.1391 -0.8668
 3382SOL    HW221783   2.031   3.846  12.735 -0.8890 -1.6089  2.1708
 3383SOL     OW21784   2.315   0.573   5.485  0.2813  0.0109 -0.4358
 3383SOL    HW121785   2.410   0.585   5.482 -0.0504  2.1762 -2.3308
 3383SOL    HW221786   2.289   0.665   5.479  0.4060 -0.0884 -2.3411
 3384SOL     OW21787   1.265   4.630   2.626 -0.3414  0.1710 -0.5358
 3384SOL    HW121788   1.336   4.569   2.610  1.2712  1.6712  0.8461
 3384SOL    HW221789   1.308   4.683   2.693  1.1044 -1.7871  0.0785
 3385SOL     OW21790   2.827   0.143   5.386  0.7479  0.0694 -0.2953
 3385SOL    HW121791   2.803   0.222   5.434 -1.2214 -0.4197 -0.5122
 3385SOL    HW221792   2.763   0.077   5.409  1.8158 -0.3558  1.4998
 3386SOL     OW21793   0.714   3.283   5.136  0.2105  0.1669 -0.5383
 3386SOL    HW121794   0.739   3.260   5.046  1.3865  0.9222 -0.3995
 3386SOL    HW221795   0.766   3.361   5.156  0.8430 -0.1504 -0.9338
 3387SOL     OW21796   4.273   4.716   7.973 -0.0320 -0.3938 -0.0296
 3387SOL    HW121797   4.345   0.041   7.989  0.0905  0.1626 -2.7282
 3387SOL    HW221798   4.295   4.638   8.024  4.1867  0.8127 -0.0115
 3388SOL     OW21799   1.141   3.881   1.558 -0.3369  0.5195 -0.4793
 3388SOL    HW121800   1.114   3.810   1.615  1.2703 -1.9051 -2.7205
 3388SOL    HW221801   1.088   3.864   1.480 -1.8589 -1.0587  0.9225
 3389SOL     OW21802   3.974   1.243   4.048 -0.1903  0.1479 -0.1233
 3389SOL    HW121803   4.021   1.159   4.047  1.8077  1.2485  1.0497
 3389SOL    HW221804   3.959   1.243   3.954  2.3652 -2.7573 -0.5447
 3390SOL     OW21805   3.775   4.211   1.450 -0.9508 -0.2934  0.4955
 3390SOL    HW121806   3.859   4.195   1.493 -0.9056 -0.9798  0.1453
 3390SOL    HW221807   3.759   4.306   1.444 -0.0674 -0.2224 -0.7998
 3391SOL     OW21808   2.707   1.103   6.720 -0.0372  0.4723 -0.2909
 3391SOL    HW121809   2.644   1.163   6.680 -1.3604 -1.6426 -1.4343
 3391SOL    HW221810   2.692   1.020   6.674  0.0166 -0.3065  1.0995
 3392SOL     OW21811   1.351   3.607   6.444  0.6822  0.3069 -0.3841
 3392SOL    HW121812   1.360   3.553   6.522  0.3895 -0.4671 -0.8793
 3392SOL    HW221813   1.337   3.696   6.474  1.3994 -0.2159  1.4802
 3393SOL     OW21814   3.522   2.706   7.397  0.3504 -0.4389  0.0115
 3393SOL    HW121815   3.502   2.758   7.319  0.0403 -0.0861  0.3215
 3393SOL    HW221816   3.497   2.773   7.462  1.2027 -0.2884  0.1852
 3394SOL     OW21817   3.949   0.086   8.828  0.0549 -0.4616 -0.1068
 3394SOL    HW121818   4.019   0.033   8.789 -1.0946  0.3975 -3.2496
 3394SOL    HW221819   3.902   0.020   8.879  0.3576 -1.0681 -0.6120
 3395SOL     OW21820   0.686   2.543   1.681 -0.1143  0.1511 -0.1939
 3395SOL    HW121821   0.769   2.558   1.728 -1.3138  0.5240  1.8091
 3395SOL    HW221822   0.616   2.588   1.729 -0.0698 -1.8187  1.6940
 3396SOL     OW21823   4.591   2.863   3.316 -0.0367 -0.4711 -0.3009
 3396SOL    HW121824   4.524   2.794   3.313  2.4121 -2.8316 -0.6117
 3396SOL    HW221825   4.556   2.918   3.386 -1.5707 -1.2366 -0.4742
 3397SOL     OW21826   1.293   3.271  16.632  0.1347 -0.2362  0.0573
 3397SOL    HW121827   1.247   3.259  16.715  1.8536 -0.1610  1.0138
 3397SOL    HW221828   1.365   3.213  16.653  1.4090  0.9688 -0.9715
 3398SOL     OW21829   3.598   1.905   0.405 -0.0869  0.0095  0.1060
 3398SOL    HW121830   3.609   1.821   0.448 -1.8279  0.0148  0.5589
 3398SOL    HW221831   3.567   1.950   0.484  1.9157 -1.3551  1.6732
 3399SOL     OW21832   0.285   2.445   3.731 -0.2895  0.2811 -0.9625
 3399SOL    HW121833   0.346   2.434   3.658  1.5441 -0.3150  0.6536
 3399SOL    HW221834   0.219   2.493   3.682  1.2693  1.5406 -1.8472
 3400SOL     OW21835   3.492   0.739   9.933 -0.3650 -0.0866 -0.0076
 3400SOL    HW121836   3.547   0.716   9.858 -0.7140  0.3173 -0.3873
 3400SOL    HW221837   3.545   0.814   9.960  0.3909 -0.4025 -0.6127
 3401SOL     OW21838   1.599   3.620   7.879 -0.1113  0.1058 -0.5015
 3401SOL    HW121839   1.683   3.600   7.920  0.5099  0.4876 -1.6044
 3401SOL    HW221840   1.585   3.537   7.832  0.6647 -0.5861  0.4943
 3402SOL     OW21841   4.074   4.146  16.362  0.0749 -0.2422 -0.2890
 3402SOL    HW121842   4.007   4.152  16.430 -1.5985  0.6125 -1.9950
 3402SOL    HW221843   4.159   4.138  16.406  1.5193 -0.9963 -3.2285
 3403SOL     OW21844   3.545   4.581   9.352  0.6565 -0.1177 -0.5534
 3403SOL    HW121845   3.546   4.491   9.387 -2.7714  0.4283  0.8970
 3403SOL    HW221846   3.469   4.572   9.295 -0.5397 -2.3150  1.4013
 3404SOL     OW21847   0.095   2.146   3.535 -0.2986 -0.0817 -0.0058
 3404SOL    HW121848   0.169   2.205   3.549  1.3513 -2.3043  0.4871
 3404SOL    HW221849   0.134   2.062   3.513  1.2798  1.0310 -1.4601
 3405SOL     OW21850   0.392   3.810   3.310  0.0444  0.2923 -0.4273
 3405SOL    HW121851   0.400   3.799   3.216  3.3858  1.7086 -0.3055
 3405SOL    HW221852   0.302   3.784   3.329 -0.6521  0.4287 -3.5994
 3406SOL     OW21853   0.568   1.510  15.155  0.3609  0.0875 -0.4546
 3406SOL    HW121854   0.556   1.547  15.243 -0.5766  0.2886 -0.6604
 3406SOL    HW221855   0.644   1.455  15.170  2.3057  3.2282  1.1753
 3407SOL     OW21856   1.396   2.213   2.607  0.2200  0.3678 -0.0276
 3407SOL    HW121857   1.437   2.287   2.651  1.2373 -0.0882 -0.2121
 3407SOL    HW221858   1.328   2.259   2.558  0.3598  1.7369  1.0930
 3408SOL     OW21859   2.636   2.746   4.246  0.2883  0.2192 -0.5854
 3408SOL    HW121860   2.696   2.818   4.263 -0.4795  0.7849 -0.2926
 3408SOL    HW221861   2.578   2.757   4.321 -1.5392  1.1134 -2.1270
 3409SOL     OW21862   2.972   2.294   2.054  0.7005  0.3061  0.5580
 3409SOL    HW121863   3.037   2.289   1.984 -0.3067  0.6290 -0.3949
 3409SOL    HW221864   2.964   2.204   2.085  0.8146 -0.6114 -2.0598
 3410SOL     OW21865   1.970   4.106   3.162  0.4650  0.4793 -0.0066
 3410SOL    HW121866   1.935   4.022   3.132  0.3499  0.7035 -0.5043
 3410SOL    HW221867   1.942   4.102   3.253  0.8943 -0.9812  0.0560
 3411SOL     OW21868   1.919   0.004   3.577 -0.2311 -0.0149  0.3299
 3411SOL    HW121869   1.910   4.668   3.639 -2.4971  0.0074  0.0150
 3411SOL    HW221870   1.954   4.685   3.506 -1.8273 -0.3097 -0.2217
 3412SOL     OW21871   0.129   4.699   7.382 -0.3877 -0.1861  0.6066
 3412SOL    HW121872   0.070   0.031   7.415 -0.3960  1.1237 -2.0360
 3412SOL    HW221873   0.212   0.012   7.381 -0.0198 -0.8337 -0.0590
 3413SOL     OW21874   4.305   0.104   2.297  0.4520  0.4801 -0.2457
 3413SOL    HW121875   4.217   0.110   2.333  0.4326 -0.2536 -0.1708
 3413SOL    HW221876   4.307   0.174   2.231  0.6947  0.5807 -0.1326
 3414SOL     OW21877   0.961   1.378   6.672  0.5155  0.6975  0.2778
 3414SOL    HW121878   0.896   1.313   6.647  1.1360  0.3380 -0.3847
 3414SOL    HW221879   1.019   1.323   6.723 -0.2963 -2.0594 -1.7811
 3415SOL     OW21880   0.711   2.722   7.884 -0.5666  0.3638  0.7915
 3415SOL    HW121881   0.662   2.802   7.866  1.1818  1.1415 -0.6374
 3415SOL    HW221882   0.647   2.676   7.938  0.0931 -1.8797 -0.2959
 3416SOL     OW21883   1.373   1.912  14.359  0.0318 -0.0825 -0.5452
 3416SOL    HW121884   1.281   1.885  14.364 -0.6826  2.2602 -0.8771
 3416SOL    HW221885   1.402   1.833  14.313  3.0681  0.1506  0.9763
 3417SOL     OW21886   3.958   4.411   1.203  0.5074 -0.4756 -0.2648
 3417SOL    HW121887   3.979   4.503   1.190  0.0353 -0.4254 -0.6907
 3417SOL    HW221888   3.904   4.419   1.282  0.9223  0.3987 -0.0785
 3418SOL     OW21889   3.389   4.098   1.261 -0.2542  0.1466 -0.8961
 3418SOL    HW121890   3.327   4.150   1.312 -1.0294 -0.2804 -1.4268
 3418SOL    HW221891   3.469   4.096   1.314 -0.6015 -0.1606 -0.3892
 3419SOL     OW21892   0.270   0.171   1.364  0.6045 -0.5383  0.1352
 3419SOL    HW121893   0.275   0.145   1.272 -0.1733 -1.3143  0.3093
 3419SOL    HW221894   0.362   0.187   1.381  0.9897 -1.5055 -1.0318
 3420SOL     OW21895   3.674   0.294   5.892 -0.4622 -0.0956  0.2295
 3420SOL    HW121896   3.705   0.213   5.852  2.5467  0.6440  1.1159
 3420SOL    HW221897   3.583   0.293   5.861 -0.6572  0.3943  0.8026
 3421SOL     OW21898   0.016   1.414   1.266  0.6005 -0.3300 -0.3436
 3421SOL    HW121899   4.714   1.327   1.278 -3.6388  1.7030  1.0443
 3421SOL    HW221900   4.709   1.469   1.332 -0.3251 -0.1029 -1.1104
 3422SOL     OW21901   4.429   4.577   8.250 -0.3404 -0.1395  0.6145
 3422SOL    HW121902   4.391   4.665   8.249  1.4326  0.6030 -0.3317
 3422SOL    HW221903   4.348   4.529   8.270  0.6546 -2.0328  0.1652
 3423SOL     OW21904   1.459   0.688   7.017 -0.0648 -0.4959 -0.1310
 3423SOL    HW121905   1.535   0.746   7.012  0.0563 -0.6918 -0.5395
 3423SOL    HW221906   1.487   0.637   7.093  2.4562  0.9770 -0.0789
 3424SOL     OW21907   1.958   1.249   2.570  0.6179 -0.2452  0.2058
 3424SOL    HW121908   2.045   1.285   2.553  0.1605  0.4301 -0.6994
 3424SOL    HW221909   1.949   1.272   2.663 -1.2016 -0.0432 -0.0326
 3425SOL     OW21910   3.598   0.805   5.153  0.5322 -0.1622  0.2582
 3425SOL    HW121911   3.561   0.731   5.201 -0.0516  1.2053  1.9129
 3425SOL    HW221912   3.676   0.759   5.121 -1.0537 -4.0723  2.0528
 3426SOL     OW21913   1.065   1.993   5.357 -0.0421  0.1296  0.4253
 3426SOL    HW121914   0.994   1.938   5.389  0.5052 -0.7063  0.2142
 3426SOL    HW221915   1.108   2.005   5.441 -0.0597  1.2319  0.2834
 3427SOL     OW21916   4.007   2.724   3.986 -0.1301  0.3067  0.2155
 3427SOL    HW121917   3.924   2.769   3.973  0.5119  1.4657  0.1321
 3427SOL    HW221918   4.062   2.762   3.918  0.7543 -1.3264  0.0227
 3428SOL     OW21919   2.255   1.722   6.731  0.3613  0.0954 -0.2992
 3428SOL    HW121920   2.211   1.682   6.656  0.3181 -0.4970  0.0411
 3428SOL    HW221921   2.287   1.806   6.699  1.2022 -0.3989 -0.7696
 3429SOL     OW21922   0.237   3.700   6.220 -0.2153  0.3054 -0.2645
 3429SOL    HW121923   0.286   3.730   6.297 -0.5865 -2.0832  0.9067
 3429SOL    HW221924   0.306   3.662   6.166 -0.8014  1.1589 -1.5973
 3430SOL     OW21925   4.162   0.379   7.728  0.3459  0.4513 -0.1341
 3430SOL    HW121926   4.186   0.320   7.656 -0.1459  2.1982 -1.7318
 3430SOL    HW221927   4.095   0.427   7.681  0.7290 -0.4771 -1.6563
 3431SOL     OW21928   1.181   2.671   2.793 -0.8495 -0.0116 -0.2545
 3431SOL    HW121929   1.163   2.746   2.737 -0.1090  0.5868  0.3250
 3431SOL    HW221930   1.091   2.646   2.812 -0.8280  1.3757  1.6970
 3432SOL     OW21931   2.714   3.151   2.966 -0.5451 -0.2499  0.0019
 3432SOL    HW121932   2.730   3.092   2.892 -1.5245 -2.5734  1.6300
 3432SOL    HW221933   2.779   3.217   2.945  0.3523 -0.5447  1.8913
 3433SOL     OW21934   0.366   4.125  13.325 -0.3065  0.2278 -0.5161
 3433SOL    HW121935   0.290   4.163  13.282 -1.4018 -1.3411  0.0517
 3433SOL    HW221936   0.333   4.040  13.352 -1.8714  0.5014 -1.5869
 3434SOL     OW21937   2.523   3.285   3.481 -0.2476  0.0087 -0.1184
 3434SOL    HW121938   2.547   3.315   3.569  1.2418 -1.8524  0.1034
 3434SOL    HW221939   2.602   3.301   3.429  0.4440 -0.3885  0.8103
 3435SOL     OW21940   3.842   4.261   5.321 -0.5833 -0.0765  0.0294
 3435SOL    HW121941   3.920   4.208   5.310 -0.6681 -0.1828 -0.0648
 3435SOL    HW221942   3.878   4.324   5.383 -0.0867  1.0296 -1.3615
 3436SOL     OW21943   3.782   3.784   5.839  0.6105  0.6342  0.2564
 3436SOL    HW121944   3.776   3.879   5.826  0.1767  0.3428 -1.6806
 3436SOL    HW221945   3.707   3.759   5.894  0.9100 -0.3028  0.2389
 3437SOL     OW21946   4.153   3.393   0.868 -0.5721 -0.1930 -0.5987
 3437SOL    HW121947   4.105   3.367   0.947 -1.5814  1.8587 -0.5277
 3437SOL    HW221948   4.246   3.385   0.892 -0.1358  1.7750 -1.6316
 3438SOL     OW21949   3.007   0.901   2.014 -0.4404 -0.3603  0.4044
 3438SOL    HW121950   2.950   0.951   2.073 -0.9843  2.6479 -2.7135
 3438SOL    HW221951   2.984   0.944   1.933  1.8661 -1.9941 -1.1337
 3439SOL     OW21952   1.780   4.165   5.700  0.3039  0.2221 -0.0868
 3439SOL    HW121953   1.779   4.077   5.737  2.3393  0.2150 -0.0391
 3439SOL    HW221954   1.772   4.135   5.610 -0.1418  0.1446 -0.0209
 3440SOL     OW21955   2.129   4.679  14.987 -0.3831 -0.0389  0.0925
 3440SOL    HW121956   2.219   4.667  15.018  0.0138  1.9896 -0.2102
 3440SOL    HW221957   2.082   4.678  15.071 -0.9231 -0.9030 -0.2236
 3441SOL     OW21958   2.128   1.775  14.843  0.1560 -0.3516  0.4001
 3441SOL    HW121959   2.146   1.801  14.752 -1.7887 -0.2561  0.0377
 3441SOL    HW221960   2.210   1.728  14.852  0.4107 -0.1637 -0.8772
 3442SOL     OW21961   4.502   2.314  14.310  0.1071 -0.0608 -0.4335
 3442SOL    HW121962   4.422   2.297  14.261  0.2488 -2.2305  0.1164
 3442SOL    HW221963   4.531   2.399  14.277  1.0321 -0.2918 -0.2260
 3443SOL     OW21964   0.335   1.600  14.267  0.2266 -0.3491 -0.1948
 3443SOL    HW121965   0.399   1.645  14.322 -1.1572  0.9440  0.3732
 3443SOL    HW221966   0.271   1.671  14.261 -0.9337 -1.5611 -2.1256
 3444SOL     OW21967   3.529   3.375  10.244 -0.1269  0.6117 -0.2311
 3444SOL    HW121968   3.495   3.406  10.328 -2.5285 -0.9047 -0.6600
 3444SOL    HW221969   3.596   3.440  10.221  0.8050 -0.3051 -0.0891
 3445SOL     OW21970   0.604   0.699   3.810  0.2189 -0.8247  0.2919
 3445SOL    HW121971   0.537   0.719   3.874 -1.0459 -0.3566 -1.1804
 3445SOL    HW221972   0.560   0.685   3.726  1.8339 -0.8857 -0.5588
 3446SOL     OW21973   3.329   4.298  14.179 -0.0947  0.0522 -0.0480
 3446SOL    HW121974   3.254   4.356  14.167 -0.8088 -0.5776  1.3456
 3446SOL    HW221975   3.345   4.276  14.088  3.4286  1.5370  0.2086
 3447SOL     OW21976   2.588   2.919   5.723  0.0761  0.6254 -0.2334
 3447SOL    HW121977   2.561   2.984   5.788 -1.5239  1.1530 -1.4064
 3447SOL    HW221978   2.683   2.916   5.732  0.1282 -1.0487 -1.3596
 3448SOL     OW21979   2.835   1.788   9.163 -0.0184  0.4038  0.1695
 3448SOL    HW121980   2.788   1.869   9.145  0.0776  0.1463 -1.2340
 3448SOL    HW221981   2.838   1.778   9.258 -0.3983 -2.7344 -0.1318
 3449SOL     OW21982   4.042   4.613   7.397 -0.4763  0.0784  0.7000
 3449SOL    HW121983   4.052   4.526   7.357  1.4600 -0.2061  1.7894
 3449SOL    HW221984   4.121   4.657   7.365 -1.1521  1.3199  0.7458
 3450SOL     OW21985   0.187   1.716   3.262 -0.1226 -0.1798  0.0870
 3450SOL    HW121986   0.208   1.806   3.288 -1.5660  1.3338 -3.9472
 3450SOL    HW221987   0.260   1.656   3.275  0.2284 -0.0925 -1.5243
 3451SOL     OW21988   2.343   3.678   7.283 -0.4934 -0.0054 -0.1333
 3451SOL    HW121989   2.323   3.652   7.193 -0.4231 -0.7372  0.0591
 3451SOL    HW221990   2.438   3.681   7.279 -0.4837  0.7634  0.8036
 3452SOL     OW21991   2.071   4.251   8.376  0.4898  0.0243  0.6977
 3452SOL    HW121992   2.145   4.273   8.432  1.3315 -1.5224  0.2118
 3452SOL    HW221993   2.084   4.159   8.353 -1.9186  0.0340 -0.6540
 3453SOL     OW21994   2.715   2.399   7.914  0.1221  0.3025 -0.0809
 3453SOL    HW121995   2.682   2.328   7.968  1.0339 -0.8330 -1.0026
 3453SOL    HW221996   2.735   2.474   7.969 -0.1933  0.3329 -0.0081
 3454SOL     OW21997   0.056   1.686   3.732 -0.3233 -0.7504  0.1196
 3454SOL    HW121998   0.056   1.734   3.815 -0.0921 -1.0664  0.3019
 3454SOL    HW221999   0.023   1.603   3.766  2.2124 -0.8183  2.4264
 3455SOL     OW22000   3.227   0.340   1.734 -0.8265 -0.3734 -0.2164
 3455SOL    HW122001   3.182   0.275   1.787 -1.6662 -0.2362 -0.7568
 3455SOL    HW222002   3.312   0.338   1.778 -1.0767  0.1438  0.2984
 3456SOL     OW22003   0.060   4.076   6.578  0.1734 -1.0427 -0.1632
 3456SOL    HW122004   0.065   4.078   6.674  0.2277  2.1873 -0.2306
 3456SOL    HW222005   0.154   4.069   6.564  0.6843 -0.0663  2.8428
 3457SOL     OW22006   3.173   0.921   9.790  0.1289  0.3183 -0.5410
 3457SOL    HW122007   3.242   0.901   9.727  1.6462  2.4480  0.4655
 3457SOL    HW222008   3.230   0.968   9.850 -0.3877 -0.6047  0.6567
 3458SOL     OW22009   1.339   1.820  17.036  0.1291 -0.1473 -0.2877
 3458SOL    HW122010   1.397   1.799  17.109 -0.0041 -0.4872 -0.2815
 3458SOL    HW222011   1.269   1.756  17.049 -1.5363  2.1948  2.2000
 3459SOL     OW22012   1.740   2.562   7.429  0.4308 -0.2950  0.1316
 3459SOL    HW122013   1.698   2.543   7.513 -3.6958 -2.4699 -2.3970
 3459SOL    HW222014   1.780   2.648   7.441 -0.9912  0.6302 -1.7248
 3460SOL     OW22015   1.596   3.266   8.807  0.7466  0.0795 -0.3159
 3460SOL    HW122016   1.648   3.220   8.741  0.9708 -0.9634  0.6086
 3460SOL    HW222017   1.635   3.227   8.885 -0.9943  0.4583  0.7505
 3461SOL     OW22018   2.281   2.043   6.756 -0.1741 -0.7423 -0.3129
 3461SOL    HW122019   2.346   2.107   6.786 -1.0188 -0.1935  0.3179
 3461SOL    HW222020   2.199   2.072   6.795  1.0043  2.5817 -0.3278
 3462SOL     OW22021   0.090   3.727  14.667 -0.3653  0.0806 -0.2799
 3462SOL    HW122022   0.146   3.651  14.680 -0.1427  0.2352 -0.3407
 3462SOL    HW222023   0.151   3.798  14.686  1.6754 -1.9988  0.9071
 3463SOL     OW22024   0.241   4.657  11.309  0.2485 -0.0012 -0.0239
 3463SOL    HW122025   0.247   4.697  11.396  1.8881 -4.1717  1.7380
 3463SOL    HW222026   0.150   4.641  11.286  0.7973 -1.6953 -1.0336
 3464SOL     OW22027   4.585   3.915   3.965  0.5875 -0.2570  0.3826
 3464SOL    HW122028   4.490   3.922   3.950  0.2335  1.2404  3.4433
 3464SOL    HW222029   4.599   3.829   3.925  0.9129  0.7081 -1.5634
 3465SOL     OW22030   0.840   4.279  11.984  0.0280  0.0606  0.0233
 3465SOL    HW122031   0.841   4.183  11.984  0.6384  0.0577 -3.2678
 3465SOL    HW222032   0.851   4.294  12.078 -1.4306  0.5102  0.1184
 3466SOL     OW22033   2.159   0.795   4.884 -0.6738  0.4393  0.0105
 3466SOL    HW122034   2.156   0.736   4.808 -0.1272  1.3059 -0.6827
 3466SOL    HW222035   2.106   0.741   4.942 -2.7148  3.8115  1.3167
 3467SOL     OW22036   2.021   0.377   4.384  0.5511 -0.3088 -0.0251
 3467SOL    HW122037   1.941   0.325   4.393  0.0125  0.9667  2.4274
 3467SOL    HW222038   2.053   0.380   4.474  0.0525 -4.4759  0.2967
 3468SOL     OW22039   0.507   4.309   3.595  0.2871 -0.3186 -0.0740
 3468SOL    HW122040   0.479   4.296   3.685 -1.7182 -1.1792 -0.8346
 3468SOL    HW222041   0.430   4.344   3.551  1.8770  0.0223 -2.6246
 3469SOL     OW22042   3.715   4.032   0.712  0.3015  0.1957  0.0522
 3469SOL    HW122043   3.785   3.971   0.734  0.0792 -0.5671 -1.3659
 3469SOL    HW222044   3.639   3.975   0.700 -0.5253  1.0633  1.1084
 3470SOL     OW22045   2.319   1.942   5.891  0.3829  0.2720  0.3661
 3470SOL    HW122046   2.318   1.925   5.796 -3.5229  1.6690  0.1550
 3470SOL    HW222047   2.248   1.883   5.918  1.9969 -1.5787  0.5589
 3471SOL     OW22048   0.997   4.224   1.647  0.1795  0.2274 -0.5269
 3471SOL    HW122049   0.973   4.202   1.738 -1.8429  0.7892 -0.9261
 3471SOL    HW222050   1.090   4.202   1.657  0.0686  0.8976  2.1134
 3472SOL     OW22051   3.556   3.824  14.924  0.5352  0.6961 -0.6493
 3472SOL    HW122052   3.582   3.907  14.884  0.7892 -0.1640 -2.2635
 3472SOL    HW222053   3.637   3.817  14.974 -0.0024 -2.4292 -0.2091
 3473SOL     OW22054   1.298   1.302   4.246 -0.1356 -0.9328  0.6064
 3473SOL    HW122055   1.238   1.258   4.306 -0.4123  1.2633  1.9351
 3473SOL    HW222056   1.269   1.270   4.161  0.9998 -0.4922  0.0549
 3474SOL     OW22057   3.167   4.331  16.049  0.3652 -0.2086 -0.0323
 3474SOL    HW122058   3.196   4.275  15.977 -1.2430 -2.0803  0.7650
 3474SOL    HW222059   3.247   4.377  16.074  0.6920 -0.9171  0.2350
 3475SOL     OW22060   3.555   2.187   4.939  0.2501  0.3254 -0.3014
 3475SOL    HW122061   3.605   2.133   4.877  0.0388 -1.5372  1.1727
 3475SOL    HW222062   3.475   2.137   4.921  0.6905  0.5711 -3.0621
 3476SOL     OW22063   2.706   1.145   5.065  0.8824  0.2482 -0.0965
 3476SOL    HW122064   2.777   1.201   5.035  1.4554 -0.8194 -0.7251
 3476SOL    HW222065   2.651   1.132   4.988  0.5749 -0.0536  0.1702
 3477SOL     OW22066   2.268   0.393   5.821  0.0469 -0.0695 -0.1733
 3477SOL    HW122067   2.223   0.313   5.796  0.3257  0.0052 -0.9291
 3477SOL    HW222068   2.360   0.372   5.805 -0.3249 -0.1305 -2.2667
 3478SOL     OW22069   2.046   4.591  12.249  0.3246 -0.3289  0.3382
 3478SOL    HW122070   1.963   4.630  12.220  0.1650 -0.0791  1.1324
 3478SOL    HW222071   2.076   4.654  12.314 -0.2914 -0.9926  1.2533
 3479SOL     OW22072   0.920   3.758   2.986 -0.1025  0.0482 -0.4778
 3479SOL    HW122073   0.889   3.712   2.908 -1.2879 -0.4329  0.2801
 3479SOL    HW222074   1.014   3.741   2.991  0.3364  1.6069 -3.4091
 3480SOL     OW22075   4.245   2.470   5.881  0.0395 -0.0630  0.7457
 3480SOL    HW122076   4.283   2.512   5.803 -1.4441  0.8714  0.5049
 3480SOL    HW222077   4.311   2.469   5.950  1.5932 -2.6667 -0.7955
 3481SOL     OW22078   3.214   2.556   8.447 -0.7756 -0.0668 -0.2918
 3481SOL    HW122079   3.149   2.513   8.503 -0.7876  2.5219  1.6917
 3481SOL    HW222080   3.204   2.640   8.492 -0.0112 -0.2362  0.1875
 3482SOL     OW22081   4.043   2.671   5.306  0.0695 -0.2248 -0.3969
 3482SOL    HW122082   4.057   2.618   5.384 -0.4496  3.3697  2.1608
 3482SOL    HW222083   4.128   2.655   5.264  0.9687  0.2984  1.2121
 3483SOL     OW22084   2.309   4.351  17.213  1.0353 -0.0399  0.5023
 3483SOL    HW122085   2.338   4.267  17.249 -1.8229 -1.6586 -0.9590
 3483SOL    HW222086   2.302   4.325  17.122 -1.2533  0.6637  0.4615
 3484SOL     OW22087   3.229   2.856   8.973  0.1103 -0.0978  0.8861
 3484SOL    HW122088   3.308   2.835   8.923 -1.8885 -0.7948 -2.0151
 3484SOL    HW222089   3.162   2.826   8.911  1.7194 -1.0170 -0.4210
 3485SOL     OW22090   3.845   2.715   5.528 -0.2541  0.1295 -0.4826
 3485SOL    HW122091   3.933   2.685   5.554 -1.5258 -2.2763  1.0529
 3485SOL    HW222092   3.853   2.733   5.435 -0.9523  2.1219 -0.1520
 3486SOL     OW22093   4.467   4.058   6.746  0.9293 -0.4955  0.0960
 3486SOL    HW122094   4.504   4.039   6.832  0.1575 -0.0986  0.5134
 3486SOL    HW222095   4.533   4.020   6.688  4.3220  1.6724  2.5495
 3487SOL     OW22096   2.849   4.108   1.812 -0.4636 -0.4620 -0.1279
 3487SOL    HW122097   2.757   4.133   1.800  0.0942  2.1470  1.2117
 3487SOL    HW222098   2.868   4.062   1.730  2.0392  1.7571 -0.7782
 3488SOL     OW22099   1.799   3.248  10.995  0.4596  0.3244  0.4424
 3488SOL    HW122100   1.774   3.249  11.088  0.3917 -0.1934  0.4267
 3488SOL    HW222101   1.729   3.307  10.968 -0.0185 -1.2257 -1.6558
 3489SOL     OW22102   2.191   4.129   8.819 -0.3312  0.2337  0.2719
 3489SOL    HW122103   2.105   4.118   8.860 -1.3988  3.0544 -1.1967
 3489SOL    HW222104   2.229   4.045   8.842 -0.3635 -0.8148 -3.4784
 3490SOL     OW22105   2.062   1.976  11.663  0.3580  0.5559  0.0532
 3490SOL    HW122106   2.043   1.882  11.661  0.0938  0.5787  1.4462
 3490SOL    HW222107   2.079   1.994  11.571  1.5356 -0.4373  0.0798
 3491SOL     OW22108   2.281   0.104  17.332 -0.1948  0.2750  0.0009
 3491SOL    HW122109   2.353   0.168  17.326 -0.4259  0.7703  2.6613
 3491SOL    HW222110   2.209   0.152  17.292  0.4821  0.3592 -1.1243
 3492SOL     OW22111   4.431   3.112  15.516 -0.2041 -0.5225 -0.6715
 3492SOL    HW122112   4.491   3.187  15.523 -2.0654  0.8739  0.2992
 3492SOL    HW222113   4.383   3.143  15.440  0.7993  1.7920 -0.3797
 3493SOL     OW22114   1.550   2.685   5.442  0.3076  0.3788  0.2534
 3493SOL    HW122115   1.483   2.741   5.402  0.3039  0.6844  0.6826
 3493SOL    HW222116   1.593   2.647   5.366  0.7791 -0.9166  1.1668
 3494SOL     OW22117   3.697   1.894   7.983  0.8177 -0.3919 -0.0789
 3494SOL    HW122118   3.767   1.831   8.002 -0.2013 -1.4275  0.2217
 3494SOL    HW222119   3.689   1.932   8.071 -0.3207 -0.5589 -0.1136
 3495SOL     OW22120   4.115   1.896   8.954 -0.0292 -0.0961  0.1130
 3495SOL    HW122121   4.140   1.937   8.871  0.9401 -1.6531 -0.3745
 3495SOL    HW222122   4.139   1.806   8.930 -1.0325 -0.7048  1.3497
 3496SOL     OW22123   0.523   0.266  11.241 -0.5156 -0.1530 -0.2417
 3496SOL    HW122124   0.603   0.230  11.202  0.0546 -0.4646  1.2360
 3496SOL    HW222125   0.565   0.334  11.293  0.9576 -1.5683  0.4449
 3497SOL     OW22126   2.730   4.504   5.952 -0.8322  0.0192 -0.5864
 3497SOL    HW122127   2.639   4.495   5.927 -0.3204  3.3126 -3.6249
 3497SOL    HW222128   2.766   4.589   5.925  0.7034 -0.5063 -0.1944
 3498SOL     OW22129   3.217   0.351   7.501 -0.3420  0.0981 -0.5772
 3498SOL    HW122130   3.280   0.318   7.565  0.2785 -2.2120 -2.3404
 3498SOL    HW222131   3.256   0.433   7.472  0.0228 -0.9124 -2.9622
 3499SOL     OW22132   2.963   2.915   8.083 -0.1212  0.2907 -0.3188
 3499SOL    HW122133   3.046   2.954   8.056  0.9333 -1.3940  0.4509
 3499SOL    HW222134   2.996   2.827   8.102 -1.6315 -0.3884 -0.8486
 3500SOL     OW22135   1.730   3.229  14.868 -0.3536  0.0770 -0.5382
 3500SOL    HW122136   1.755   3.274  14.787  2.7028  0.9173  0.8654
 3500SOL    HW222137   1.776   3.145  14.867 -0.2013  0.1382  1.3514
 3501SOL     OW22138   0.957   0.805   2.937 -0.2200  0.3718 -0.2622
 3501SOL    HW122139   1.036   0.844   2.900  0.0578 -0.1376 -0.1950
 3501SOL    HW222140   0.970   0.718   2.901 -1.1247  0.5999 -1.1425
 3502SOL     OW22141   1.389   0.231   9.244 -0.1547 -0.6726 -0.8415
 3502SOL    HW122142   1.310   0.263   9.288 -0.7493 -3.0660 -0.1971
 3502SOL    HW222143   1.407   0.311   9.194 -0.3323 -0.1443 -0.0676
 3503SOL     OW22144   0.044   1.762   5.961 -0.4113 -0.2026  0.2655
 3503SOL    HW122145   0.113   1.807   5.911 -2.4309  0.1985 -2.1435
 3503SOL    HW222146   0.075   1.781   6.049 -0.3129 -0.1565  0.2209
 3504SOL     OW22147   0.854   1.528   7.059 -0.3524  0.0454 -0.3829
 3504SOL    HW122148   0.842   1.437   7.031 -0.1549 -0.3744  0.9329
 3504SOL    HW222149   0.920   1.517   7.127  0.4307  2.1708 -0.7914
 3505SOL     OW22150   3.218   3.991   4.764 -0.3080  0.2382 -0.2601
 3505SOL    HW122151   3.290   3.954   4.712  1.3799 -1.0353  2.9983
 3505SOL    HW222152   3.235   4.083   4.744 -0.0860  0.4846  1.0757
 3506SOL     OW22153   0.151   2.277  16.584 -0.2759  0.3874  0.0995
 3506SOL    HW122154   0.137   2.358  16.633  1.2442  0.6322  0.1216
 3506SOL    HW222155   0.180   2.220  16.655  2.0734  2.1620  0.5403
 3507SOL     OW22156   0.380   0.284   4.261  0.9123  0.0853 -0.1094
 3507SOL    HW122157   0.357   0.361   4.210 -0.8417 -0.2863  0.1323
 3507SOL    HW222158   0.469   0.317   4.276  0.5000  1.9085 -1.7211
 3508SOL     OW22159   3.446   1.471   2.401  0.2817  0.3505  0.3824
 3508SOL    HW122160   3.499   1.397   2.371 -0.4915 -0.5457  1.2327
 3508SOL    HW222161   3.362   1.427   2.416  1.1334 -1.2962  0.3709
 3509SOL     OW22162   0.586   4.504   6.773 -0.2334  0.1891 -0.2915
 3509SOL    HW122163   0.495   4.489   6.746 -0.5970  1.0052  0.4868
 3509SOL    HW222164   0.596   4.598   6.764  2.2860 -0.0696 -0.1061
 3510SOL     OW22165   3.571   0.518   0.801 -0.3222 -0.1755 -0.2960
 3510SOL    HW122166   3.660   0.522   0.764 -0.2593 -1.7408 -0.3190
 3510SOL    HW222167   3.539   0.606   0.784  0.2597  0.2324  0.7155
 3511SOL     OW22168   2.160   3.189  15.212 -0.2642 -0.0913 -0.4029
 3511SOL    HW122169   2.115   3.154  15.135 -0.1435  0.1202 -0.5660
 3511SOL    HW222170   2.092   3.176  15.279  1.4802 -2.8993  0.8536
 3512SOL     OW22171   1.238   4.611   8.723 -0.2398  0.1689 -0.1048
 3512SOL    HW122172   1.223   4.547   8.653 -2.6824  2.0284 -1.2854
 3512SOL    HW222173   1.210   4.688   8.674  1.6121 -0.3384 -1.9740
 3513SOL     OW22174   3.583   2.804  13.728  0.1040  0.2420  0.0254
 3513SOL    HW122175   3.548   2.893  13.732  1.4127  0.6431  2.4011
 3513SOL    HW222176   3.575   2.785  13.822  3.9841  2.7185  0.8225
 3514SOL     OW22177   1.257   4.254   2.674  0.5121  0.1053 -0.0750
 3514SOL    HW122178   1.295   4.231   2.759  3.0949  1.2162 -0.9161
 3514SOL    HW222179   1.167   4.224   2.680  0.7366 -0.4376  0.5100
 3515SOL     OW22180   0.726   4.329   9.040 -0.8423  0.6205  0.7983
 3515SOL    HW122181   0.633   4.345   9.057 -0.9974  1.9668 -1.3270
 3515SOL    HW222182   0.745   4.414   9.000 -1.5271  0.0582 -0.7268
 3516SOL     OW22183   4.242   1.849   7.480  0.7780 -0.0404  0.4422
 3516SOL    HW122184   4.236   1.814   7.391  0.4323 -2.1764  1.3179
 3516SOL    HW222185   4.300   1.924   7.464  0.3328  0.3172  0.5083
 3517SOL     OW22186   4.016   1.001   3.141 -0.2193 -0.5044 -0.1138
 3517SOL    HW122187   4.068   1.019   3.220  0.6314 -2.5529 -0.2037
 3517SOL    HW222188   3.948   0.940   3.169 -0.0298 -0.7922 -0.2792
 3518SOL     OW22189   3.974   2.094   3.912  0.1339  0.2443  0.2610
 3518SOL    HW122190   3.955   2.122   4.001 -0.9765  0.0629  0.0744
 3518SOL    HW222191   4.048   2.149   3.884 -0.8936  2.7130  2.4287
 3519SOL     OW22192   2.436   3.689   3.152  0.5111 -0.2711 -0.0345
 3519SOL    HW122193   2.531   3.701   3.158  0.2146  2.0067  0.2709
 3519SOL    HW222194   2.436   3.622   3.084 -0.0274  0.5454 -0.8394
 3520SOL     OW22195   0.714   3.827  15.773 -0.7608  0.0644  0.1104
 3520SOL    HW122196   0.785   3.855  15.831  0.2012 -2.0036 -0.0812
 3520SOL    HW222197   0.772   3.804  15.700  1.3853  1.7473  1.2947
 3521SOL     OW22198   2.449   1.619   8.852  0.3528  0.4578  0.1177
 3521SOL    HW122199   2.399   1.699   8.835  1.3940  1.1038  0.0658
 3521SOL    HW222200   2.500   1.614   8.771 -0.9270  0.1142 -0.6531
 3522SOL     OW22201   4.516   1.068   9.490  0.5341 -0.2077 -0.2862
 3522SOL    HW122202   4.518   0.979   9.525  2.7161 -0.4497 -1.0403
 3522SOL    HW222203   4.592   1.076   9.432  1.1184  1.9556  0.7631
 3523SOL     OW22204   3.707   2.952   7.385  0.1515 -0.1834  0.0791
 3523SOL    HW122205   3.737   2.916   7.301  0.8694 -1.0509  0.7087
 3523SOL    HW222206   3.614   2.960   7.366  0.6103  2.1210 -1.2135
 3524SOL     OW22207   4.530   2.427   1.975 -0.0591  0.1382  0.3145
 3524SOL    HW122208   4.459   2.420   2.038 -2.0408 -3.0358 -2.2990
 3524SOL    HW222209   4.494   2.500   1.926 -0.1920  0.5187  0.9868
 3525SOL     OW22210   2.048   0.799   2.023  0.1372 -0.4276  0.5437
 3525SOL    HW122211   2.106   0.738   1.977  1.3564  1.8624 -0.9271
 3525SOL    HW222212   2.099   0.818   2.102 -3.6592 -0.6619  3.0632
 3526SOL     OW22213   4.506   0.383   8.933 -0.1110 -0.3258 -0.2462
 3526SOL    HW122214   4.600   0.404   8.927  0.7797 -4.1243  0.4141
 3526SOL    HW222215   4.494   0.314   8.868 -0.5153  0.5597 -1.1112
 3527SOL     OW22216   4.352   1.827   6.990  0.6047 -0.3203 -0.1630
 3527SOL    HW122217   4.350   1.891   6.920  2.5751 -0.7706 -0.6303
 3527SOL    HW222218   4.436   1.848   7.032  0.1504  0.9235  0.1324
 3528SOL     OW22219   3.664   2.623  13.044 -0.8178  0.0308 -0.0610
 3528SOL    HW122220   3.644   2.673  12.965 -1.3667  0.1366  0.1414
 3528SOL    HW222221   3.582   2.573  13.049 -1.3246  0.9500  0.8483
 3529SOL     OW22222   1.575   1.736   8.447  0.2574  0.9768  0.0680
 3529SOL    HW122223   1.663   1.774   8.443  1.0971 -0.8433  1.0109
 3529SOL    HW222224   1.518   1.813   8.443 -0.4629  0.4447  0.0195
 3530SOL     OW22225   4.544   2.479   8.511 -0.3743  0.2196  0.0985
 3530SOL    HW122226   4.611   2.451   8.574 -0.2008  0.9573  0.2353
 3530SOL    HW222227   4.600   2.492   8.436 -1.1797 -1.0044 -0.7309
 3531SOL     OW22228   0.305   2.066   5.537 -0.3501 -0.2052 -0.9394
 3531SOL    HW122229   0.280   2.158   5.545  1.8099  0.4011 -1.1926
 3531SOL    HW222230   0.400   2.072   5.530 -0.6767  2.2324 -3.2548
 3532SOL     OW22231   1.683   2.664   5.860  0.1386  0.1984 -0.5053
 3532SOL    HW122232   1.736   2.744   5.869  1.2738 -0.9688  3.1045
 3532SOL    HW222233   1.678   2.642   5.953 -1.6936 -0.4747 -0.7644
 3533SOL     OW22234   1.481   2.798   3.835 -0.1321  0.4557  1.2321
 3533SOL    HW122235   1.563   2.815   3.790 -0.2650 -1.6100  0.1948
 3533SOL    HW222236   1.428   2.743   3.777  1.1148 -1.6894  2.1133
 3534SOL     OW22237   0.443   2.690  14.927 -0.4613 -0.1327 -0.1356
 3534SOL    HW122238   0.535   2.673  14.906 -0.8524 -0.0838 -1.8240
 3534SOL    HW222239   0.406   2.737  14.853 -0.5350  0.7747  0.4774
 3535SOL     OW22240   0.837   0.228   8.477 -0.3121 -0.1170  0.0145
 3535SOL    HW122241   0.894   0.290   8.432 -0.1283 -0.7063 -0.5597
 3535SOL    HW222242   0.830   0.178   8.396  1.5589  0.8788 -0.7579
 3536SOL     OW22243   2.607   4.243  17.190  0.2758  0.6517  0.0800
 3536SOL    HW122244   2.596   4.336  17.167  0.4735  0.9160  1.0087
 3536SOL    HW222245   2.589   4.257  17.283  0.5339  0.9232  0.0896
 3537SOL     OW22246   4.108   4.061   6.563  0.1261 -0.1328  0.4782
 3537SOL    HW122247   4.085   4.094   6.476 -1.2307 -1.0392  0.4942
 3537SOL    HW222248   4.137   3.971   6.551 -0.4493 -0.2813  0.1927
 3538SOL     OW22249   3.451   0.561   7.006 -0.3650  0.5599  0.2337
 3538SOL    HW122250   3.499   0.482   7.031 -2.3419 -0.0975  1.9248
 3538SOL    HW222251   3.412   0.553   6.919  0.4474 -0.0825 -0.0662
 3539SOL     OW22252   1.300   1.191   3.299  0.0278  0.2556  0.5558
 3539SOL    HW122253   1.307   1.111   3.246  0.6152  1.0542 -0.5616
 3539SOL    HW222254   1.289   1.258   3.232  0.6314  0.8773  1.0737
 3540SOL     OW22255   3.443   1.407   4.057  0.0331  0.2654 -0.6473
 3540SOL    HW122256   3.539   1.400   4.054 -0.0163 -1.0138  0.9055
 3540SOL    HW222257   3.425   1.326   4.106  1.6898  0.3229  0.0742
 3541SOL     OW22258   2.502   1.297   8.266 -0.0510 -0.4599  0.3387
 3541SOL    HW122259   2.588   1.254   8.265 -0.0941 -0.5418  0.1440
 3541SOL    HW222260   2.473   1.259   8.350  0.1953  0.5054  0.8586
 3542SOL     OW22261   2.229   2.883   6.653 -0.1467 -0.2546  0.2789
 3542SOL    HW122262   2.302   2.822   6.668  0.9083  0.8965 -0.1085
 3542SOL    HW222263   2.166   2.813   6.668  1.5851 -1.9869 -0.5363
 3543SOL     OW22264   3.720   0.165   2.123  0.0180 -0.1346  0.3117
 3543SOL    HW122265   3.755   0.092   2.072  1.0402  0.0628  0.7320
 3543SOL    HW222266   3.673   0.111   2.186  1.1626  0.2062  1.4658
 3544SOL     OW22267   1.111   2.094  14.618 -0.0123 -0.0036 -0.3377
 3544SOL    HW122268   1.048   2.022  14.619 -0.9130  0.7888  0.1377
 3544SOL    HW222269   1.071   2.154  14.555 -1.8015 -0.7410  0.1104
 3545SOL     OW22270   0.179   4.496   8.386  0.6871  0.0680  0.2100
 3545SOL    HW122271   0.157   4.524   8.297 -2.5893 -2.3388  0.2739
 3545SOL    HW222272   0.098   4.507   8.436 -0.3925  0.1533 -1.5284
 3546SOL     OW22273   3.549   0.921   2.585  0.3750  0.5942 -0.5289
 3546SOL    HW122274   3.558   0.938   2.491 -1.7602  0.2261 -0.8070
 3546SOL    HW222275   3.608   0.848   2.601  0.6236  1.3315  1.9648
 3547SOL     OW22276   3.817   2.571   9.361  0.0059  0.4146 -0.0178
 3547SOL    HW122277   3.866   2.653   9.361  1.9279 -0.6961 -3.4066
 3547SOL    HW222278   3.785   2.565   9.451  3.1944  1.4689  1.1663
 3548SOL     OW22279   2.717   4.056   3.440 -0.2083  0.1552  0.0899
 3548SOL    HW122280   2.715   4.068   3.345 -1.3506 -1.1485 -0.0426
 3548SOL    HW222281   2.807   4.078   3.464  0.4508 -0.3606 -1.8631
 3549SOL     OW22282   0.764   1.185   6.620 -0.4628 -0.4009 -0.1536
 3549SOL    HW122283   0.708   1.108   6.615 -1.2750  0.1123  1.0291
 3549SOL    HW222284   0.787   1.192   6.528 -0.3485  1.8362  0.0432
 3550SOL     OW22285   2.683   0.640   2.679 -0.6211  0.3231 -0.0108
 3550SOL    HW122286   2.652   0.720   2.722 -1.7905  0.2717 -0.7534
 3550SOL    HW222287   2.661   0.662   2.589 -0.1464  0.6255 -0.0499
 3551SOL     OW22288   4.206   2.285  12.384  0.1576  0.0553  0.0369
 3551SOL    HW122289   4.193   2.191  12.374  0.3623  0.0592 -0.2581
 3551SOL    HW222290   4.281   2.292  12.443  1.8272  0.5637 -2.1440
 3552SOL     OW22291   1.064   2.666   7.628  0.0501 -0.2025  0.1965
 3552SOL    HW122292   1.070   2.673   7.533 -0.9418  0.3554  0.1815
 3552SOL    HW222293   1.044   2.758   7.644  2.3129  0.1064  1.2604
 3553SOL     OW22294   4.469   4.622  11.202 -0.1116 -0.3375 -0.1145
 3553SOL    HW122295   4.478   4.527  11.201  0.7819 -0.2519 -0.3507
 3553SOL    HW222296   4.555   4.643  11.239  0.6539 -1.2695 -1.3507
 3554SOL     OW22297   2.976   0.238   9.213 -0.2769 -0.6769  0.0528
 3554SOL    HW122298   2.897   0.213   9.261  0.1583  1.6298  2.0000
 3554SOL    HW222299   2.948   0.329   9.200  1.1498 -0.1006  1.0060
 3555SOL     OW22300   4.416   2.584  17.399 -0.0749 -0.2271  0.0386
 3555SOL    HW122301   4.358   2.647  17.357  0.0987  0.3919  0.7288
 3555SOL    HW222302   4.471   2.644  17.450  1.0854 -0.3849 -1.0286
 3556SOL     OW22303   2.490   2.190   3.735  0.4288  0.1303  0.1220
 3556SOL    HW122304   2.412   2.180   3.681 -1.1715  1.2653  2.2149
 3556SOL    HW222305   2.483   2.107   3.782 -0.5310 -0.5184 -1.1573
 3557SOL     OW22306   2.257   0.465   8.194  0.0852 -0.4330 -0.0533
 3557SOL    HW122307   2.188   0.432   8.137  0.4234 -0.6735 -0.3163
 3557SOL    HW222308   2.217   0.527   8.256  1.2941 -0.3512  0.6456
 3558SOL     OW22309   4.555   0.288   7.127  0.7250 -0.1388 -0.1606
 3558SOL    HW122310   4.515   0.261   7.210 -0.3669 -0.8011 -0.8948
 3558SOL    HW222311   4.595   0.368   7.160  0.0209  1.1148 -2.3201
 3559SOL     OW22312   3.811   3.826  13.671  0.2332 -0.1820 -0.6282
 3559SOL    HW122313   3.791   3.815  13.764 -0.6392 -1.1444 -0.9225
 3559SOL    HW222314   3.733   3.784  13.633 -0.4010  0.3518  0.0858
 3560SOL     OW22315   1.380   2.748   5.235  0.4621 -0.0922 -0.2114
 3560SOL    HW122316   1.358   2.657   5.250  1.7901 -0.0164  2.1793
 3560SOL    HW222317   1.370   2.755   5.140 -1.8191 -1.4303 -0.0755
 3561SOL     OW22318   4.136   1.987   9.555  0.0573  1.1416  0.6257
 3561SOL    HW122319   4.176   2.029   9.478 -1.9226  0.6107 -0.6927
 3561SOL    HW222320   4.047   2.021   9.553 -0.7091 -0.8625  1.2674
 3562SOL     OW22321   0.249   0.413   7.383 -0.2588 -0.2865  0.1991
 3562SOL    HW122322   0.233   0.460   7.301  0.7543 -1.8636 -0.9049
 3562SOL    HW222323   0.164   0.421   7.425 -0.3101  2.1259 -0.3596
 3563SOL     OW22324   3.436   0.862   4.596  0.3524  0.2705 -0.7091
 3563SOL    HW122325   3.409   0.815   4.517 -1.1752  0.0028 -0.0142
 3563SOL    HW222326   3.475   0.788   4.643  0.5110  0.4721 -0.5269
 3564SOL     OW22327   4.433   0.545   4.090  0.6021  0.0016 -0.3610
 3564SOL    HW122328   4.352   0.550   4.040  2.2674 -1.0940 -3.1510
 3564SOL    HW222329   4.491   0.586   4.027  0.9333  0.8859  0.5179
 3565SOL     OW22330   1.241   2.639   9.985  0.1275 -0.0831  0.2858
 3565SOL    HW122331   1.226   2.625  10.079 -0.2308 -0.3898  0.1836
 3565SOL    HW222332   1.334   2.662   9.978 -0.0258  0.3396 -0.2768
 3566SOL     OW22333   1.713   3.066  14.530  0.4790  0.3097  0.5107
 3566SOL    HW122334   1.803   3.065  14.564  0.2461  0.9064  1.1610
 3566SOL    HW222335   1.684   3.148  14.571 -1.4571 -1.4852  2.7085
 3567SOL     OW22336   3.201   2.196   6.127 -0.4113  0.1407  0.1444
 3567SOL    HW122337   3.286   2.196   6.084 -0.8503  1.1020 -0.7129
 3567SOL    HW222338   3.218   2.218   6.219  0.5401 -2.6702  0.6357
 3568SOL     OW22339   3.180   1.885   8.726  0.5024 -0.0208 -0.5854
 3568SOL    HW122340   3.102   1.922   8.767  1.1804 -0.8884  1.4512
 3568SOL    HW222341   3.244   1.955   8.744  0.9865 -0.8800  1.0213
 3569SOL     OW22342   1.573   1.923  17.359  0.2114  0.4381 -0.8279
 3569SOL    HW122343   1.543   1.835  17.336 -1.5001  0.5058  1.0932
 3569SOL    HW222344   1.486   1.962  17.368 -1.0627 -2.1540 -1.7019
 3570SOL     OW22345   3.666   1.157   7.303 -0.2359  0.2085 -0.3040
 3570SOL    HW122346   3.738   1.113   7.348  2.0809  2.5306 -1.7547
 3570SOL    HW222347   3.603   1.170   7.374 -1.0835  0.9156 -1.1845
 3571SOL     OW22348   1.175   0.658   3.924  0.3143  0.4588 -0.1236
 3571SOL    HW122349   1.146   0.742   3.889 -0.8036  0.1670  0.0870
 3571SOL    HW222350   1.258   0.682   3.965  0.0327  1.3820 -0.1068
 3572SOL     OW22351   4.293   0.369   2.706  0.5656  0.0467  1.1028
 3572SOL    HW122352   4.244   0.389   2.627  0.8384 -3.0199  0.1681
 3572SOL    HW222353   4.382   0.343   2.682  0.5005  0.6234  0.2479
 3573SOL     OW22354   0.000   0.829  10.886  0.0399  0.4317 -0.4915
 3573SOL    HW122355   4.673   0.757  10.890 -0.4557  0.9989  1.8313
 3573SOL    HW222356   4.674   0.901  10.900  1.7614  2.2082 -2.0480
 3574SOL     OW22357   1.124   4.007   0.199 -0.0172 -0.0729 -0.7490
 3574SOL    HW122358   1.053   4.042   0.145  1.3764  1.7515 -1.4106
 3574SOL    HW222359   1.199   4.033   0.146 -1.2714  0.1177 -2.4421
 3575SOL     OW22360   0.722   1.220  16.034 -0.0960  0.1553  0.0709
 3575SOL    HW122361   0.812   1.228  16.066 -0.7576 -0.7964  2.1724
 3575SOL    HW222362   0.704   1.311  16.011  0.2964  0.2908  0.3118
 3576SOL     OW22363   1.940   3.503   3.177  0.2262  0.4217  0.0577
 3576SOL    HW122364   1.985   3.421   3.156 -1.5820 -0.0905 -1.7431
 3576SOL    HW222365   2.006   3.561   3.216  1.0055 -0.4567  0.0335
 3577SOL     OW22366   3.102   1.964   7.232 -0.7979 -0.0271  0.6207
 3577SOL    HW122367   3.163   2.033   7.258 -3.7091  2.1744  1.5664
 3577SOL    HW222368   3.091   1.908   7.308 -0.4309  0.1506  0.8049
 3578SOL     OW22369   2.618   4.329  10.112 -0.4597 -0.1796 -0.5421
 3578SOL    HW122370   2.651   4.268  10.178 -3.8313 -0.4213  0.9418
 3578SOL    HW222371   2.641   4.274  10.037 -0.4187 -0.1068 -0.5826
 3579SOL     OW22372   0.986   1.984   9.591 -0.1827 -0.0078  0.3613
 3579SOL    HW122373   0.906   2.020   9.552 -0.1073 -0.0886  0.1341
 3579SOL    HW222374   0.990   1.907   9.535 -3.6347 -0.3880  0.6754
 3580SOL     OW22375   1.226   2.109  13.925  0.0046  0.1406 -0.3666
 3580SOL    HW122376   1.149   2.130  13.872 -0.8275  1.1604  1.2482
 3580SOL    HW222377   1.279   2.188  13.922  1.1850 -0.6648 -0.6407
 3581SOL     OW22378   0.095   3.358   6.259 -0.0157 -0.1514  0.0913
 3581SOL    HW122379   0.181   3.325   6.233  0.2922 -1.0086  2.1661
 3581SOL    HW222380   0.062   3.277   6.298 -1.0669  0.3400  0.2301
 3582SOL     OW22381   2.449   1.144   3.946 -0.5903 -0.0881 -0.6904
 3582SOL    HW122382   2.494   1.132   3.862 -2.1164 -0.8853 -1.4001
 3582SOL    HW222383   2.521   1.133   4.008 -1.5151  1.6625  0.7092
 3583SOL     OW22384   3.951   3.901   7.819  0.1826 -0.3625 -0.0277
 3583SOL    HW122385   3.969   3.940   7.733 -0.3657 -0.7837 -0.3390
 3583SOL    HW222386   3.856   3.895   7.819  0.1482  0.1354 -1.3339
 3584SOL     OW22387   1.776   1.925   4.444  0.4044 -0.0601 -0.4690
 3584SOL    HW122388   1.705   1.908   4.382 -0.3427 -0.5770  0.5280
 3584SOL    HW222389   1.842   1.961   4.385  2.4039  1.0948  2.4453
 3585SOL     OW22390   4.516   0.349   7.874  0.3287 -0.3892  0.3373
 3585SOL    HW122391   4.433   0.398   7.879  0.3641 -0.5272  2.1723
 3585SOL    HW222392   4.560   0.379   7.953  0.4923 -0.1441  0.1547
 3586SOL     OW22393   1.832   4.075  12.748  0.0903  0.1439  0.1421
 3586SOL    HW122394   1.741   4.070  12.720  0.7351 -0.0535 -1.9649
 3586SOL    HW222395   1.825   4.112  12.836  0.8510  1.9109 -0.5413
 3587SOL     OW22396   3.363   0.506   6.530  0.2252  0.1007  0.9502
 3587SOL    HW122397   3.421   0.470   6.463  0.2453  0.6086  0.6959
 3587SOL    HW222398   3.296   0.556   6.483  0.3289 -1.1728 -0.5236
 3588SOL     OW22399   2.618   3.452   8.598 -0.1919 -0.2475  0.1909
 3588SOL    HW122400   2.693   3.436   8.540 -1.8458 -3.6002 -1.0405
 3588SOL    HW222401   2.671   3.502   8.660  1.1817  0.0796 -1.2163
 3589SOL     OW22402   2.688   3.541  16.407 -0.5019 -0.4972 -0.1455
 3589SOL    HW122403   2.625   3.603  16.444  0.2716 -0.8206  1.7281
 3589SOL    HW222404   2.624   3.488  16.359 -1.1534 -1.1939  1.4831
 3590SOL     OW22405   2.590   3.964   5.747 -0.4216  0.3278 -0.3494
 3590SOL    HW122406   2.552   3.909   5.816 -0.3980  0.6317 -0.0940
 3590SOL    HW222407   2.640   3.897   5.700 -1.5050 -0.2821 -0.6377
 3591SOL     OW22408   4.286   0.553   6.264 -0.8103  0.4715 -0.3788
 3591SOL    HW122409   4.197   0.550   6.231 -0.3682  0.0735 -1.5398
 3591SOL    HW222410   4.275   0.605   6.343  0.1454  2.7634 -1.7379
 3592SOL     OW22411   2.154   4.550  14.553  0.1633 -0.4613  0.2035
 3592SOL    HW122412   2.242   4.514  14.546 -0.4822 -1.3692 -3.3708
 3592SOL    HW222413   2.187   4.640  14.557  0.8612 -0.7462  0.9207
 3593SOL     OW22414   0.878   4.091   0.542  0.2164 -0.0255  0.3103
 3593SOL    HW122415   0.914   4.011   0.503  0.3861  0.7753 -1.1575
 3593SOL    HW222416   0.935   4.098   0.619  0.2937 -0.8887  0.3277
 3594SOL     OW22417   3.363   4.581   4.651  0.9280 -0.3588  0.1189
 3594SOL    HW122418   3.335   4.598   4.741  0.9937 -1.2428  0.3042
 3594SOL    HW222419   3.340   4.660   4.602  0.1613 -1.2071 -0.8822
 3595SOL     OW22420   0.955   2.372   5.075 -0.3121  0.1246 -0.0654
 3595SOL    HW122421   0.972   2.314   5.150 -0.8008  1.4637  1.0746
 3595SOL    HW222422   0.874   2.409   5.111  0.8512  1.6821  0.9279
 3596SOL     OW22423   1.651   3.735   6.461  0.3861 -0.5859 -0.0791
 3596SOL    HW122424   1.662   3.642   6.480 -0.1340 -0.8142 -0.8842
 3596SOL    HW222425   1.688   3.745   6.373 -0.6291 -0.6801 -0.5220
 3597SOL     OW22426   3.943   2.967   3.419  0.2512 -0.4119 -0.1323
 3597SOL    HW122427   3.969   2.890   3.469  2.5010  0.4503 -0.0071
 3597SOL    HW222428   4.015   3.025   3.441  0.2580 -0.4051 -0.1738
 3598SOL     OW22429   1.987   1.930   1.906  0.4815 -0.3749 -0.2039
 3598SOL    HW122430   2.023   1.856   1.858 -0.2541 -0.2922 -0.8745
 3598SOL    HW222431   2.053   1.946   1.974  0.5874  1.1508 -0.6843
 3599SOL     OW22432   0.735   3.340   8.660 -0.3823  0.0406 -0.6744
 3599SOL    HW122433   0.785   3.367   8.583  2.2822  1.3036  1.4585
 3599SOL    HW222434   0.673   3.277   8.625 -0.3516  0.0553 -0.7538
 3600SOL     OW22435   1.890   1.974   7.405 -0.1889  0.5510  0.2209
 3600SOL    HW122436   1.926   1.980   7.316  0.6698 -0.0233  0.5406
 3600SOL    HW222437   1.904   2.066   7.428 -1.6934  1.3364 -1.9688
 3601SOL     OW22438   4.141   3.132   3.287 -1.0419 -0.0598 -0.2988
 3601SOL    HW122439   4.212   3.146   3.224 -0.1265 -3.0656  0.0633
 3601SOL    HW222440   4.067   3.112   3.230 -0.2966 -3.2196 -0.1639
 3602SOL     OW22441   0.209   1.980   9.564  0.3967 -0.1016  0.0254
 3602SOL    HW122442   0.257   1.925   9.626  0.5174 -0.4106 -0.3422
 3602SOL    HW222443   0.119   1.948   9.556  0.6665 -0.6398 -0.8702
 3603SOL     OW22444   1.155   2.362   2.505 -0.2364 -0.3163  0.5881
 3603SOL    HW122445   1.080   2.393   2.556  0.6722 -2.1204  2.9710
 3603SOL    HW222446   1.213   2.437   2.512  0.4629 -0.9045  1.0396
 3604SOL     OW22447   3.145   3.689   4.805  0.2907  0.1423 -0.5221
 3604SOL    HW122448   3.157   3.694   4.710 -2.9232  0.1961 -0.9096
 3604SOL    HW222449   3.130   3.782   4.820 -0.9442  0.1241 -1.6163
 3605SOL     OW22450   2.692   4.616   3.761 -0.0404 -0.6003  0.1826
 3605SOL    HW122451   2.616   4.674   3.764  0.4840  0.0323  1.2004
 3605SOL    HW222452   2.657   4.540   3.714 -0.6432 -0.0812 -0.2080
 3606SOL     OW22453   1.284   3.580  12.496  0.5623 -0.0098 -0.0674
 3606SOL    HW122454   1.368   3.541  12.521 -1.4059 -3.0611  1.7044
 3606SOL    HW222455   1.244   3.556  12.580  0.8245  1.5247  0.4992
 3607SOL     OW22456   0.528   1.116   2.503  0.5196 -0.3534 -0.1407
 3607SOL    HW122457   0.562   1.134   2.591 -1.0723  0.7935  0.2413
 3607SOL    HW222458   0.444   1.161   2.497 -0.0599 -1.6124 -1.4895
 3608SOL     OW22459   1.207   0.519  17.447 -0.7704 -0.3126 -0.1376
 3608SOL    HW122460   1.148   0.489  17.378 -0.9024 -1.0983  0.3150
 3608SOL    HW222461   1.169   0.606  17.458  0.5805  0.2217  0.4272
 3609SOL     OW22462   1.512   1.426   2.367  0.4649  0.0576 -0.7110
 3609SOL    HW122463   1.538   1.398   2.280  3.2872 -2.9005  1.0581
 3609SOL    HW222464   1.423   1.451   2.343 -0.0977 -0.1378  1.1270
 3610SOL     OW22465   2.850   2.382   2.296  0.1741 -0.1627 -0.4202
 3610SOL    HW122466   2.885   2.353   2.211 -0.6433 -0.4277 -0.6730
 3610SOL    HW222467   2.933   2.396   2.340  0.7393  1.5367 -2.0158
 3611SOL     OW22468   4.549   1.106  10.620 -0.6288  0.1823  0.0839
 3611SOL    HW122469   4.520   1.127  10.531 -0.0639 -1.0923 -0.3934
 3611SOL    HW222470   4.622   1.049  10.597 -2.1399 -1.3046 -1.0805
 3612SOL     OW22471   2.383   0.919  11.283  0.1365 -0.1147  0.4859
 3612SOL    HW122472   2.298   0.896  11.320 -1.3865  2.3190 -1.4625
 3612SOL    HW222473   2.390   1.013  11.301  4.4099 -0.0375 -1.4371
 3613SOL     OW22474   4.455   4.176  14.010 -0.4741  0.2970  0.5844
 3613SOL    HW122475   4.418   4.241  13.950  0.7678  1.0974  0.6944
 3613SOL    HW222476   4.515   4.123  13.956  0.6885  0.9610  1.2324
 3614SOL     OW22477   1.019   2.970  13.388  0.3337 -0.1712  0.0308
 3614SOL    HW122478   0.934   2.985  13.430  0.7798 -0.1222  0.9230
 3614SOL    HW222479   1.006   3.011  13.303  3.1359 -2.0492 -1.2933
 3615SOL     OW22480   3.776   2.008   1.505  0.1887 -0.2681  0.2623
 3615SOL    HW122481   3.828   1.949   1.450 -0.4999 -1.0546  0.4562
 3615SOL    HW222482   3.784   1.960   1.587 -1.9831  3.6900  2.7817
 3616SOL     OW22483   2.764   2.091   2.669  0.1688  0.6221 -0.6445
 3616SOL    HW122484   2.734   2.079   2.579 -0.7872 -1.1532 -0.1066
 3616SOL    HW222485   2.789   2.183   2.663 -3.2289  1.5102 -1.3064
 3617SOL     OW22486   3.305   4.655   7.612 -0.0144  0.4976 -0.3400
 3617SOL    HW122487   3.291   0.004   7.655  1.4103  1.4281 -1.6752
 3617SOL    HW222488   3.393   4.635   7.644  0.6699  2.7479 -0.7631
 3618SOL     OW22489   4.394   4.582   9.330  0.2723  0.4608 -0.0115
 3618SOL    HW122490   4.385   4.489   9.351  0.5918  0.1317 -1.3376
 3618SOL    HW222491   4.423   4.622   9.412  0.4285  1.3242 -0.4952
 3619SOL     OW22492   1.312   4.608  17.253  0.0162 -0.3339  0.3315
 3619SOL    HW122493   1.376   4.676  17.276 -0.3675  0.2456 -0.2996
 3619SOL    HW222494   1.363   4.528  17.255  0.1754 -0.2393  0.0229
 3620SOL     OW22495   2.213   2.002   4.060  0.0813  0.0607  0.5190
 3620SOL    HW122496   2.284   1.976   4.002 -1.1194  2.3088 -1.9334
 3620SOL    HW222497   2.139   1.974   4.005  0.8706 -0.1247 -0.4371
 3621SOL     OW22498   2.618   0.872   6.296  0.7330 -0.3587 -0.1547
 3621SOL    HW122499   2.689   0.813   6.322 -0.3910 -1.5011  0.3067
 3621SOL    HW222500   2.650   0.894   6.209  1.6596  3.0484  1.0278
 3622SOL     OW22501   4.680   1.817   9.783  0.1604  0.1921  0.5485
 3622SOL    HW122502   4.639   1.878   9.844  0.3697 -0.0376  0.9143
 3622SOL    HW222503   0.020   1.794   9.836  0.1528 -0.2608  0.3598
 3623SOL     OW22504   3.769   3.834   5.395 -0.0848  0.4585  0.8373
 3623SOL    HW122505   3.760   3.916   5.444 -1.2998  2.1193 -2.1421
 3623SOL    HW222506   3.721   3.780   5.457  0.0458 -0.3847  0.1987
 3624SOL     OW22507   4.649   1.171   5.851 -0.1798  0.1970  0.5341
 3624SOL    HW122508   4.590   1.117   5.904  0.3867 -0.6816  0.2635
 3624SOL    HW222509   4.671   1.237   5.917 -0.1847 -0.1920  0.9186
 3625SOL     OW22510   2.153   3.572   4.140 -0.1385 -0.0441  0.5151
 3625SOL    HW122511   2.184   3.656   4.104  0.1386  0.0165  0.8898
 3625SOL    HW222512   2.232   3.519   4.126  0.5515  1.2981 -0.6888
 3626SOL     OW22513   3.446   1.818   9.430 -0.5749  0.7879 -0.1645
 3626SOL    HW122514   3.377   1.795   9.368  0.7815 -0.6848 -1.0992
 3626SOL    HW222515   3.413   1.798   9.518 -1.8481 -0.3822 -0.9060
 3627SOL     OW22516   0.534   0.657   5.591  0.2197 -0.2333 -0.5368
 3627SOL    HW122517   0.492   0.671   5.676 -1.5742  1.3755 -1.6930
 3627SOL    HW222518   0.584   0.577   5.607  0.6640 -0.4249 -2.8905
 3628SOL     OW22519   3.135   3.530  11.507  0.6977 -0.3412  0.4059
 3628SOL    HW122520   3.222   3.565  11.487  0.7526 -0.7341 -0.0559
 3628SOL    HW222521   3.081   3.558  11.433  2.3916  0.7190 -0.4289
 3629SOL     OW22522   4.706   3.111   2.542  0.1871 -0.2972 -0.1679
 3629SOL    HW122523   4.669   3.079   2.624 -0.4630  0.5510 -0.1385
 3629SOL    HW222524   4.630   3.136   2.490 -0.2416 -2.1780 -0.4341
 3630SOL     OW22525   3.567   1.921   8.442  0.0855 -0.3825 -0.1494
 3630SOL    HW122526   3.591   1.958   8.527 -1.6210 -3.6170  1.7671
 3630SOL    HW222527   3.485   1.881   8.473 -0.1252 -1.1485 -1.6622
 3631SOL     OW22528   1.424   3.072  16.486 -0.5474  0.2109 -0.4715
 3631SOL    HW122529   1.398   3.161  16.461 -0.1501  0.8630  1.4015
 3631SOL    HW222530   1.483   3.044  16.416 -0.9082 -1.4525 -0.1093
 3632SOL     OW22531   2.368   2.265   4.113 -0.8694  0.2526  0.2325
 3632SOL    HW122532   2.329   2.337   4.064 -2.2766 -0.7611 -0.1467
 3632SOL    HW222533   2.329   2.185   4.076 -2.7102  0.4403  1.7624
 3633SOL     OW22534   0.557   2.324   7.562 -0.0321  0.2988 -0.6057
 3633SOL    HW122535   0.615   2.309   7.487  0.0899  1.4650 -0.7445
 3633SOL    HW222536   0.591   2.410   7.587  0.9944 -0.7119  1.4754
 3634SOL     OW22537   2.831   2.558   5.319  0.1796 -0.1831  0.4718
 3634SOL    HW122538   2.901   2.516   5.269  2.2009  0.8343  2.4400
 3634SOL    HW222539   2.762   2.557   5.253  2.4126  0.3316 -1.8870
 3635SOL     OW22540   2.775   0.046  12.389  0.2620 -0.2800 -0.7028
 3635SOL    HW122541   2.757   0.130  12.347  1.5390 -0.2145 -1.1367
 3635SOL    HW222542   2.838   0.006  12.328  1.6959  1.4899 -0.3963
 3636SOL     OW22543   0.383   1.428   8.623 -0.1773  0.6111 -0.1505
 3636SOL    HW122544   0.443   1.354   8.614  0.2085  0.8082  0.8239
 3636SOL    HW222545   0.311   1.395   8.569  1.6974 -1.4895 -1.3475
 3637SOL     OW22546   4.422   2.176   3.234 -0.0372  0.4726  0.3342
 3637SOL    HW122547   4.516   2.178   3.216 -0.5806  0.5838 -2.4481
 3637SOL    HW222548   4.414   2.137   3.321 -0.0790 -2.4240 -0.9669
 3638SOL     OW22549   3.789   0.366   9.494 -0.1436 -0.4850 -0.2500
 3638SOL    HW122550   3.787   0.294   9.431  1.4693  0.2672 -1.1654
 3638SOL    HW222551   3.881   0.384   9.476  0.0343  0.2312  1.4183
 3639SOL     OW22552   4.460   1.513   9.049  0.6183  0.0692  0.0817
 3639SOL    HW122553   4.519   1.587   9.064 -0.4563  0.2756  3.2867
 3639SOL    HW222554   4.389   1.544   9.104 -1.0067  0.6663 -2.3221
 3640SOL     OW22555   4.592   2.593  11.601  0.0374 -0.4155 -0.2940
 3640SOL    HW122556   4.658   2.584  11.532  1.6693  1.4526  1.0065
 3640SOL    HW222557   4.533   2.532  11.556  0.6175 -1.0482 -0.2078
 3641SOL     OW22558   0.617   1.965   6.473  0.2107 -0.0707 -0.1664
 3641SOL    HW122559   0.538   1.929   6.514  2.3880 -3.1530  1.3325
 3641SOL    HW222560   0.655   2.016   6.545  0.2228  1.0480 -0.9589
 3642SOL     OW22561   2.164   2.363   4.944 -0.2807  0.4302 -0.0599
 3642SOL    HW122562   2.152   2.310   5.023 -1.5628  3.9377  2.1380
 3642SOL    HW222563   2.104   2.309   4.893  1.0620  2.6507 -3.9574
 3643SOL     OW22564   3.620   4.459  15.610  0.5767 -0.0245 -0.3912
 3643SOL    HW122565   3.656   4.394  15.551  1.2936  1.4169 -1.5368
 3643SOL    HW222566   3.623   4.412  15.693  1.6558  0.1153 -0.3455
 3644SOL     OW22567   0.965   3.724   0.638 -0.5944  0.4450  0.4643
 3644SOL    HW122568   1.024   3.650   0.625  0.5354  1.3542  0.4283
 3644SOL    HW222569   1.000   3.797   0.587 -1.0349  0.1132 -0.3162
 3645SOL     OW22570   1.386   1.724   5.512  0.1641  0.2799  0.2805
 3645SOL    HW122571   1.388   1.630   5.530  0.6853  0.4361  1.0980
 3645SOL    HW222572   1.430   1.769   5.585 -0.1574  0.8675  0.1066
 3646SOL     OW22573   3.702   0.746   2.363 -0.9490 -0.5502  0.3184
 3646SOL    HW122574   3.623   0.699   2.389 -1.5450  1.3531  1.9241
 3646SOL    HW222575   3.677   0.785   2.279  0.4970  2.5388  1.3361
 3647SOL     OW22576   3.049   0.714   7.045 -0.2486  0.3626 -0.0770
 3647SOL    HW122577   3.055   0.733   6.951  2.8236 -3.3911 -0.6699
 3647SOL    HW222578   3.008   0.798   7.061  1.0579  1.0019 -0.0660
 3648SOL     OW22579   4.446   1.592   6.897 -0.0297 -0.2219  0.0837
 3648SOL    HW122580   4.389   1.545   6.836  0.3229 -0.7867  0.1879
 3648SOL    HW222581   4.382   1.651   6.936 -1.8156  0.1772 -3.4846
 3649SOL     OW22582   3.695   2.875   4.229  0.3697 -0.2728 -0.3619
 3649SOL    HW122583   3.687   2.970   4.226 -2.4296 -0.4982  0.6115
 3649SOL    HW222584   3.754   2.861   4.155  0.3607 -0.4676 -0.3330
 3650SOL     OW22585   2.199   4.557   9.196 -0.1085  0.9051  0.4135
 3650SOL    HW122586   2.134   4.624   9.217 -0.5563  0.6722 -0.2418
 3650SOL    HW222587   2.266   4.618   9.163  0.0799  0.0087 -0.8355
 3651SOL     OW22588   4.419   4.036   8.125  0.0474 -0.4038 -0.2914
 3651SOL    HW122589   4.362   3.980   8.177  1.6058 -1.3413  0.4214
 3651SOL    HW222590   4.369   4.116   8.113  1.5868  0.6464  0.3184
 3652SOL     OW22591   0.445   3.129   8.348 -0.3403  0.1899 -0.0050
 3652SOL    HW122592   0.450   3.048   8.296  2.1437 -0.2596  0.9525
 3652SOL    HW222593   0.352   3.139   8.370 -0.4661 -0.7383 -0.1355
 3653SOL     OW22594   0.693   3.354  11.501  0.2346  0.4127  0.3977
 3653SOL    HW122595   0.731   3.352  11.589 -0.6340 -1.4511  0.7156
 3653SOL    HW222596   0.743   3.430  11.469 -1.2873  1.1832 -0.1442
 3654SOL     OW22597   2.402   0.785   5.208  0.1346  0.1988 -0.7841
 3654SOL    HW122598   2.443   0.869   5.227  1.9750 -0.7885 -0.3591
 3654SOL    HW222599   2.324   0.810   5.259  1.2234  0.4515  0.7496
 3655SOL     OW22600   3.996   2.795  13.209 -0.0097  0.0452 -0.0898
 3655SOL    HW122601   4.060   2.825  13.273  0.2060 -1.2983  0.3218
 3655SOL    HW222602   4.046   2.774  13.130 -0.6188  2.2283 -1.0594
 3656SOL     OW22603   1.261   0.024  11.597  0.3566  0.0798  0.2915
 3656SOL    HW122604   1.237   4.684  11.650  1.9694 -1.2794 -0.9150
 3656SOL    HW222605   1.335   0.059  11.645 -2.0580  2.5474  2.2044
 3657SOL     OW22606   3.057   1.730   7.436 -0.2922 -0.5705  0.4841
 3657SOL    HW122607   3.022   1.647   7.469 -0.6198 -0.1137  1.2855
 3657SOL    HW222608   3.001   1.799   7.471 -0.3845  0.2780 -1.2890
 3658SOL     OW22609   3.100   3.687   0.893  0.1183 -0.1610 -0.7793
 3658SOL    HW122610   3.028   3.625   0.879 -1.6357  1.2193  2.0278
 3658SOL    HW222611   3.064   3.769   0.927 -0.1988 -0.1598 -1.1224
 3659SOL     OW22612   2.427   0.937   9.766 -0.3499 -0.1153  0.8560
 3659SOL    HW122613   2.390   0.896   9.687 -2.4697  2.1502  0.6639
 3659SOL    HW222614   2.340   0.950   9.806 -1.6627 -1.9392 -1.4264
 3660SOL     OW22615   1.616   2.071   3.129 -0.4842 -0.2472  0.5146
 3660SOL    HW122616   1.684   2.073   3.062 -1.8291  0.8251 -0.8289
 3660SOL    HW222617   1.651   1.999   3.182 -0.3819  1.4183  2.7440
 3661SOL     OW22618   3.117   0.518   4.260 -0.0711  0.4038  0.2613
 3661SOL    HW122619   3.199   0.499   4.215 -0.4308 -1.2192  0.2939
 3661SOL    HW222620   3.137   0.511   4.354 -2.8181  1.4956  0.9263
 3662SOL     OW22621   4.146   0.984  15.831 -0.1389 -0.7171 -0.3083
 3662SOL    HW122622   4.133   0.921  15.761  0.2482 -0.1121 -0.9155
 3662SOL    HW222623   4.163   1.067  15.787 -0.0463  0.1258  1.3162
 3663SOL     OW22624   1.466   1.850   6.157  0.5935 -0.2420  0.0547
 3663SOL    HW122625   1.456   1.944   6.142  0.9850 -0.2311 -0.1366
 3663SOL    HW222626   1.444   1.821   6.069  0.3002  0.6627 -0.1699
 3664SOL     OW22627   0.498   4.178   6.064  0.1884 -0.1919  0.3950
 3664SOL    HW122628   0.511   4.260   6.015 -1.1930 -0.1636  0.0782
 3664SOL    HW222629   0.497   4.110   5.996 -0.3289  0.2275 -0.0275
 3665SOL     OW22630   3.178   4.606   8.831  0.0914  0.1786 -0.0159
 3665SOL    HW122631   3.268   4.587   8.859  0.9558 -0.6641 -3.2918
 3665SOL    HW222632   3.180   4.701   8.846 -1.2860 -0.2518  2.7520
 3666SOL     OW22633   0.036   3.694   9.363 -0.1954 -0.3307  0.0570
 3666SOL    HW122634   0.094   3.768   9.349 -0.0056 -0.8009 -1.5874
 3666SOL    HW222635   0.025   3.658   9.275 -1.1431 -0.8668  0.3981
 3667SOL     OW22636   3.189   1.080   5.942  0.0940 -0.7150  0.1517
 3667SOL    HW122637   3.205   1.159   5.994  0.9124  0.8711 -2.4982
 3667SOL    HW222638   3.138   1.124   5.874 -0.0560 -1.6232 -0.3241
 3668SOL     OW22639   1.087   0.017  14.955  0.4406 -0.2911 -0.4385
 3668SOL    HW122640   1.102   0.030  15.049 -3.1785 -0.8630  0.2021
 3668SOL    HW222641   1.116   4.662  14.950 -2.6212 -1.2310 -1.3527
 3669SOL     OW22642   4.499   1.637  12.658  0.7330  0.1956  0.2181
 3669SOL    HW122643   4.574   1.693  12.678 -0.1306  1.4646 -0.0785
 3669SOL    HW222644   4.451   1.607  12.734  2.2935 -1.3287  0.6087
 3670SOL     OW22645   1.784   0.392   7.618 -0.0817  0.5333 -0.1621
 3670SOL    HW122646   1.871   0.383   7.579  0.0850 -1.0207  0.5356
 3670SOL    HW222647   1.782   0.310   7.667  1.2679  1.6732  1.7912
 3671SOL     OW22648   0.550   3.313   1.291  0.6405 -0.2937  0.1889
 3671SOL    HW122649   0.644   3.331   1.297  0.4433  1.4647 -2.2317
 3671SOL    HW222650   0.531   3.373   1.219 -0.4591  0.1675  0.8628
 3672SOL     OW22651   4.237   2.300  10.875 -0.3266  0.1632  0.2088
 3672SOL    HW122652   4.313   2.279  10.929 -1.1818 -0.0778  1.3087
 3672SOL    HW222653   4.268   2.331  10.789  0.6606  0.5790  0.7186
 3673SOL     OW22654   2.503   1.855   9.031 -0.0801  0.1407 -0.2599
 3673SOL    HW122655   2.426   1.865   8.975  0.7335  0.4933 -1.3120
 3673SOL    HW222656   2.562   1.899   8.969  1.1565 -0.8910  0.1866
 3674SOL     OW22657   3.664   2.543   4.111  0.2259  0.1066  0.2615
 3674SOL    HW122658   3.598   2.604   4.079  1.2785  1.1857  0.1478
 3674SOL    HW222659   3.661   2.568   4.203  0.8861 -0.7821  0.5246
 3675SOL     OW22660   4.460   1.279   6.483 -0.4436 -0.1270 -0.5568
 3675SOL    HW122661   4.382   1.324   6.513 -0.7002 -0.7462 -0.3086
 3675SOL    HW222662   4.476   1.233   6.565  3.3443 -1.2591 -1.8958
 3676SOL     OW22663   4.663   3.417   0.928 -0.3366  0.2565  0.0517
 3676SOL    HW122664   4.660   3.453   0.839 -1.4582 -0.9140 -0.3714
 3676SOL    HW222665   0.018   3.446   0.939  0.1841 -0.6791 -1.7375
 3677SOL     OW22666   2.463   3.978  10.036 -0.4552 -0.6658 -0.1933
 3677SOL    HW122667   2.376   4.009  10.062 -0.3496  0.6436 -1.4307
 3677SOL    HW222668   2.476   3.912  10.104 -0.7142 -0.1388  0.3661
 3678SOL     OW22669   1.678   2.341  11.242  0.3628 -0.0440  0.2815
 3678SOL    HW122670   1.621   2.393  11.298  0.9469  0.2216  0.6299
 3678SOL    HW222671   1.749   2.403  11.224 -0.3183  0.5512 -0.3374
 3679SOL     OW22672   0.490   0.321   5.758 -0.2913  0.3474  0.0541
 3679SOL    HW122673   0.580   0.346   5.737  0.0854  0.8120  2.3238
 3679SOL    HW222674   0.435   0.397   5.775 -0.3311  0.2123  0.5109
 3680SOL     OW22675   3.653   1.053   4.594 -0.0942  0.0954 -0.6094
 3680SOL    HW122676   3.581   0.994   4.617  1.1506 -0.9667  0.5629
 3680SOL    HW222677   3.617   1.122   4.540 -1.7339  0.8539  1.4549
 3681SOL     OW22678   3.807   2.978  16.548  0.7296 -0.2714 -0.4925
 3681SOL    HW122679   3.734   3.010  16.602 -0.5144 -1.4535 -1.5006
 3681SOL    HW222680   3.867   2.941  16.613 -0.8090 -2.9517 -0.6027
 3682SOL     OW22681   1.926   2.184   1.913  0.5080 -0.1402 -0.6690
 3682SOL    HW122682   1.990   2.222   1.973  1.3718  1.3235 -2.5130
 3682SOL    HW222683   1.942   2.089   1.911  0.0884 -0.2183 -0.2847
 3683SOL     OW22684   3.802   1.761  14.714  0.3150  0.3982 -0.4142
 3683SOL    HW122685   3.887   1.718  14.698  0.9496  0.9114  1.6237
 3683SOL    HW222686   3.829   1.819  14.784 -0.3610 -0.4489  0.5409
 3684SOL     OW22687   3.542   1.302   3.171 -0.8522  0.4097 -0.7277
 3684SOL    HW122688   3.559   1.382   3.122 -1.4318  1.2268  0.4122
 3684SOL    HW222689   3.509   1.342   3.251 -1.7489 -0.5884 -0.5831
 3685SOL     OW22690   2.896   2.849   0.233  0.2595 -0.0940 -0.3399
 3685SOL    HW122691   2.983   2.882   0.210 -0.1451  1.3063  0.1084
 3685SOL    HW222692   2.897   2.768   0.183 -0.7416 -0.9401  1.0285
 3686SOL     OW22693   1.509   2.731  10.541  1.0387 -0.1211 -0.1863
 3686SOL    HW122694   1.601   2.754  10.552  1.1059 -0.2513 -0.4757
 3686SOL    HW222695   1.477   2.816  10.572  2.3869 -0.0014  0.8819
 3687SOL     OW22696   1.375   3.453   6.915 -0.0887 -0.3355  0.5504
 3687SOL    HW122697   1.356   3.408   6.833 -0.4029  1.2384 -0.2388
 3687SOL    HW222698   1.427   3.526   6.881  0.5477 -1.1040 -0.1196
 3688SOL     OW22699   4.118   2.512   7.426  0.8064 -0.4878  0.2906
 3688SOL    HW122700   4.051   2.445   7.435  1.2357 -0.7892  1.1769
 3688SOL    HW222701   4.144   2.479   7.340  0.3866 -0.2724  0.0780
 3689SOL     OW22702   0.304   2.747  10.915 -0.3196  0.1124 -0.2728
 3689SOL    HW122703   0.220   2.769  10.875  0.5162 -1.6208 -3.0045
 3689SOL    HW222704   0.368   2.813  10.889  1.4049 -1.4469 -0.0717
 3690SOL     OW22705   1.718   2.952  17.500 -0.1094 -0.5111  0.2344
 3690SOL    HW122706   1.641   3.009  17.500 -0.1508 -0.5702 -0.6261
 3690SOL    HW222707   1.692   2.881  17.441  1.8099  0.6175 -1.9785
 3691SOL     OW22708   0.385   0.156   2.913 -0.0633 -0.3124  0.1060
 3691SOL    HW122709   0.425   0.241   2.931  0.4498 -0.2517 -1.2593
 3691SOL    HW222710   0.434   0.097   2.969 -0.4440  0.3811  1.1651
 3692SOL     OW22711   2.497   3.047   2.290 -0.1639 -0.7204 -0.5201
 3692SOL    HW122712   2.553   2.994   2.234  0.1445 -0.8159 -0.1270
 3692SOL    HW222713   2.425   3.058   2.229  0.7939 -1.7489 -1.8215
 3693SOL     OW22714   3.868   0.450   8.550  0.1027  0.2137 -0.3224
 3693SOL    HW122715   3.799   0.452   8.483 -0.7200  0.7706  0.5393
 3693SOL    HW222716   3.908   0.535   8.529  1.8640 -0.3786  0.6817
 3694SOL     OW22717   3.314   1.525   6.967 -0.7167 -0.7414 -0.7230
 3694SOL    HW122718   3.386   1.496   6.912  1.4901  0.0972  1.7478
 3694SOL    HW222719   3.340   1.612   6.996 -1.7473 -1.1371  1.3793
 3695SOL     OW22720   3.913   4.169   3.682 -0.3747  0.5179 -0.6304
 3695SOL    HW122721   3.903   4.252   3.729 -0.1790  0.4447 -0.4581
 3695SOL    HW222722   3.962   4.202   3.606 -1.2125 -0.6322 -1.6523
 3696SOL     OW22723   1.741   2.052   6.112  0.0083  0.5343 -0.6513
 3696SOL    HW122724   1.835   2.071   6.114  0.2444 -0.9529  2.2846
 3696SOL    HW222725   1.724   2.002   6.192  4.1186 -0.6115 -0.5100
 3697SOL     OW22726   3.173   0.459   6.723 -0.0144 -0.4387  0.1996
 3697SOL    HW122727   3.206   0.540   6.762 -0.2801 -0.2019 -0.0617
 3697SOL    HW222728   3.231   0.465   6.648  0.1504  0.4230  0.3970
 3698SOL     OW22729   1.245   3.239   3.007  0.1643  0.0087 -0.7720
 3698SOL    HW122730   1.284   3.152   3.003 -1.3558 -0.6804 -0.6996
 3698SOL    HW222731   1.288   3.279   2.932  1.1506 -1.0618 -0.7828
 3699SOL     OW22732   3.406   3.663  11.489 -0.1379 -0.3166 -0.4175
 3699SOL    HW122733   3.463   3.619  11.427  0.8042  1.8866 -1.0922
 3699SOL    HW222734   3.457   3.651  11.569  0.7775  1.9941 -0.6634
 3700SOL     OW22735   2.194   1.171   6.454  0.1637  0.1036 -0.1444
 3700SOL    HW122736   2.173   1.079   6.441  1.4535 -0.4076  1.4340
 3700SOL    HW222737   2.115   1.213   6.489 -0.7070  0.4617 -2.5684
 3701SOL     OW22738   4.625   2.181   1.846  0.3274  0.1352  0.5169
 3701SOL    HW122739   4.559   2.143   1.904  0.4788  0.5074  0.9357
 3701SOL    HW222740   4.620   2.271   1.876 -1.6301  0.3341 -0.4652
 3702SOL     OW22741   1.538   3.777   2.796 -0.8061 -0.1924  0.0395
 3702SOL    HW122742   1.451   3.742   2.816 -0.7709 -0.7166 -0.6957
 3702SOL    HW222743   1.578   3.796   2.880 -1.8400 -0.1894  0.5271
 3703SOL     OW22744   3.954   2.652   3.527  0.4261 -0.2378  0.1067
 3703SOL    HW122745   3.931   2.570   3.482  0.8192  0.4719 -1.3697
 3703SOL    HW222746   3.878   2.661   3.585  1.1314 -1.5698  1.2126
 3704SOL     OW22747   3.818   4.491   8.269  0.2179 -0.3654  0.0014
 3704SOL    HW122748   3.767   4.466   8.346 -1.6590  1.4559 -0.6473
 3704SOL    HW222749   3.796   4.584   8.274 -0.3907 -0.4258 -1.3572
 3705SOL     OW22750   0.158   3.192  15.802 -0.0364 -0.1727  0.0278
 3705SOL    HW122751   0.207   3.172  15.882 -0.2349  3.6179  1.0851
 3705SOL    HW222752   0.131   3.279  15.833 -1.4446  0.3419 -2.6860
 3706SOL     OW22753   1.662   2.758  15.660 -0.3508 -0.2046  0.9762
 3706SOL    HW122754   1.672   2.688  15.595 -1.7637  1.1331 -0.6820
 3706SOL    HW222755   1.655   2.835  15.604  1.7661 -0.6079  0.1474
 3707SOL     OW22756   1.079   1.705   7.915 -0.1736 -0.3901 -0.4849
 3707SOL    HW122757   1.003   1.648   7.927 -0.4507 -0.0406 -0.5699
 3707SOL    HW222758   1.041   1.779   7.867 -0.0220 -0.1163 -0.1810
 3708SOL     OW22759   4.185   3.425   9.116  0.1866  0.1696  0.2406
 3708SOL    HW122760   4.239   3.501   9.139 -0.2087  0.4200  0.3516
 3708SOL    HW222761   4.255   3.360   9.110 -1.4991 -1.5164 -1.2336
 3709SOL     OW22762   3.715   1.136   4.305 -0.4954 -0.3806  1.0925
 3709SOL    HW122763   3.783   1.072   4.281 -0.7898 -0.0910 -0.5556
 3709SOL    HW222764   3.759   1.212   4.343 -0.9176  0.2337  0.3450
 3710SOL     OW22765   1.768   4.016   5.468 -0.1468  0.4195 -0.3815
 3710SOL    HW122766   1.699   4.012   5.402  1.2121  0.4732 -1.8113
 3710SOL    HW222767   1.801   3.927   5.474 -1.4660 -0.2295 -2.7504
 3711SOL     OW22768   0.741   0.114   0.214 -0.1901 -0.2303  0.8945
 3711SOL    HW122769   0.694   0.197   0.224 -0.0294 -0.2102  1.5069
 3711SOL    HW222770   0.803   0.145   0.148 -2.4172  2.0559 -0.1555
 3712SOL     OW22771   2.485   3.303  17.239 -0.4147  0.5782  0.0332
 3712SOL    HW122772   2.577   3.314  17.214  0.3462 -0.5895  2.3232
 3712SOL    HW222773   2.465   3.396  17.249  1.0367  0.5261  3.6338
 3713SOL     OW22774   2.472   1.117   7.830 -0.1987  0.7935  0.1687
 3713SOL    HW122775   2.408   1.088   7.895 -3.3923  1.3289 -2.7201
 3713SOL    HW222776   2.543   1.052   7.827 -0.3859  0.6108 -0.4508
 3714SOL     OW22777   4.016   4.515   6.595  0.2090 -0.2608 -0.1362
 3714SOL    HW122778   4.011   4.476   6.508  0.4637  1.6466 -1.0055
 3714SOL    HW222779   3.970   4.447   6.644 -2.9184  3.1479  1.6430
 3715SOL     OW22780   4.623   4.584   9.793  0.7074  0.4799  0.3739
 3715SOL    HW122781   4.581   4.605   9.876 -3.7202  2.5167 -2.3796
 3715SOL    HW222782   4.647   4.491   9.802 -0.2885  0.4441  2.5143
 3716SOL     OW22783   0.845   2.422   8.748  0.3292  0.2281 -0.4219
 3716SOL    HW122784   0.927   2.437   8.796  1.0778  0.8332 -1.8972
 3716SOL    HW222785   0.784   2.474   8.800  0.6774  0.5765 -0.3584
 3717SOL     OW22786   2.567   1.614   9.158 -0.8500 -0.5359  0.1914
 3717SOL    HW122787   2.574   1.691   9.101  1.7810 -0.8108  0.1686
 3717SOL    HW222788   2.481   1.578   9.136 -0.6131 -0.7251 -0.4246
 3718SOL     OW22789   2.975   4.701   5.849  0.4177  0.2874  0.1383
 3718SOL    HW122790   3.006   4.728   5.762 -1.1967  0.8725 -0.2534
 3718SOL    HW222791   2.957   4.607   5.843 -0.0085  0.2520  1.9568
 3719SOL     OW22792   1.985   3.348   5.851  0.5571  0.2300 -0.0982
 3719SOL    HW122793   1.972   3.298   5.931  0.0225 -0.4133 -0.5886
 3719SOL    HW222794   2.023   3.429   5.884 -0.1540  0.2008  0.8028
 3720SOL     OW22795   2.312   3.100   3.470 -0.2683  0.2568 -0.1918
 3720SOL    HW122796   2.332   3.050   3.549 -3.9147  0.9273  1.1384
 3720SOL    HW222797   2.386   3.160   3.476 -0.1262 -0.0872  1.4011
 3721SOL     OW22798   0.105   2.558   3.530 -0.0758 -0.3167 -0.1363
 3721SOL    HW122799   0.161   2.536   3.456  1.6308  0.5016  0.9179
 3721SOL    HW222800   0.023   2.526   3.492 -1.2377  2.2654  0.1320
 3722SOL     OW22801   3.052   4.698   6.974 -0.1268  0.1781 -0.0282
 3722SOL    HW122802   3.136   0.008   6.966 -0.2299  0.7105  2.0868
 3722SOL    HW222803   3.005   0.008   7.043  0.6651  2.6240 -1.1088
 3723SOL     OW22804   2.834   0.472   7.495  0.2855  0.0673 -0.4762
 3723SOL    HW122805   2.902   0.446   7.558 -2.1727 -0.0250  2.1312
 3723SOL    HW222806   2.758   0.462   7.551  1.4839  0.4312  1.2273
 3724SOL     OW22807   4.681   1.028   5.625 -0.1320  0.3342 -0.9356
 3724SOL    HW122808   4.592   1.024   5.589 -1.1671  0.1134  1.6739
 3724SOL    HW222809   4.660   1.084   5.700  1.1445 -0.6749  0.1745
 3725SOL     OW22810   2.061   2.313  14.405  0.0151 -1.1920  0.1895
 3725SOL    HW122811   2.007   2.350  14.335 -0.1087  3.1301  2.5797
 3725SOL    HW222812   2.028   2.356  14.484  0.3144 -0.2841 -0.1761
 3726SOL     OW22813   2.695   1.373   3.294 -0.8773  0.1421 -0.0074
 3726SOL    HW122814   2.734   1.288   3.315 -0.5284  1.2125  3.6173
 3726SOL    HW222815   2.659   1.357   3.207  0.2444 -0.1208 -0.4153
 3727SOL     OW22816   2.602   2.316   8.960  0.0235 -0.6437 -1.0654
 3727SOL    HW122817   2.529   2.286   8.906  0.0061 -0.3263 -1.2133
 3727SOL    HW222818   2.554   2.393   8.988 -0.2614 -0.4332 -2.1439
 3728SOL     OW22819   4.484   4.719  14.034  0.6859 -0.3997 -0.4501
 3728SOL    HW122820   4.498   4.722  13.939  0.8140 -2.0902 -0.4876
 3728SOL    HW222821   4.546   0.044  14.074  0.1112  0.1875 -0.4468
 3729SOL     OW22822   2.994   3.031   4.228 -0.6072  0.2208  0.8961
 3729SOL    HW122823   3.069   2.982   4.194 -1.3937  1.0236 -2.0175
 3729SOL    HW222824   3.034   3.099   4.282  0.9166 -1.8615  2.4048
 3730SOL     OW22825   3.473   1.727   5.297 -0.0806 -0.0585  0.1534
 3730SOL    HW122826   3.383   1.750   5.273  0.1805  0.9719  0.1835
 3730SOL    HW222827   3.514   1.703   5.214 -0.5869  0.6951 -0.3155
 3731SOL     OW22828   1.165   4.634   5.645  0.2976  0.6185 -0.3475
 3731SOL    HW122829   1.077   4.630   5.683  0.4965 -1.3701 -0.0882
 3731SOL    HW222830   1.153   4.680   5.562 -2.0324 -2.4845 -1.7112
 3732SOL     OW22831   2.358   0.918   7.127 -0.1830  0.4747 -0.0269
 3732SOL    HW122832   2.367   1.012   7.110  2.1833  0.3112  0.3939
 3732SOL    HW222833   2.393   0.908   7.215 -1.0661  0.1384  0.2960
 3733SOL     OW22834   4.150   2.365   8.208  0.7640  0.0428  0.2819
 3733SOL    HW122835   4.126   2.432   8.272 -1.5436  1.5312 -2.1942
 3733SOL    HW222836   4.087   2.296   8.228 -0.6873  1.0622 -0.8341
 3734SOL     OW22837   1.512   2.274   8.305  0.6178 -0.1897 -0.2463
 3734SOL    HW122838   1.550   2.186   8.296 -0.9196 -0.8105 -0.7102
 3734SOL    HW222839   1.574   2.300   8.373  0.6642 -2.4022  0.5763
 3735SOL     OW22840   3.127   4.566   4.350 -0.3423  0.2122 -0.5919
 3735SOL    HW122841   3.100   4.572   4.442  2.1818 -0.7655  0.1979
 3735SOL    HW222842   3.049   4.517   4.322 -0.5205  1.5780 -2.5364
 3736SOL     OW22843   2.482   1.849  13.013 -0.1491 -0.1001  0.0706
 3736SOL    HW122844   2.576   1.868  13.018 -0.6427  3.0422 -2.8253
 3736SOL    HW222845   2.439   1.934  13.020  1.0767  0.4492  0.9516
 3737SOL     OW22846   2.348   2.966   8.282 -0.3702 -0.0099 -0.2260
 3737SOL    HW122847   2.395   2.906   8.224  2.5103 -0.3673  2.4752
 3737SOL    HW222848   2.269   2.916   8.302 -0.0056  0.4445  2.3087
 3738SOL     OW22849   4.574   1.376  10.612 -0.3937 -0.4061 -0.1720
 3738SOL    HW122850   4.522   1.388  10.532 -2.0749  3.2584  1.4645
 3738SOL    HW222851   4.559   1.282  10.627  0.6435 -0.2256  1.8958
 3739SOL     OW22852   3.828   0.030  15.294  0.0892  0.1111  0.5857
 3739SOL    HW122853   3.833   0.087  15.371  0.6851  0.2210  0.4653
 3739SOL    HW222854   3.919   0.009  15.271 -0.4214 -0.7403 -0.6255
 3740SOL     OW22855   1.443   4.478   4.969  0.1111  0.5010 -0.2536
 3740SOL    HW122856   1.476   4.442   4.887 -0.6238  0.4860 -0.5472
 3740SOL    HW222857   1.450   4.396   5.018 -3.7122  1.3902  1.7921
 3741SOL     OW22858   2.204   1.695   5.060 -0.2036 -0.1970  0.1755
 3741SOL    HW122859   2.184   1.606   5.090  2.3345 -0.6316  0.5663
 3741SOL    HW222860   2.237   1.676   4.972 -2.5659 -1.2867 -0.4594
 3742SOL     OW22861   4.232   3.437   5.719  0.5610 -0.4672 -0.2868
 3742SOL    HW122862   4.176   3.456   5.795  0.8118 -2.1649  0.3114
 3742SOL    HW222863   4.317   3.449   5.762 -0.0285  1.1871  0.4505
 3743SOL     OW22864   2.108   4.718  15.494 -0.0816 -0.1291 -0.2917
 3743SOL    HW122865   2.147   0.067  15.515 -2.3980  1.2769 -1.7149
 3743SOL    HW222866   2.101   4.684  15.583  2.1164 -0.1084 -0.1217
 3744SOL     OW22867   1.020   1.561   3.926 -0.6610 -0.1864  0.6726
 3744SOL    HW122868   1.093   1.606   3.969 -0.2304  0.3691 -0.6509
 3744SOL    HW222869   1.017   1.603   3.840  0.5254 -0.0335  0.6988
 3745SOL     OW22870   4.567   2.466   2.748 -0.1276  0.1750 -0.4914
 3745SOL    HW122871   4.480   2.486   2.782 -0.7029 -0.9416 -1.3293
 3745SOL    HW222872   4.557   2.371   2.754 -3.7832  0.6382  0.2489
 3746SOL     OW22873   3.317   3.248   8.862 -0.1989 -0.4300 -0.4865
 3746SOL    HW122874   3.227   3.265   8.835  0.6746  1.9704 -1.9039
 3746SOL    HW222875   3.307   3.272   8.954 -0.2818  0.7288 -0.8003
 3747SOL     OW22876   3.616   1.917   9.978  0.3912  0.2803 -0.8900
 3747SOL    HW122877   3.541   1.915   9.919 -0.4241  0.0307  0.1660
 3747SOL    HW222878   3.673   1.967   9.919  1.0650 -1.2888 -1.5632
 3748SOL     OW22879   0.611   0.290  13.128 -0.1230 -0.3209 -0.1044
 3748SOL    HW122880   0.550   0.361  13.149 -0.2184 -0.1928 -0.8127
 3748SOL    HW222881   0.561   0.245  13.060 -1.4233  1.9669 -0.6665
 3749SOL     OW22882   0.570   1.935   8.354 -0.3672 -0.3982  0.2942
 3749SOL    HW122883   0.509   1.894   8.292 -2.2599 -0.3041  2.0768
 3749SOL    HW222884   0.546   2.026   8.335 -1.3745 -0.8382 -0.6025
 3750SOL     OW22885   0.188   1.365   9.094  0.5549 -0.0541 -0.0611
 3750SOL    HW122886   0.118   1.302   9.077  0.1896  0.4356 -0.4201
 3750SOL    HW222887   0.159   1.443   9.046  2.3992 -0.4235 -1.7553
 3751SOL     OW22888   4.366   3.693  10.915 -0.1216 -0.3805 -0.1461
 3751SOL    HW122889   4.331   3.722  10.999 -0.4679 -2.6947  0.4925
 3751SOL    HW222890   4.377   3.777  10.870 -0.2872  0.3178  1.1311
 3752SOL     OW22891   2.745   3.471   0.087  0.8396 -0.0067  0.4409
 3752SOL    HW122892   2.794   3.478   0.169 -2.6747 -1.7417  2.7003
 3752SOL    HW222893   2.794   3.539   0.040  0.6307  0.3164  0.6840
 3753SOL     OW22894   3.526   1.540   4.557  1.0341  0.1604  0.1144
 3753SOL    HW122895   3.433   1.538   4.580  1.2608  4.0553  1.3503
 3753SOL    HW222896   3.518   1.598   4.481 -0.2793 -1.8287 -1.2783
 3754SOL     OW22897   0.654   0.781   6.863 -0.0334 -0.2915 -0.4266
 3754SOL    HW122898   0.684   0.690   6.865 -2.2227 -1.0295 -0.3113
 3754SOL    HW222899   0.671   0.808   6.773 -0.7370  1.1756 -0.1159
 3755SOL     OW22900   1.239   3.160   7.533  0.1205  0.4972 -0.2155
 3755SOL    HW122901   1.160   3.208   7.557  1.0091  2.1883 -0.6589
 3755SOL    HW222902   1.213   3.082   7.486  0.6308  0.6020 -0.6739
 3756SOL     OW22903   4.567   2.032   4.952 -0.3207 -0.6773 -0.2431
 3756SOL    HW122904   4.617   2.079   5.019  0.5465 -3.6655  1.2025
 3756SOL    HW222905   4.628   2.025   4.878  0.6208  2.0358  0.2852
 3757SOL     OW22906   2.161   3.759  16.370 -0.0036 -0.4436 -0.1181
 3757SOL    HW122907   2.106   3.817  16.422 -0.6078  0.4820 -1.7788
 3757SOL    HW222908   2.171   3.685  16.430 -2.9910  0.8929  2.0040
 3758SOL     OW22909   1.994   3.710   4.347 -0.4122  0.6447 -0.3094
 3758SOL    HW122910   2.054   3.669   4.284 -0.8829  0.5378 -0.6963
 3758SOL    HW222911   1.973   3.623   4.382  1.8225 -0.9023 -2.8056
 3759SOL     OW22912   0.861   4.350  12.246  0.3154 -0.2502  0.0961
 3759SOL    HW122913   0.832   4.441  12.238 -0.5445 -0.4497  0.9025
 3759SOL    HW222914   0.801   4.304  12.306 -1.6596 -0.1331 -1.8041
 3760SOL     OW22915   3.975   4.680   4.153 -0.8242  0.3394  0.3062
 3760SOL    HW122916   4.062   4.689   4.112 -1.3782  0.4057 -0.8617
 3760SOL    HW222917   3.985   4.601   4.206 -2.4180 -1.8457 -2.6286
 3761SOL     OW22918   3.023   2.417   5.160 -0.6514 -0.1555 -0.8183
 3761SOL    HW122919   3.076   2.403   5.081  1.5380 -0.3712  0.6687
 3761SOL    HW222920   3.088   2.408   5.230 -0.3832 -0.6858 -1.1304
 3762SOL     OW22921   3.258   0.435  13.196  0.3272  0.4865 -0.0573
 3762SOL    HW122922   3.319   0.454  13.125  2.1513  1.4120  1.7259
 3762SOL    HW222923   3.304   0.375  13.256 -0.3557 -1.6489 -1.7023
 3763SOL     OW22924   3.110   3.414  17.077 -0.0449  0.1908 -0.4092
 3763SOL    HW122925   3.154   3.343  17.030  0.5661  2.2894 -2.9971
 3763SOL    HW222926   3.122   3.479  17.008  0.4069 -1.3848 -1.8034
 3764SOL     OW22927   1.252   3.434  17.266 -0.0021 -0.7118 -0.6451
 3764SOL    HW122928   1.201   3.504  17.307  1.8050  0.7025 -0.8273
 3764SOL    HW222929   1.186   3.387  17.215 -3.2236 -0.0658  2.9961
 3765SOL     OW22930   2.420   3.723   5.352 -0.3164 -0.4994  0.3141
 3765SOL    HW122931   2.380   3.793   5.404  1.3199  1.5595 -1.2484
 3765SOL    HW222932   2.452   3.666   5.422  1.8865 -0.7080 -0.8565
 3766SOL     OW22933   2.944   1.503  17.701 -0.2247  0.1082 -0.2175
 3766SOL    HW122934   2.921   1.414  17.674  1.3444 -0.8319  1.5641
 3766SOL    HW222935   2.873   1.554  17.663  0.2159  0.4796 -0.5395
 3767SOL     OW22936   2.461   1.034  15.784 -0.0630 -0.7491  0.7865
 3767SOL    HW122937   2.409   0.957  15.764  0.2941 -0.4521 -1.2913
 3767SOL    HW222938   2.425   1.087  15.713  1.8757 -0.2166  0.1973
 3768SOL     OW22939   2.752   3.755   5.676  0.1252  0.9401 -0.5079
 3768SOL    HW122940   2.822   3.766   5.740  2.0206 -1.3420 -2.1827
 3768SOL    HW222941   2.805   3.705   5.613  1.5787  2.8546 -0.7879
 3769SOL     OW22942   3.178   1.070  13.947  0.3670  0.3403  0.4889
 3769SOL    HW122943   3.193   1.011  14.021 -0.3568 -1.3854 -0.7670
 3769SOL    HW222944   3.083   1.062  13.937 -0.0615  0.3471  4.2078
 3770SOL     OW22945   2.555   4.001   1.451  0.8263  0.6469  0.6481
 3770SOL    HW122946   2.496   4.073   1.433 -1.1155 -0.5950  2.1341
 3770SOL    HW222947   2.636   4.032   1.411 -0.3717  1.2058 -1.3092
 3771SOL     OW22948   2.043   0.856   4.250 -0.3659  1.0310 -0.3745
 3771SOL    HW122949   2.066   0.841   4.158  0.7024 -1.5239  0.2922
 3771SOL    HW222950   1.992   0.776   4.264 -0.3424  1.5892  2.8223
 3772SOL     OW22951   2.938   1.272   7.019 -0.6365  0.9448 -0.7553
 3772SOL    HW122952   2.953   1.366   7.032 -1.6190  1.1873 -1.3148
 3772SOL    HW222953   3.001   1.261   6.948  1.2400 -0.0252  1.0591
 3773SOL     OW22954   1.069   2.070  12.504 -0.2168 -0.3240  0.1971
 3773SOL    HW122955   1.051   2.089  12.596  1.3111 -0.2391  0.4816
 3773SOL    HW222956   1.137   2.002  12.507 -1.9103 -2.1257 -2.2145
 3774SOL     OW22957   0.580   3.895  17.693  0.9261  0.2614 -0.3138
 3774SOL    HW122958   0.641   3.932   0.015 -0.5858  1.1333  0.6339
 3774SOL    HW222959   0.611   3.805  17.679  0.5148 -0.3361  2.5472
 3775SOL     OW22960   1.449   0.765   7.332 -0.2386 -0.4754 -0.4694
 3775SOL    HW122961   1.356   0.785   7.344  0.1717  0.9450  0.4058
 3775SOL    HW222962   1.460   0.736   7.422 -0.5036 -0.4935 -0.4417
 3776SOL     OW22963   0.603   2.905  16.175 -0.0914  0.0275  0.1930
 3776SOL    HW122964   0.592   2.813  16.151  1.0416 -0.3387  1.0999
 3776SOL    HW222965   0.688   2.919  16.135 -0.8816  1.3910 -1.0142
 3777SOL     OW22966   3.159   2.566   5.653 -0.0247 -0.1696  0.0656
 3777SOL    HW122967   3.227   2.499   5.655  0.5811  0.4179 -0.7029
 3777SOL    HW222968   3.211   2.643   5.674  1.7974 -1.1260 -0.9420
 3778SOL     OW22969   2.134   1.090   4.588  0.2817 -0.5910  0.1765
 3778SOL    HW122970   2.043   1.074   4.562  0.1312 -1.1308  1.0376
 3778SOL    HW222971   2.174   1.033   4.521  1.6435  1.4422 -0.7451
 3779SOL     OW22972   2.088   0.904  16.526 -0.9389 -0.2526  0.3746
 3779SOL    HW122973   2.018   0.875  16.584  0.4289  0.8870  2.5715
 3779SOL    HW222974   2.158   0.855  16.570 -0.0237  0.2245 -0.5632
 3780SOL     OW22975   4.640   1.003   3.646 -0.3151  0.1355  0.4565
 3780SOL    HW122976   4.695   0.948   3.590 -1.9707 -1.0199 -0.0337
 3780SOL    HW222977   4.691   1.003   3.728 -1.6035 -1.3242  1.2651
 3781SOL     OW22978   1.691   2.571   6.114  0.2870  0.1895 -0.4161
 3781SOL    HW122979   1.668   2.592   6.205  0.3782 -0.7426 -0.1844
 3781SOL    HW222980   1.775   2.527   6.125  0.2051 -0.0631 -0.8124
 3782SOL     OW22981   4.092   2.484   0.620 -0.1408  0.0773  0.1066
 3782SOL    HW122982   4.047   2.490   0.705  1.3416  0.3918  0.8654
 3782SOL    HW222983   4.071   2.568   0.580 -2.1348 -0.8479 -0.8032
 3783SOL     OW22984   0.471   4.026   3.091  0.2153 -0.1494  0.2413
 3783SOL    HW122985   0.410   3.968   3.045  1.5942 -0.8229 -0.7353
 3783SOL    HW222986   0.411   4.080   3.142  0.6105  0.8126 -0.3250
 3784SOL     OW22987   1.175   3.350   9.436 -1.0766  0.3868 -0.3221
 3784SOL    HW122988   1.176   3.267   9.388 -1.7853  1.2439 -1.8363
 3784SOL    HW222989   1.230   3.405   9.380 -1.3055 -0.8720 -1.8049
 3785SOL     OW22990   0.657   0.065   4.957  0.7711  0.6122 -0.2921
 3785SOL    HW122991   0.743   0.094   4.987 -0.0565  3.4570 -0.6786
 3785SOL    HW222992   0.604   0.132   5.001 -0.4407 -0.3664 -0.2757
 3786SOL     OW22993   0.928   1.786  15.951 -0.1668 -0.3574 -0.0839
 3786SOL    HW122994   0.897   1.750  15.868 -0.7384  0.3127 -0.1614
 3786SOL    HW222995   0.841   1.808  15.984 -1.0173 -3.6261 -0.1043
 3787SOL     OW22996   0.088   1.452   9.980  0.1619 -0.2066 -0.3547
 3787SOL    HW122997   4.733   1.427   9.960  0.1015  0.6756 -1.1734
 3787SOL    HW222998   0.129   1.440   9.895  1.3185 -1.0205  0.3163
 3788SOL     OW22999   0.321   2.973   7.748  0.3533  0.6384  0.3102
 3788SOL    HW123000   0.341   2.879   7.752  2.5389  1.0946  0.1998
 3788SOL    HW223001   0.374   2.989   7.826  0.8227 -0.7909  0.2938
 3789SOL     OW23002   1.626   3.724   4.967 -0.8262 -0.2183 -0.1230
 3789SOL    HW123003   1.703   3.695   4.919 -2.1814  1.0396 -3.0770
 3789SOL    HW223004   1.652   3.715   5.058 -0.3215  0.0073 -0.2472
 3790SOL     OW23005   3.322   4.516   9.153 -0.3117 -0.6004 -0.0705
 3790SOL    HW123006   3.389   4.502   9.086 -0.3461  3.0809 -0.8533
 3790SOL    HW223007   3.261   4.578   9.114  0.4108 -0.0863 -0.3662
 3791SOL     OW23008   1.838   1.516   7.203  0.2659  0.2214 -0.0057
 3791SOL    HW123009   1.900   1.508   7.275 -0.2321 -2.4248  0.1246
 3791SOL    HW223010   1.850   1.609   7.181 -0.2186  0.3435  0.2455
 3792SOL     OW23011   4.429   0.470   6.835 -0.7734  0.1293  0.6150
 3792SOL    HW123012   4.393   0.557   6.820 -0.0928  0.4347  0.7599
 3792SOL    HW223013   4.403   0.420   6.757  0.0691 -0.0897  0.4771
 3793SOL     OW23014   4.084   3.002   0.059  0.2906 -0.2349 -0.3821
 3793SOL    HW123015   4.137   2.922   0.052  0.5486  0.1276 -2.7000
 3793SOL    HW223016   4.014   2.982   0.121  0.4969 -0.6859 -0.2940
 3794SOL     OW23017   1.552   2.557   5.673  0.4953  0.0476 -0.0824
 3794SOL    HW123018   1.596   2.596   5.748  1.6976 -0.1037 -0.7083
 3794SOL    HW223019   1.550   2.635   5.618 -2.2483 -2.1851 -3.1407
 3795SOL     OW23020   4.692   3.496   4.680  0.9546  0.2728 -0.4006
 3795SOL    HW123021   4.603   3.479   4.710  0.9101  0.6852 -0.2947
 3795SOL    HW223022   4.669   3.556   4.610  0.2346 -0.2113 -0.5842
 3796SOL     OW23023   0.977   1.952   8.821  0.4266  0.1328  0.0518
 3796SOL    HW123024   0.987   1.890   8.893  0.9270  4.8359  4.0467
 3796SOL    HW223025   0.899   2.005   8.839 -0.9671 -1.3151 -1.6956
 3797SOL     OW23026   2.920   3.107   4.831 -0.0040  0.1196  0.5710
 3797SOL    HW123027   2.945   3.043   4.898 -0.2782 -0.0424  0.5180
 3797SOL    HW223028   2.828   3.129   4.847 -0.1450  0.2856 -0.4912
 3798SOL     OW23029   1.123   4.708   8.281 -0.2151 -0.1036  0.0338
 3798SOL    HW123030   1.207   4.675   8.249 -0.5112 -0.1864 -0.6617
 3798SOL    HW223031   1.066   4.632   8.272 -0.1870 -0.0478 -0.6157
 3799SOL     OW23032   3.271   3.229  14.570 -0.3972  0.5223  0.1931
 3799SOL    HW123033   3.326   3.302  14.541  0.8400  0.0967  1.4631
 3799SOL    HW223034   3.186   3.246  14.529 -0.0531  1.8993  0.0402
 3800SOL     OW23035   2.581   0.277  14.023  0.3326 -0.1265 -0.1508
 3800SOL    HW123036   2.552   0.235  13.942  3.4045  0.4838 -1.5637
 3800SOL    HW223037   2.605   0.365  13.994  0.1194  0.2050  0.6627
 3801SOL     OW23038   0.618   4.096   0.639 -0.2651 -0.2510 -0.3637
 3801SOL    HW123039   0.698   4.100   0.586  0.0737 -1.3567  0.0583
 3801SOL    HW223040   0.662   4.088   0.723  0.8639  1.2985 -0.8112
 3802SOL     OW23041   0.445   1.873   0.244  0.1315 -0.5490  0.0612
 3802SOL    HW123042   0.420   1.892   0.334 -0.0891 -4.7735  0.8938
 3802SOL    HW223043   0.377   1.810   0.219 -0.6419  0.9727 -1.7591
 3803SOL     OW23044   1.738   0.865  11.375 -0.4393 -0.0008 -1.0839
 3803SOL    HW123045   1.781   0.799  11.320 -0.0787  0.4052 -1.2923
 3803SOL    HW223046   1.764   0.941  11.323  1.2628 -0.2954 -0.6623
 3804SOL     OW23047   2.113   1.057   4.894  0.1415 -0.4367 -0.5090
 3804SOL    HW123048   2.140   0.967   4.908 -1.2322 -1.0983 -2.0509
 3804SOL    HW223049   2.107   1.053   4.798  1.6249  2.7250 -0.7380
 3805SOL     OW23050   1.225   3.618   5.557 -0.0737  0.2173 -0.3878
 3805SOL    HW123051   1.235   3.627   5.462  3.3243 -1.9696 -0.2466
 3805SOL    HW223052   1.314   3.635   5.589  0.7281 -1.0328 -1.9326
 3806SOL     OW23053   2.383   2.565   5.043 -0.1848  0.1707  0.2708
 3806SOL    HW123054   2.361   2.657   5.029 -2.1737 -0.1314  1.4192
 3806SOL    HW223055   2.321   2.515   4.989 -0.7763 -1.2303  2.2424
 3807SOL     OW23056   1.118   0.798   4.259  0.0516 -0.0794  0.5340
 3807SOL    HW123057   1.063   0.732   4.216 -0.5291  0.6568  0.1363
 3807SOL    HW223058   1.089   0.877   4.213  0.4973 -0.2859 -0.1145
 3808SOL     OW23059   1.638   0.564   2.891 -0.2306 -0.1107  0.4243
 3808SOL    HW123060   1.681   0.629   2.835 -0.1076 -0.9746 -0.4943
 3808SOL    HW223061   1.650   0.488   2.834 -1.8978 -1.9111  2.4622
 3809SOL     OW23062   2.248   4.275   8.606 -0.1917 -0.2087  0.8524
 3809SOL    HW123063   2.259   4.192   8.653 -0.0156 -0.3921  0.4843
 3809SOL    HW223064   2.301   4.328   8.666  0.7133 -3.0307  2.5132
 3810SOL     OW23065   4.615   2.538   8.146  0.6286  0.1967 -0.1979
 3810SOL    HW123066   4.605   2.458   8.198 -0.8503 -0.1621 -1.0467
 3810SOL    HW223067   4.526   2.568   8.129  1.2672  1.1154 -1.8565
 3811SOL     OW23068   2.697   2.110   9.479 -0.0818 -0.0416 -0.2312
 3811SOL    HW123069   2.698   2.090   9.573 -0.3139 -2.3233 -0.7276
 3811SOL    HW223070   2.663   2.026   9.449 -1.2805  0.5580 -0.5709
 3812SOL     OW23071   2.728   4.494  12.501 -0.0290 -0.0919  0.0576
 3812SOL    HW123072   2.748   4.586  12.482  1.3756 -0.2735  0.6283
 3812SOL    HW223073   2.672   4.514  12.576 -0.3136 -2.4194  0.4497
 3813SOL     OW23074   0.112   0.817  12.319  0.3051 -0.3115 -0.0617
 3813SOL    HW123075   0.053   0.886  12.349  0.0066 -0.2862 -0.7025
 3813SOL    HW223076   0.128   0.782  12.407 -1.5280  1.0656  0.8182
 3814SOL     OW23077   0.754   3.490   2.927  0.2109  0.0080 -0.0562
 3814SOL    HW123078   0.780   3.540   2.850  1.6618 -1.7816 -0.7050
 3814SOL    HW223079   0.670   3.529   2.953 -1.7601 -1.8252 -3.6398
 3815SOL     OW23080   0.591   3.779   8.066 -0.1289  0.1793  0.2690
 3815SOL    HW123081   0.685   3.762   8.057 -0.5696 -1.5647 -1.0046
 3815SOL    HW223082   0.568   3.789   7.974  1.8411 -1.4501 -0.3862
 3816SOL     OW23083   2.301   0.353   8.688 -0.1507 -0.3074 -0.3033
 3816SOL    HW123084   2.287   0.431   8.742 -1.1384 -1.3431  0.9427
 3816SOL    HW223085   2.216   0.357   8.645  0.5938 -0.5193 -1.8036
 3817SOL     OW23086   3.998   3.385   2.510 -0.5870 -0.3341 -0.1535
 3817SOL    HW123087   3.934   3.444   2.470  0.6745  1.6213  0.7231
 3817SOL    HW223088   4.057   3.367   2.438 -0.6520  1.3996 -0.6438
 3818SOL     OW23089   4.697   2.533  12.333  0.2673  0.8192  0.4314
 3818SOL    HW123090   4.648   2.567  12.408  1.6041  0.2861  1.5271
 3818SOL    HW223091   0.047   2.574  12.342  0.9771 -0.1627 -1.7207
 3819SOL     OW23092   2.454   0.058   3.071 -0.0337  0.4686 -0.1534
 3819SOL    HW123093   2.463   0.017   2.986 -4.2570 -2.2234  0.6821
 3819SOL    HW223094   2.537   0.105   3.079  0.4392 -0.2196 -1.0171
 3820SOL     OW23095   0.418   0.935   5.058 -0.4399 -0.2291 -0.4516
 3820SOL    HW123096   0.396   0.859   5.004 -0.6404 -2.1708  2.3334
 3820SOL    HW223097   0.338   0.953   5.107 -1.0444 -2.0303 -0.7706
 3821SOL     OW23098   0.350   0.674   8.446 -0.1604  0.4856  0.0707
 3821SOL    HW123099   0.426   0.700   8.394  1.6231 -1.3853  1.7430
 3821SOL    HW223100   0.302   0.756   8.442  0.6356  0.8831 -1.4860
 3822SOL     OW23101   4.321   0.658  16.650  0.4186 -0.2372 -0.0692
 3822SOL    HW123102   4.238   0.706  16.650 -0.0386 -1.0421 -0.0244
 3822SOL    HW223103   4.376   0.736  16.638  1.1878 -0.9090 -0.8513
 3823SOL     OW23104   1.451   2.842   2.687  0.4206 -0.0936  0.2905
 3823SOL    HW123105   1.445   2.935   2.664  0.0533  0.4009  2.3467
 3823SOL    HW223106   1.412   2.811   2.605 -2.3714  0.8326  1.2462
 3824SOL     OW23107   4.663   1.612   6.501  0.1988  0.1094  0.7512
 3824SOL    HW123108   4.698   1.671   6.568 -3.2535  1.6550  1.1788
 3824SOL    HW223109   4.570   1.634   6.509  0.4870  0.8980  1.9693
 3825SOL     OW23110   0.178   1.395   1.038 -0.2948  0.0097 -0.6040
 3825SOL    HW123111   0.162   1.446   0.959 -2.5227  2.8293  1.6337
 3825SOL    HW223112   0.118   1.426   1.107  1.0924  2.0422 -0.2996
 3826SOL     OW23113   3.779   0.885   7.973  0.6955 -0.6313 -0.4540
 3826SOL    HW123114   3.782   0.790   7.963 -0.3732 -0.7970  0.7373
 3826SOL    HW223115   3.684   0.891   7.964  0.6541 -0.7004 -0.0645
 3827SOL     OW23116   2.948   1.203   0.202 -0.5701 -0.0916  0.8923
 3827SOL    HW123117   2.927   1.285   0.246  1.0974  0.9310 -0.2151
 3827SOL    HW223118   2.891   1.200   0.125 -1.9199 -1.3919  1.9549
 3828SOL     OW23119   2.671   3.664  17.218 -0.0689 -0.3835  0.2173
 3828SOL    HW123120   2.729   3.591  17.239  1.3883  1.0297  1.0840
 3828SOL    HW223121   2.667   3.711  17.301 -0.2848 -0.2370  0.1231
 3829SOL     OW23122   4.589   2.026  15.778 -0.3959 -0.2239 -0.0135
 3829SOL    HW123123   4.564   2.078  15.701  1.2126 -1.3766 -1.3382
 3829SOL    HW223124   4.504   1.990  15.801 -1.5476  2.3901 -0.1697
 3830SOL     OW23125   2.106   4.247   3.513 -0.3574  0.3383 -0.3414
 3830SOL    HW123126   2.167   4.187   3.556 -0.3486 -0.0188 -0.8408
 3830SOL    HW223127   2.139   4.250   3.423  1.9249 -0.3318  0.4850
 3831SOL     OW23128   1.327   3.698  11.085  0.3765 -0.1299 -0.1640
 3831SOL    HW123129   1.391   3.699  11.156  0.0560  0.1525  0.1245
 3831SOL    HW223130   1.329   3.785  11.046  0.8924  0.3625  0.9669
 3832SOL     OW23131   1.450   2.654  15.437  0.2116 -0.2269  0.1693
 3832SOL    HW123132   1.395   2.728  15.465  0.0467  0.0766 -0.9768
 3832SOL    HW223133   1.455   2.670  15.343 -0.0645  1.2794  0.4076
 3833SOL     OW23134   4.237   0.116   4.329 -0.3579 -0.3775  0.0726
 3833SOL    HW123135   4.191   0.117   4.245  0.1689 -2.6022 -0.2249
 3833SOL    HW223136   4.168   0.107   4.394  1.3181  0.9604  2.0300
 3834SOL     OW23137   4.360   3.777  16.132 -0.3998  0.1919 -0.2999
 3834SOL    HW123138   4.292   3.763  16.066 -0.3095  0.4490 -0.4476
 3834SOL    HW223139   4.393   3.866  16.120 -0.0711  0.1035 -0.0433
 3835SOL     OW23140   2.225   3.844   6.331  0.3660  0.3918 -0.0784
 3835SOL    HW123141   2.134   3.841   6.359  0.6590 -2.5447  0.6308
 3835SOL    HW223142   2.274   3.894   6.397 -0.3882  0.0997  0.6987
 3836SOL     OW23143   0.986   3.300   6.501  0.6257  1.0267  0.1701
 3836SOL    HW123144   0.931   3.372   6.533 -0.8026  0.5777 -1.2979
 3836SOL    HW223145   1.010   3.318   6.411 -0.0149  2.3561  0.2743
 3837SOL     OW23146   1.035   3.664   7.007 -0.4514 -0.4214 -0.1919
 3837SOL    HW123147   1.081   3.645   7.089  1.4055 -2.0334 -1.6204
 3837SOL    HW223148   0.944   3.661   7.036 -0.7237  0.0994 -0.9980
 3838SOL     OW23149   4.593   0.496  14.009 -0.0798  0.0831  0.7048
 3838SOL    HW123150   4.590   0.582  13.965 -0.6018  0.3484  1.2632
 3838SOL    HW223151   4.504   0.465  13.993  0.8657 -1.7290 -1.0110
 3839SOL     OW23152   4.025   4.145   5.636  0.1820  0.8578  0.0764
 3839SOL    HW123153   4.093   4.080   5.617 -1.5078 -0.1913 -2.3623
 3839SOL    HW223154   4.064   4.200   5.704  1.1006 -0.0390  0.2743
 3840SOL     OW23155   3.172   4.095  15.257 -0.6379 -0.0701 -0.1854
 3840SOL    HW123156   3.143   4.054  15.339 -0.0851 -1.1034 -0.5180
 3840SOL    HW223157   3.205   4.018  15.212  0.6843  0.4994 -0.1873
 3841SOL     OW23158   3.865   3.698   7.116 -0.1028 -0.3704 -0.3723
 3841SOL    HW123159   3.900   3.609   7.106  0.4957 -0.1084 -0.6086
 3841SOL    HW223160   3.942   3.755   7.110 -0.7354  0.5119 -0.1445
 3842SOL     OW23161   2.400   2.084   9.994 -0.3817  0.3535  0.0985
 3842SOL    HW123162   2.475   2.137  10.021  0.2185  0.9664 -2.8174
 3842SOL    HW223163   2.359   2.064  10.078  1.0137 -1.1491  0.4336
 3843SOL     OW23164   2.260   2.286   8.559  0.2008  0.2196  0.6714
 3843SOL    HW123165   2.284   2.210   8.613  3.0389  1.0389  0.5437
 3843SOL    HW223166   2.344   2.304   8.517  0.0219  0.4806  0.4281
 3844SOL     OW23167   1.650   2.159  15.165 -0.1122  0.8104 -0.3328
 3844SOL    HW123168   1.560   2.181  15.189  0.3455  3.6725 -1.2226
 3844SOL    HW223169   1.644   2.070  15.199  2.2177  0.8100  0.0241
 3845SOL     OW23170   2.964   0.424   8.596 -0.4446  0.0991  0.0861
 3845SOL    HW123171   3.049   0.463   8.614 -0.6357 -0.2977  1.8236
 3845SOL    HW223172   2.942   0.378   8.677  1.5634  1.7470  1.5638
 3846SOL     OW23173   2.244   1.162   4.137  0.0372  0.3482  0.3346
 3846SOL    HW123174   2.307   1.156   4.065  1.0991 -2.8156  1.4753
 3846SOL    HW223175   2.267   1.244   4.179  0.6508  0.1233  0.4484
 3847SOL     OW23176   2.501   0.608   8.167 -0.1191  0.1115  0.0452
 3847SOL    HW123177   2.422   0.577   8.211 -0.5569 -0.4557 -1.1125
 3847SOL    HW223178   2.460   0.643   8.088  0.1804  0.6948  0.1527
 3848SOL     OW23179   2.722   3.071   3.683 -0.1005  0.2281  0.5151
 3848SOL    HW123180   2.678   2.997   3.724 -1.3189  0.1473 -0.8938
 3848SOL    HW223181   2.788   3.031   3.627  1.0757  1.1608  1.2434
 3849SOL     OW23182   1.091   2.282   7.906  0.2488 -0.2100 -0.2077
 3849SOL    HW123183   1.067   2.224   7.978  0.2605  0.5082  0.3716
 3849SOL    HW223184   1.005   2.285   7.865 -0.6959  1.0869  1.8638
 3850SOL     OW23185   1.566   3.133   0.831  0.2997 -0.1959 -0.3992
 3850SOL    HW123186   1.647   3.140   0.781 -1.1842  5.5761 -2.0074
 3850SOL    HW223187   1.518   3.213   0.807 -0.6032 -0.4334  0.6114
 3851SOL     OW23188   2.191   2.740  11.936  0.1441  0.0202  0.1817
 3851SOL    HW123189   2.120   2.782  11.984  1.0674  0.3662  1.2416
 3851SOL    HW223190   2.259   2.807  11.938 -0.8497  1.1070 -2.1677
 3852SOL     OW23191   0.798   1.859   6.058  0.1666 -0.2383 -0.0384
 3852SOL    HW123192   0.782   1.811   6.139 -2.9727 -0.7305 -0.9528
 3852SOL    HW223193   0.887   1.893   6.067  0.2509  0.1234 -2.1357
 3853SOL     OW23194   2.538   3.119  11.376  0.0744 -0.5982 -0.1590
 3853SOL    HW123195   2.620   3.106  11.327  1.1094  2.5061  0.6909
 3853SOL    HW223196   2.566   3.113  11.467  1.1043  0.7489 -0.3798
 3854SOL     OW23197   1.259   0.901   7.777 -0.1657 -0.0233 -0.1350
 3854SOL    HW123198   1.200   0.921   7.703  0.6343 -1.0016 -1.0390
 3854SOL    HW223199   1.335   0.956   7.754  0.7639 -0.5786  1.6850
 3855SOL     OW23200   0.589   0.112  13.469  0.1897  0.2747 -0.0382
 3855SOL    HW123201   0.555   0.168  13.539  1.3628  2.7547 -1.4299
 3855SOL    HW223202   0.668   0.159  13.443  1.2129 -1.8438 -0.7236
 3856SOL     OW23203   0.633   2.684   5.033 -0.2112  0.8637  0.0932
 3856SOL    HW123204   0.697   2.637   5.087 -0.3196 -0.6419 -1.0784
 3856SOL    HW223205   0.608   2.747   5.100 -0.5772  1.1691 -0.3267
 3857SOL     OW23206   4.408   3.354   1.849 -0.4923 -0.2223  0.3424
 3857SOL    HW123207   4.489   3.381   1.891 -1.7527  0.9606  2.0102
 3857SOL    HW223208   4.386   3.275   1.898 -0.1688  0.5693  1.7628
 3858SOL     OW23209   0.662   3.799   9.237  0.4901  0.7298  0.1670
 3858SOL    HW123210   0.611   3.869   9.196 -0.0704  0.7164  0.8447
 3858SOL    HW223211   0.657   3.734   9.167  2.0801  1.7884 -0.9438
 3859SOL     OW23212   0.612   1.083   2.770 -0.5608  0.3029  0.0129
 3859SOL    HW123213   0.636   1.004   2.818  1.3508  1.6055  1.2209
 3859SOL    HW223214   0.681   1.140   2.804 -0.5270  0.5770 -0.5188
 3860SOL     OW23215   1.871   3.915  13.651  0.5811  0.0883 -0.0613
 3860SOL    HW123216   1.915   3.995  13.680  0.2820 -0.7451  2.7126
 3860SOL    HW223217   1.819   3.886  13.726 -0.1984  0.8770 -0.2892
 3861SOL     OW23218   4.311   0.936   6.485 -0.2875  0.1035 -0.2088
 3861SOL    HW123219   4.250   0.980   6.544 -1.8442 -0.9841 -1.0030
 3861SOL    HW223220   4.259   0.856   6.474 -0.6600  0.3796 -0.4164
 3862SOL     OW23221   0.538   1.310   8.050  0.8579 -0.2165  0.1028
 3862SOL    HW123222   0.560   1.311   7.957  1.9531 -1.5106  0.3556
 3862SOL    HW223223   0.560   1.401   8.073 -1.7559  0.5414 -0.4452
 3863SOL     OW23224   1.390   0.363  11.216  0.1403 -0.0702 -0.4229
 3863SOL    HW123225   1.343   0.446  11.204  0.0754 -0.2123 -1.1454
 3863SOL    HW223226   1.471   0.379  11.264 -0.5283  2.0028  0.0351
 3864SOL     OW23227   1.817   3.965   9.174 -0.4086  0.9435 -0.2242
 3864SOL    HW123228   1.816   4.017   9.255  1.0163  0.0857  0.3435
 3864SOL    HW223229   1.911   3.949   9.170 -0.6216 -0.8326  2.3353
 3865SOL     OW23230   1.059   0.460   1.300 -0.3214  0.0550 -0.0338
 3865SOL    HW123231   0.964   0.472   1.289 -0.5998 -1.9403  0.0568
 3865SOL    HW223232   1.080   0.418   1.217  1.0495 -0.3432  0.5174
 3866SOL     OW23233   1.668   1.465   2.110 -0.3516  0.1364  0.5514
 3866SOL    HW123234   1.668   1.530   2.040  2.6980 -1.7395 -1.1842
 3866SOL    HW223235   1.683   1.529   2.179  0.9240  0.4523 -0.0127
 3867SOL     OW23236   4.592   1.564   7.173  0.4556 -0.0631 -0.5056
 3867SOL    HW123237   4.588   1.545   7.080  1.9004 -0.0966 -0.5714
 3867SOL    HW223238   4.624   1.655   7.171 -0.0302  0.1729  2.6217
 3868SOL     OW23239   1.953   0.672   5.419  0.2882  0.6427  0.0359
 3868SOL    HW123240   1.937   0.579   5.435  1.1389  0.7943  1.7682
 3868SOL    HW223241   2.032   0.700   5.466 -0.2080 -0.1561  1.3207
 3869SOL     OW23242   1.128   3.997   7.384 -0.3332 -0.0086  0.3835
 3869SOL    HW123243   1.058   3.966   7.327 -0.2019  1.3931 -0.5480
 3869SOL    HW223244   1.121   4.089   7.359 -0.1197 -0.0602  0.1399
 3870SOL     OW23245   3.022   1.003   7.132  0.0809 -0.1314 -0.0579
 3870SOL    HW123246   2.964   1.006   7.208  1.0545  0.5427  0.6561
 3870SOL    HW223247   3.049   1.094   7.125  0.8330 -0.3217  0.4009
 3871SOL     OW23248   2.782   2.918  15.507 -0.2028  0.1552  0.3249
 3871SOL    HW123249   2.841   2.859  15.460  0.7917  0.3471  1.3306
 3871SOL    HW223250   2.700   2.890  15.467  0.0893 -0.0571 -0.1270
 3872SOL     OW23251   4.581   3.453   5.453  0.4680  0.3643 -0.2855
 3872SOL    HW123252   4.606   3.369   5.490  0.0568  0.3523 -0.0345
 3872SOL    HW223253   4.667   3.493   5.441  0.1069  0.6899 -1.7943
 3873SOL     OW23254   1.210   0.354  14.370 -0.6643  0.6266 -0.3620
 3873SOL    HW123255   1.238   0.445  14.373  0.5146  0.3074 -2.0355
 3873SOL    HW223256   1.191   0.321  14.459  0.7218  1.4868  0.2447
 3874SOL     OW23257   4.444   3.763   5.414 -0.1735 -0.5178  0.2105
 3874SOL    HW123258   4.535   3.741   5.394 -0.4418 -1.6767  0.2415
 3874SOL    HW223259   4.459   3.828   5.482 -0.7202  0.5316 -0.6585
 3875SOL     OW23260   4.409   3.753   7.123 -0.2295 -0.1276  0.4871
 3875SOL    HW123261   4.370   3.756   7.210 -0.9857  1.0898  0.0932
 3875SOL    HW223262   4.371   3.671   7.090  0.0271 -0.8839  2.0680
 3876SOL     OW23263   4.255   1.430   6.782 -0.3303  0.4207  0.7529
 3876SOL    HW123264   4.228   1.398   6.696  0.3030  0.4423  0.5484
 3876SOL    HW223265   4.174   1.473   6.812  0.5471  1.6844  1.3050
 3877SOL     OW23266   3.856   1.099   5.304  0.0163  0.3833 -0.2361
 3877SOL    HW123267   3.934   1.103   5.360  0.0016  2.2603 -0.3474
 3877SOL    HW223268   3.815   1.184   5.320 -1.3190 -0.7237  2.1640
 3878SOL     OW23269   0.582   1.581   7.205 -0.6336  0.0472 -0.0594
 3878SOL    HW123270   0.671   1.585   7.170 -0.7101 -3.1496 -0.6161
 3878SOL    HW223271   0.559   1.491   7.227 -1.0818  0.2222  0.1876
 3879SOL     OW23272   2.193   4.488   7.023 -0.0844 -0.1531 -0.6771
 3879SOL    HW123273   2.283   4.502   6.993  0.4230  0.1030  0.9446
 3879SOL    HW223274   2.188   4.517   7.115  1.1252  1.4246 -1.1064
 3880SOL     OW23275   0.656   1.451  14.545 -0.4610  0.3806  0.2718
 3880SOL    HW123276   0.740   1.448  14.499 -1.4766  5.0575 -1.9848
 3880SOL    HW223277   0.669   1.528  14.601 -3.1811  0.4299  0.8175
 3881SOL     OW23278   3.686   0.287  12.375 -0.0693  0.5081  0.2339
 3881SOL    HW123279   3.592   0.283  12.361  0.0064  2.1376 -0.7708
 3881SOL    HW223280   3.718   0.246  12.294 -0.9369 -2.0191  1.1802
 3882SOL     OW23281   4.601   2.549  10.483 -0.5441 -0.1330 -0.4527
 3882SOL    HW123282   4.695   2.553  10.462 -0.2357 -0.1935  0.8900
 3882SOL    HW223283   4.555   2.486  10.428  2.1516 -0.4776 -2.3620
 3883SOL     OW23284   2.113   3.930   8.158  0.4230  0.3419  0.1837
 3883SOL    HW123285   2.075   3.944   8.245  0.6986  0.4551  0.2851
 3883SOL    HW223286   2.206   3.917   8.173  0.6970  1.7741 -0.3398
 3884SOL     OW23287   1.873   2.840   3.045  0.3918 -0.1840  0.0646
 3884SOL    HW123288   1.781   2.820   3.023  1.4539 -1.5610 -3.1140
 3884SOL    HW223289   1.877   2.908   2.978 -0.3579  0.9481  1.1706
 3885SOL     OW23290   4.184   0.918  12.493  0.1903  0.5309  0.2440
 3885SOL    HW123291   4.128   0.913  12.415 -0.1022  0.2739  0.4673
 3885SOL    HW223292   4.127   0.958  12.559  1.9308  0.6771  1.6404
 3886SOL     OW23293   1.324   3.281   1.112  0.0653  0.4114 -0.2121
 3886SOL    HW123294   1.342   3.351   1.050 -0.4975  0.1449 -0.6786
 3886SOL    HW223295   1.297   3.333   1.188 -0.3656  0.7105 -0.5728
 3887SOL     OW23296   3.415   0.306  12.341 -0.0308 -0.0853  0.2299
 3887SOL    HW123297   3.367   0.333  12.263  1.5424 -0.6965 -0.9367
 3887SOL    HW223298   3.384   0.215  12.346 -2.0202  0.6760  1.8787
 3888SOL     OW23299   1.321   1.866   9.155  0.1428 -0.1139 -0.3808
 3888SOL    HW123300   1.244   1.810   9.162  0.0761 -0.0150 -0.3076
 3888SOL    HW223301   1.280   1.942   9.111  0.7888 -0.5474 -1.7104
 3889SOL     OW23302   0.896   2.198   3.569  0.1498 -0.1675  0.5622
 3889SOL    HW123303   0.973   2.218   3.621  0.3288  3.2823 -1.0191
 3889SOL    HW223304   0.901   2.277   3.515 -0.7242  0.1887  0.9948
 3890SOL     OW23305   2.026   3.551  12.999  0.0350 -0.2449  0.2025
 3890SOL    HW123306   1.943   3.597  12.991 -0.0886 -0.6386 -0.8446
 3890SOL    HW223307   2.007   3.500  13.078  1.3633 -1.1588 -0.0690
 3891SOL     OW23308   4.221   2.732   7.918 -0.3344 -0.2523 -0.7252
 3891SOL    HW123309   4.306   2.775   7.922 -0.4621 -0.0573 -0.0502
 3891SOL    HW223310   4.217   2.705   7.827 -0.4553  1.8087 -1.3260
 3892SOL     OW23311   4.670   1.098  15.390 -0.1346 -0.2056  0.2112
 3892SOL    HW123312   0.010   1.155  15.401  0.3223 -0.5028 -1.3839
 3892SOL    HW223313   4.685   1.056  15.305 -2.0399  0.6505 -0.5572
 3893SOL     OW23314   4.130   2.209   6.602  0.1252  0.1738 -0.3676
 3893SOL    HW123315   4.218   2.206   6.564  0.3825 -2.3803  0.3798
 3893SOL    HW223316   4.079   2.174   6.529  0.9867  0.5059 -1.1259
 3894SOL     OW23317   1.290   1.047  11.965 -0.7227  0.5813 -0.1461
 3894SOL    HW123318   1.214   0.997  11.934 -1.7992  2.2627 -0.2125
 3894SOL    HW223319   1.284   1.020  12.057  1.7600 -0.2217 -0.2340
 3895SOL     OW23320   2.649   2.545   6.100  0.5404  0.1356  0.5411
 3895SOL    HW123321   2.579   2.501   6.149  0.7206  0.2368  0.8896
 3895SOL    HW223322   2.608   2.545   6.014 -1.2454 -3.0904  1.4022
 3896SOL     OW23323   1.578   2.280   3.954 -0.2416 -0.2635  0.1462
 3896SOL    HW123324   1.605   2.368   3.979  0.7597 -0.3362 -0.6865
 3896SOL    HW223325   1.486   2.294   3.931  0.0176  3.1240  1.2014
 3897SOL     OW23326   1.849   3.320   2.806 -0.8168 -0.3162 -0.4654
 3897SOL    HW123327   1.842   3.413   2.783  0.2355 -0.3216 -0.8236
 3897SOL    HW223328   1.836   3.322   2.901  2.7325 -0.7342  0.0279
 3898SOL     OW23329   2.090   2.773   4.047  0.0295 -0.3643 -0.1436
 3898SOL    HW123330   2.000   2.745   4.063  0.0831 -0.8456 -0.6884
 3898SOL    HW223331   2.107   2.856   4.091  0.1529 -0.4627 -0.0055
 3899SOL     OW23332   4.679   4.103   7.441 -0.5709  0.4056  0.2222
 3899SOL    HW123333   4.602   4.161   7.441 -0.4024  0.6237  1.5934
 3899SOL    HW223334   4.733   4.147   7.375 -1.4677  1.0683 -0.0876
 3900SOL     OW23335   2.033   4.268  10.161 -0.2110  0.1332 -0.1467
 3900SOL    HW123336   2.114   4.237  10.121 -0.6890  0.4061 -1.3364
 3900SOL    HW223337   2.059   4.262  10.253  4.3666 -2.3442 -1.6401
 3901SOL     OW23338   2.845   0.752   4.082 -0.0368 -0.7157 -0.1838
 3901SOL    HW123339   2.823   0.797   4.163 -1.2055 -2.4788  0.4634
 3901SOL    HW223340   2.832   0.661   4.108 -1.7791 -0.1299  0.9954
 3902SOL     OW23341   2.483   4.479   5.645 -0.3653 -0.3369 -0.4848
 3902SOL    HW123342   2.518   4.433   5.722 -0.6571 -0.7118 -0.5790
 3902SOL    HW223343   2.392   4.472   5.674  0.0897 -1.8285  0.5917
 3903SOL     OW23344   0.961   0.453   3.411 -0.6500 -0.2495 -0.2564
 3903SOL    HW123345   1.035   0.430   3.468 -3.0585 -1.1389  2.4835
 3903SOL    HW223346   0.994   0.410   3.332  1.3541 -0.6887  0.8077
 3904SOL     OW23347   0.752   4.287   5.070 -0.7277  0.5042 -0.1982
 3904SOL    HW123348   0.689   4.232   5.024  1.0101 -0.9968 -0.7953
 3904SOL    HW223349   0.700   4.367   5.077  0.8029  1.6379 -1.7282
 3905SOL     OW23350   1.038   0.408   5.815  0.7524  0.3744  0.4480
 3905SOL    HW123351   1.110   0.449   5.864  1.8142  0.8351 -1.5027
 3905SOL    HW223352   0.980   0.483   5.827 -1.3519 -1.1234 -0.4251
 3906SOL     OW23353   2.858   2.060  16.830  0.5352 -0.4777 -0.5383
 3906SOL    HW123354   2.830   2.151  16.842  1.1143 -0.4359  0.5142
 3906SOL    HW223355   2.943   2.072  16.787  1.0766  3.9607  1.6994
 3907SOL     OW23356   1.813   2.637   9.338 -0.1049 -0.2188  0.0374
 3907SOL    HW123357   1.723   2.663   9.356  0.1802 -0.0765  1.2526
 3907SOL    HW223358   1.805   2.646   9.243 -1.3803 -1.3823  0.0513
 3908SOL     OW23359   3.142   0.799   4.596  0.1016  0.0365 -0.1590
 3908SOL    HW123360   3.171   0.847   4.519  0.5922  0.0131  0.0149
 3908SOL    HW223361   3.206   0.828   4.661  1.3536 -0.7604 -1.0392
 3909SOL     OW23362   1.937   3.582  17.420  0.3936 -0.1203 -0.5077
 3909SOL    HW123363   1.963   3.524  17.348 -1.6829 -1.9364  0.2107
 3909SOL    HW223364   1.843   3.564  17.420  0.5670 -1.1050  1.2634
 3910SOL     OW23365   4.353   3.506   2.530 -0.5835  0.1909  0.2161
 3910SOL    HW123366   4.421   3.461   2.480 -3.1791 -1.0554 -2.1955
 3910SOL    HW223367   4.344   3.586   2.479 -1.2584 -1.4700 -2.2525
 3911SOL     OW23368   4.050   1.192   0.382  0.0618 -0.0819 -0.2168
 3911SOL    HW123369   4.041   1.271   0.329 -1.4963  0.3883  0.7808
 3911SOL    HW223370   3.965   1.200   0.423  0.0346  1.5469 -0.6102
 3912SOL     OW23371   0.404   0.476   9.742  0.0896 -0.1358  0.2632
 3912SOL    HW123372   0.445   0.559   9.716 -1.4822  0.3394 -0.7400
 3912SOL    HW223373   0.476   0.414   9.735 -1.3604 -1.4364 -3.3042
 3913SOL     OW23374   1.026   1.415   5.882  0.2187 -0.3800 -0.1254
 3913SOL    HW123375   1.112   1.421   5.839  0.1630  1.9518  0.1109
 3913SOL    HW223376   0.998   1.328   5.909  2.3520 -0.8359  0.5755
 3914SOL     OW23377   3.606   3.278  11.516  0.5615 -0.2352 -0.4008
 3914SOL    HW123378   3.610   3.266  11.611  0.4238 -1.8477 -0.5927
 3914SOL    HW223379   3.700   3.279  11.498  0.8949 -1.0661  1.2228
 3915SOL     OW23380   2.117   0.068   4.605 -0.1626  0.5153  0.1097
 3915SOL    HW123381   2.054   0.007   4.564  1.7456 -1.1923 -0.2763
 3915SOL    HW223382   2.186   0.002   4.606 -0.5198  0.1938  2.3248
 3916SOL     OW23383   1.093   1.365   8.570  0.0202  0.0480  0.2212
 3916SOL    HW123384   1.019   1.325   8.525 -2.2257  1.5159  2.6262
 3916SOL    HW223385   1.145   1.289   8.596 -0.7711 -0.8394 -0.8128
 3917SOL     OW23386   3.026   2.368   7.807  0.4448  0.5751  0.0978
 3917SOL    HW123387   3.103   2.312   7.796  0.4196  0.5390  0.1067
 3917SOL    HW223388   3.012   2.408   7.721 -0.4277 -2.9163 -1.4028
 3918SOL     OW23389   1.709   0.379   3.948 -0.1308  0.0062 -0.0181
 3918SOL    HW123390   1.692   0.421   4.033  1.1118  2.2296 -0.8605
 3918SOL    HW223391   1.782   0.437   3.924 -1.4623  1.7313  0.0869
 3919SOL     OW23392   2.736   4.063   8.237 -0.3644  0.1593 -0.0844
 3919SOL    HW123393   2.665   4.126   8.249 -0.1098  0.4505 -0.0698
 3919SOL    HW223394   2.782   4.099   8.161 -1.5035 -0.1793 -0.9120
 3920SOL     OW23395   0.689   3.737  13.635  0.2341 -0.2254 -0.1227
 3920SOL    HW123396   0.749   3.794  13.587  0.6109  0.8702  1.6660
 3920SOL    HW223397   0.754   3.687  13.686 -2.8744 -2.5872  1.5428
 3921SOL     OW23398   3.063   4.244   2.869 -0.0364 -0.4622 -0.1614
 3921SOL    HW123399   3.010   4.323   2.879 -1.4344 -1.6410  1.7739
 3921SOL    HW223400   3.070   4.222   2.962  0.7577 -0.9237 -0.3246
 3922SOL     OW23401   2.917   3.562   6.942 -0.2108  0.7143  0.2318
 3922SOL    HW123402   2.996   3.562   6.995 -0.5146 -1.1669  0.7127
 3922SOL    HW223403   2.852   3.534   7.007  0.7973  2.1859  1.8525
 3923SOL     OW23404   2.712   3.719   9.519  0.0455  0.1293 -0.4378
 3923SOL    HW123405   2.692   3.641   9.468 -2.5026 -0.9611  2.2845
 3923SOL    HW223406   2.740   3.687   9.605 -0.7815  1.3718  0.2882
 3924SOL     OW23407   3.133   1.231   2.063 -0.5182 -0.2642  0.0014
 3924SOL    HW123408   3.097   1.285   2.134  1.0440 -0.8253  1.2231
 3924SOL    HW223409   3.049   1.218   2.020 -0.6970  0.2913  0.1761
 3925SOL     OW23410   2.563   2.620  16.781 -0.2352 -0.1343  0.9452
 3925SOL    HW123411   2.490   2.677  16.806  0.3189  1.0855 -0.2444
 3925SOL    HW223412   2.528   2.549  16.835 -1.8747  1.1979  1.6257
 3926SOL     OW23413   3.103   3.210   3.422  0.3364  0.3536 -0.0762
 3926SOL    HW123414   3.182   3.167   3.454 -0.7871 -2.3937 -1.0272
 3926SOL    HW223415   3.113   3.304   3.438 -0.6458  0.3339  0.5900
 3927SOL     OW23416   3.412   4.694  10.677 -0.2465  0.3173 -0.4455
 3927SOL    HW123417   3.322   4.667  10.655  0.2264 -1.2618 -0.4546
 3927SOL    HW223418   3.410   0.053  10.688  2.0101  0.1384  1.4639
 3928SOL     OW23419   3.791   4.647  12.328 -0.4234 -0.6538 -0.0568
 3928SOL    HW123420   3.791   4.734  12.289 -1.6204 -0.1365  1.0948
 3928SOL    HW223421   3.751   4.587  12.266 -2.3148 -1.2570  1.7628
 3929SOL     OW23422   0.947   1.584   5.052 -0.0183 -0.3862 -0.2653
 3929SOL    HW123423   0.935   1.489   5.048  1.5372 -0.5592 -0.5372
 3929SOL    HW223424   0.892   1.616   4.980  2.1217 -2.0601 -2.6024
 3930SOL     OW23425   3.373   4.420   6.721 -0.3734 -0.1271  0.1641
 3930SOL    HW123426   3.300   4.376   6.676  1.1390 -0.6317 -1.7737
 3930SOL    HW223427   3.330   4.502   6.744  2.4292  0.8607  1.7314
 3931SOL     OW23428   0.623   1.231  10.005 -0.7380 -0.8391  0.0387
 3931SOL    HW123429   0.661   1.193  10.084  0.7886 -1.4125 -0.9731
 3931SOL    HW223430   0.606   1.150   9.956  3.2291 -2.2513  0.9478
 3932SOL     OW23431   2.165   1.259  17.093  0.5250  0.4809 -0.9648
 3932SOL    HW123432   2.256   1.285  17.109  0.3625  0.6512 -0.3403
 3932SOL    HW223433   2.187   1.178  17.047 -1.8616 -1.2037  0.8697
 3933SOL     OW23434   4.645   2.127   6.167  0.0975  0.2200  0.6907
 3933SOL    HW123435   4.627   2.150   6.076  0.9405  0.1347  0.5020
 3933SOL    HW223436   4.564   2.090   6.202 -2.2553  2.5446 -2.2355
 3934SOL     OW23437   1.030   3.726   1.796  0.7117 -0.3482  0.0072
 3934SOL    HW123438   0.986   3.699   1.876 -0.0754 -3.6994 -1.5366
 3934SOL    HW223439   0.972   3.797   1.769  0.9700 -0.0436  0.2457
 3935SOL     OW23440   1.097   3.998   3.927  0.1121 -0.1114  0.1414
 3935SOL    HW123441   1.152   3.942   3.872 -1.2820  1.3109 -2.7168
 3935SOL    HW223442   1.024   4.019   3.868 -0.4382 -0.1452  0.8124
 3936SOL     OW23443   3.265   1.613   4.144 -0.3351  0.0643  0.2164
 3936SOL    HW123444   3.231   1.614   4.233 -0.5152  0.8476  0.1435
 3936SOL    HW223445   3.307   1.528   4.134 -0.5624 -0.0838  0.5580
 3937SOL     OW23446   1.338   2.539   2.588  1.0750 -0.2043 -0.1626
 3937SOL    HW123447   1.298   2.574   2.668 -1.9818  0.0501 -1.8226
 3937SOL    HW223448   1.424   2.515   2.624  0.6419 -1.5244 -0.0138
 3938SOL     OW23449   2.034   3.527   5.539 -0.0733 -0.0289 -0.3191
 3938SOL    HW123450   1.979   3.483   5.603 -1.1509 -0.6898 -1.6893
 3938SOL    HW223451   2.090   3.583   5.592  1.7188 -1.2692 -0.8965
 3939SOL     OW23452   1.433   1.733   4.360  0.0325 -0.0016 -0.7669
 3939SOL    HW123453   1.495   1.662   4.339  0.6450 -0.4555  2.6313
 3939SOL    HW223454   1.484   1.808   4.329  1.9628 -0.4970  1.2405
 3940SOL     OW23455   1.263   2.496   2.050 -0.2316  0.0770  0.4385
 3940SOL    HW123456   1.284   2.423   2.108 -2.2479  0.6396  1.8980
 3940SOL    HW223457   1.344   2.508   2.001 -1.1679  2.1920 -0.6139
 3941SOL     OW23458   0.917   3.389   1.033  0.0118 -0.6437 -0.4953
 3941SOL    HW123459   0.844   3.403   0.973 -0.9221  0.2932  0.8550
 3941SOL    HW223460   0.986   3.417   0.972 -2.4279 -0.6421 -3.2212
 3942SOL     OW23461   2.716   0.734   3.152  0.2728  0.0685 -0.4411
 3942SOL    HW123462   2.790   0.733   3.213 -1.0653  0.5697  1.1952
 3942SOL    HW223463   2.672   0.655   3.184 -0.6261  1.8796  2.8688
 3943SOL     OW23464   3.279   0.784   4.352 -0.1315  0.4245 -0.1664
 3943SOL    HW123465   3.307   0.853   4.292 -1.6444  0.4182 -0.8974
 3943SOL    HW223466   3.208   0.747   4.299  0.1726 -1.4591  0.7514
 3944SOL     OW23467   0.610   0.014   9.426 -0.2205 -0.1970  0.7509
 3944SOL    HW123468   0.539   0.071   9.398  1.1212  1.3566  0.4915
 3944SOL    HW223469   0.579   4.726   9.513 -0.1165 -1.4836  0.4285
 3945SOL     OW23470   3.394   3.755   6.732  0.3307 -0.7873  0.4784
 3945SOL    HW123471   3.324   3.818   6.749  0.5919 -0.6781  1.1557
 3945SOL    HW223472   3.471   3.809   6.745 -0.1201 -0.3312  1.2907
 3946SOL     OW23473   0.254   3.708   4.645  0.2565  0.1483  0.0711
 3946SOL    HW123474   0.331   3.651   4.649  0.7485  0.6492 -2.0356
 3946SOL    HW223475   0.198   3.660   4.706  1.2599 -1.0654  0.0275
 3947SOL     OW23476   3.288   1.884   6.396  0.3710  0.1999 -0.4237
 3947SOL    HW123477   3.381   1.894   6.374 -0.2089  0.6628 -2.6310
 3947SOL    HW223478   3.293   1.934   6.478  0.8306 -0.8847  0.2058
 3948SOL     OW23479   1.493   4.523  17.013  0.6130 -0.2518 -0.1641
 3948SOL    HW123480   1.532   4.508  16.927 -0.7331  0.6775 -0.9183
 3948SOL    HW223481   1.421   4.460  17.012  0.7116 -0.3289 -1.4463
 3949SOL     OW23482   4.670   1.426   6.868 -0.2208  0.6249 -0.0625
 3949SOL    HW123483   4.700   1.397   6.782 -1.5702 -1.1971  0.0850
 3949SOL    HW223484   4.592   1.475   6.843 -0.6993  0.2565  0.7110
 3950SOL     OW23485   1.593   1.585  17.576  0.5009  0.4832  0.4798
 3950SOL    HW123486   1.503   1.616  17.572  0.5138  0.4978  0.2893
 3950SOL    HW223487   1.604   1.599  17.670 -0.5157 -1.9182  0.9514
 3951SOL     OW23488   4.729   3.598   1.671 -0.4728  0.2693 -0.6008
 3951SOL    HW123489   4.663   3.551   1.619  0.2877  1.8364 -3.0178
 3951SOL    HW223490   0.075   3.550   1.661  0.4205  1.6525  0.0898
 3952SOL     OW23491   0.047   3.288  16.206 -0.0375  0.3405 -0.1998
 3952SOL    HW123492   0.063   3.373  16.245 -3.5017  0.2085  1.5637
 3952SOL    HW223493   0.129   3.252  16.238 -0.1051  0.7923  0.4734
 3953SOL     OW23494   4.144   2.880   3.820 -0.2878 -0.4776  0.4838
 3953SOL    HW123495   4.231   2.919   3.832 -0.2170 -0.0111 -1.5632
 3953SOL    HW223496   4.113   2.934   3.748  0.3349 -1.4761 -0.5433
 3954SOL     OW23497   0.379   4.700   8.976 -0.2181 -0.3951  0.4409
 3954SOL    HW123498   0.466   4.705   9.016  0.7373 -1.4012 -1.5130
 3954SOL    HW223499   0.403   4.718   8.885  3.2612  1.9319  1.8392
 3955SOL     OW23500   2.217   2.675   8.076 -0.3745  0.5884 -0.0815
 3955SOL    HW123501   2.258   2.761   8.078 -0.4053  0.5413  2.6785
 3955SOL    HW223502   2.289   2.624   8.039 -0.8505 -1.9817  2.4944
 3956SOL     OW23503   0.642   2.343   6.990  0.5758  0.1105  0.3318
 3956SOL    HW123504   0.699   2.371   7.063  2.1217  0.0622 -0.8564
 3956SOL    HW223505   0.655   2.405   6.919 -0.2266  0.2265  0.2904
 3957SOL     OW23506   4.282   1.063   7.348 -0.7309  0.6998  0.2868
 3957SOL    HW123507   4.230   1.125   7.400 -1.8379  0.8509 -0.9945
 3957SOL    HW223508   4.302   0.997   7.414 -1.5446  0.8409  0.6712
 3958SOL     OW23509   0.102   3.248   2.880  0.0926  0.2878  0.2139
 3958SOL    HW123510   0.137   3.284   2.961 -3.2603 -0.0267  1.7838
 3958SOL    HW223511   0.007   3.260   2.888 -0.0352  1.8910 -3.2635
 3959SOL     OW23512   2.618   3.751   4.685  0.4166  0.7089  0.2225
 3959SOL    HW123513   2.587   3.803   4.611 -1.1374 -1.3756 -0.5941
 3959SOL    HW223514   2.537   3.737   4.734  0.6152 -0.9221  0.0752
 3960SOL     OW23515   3.048   4.562   0.807  0.2248 -0.3685 -0.6914
 3960SOL    HW123516   3.009   4.507   0.739 -1.0106 -1.6276  1.0411
 3960SOL    HW223517   3.008   4.527   0.887 -1.2353 -0.1940 -1.3398
 3961SOL     OW23518   0.710   1.185   3.819 -0.2841  0.1223 -0.0487
 3961SOL    HW123519   0.636   1.228   3.777  0.1600  0.3629 -0.5868
 3961SOL    HW223520   0.773   1.256   3.827 -1.6827  1.4370 -0.7332
 3962SOL     OW23521   4.444   0.159   3.840 -0.3304 -0.1839  0.3386
 3962SOL    HW123522   4.362   0.176   3.793  0.2325  1.5220 -0.0283
 3962SOL    HW223523   4.418   0.205   3.920 -2.6920  1.5430 -1.4025
 3963SOL     OW23524   1.111   3.972   4.208 -0.1690 -0.1333  0.3836
 3963SOL    HW123525   1.128   4.035   4.138  1.2148  2.3034  2.9241
 3963SOL    HW223526   1.089   3.897   4.153 -1.0542  1.3076 -1.2446
 3964SOL     OW23527   3.145   1.685  17.632  0.3252  0.8036 -0.2569
 3964SOL    HW123528   3.133   1.737  17.712  0.6338 -0.3276  0.5136
 3964SOL    HW223529   3.095   1.608  17.661  0.3278  0.1159 -2.1057
 3965SOL     OW23530   3.977   3.189   0.698  0.1990  0.3533 -0.6766
 3965SOL    HW123531   4.064   3.214   0.730 -1.0421  1.5868  1.7079
 3965SOL    HW223532   3.951   3.122   0.761  0.8740  2.0522  1.4070
 3966SOL     OW23533   4.565   2.586   6.867  0.1642 -0.0704 -0.2057
 3966SOL    HW123534   4.519   2.637   6.800 -1.6380 -2.8122 -1.0731
 3966SOL    HW223535   4.594   2.658   6.923  1.7370 -0.7276 -0.1768
 3967SOL     OW23536   1.940   0.350   6.297 -0.4738  0.0733  0.5162
 3967SOL    HW123537   1.985   0.400   6.229 -1.5110  0.8881  0.4330
 3967SOL    HW223538   1.953   0.400   6.378  1.3321  1.4154 -0.5919
 3968SOL     OW23539   4.539   2.306   9.612  0.3229 -0.3128  0.0706
 3968SOL    HW123540   4.580   2.221   9.601  1.8487  0.2555  1.3243
 3968SOL    HW223541   4.619   2.358   9.605 -0.3558  0.3410 -2.9161
 3969SOL     OW23542   1.569   1.234   8.195 -0.0939  0.2956 -0.5921
 3969SOL    HW123543   1.639   1.300   8.188  0.2201 -0.0838 -1.0519
 3969SOL    HW223544   1.504   1.275   8.251  1.1700 -1.8688  2.4342
 3970SOL     OW23545   2.298   4.355   2.296 -0.2458  0.1292 -0.0906
 3970SOL    HW123546   2.301   4.338   2.202 -1.8182 -0.4414 -0.0397
 3970SOL    HW223547   2.378   4.312   2.326  0.5264  1.1264 -0.7141
 3971SOL     OW23548   3.240   4.213   7.281  0.4812 -0.1142 -0.0636
 3971SOL    HW123549   3.265   4.295   7.238  2.7783 -1.0450 -0.4578
 3971SOL    HW223550   3.160   4.246   7.324  2.8125  1.1613  3.3537
 3972SOL     OW23551   1.894   4.215   2.545  0.1634 -0.0982 -0.4910
 3972SOL    HW123552   1.922   4.136   2.498  0.9135 -0.4724  0.6086
 3972SOL    HW223553   1.951   4.280   2.503  1.1759  1.2560  2.9951
 3973SOL     OW23554   0.092   1.799   8.005  0.1241  0.4219  0.0726
 3973SOL    HW123555   0.038   1.728   7.972 -0.0407  1.3261 -1.5933
 3973SOL    HW223556   0.177   1.766   7.976  1.1662  1.5665  1.7908
 3974SOL     OW23557   1.808   0.270   3.236 -0.4315 -0.6750  0.1736
 3974SOL    HW123558   1.772   0.356   3.216 -1.4602 -1.8630 -2.9595
 3974SOL    HW223559   1.782   0.259   3.328 -0.3269  1.0012  0.3914
 3975SOL     OW23560   1.776   3.687   3.548 -0.2799  0.1617 -0.6631
 3975SOL    HW123561   1.824   3.645   3.620 -1.0735  0.7137  0.1925
 3975SOL    HW223562   1.755   3.766   3.599  1.6777  0.3945 -0.2325
 3976SOL     OW23563   4.735   1.013   0.362 -0.2497  0.3820  0.2314
 3976SOL    HW123564   0.019   0.935   0.413  2.2687  0.3449 -0.8211
 3976SOL    HW223565   0.077   1.068   0.371  0.2265 -0.4195  0.9342
 3977SOL     OW23566   3.107   3.755   7.413 -0.1957  0.0748  0.1335
 3977SOL    HW123567   3.182   3.815   7.416  0.5542 -0.8866  0.5603
 3977SOL    HW223568   3.049   3.804   7.354 -1.1351 -0.9906  0.1872
 3978SOL     OW23569   3.963   1.976   0.797 -0.6808  0.1415 -0.0684
 3978SOL    HW123570   3.909   1.897   0.801 -1.4191  0.6287 -0.3924
 3978SOL    HW223571   4.034   1.958   0.735 -0.1679  0.1558  0.5093
 3979SOL     OW23572   0.748   2.169   9.964 -0.1370 -0.2389  0.0854
 3979SOL    HW123573   0.812   2.099   9.949  1.3033  1.2230 -0.4934
 3979SOL    HW223574   0.714   2.183   9.876  1.2091 -1.1656 -0.5929
 3980SOL     OW23575   2.782   1.339  12.355  0.5568  0.0226  0.0717
 3980SOL    HW123576   2.854   1.386  12.312 -1.3467  1.0408 -2.0172
 3980SOL    HW223577   2.742   1.408  12.408  0.3482  1.0353 -1.3879
 3981SOL     OW23578   0.201   0.512   5.650  0.1970 -0.1623  0.3605
 3981SOL    HW123579   0.170   0.600   5.627 -0.5935 -0.9103 -1.3546
 3981SOL    HW223580   0.264   0.537   5.719 -0.0361  0.7256  0.2460
 3982SOL     OW23581   2.765   2.411  17.156 -0.2335  0.0300  0.2166
 3982SOL    HW123582   2.802   2.491  17.119  2.2234 -0.5444  1.4073
 3982SOL    HW223583   2.686   2.419  17.103 -0.1254 -0.4586 -0.0216
 3983SOL     OW23584   4.056   3.842   1.754 -0.6153 -0.2331  0.0405
 3983SOL    HW123585   4.080   3.778   1.686  2.4168 -0.0800  0.9418
 3983SOL    HW223586   3.992   3.886   1.698 -0.7852 -1.6699 -0.9034
 3984SOL     OW23587   3.638   0.512   9.157 -0.2351  0.2075  0.4185
 3984SOL    HW123588   3.704   0.569   9.196 -0.9494  0.5974  1.0469
 3984SOL    HW223589   3.696   0.480   9.088 -3.0319 -2.6267 -0.6273
 3985SOL     OW23590   3.710   2.835   7.829 -0.5746 -0.2416 -0.5658
 3985SOL    HW123591   3.746   2.810   7.744  0.4291 -1.5294  0.2370
 3985SOL    HW223592   3.778   2.900   7.846 -1.0381  0.3131 -0.8258
 3986SOL     OW23593   2.981   2.940   5.024 -0.0964 -0.2402 -0.1883
 3986SOL    HW123594   2.892   2.905   5.028 -0.4768  0.7877  0.6187
 3986SOL    HW223595   2.987   2.987   5.107  2.0913  2.7597 -2.0710
 3987SOL     OW23596   0.399   3.921   4.602  0.0483 -0.3545  0.1803
 3987SOL    HW123597   0.334   3.862   4.641 -0.9584  1.0557  0.6217
 3987SOL    HW223598   0.347   3.965   4.535 -1.0317  1.4230  2.1749
 3988SOL     OW23599   0.171   3.905   9.285 -0.7991  0.1626 -0.1379
 3988SOL    HW123600   0.167   3.963   9.209 -2.4012  0.4895  0.1887
 3988SOL    HW223601   0.166   3.969   9.357 -1.3487  0.7704 -0.7184
 3989SOL     OW23602   1.750   1.584  17.114  0.0758 -0.8322 -0.0772
 3989SOL    HW123603   1.797   1.665  17.093  0.9113 -1.4239 -0.5125
 3989SOL    HW223604   1.819   1.521  17.093  0.8155 -0.5715  1.5291
 3990SOL     OW23605   4.101   3.004   4.466  0.4573 -0.4107  0.0326
 3990SOL    HW123606   4.067   2.942   4.402 -1.2098 -1.3609  1.8122
 3990SOL    HW223607   4.193   2.980   4.453  1.6434  0.9172  5.9433
 3991SOL     OW23608   4.645   4.714   2.157  0.2001 -0.1436 -0.0744
 3991SOL    HW123609   4.685   0.043   2.099 -1.6282 -1.6531 -3.0160
 3991SOL    HW223610   4.682   0.005   2.242 -0.4467 -1.5867  0.6574
 3992SOL     OW23611   4.453   2.181   7.231 -0.1374  0.5992 -0.1052
 3992SOL    HW123612   4.431   2.271   7.207 -1.5080 -0.4295 -2.7536
 3992SOL    HW223613   4.515   2.168   7.159  0.5681  1.4034  0.3547
 3993SOL     OW23614   1.118   3.965   6.755 -0.3054 -0.1687 -0.7587
 3993SOL    HW123615   1.130   4.040   6.813  0.0125 -0.9477  0.2012
 3993SOL    HW223616   1.026   3.987   6.748  0.1020  2.0891  1.0143
 3994SOL     OW23617   3.156   0.523   4.539 -0.2093  0.3752  0.2553
 3994SOL    HW123618   3.080   0.489   4.587  1.5484 -3.3653  0.3632
 3994SOL    HW223619   3.163   0.613   4.571  0.1974  0.8439 -1.1584
 3995SOL     OW23620   2.530   1.573   4.609 -0.0457  0.3472  0.8133
 3995SOL    HW123621   2.588   1.524   4.668  1.4956 -0.8565 -1.7138
 3995SOL    HW223622   2.449   1.584   4.659  0.5970  1.4461  1.5913
 3996SOL     OW23623   4.655   2.843   4.463 -0.1692 -0.3864  0.4326
 3996SOL    HW123624   4.658   2.776   4.395  1.5545 -1.2594  1.3657
 3996SOL    HW223625   4.561   2.858   4.476 -0.1260 -0.0068  0.3147
 3997SOL     OW23626   4.139   3.096   5.271 -0.3169 -0.3509 -0.1560
 3997SOL    HW123627   4.110   3.179   5.233 -1.5104 -0.1123  1.2756
 3997SOL    HW223628   4.204   3.133   5.331 -1.5642 -0.1804  1.0900
 3998SOL     OW23629   4.403   4.411  16.396 -0.0254 -0.6615  0.1529
 3998SOL    HW123630   4.353   4.389  16.318  0.9800  0.4727 -0.7941
 3998SOL    HW223631   4.458   4.333  16.405  1.8598  0.6953  0.2409
 3999SOL     OW23632   3.436   4.152   2.007 -0.0835  0.2118  0.1469
 3999SOL    HW123633   3.362   4.212   2.019 -0.7348 -0.2966 -1.3214
 3999SOL    HW223634   3.405   4.074   2.052 -1.1599  1.0263  0.8295
 4000SOL     OW23635   2.341   1.554   7.323 -0.2591 -0.0766 -0.6710
 4000SOL    HW123636   2.385   1.625   7.370  0.7847 -1.3391  0.2536
 4000SOL    HW223637   2.342   1.589   7.234 -0.7403 -0.9928 -1.0331
 4001SOL     OW23638   1.328   1.775  12.833 -0.9457 -0.5851  0.4500
 4001SOL    HW123639   1.364   1.753  12.747 -0.8272  1.1343  0.0426
 4001SOL    HW223640   1.412   1.801  12.871 -0.2372 -1.5106 -0.4817
 4002SOL     OW23641   2.021   3.848   4.708  0.2611 -0.1005 -0.2192
 4002SOL    HW123642   2.048   3.911   4.776 -0.5835  1.6948 -1.5419
 4002SOL    HW223643   2.108   3.825   4.677 -0.0866 -1.9806  0.1861
 4003SOL     OW23644   2.050   1.666   8.236 -0.6798  0.0326  0.0807
 4003SOL    HW123645   2.029   1.584   8.282  3.4884 -1.5387 -0.7868
 4003SOL    HW223646   2.001   1.653   8.155  0.3885  0.0499 -0.5639
 4004SOL     OW23647   4.647   0.704   3.329  0.0541 -0.1619 -0.0195
 4004SOL    HW123648   4.552   0.697   3.342 -0.3160  0.3269 -2.5156
 4004SOL    HW223649   4.649   0.745   3.242 -0.4736 -2.1665 -0.9630
 4005SOL     OW23650   3.708   4.005   5.146  0.0980  0.2275 -0.0612
 4005SOL    HW123651   3.692   4.089   5.189  3.1232  1.3032 -1.0350
 4005SOL    HW223652   3.710   3.942   5.218  0.2123 -1.0125 -1.1467
 4006SOL     OW23653   4.723   2.677  12.570  0.2510  0.0699 -0.5025
 4006SOL    HW123654   0.061   2.642  12.620  1.5967  0.1700 -2.4269
 4006SOL    HW223655   0.032   2.756  12.540  2.4376 -0.6289  0.8980
 4007SOL     OW23656   4.412   3.807  13.675 -0.1475  0.1649  0.1762
 4007SOL    HW123657   4.502   3.789  13.702 -0.2907  0.0937  0.6032
 4007SOL    HW223658   4.424   3.881  13.615  0.1521 -0.2902 -0.3218
 4008SOL     OW23659   4.357   1.772   0.512  0.0313  0.1970  0.3189
 4008SOL    HW123660   4.409   1.752   0.589  0.1572 -0.5905  0.0283
 4008SOL    HW223661   4.417   1.829   0.464  2.4568 -3.1538 -0.6222
 4009SOL     OW23662   1.881   0.370   4.899 -0.3065 -0.1503  0.6001
 4009SOL    HW123663   1.977   0.373   4.897 -0.3060  0.8249  2.1383
 4009SOL    HW223664   1.867   0.435   4.968  1.1718 -0.4717  1.2043
 4010SOL     OW23665   0.807   1.457  16.756  0.3954  0.0364  0.1119
 4010SOL    HW123666   0.789   1.465  16.849  0.7169 -2.9561  0.4247
 4010SOL    HW223667   0.902   1.457  16.759  0.3286  0.5182  1.9440
 4011SOL     OW23668   3.596   0.675   7.683 -0.3894  0.0628 -0.3580
 4011SOL    HW123669   3.504   0.651   7.678 -0.6053  0.3937  2.3020
 4011SOL    HW223670   3.634   0.589   7.698  0.2271  0.5082  0.6111
 4012SOL     OW23671   3.015   0.487   5.138 -0.8762 -0.1346 -0.0608
 4012SOL    HW123672   3.003   0.566   5.086  3.0953  0.2905 -0.3277
 4012SOL    HW223673   3.062   0.520   5.214 -1.1620 -0.8001  0.4048
 4013SOL     OW23674   1.087   0.208  12.668 -0.2163 -0.4298  0.0109
 4013SOL    HW123675   1.117   0.164  12.589  0.3374 -0.2552  0.1175
 4013SOL    HW223676   1.159   0.268  12.689  1.2377 -2.2432  0.2558
 4014SOL     OW23677   2.234   3.611  12.695  0.4986  0.5838 -0.2183
 4014SOL    HW123678   2.191   3.695  12.682  0.6486  0.7341  0.2333
 4014SOL    HW223679   2.158   3.552  12.699 -0.4130  1.8892  1.8751
 4015SOL     OW23680   4.559   3.954  14.199  0.3298 -0.0075  0.0375
 4015SOL    HW123681   4.580   4.026  14.140  1.0223  0.5287  0.9362
 4015SOL    HW223682   4.519   4.003  14.271  0.3675  1.7550 -1.1390
 4016SOL     OW23683   2.910   1.658   5.435  0.5654 -0.0103  0.2574
 4016SOL    HW123684   2.879   1.675   5.524 -0.5508  2.8937 -0.6842
 4016SOL    HW223685   2.859   1.729   5.396 -1.1957 -0.5209  1.6162
 4017SOL     OW23686   3.774   2.460   7.234  0.3239 -0.3337  0.2947
 4017SOL    HW123687   3.733   2.468   7.320  0.1607  0.9890  0.0864
 4017SOL    HW223688   3.828   2.383   7.253  0.5070  0.3948  2.6461
 4018SOL     OW23689   2.391   4.357   7.843  0.0575  0.7815  0.2923
 4018SOL    HW123690   2.401   4.264   7.862 -0.4178  0.2612 -2.0537
 4018SOL    HW223691   2.328   4.393   7.906 -1.0575  0.9426 -0.9209
 4019SOL     OW23692   2.259   3.064  14.933 -0.4873 -0.5956  0.4708
 4019SOL    HW123693   2.171   3.071  14.972 -0.7539  2.0933 -0.5707
 4019SOL    HW223694   2.255   3.104  14.846 -1.8471 -1.4941  0.1209
 4020SOL     OW23695   1.508   0.292   9.880 -0.3531  0.5494 -0.5143
 4020SOL    HW123696   1.461   0.232   9.938 -0.3989  0.8112 -0.2797
 4020SOL    HW223697   1.597   0.258   9.894 -0.4179 -0.0704 -1.6847
 4021SOL     OW23698   1.275   4.193   2.395  0.0180 -0.3788  0.2715
 4021SOL    HW123699   1.277   4.098   2.383  0.8809 -0.1063 -1.8270
 4021SOL    HW223700   1.271   4.205   2.490  0.0366  1.9507 -0.0246
 4022SOL     OW23701   3.593   4.256   4.464  0.8441  0.1870  0.1605
 4022SOL    HW123702   3.666   4.309   4.433  0.7027  0.4042  0.1948
 4022SOL    HW223703   3.543   4.257   4.382  0.5525  2.1997  0.3473
 4023SOL     OW23704   3.531   0.634   3.637  0.4107 -0.3832 -0.1050
 4023SOL    HW123705   3.585   0.708   3.606  1.6748 -1.0310  0.5621
 4023SOL    HW223706   3.514   0.592   3.553 -0.0729 -0.1280 -0.1381
 4024SOL     OW23707   4.208   1.547   7.416  0.2997  0.2403  0.0510
 4024SOL    HW123708   4.125   1.594   7.425 -0.7950 -2.1613  2.3618
 4024SOL    HW223709   4.247   1.601   7.347 -0.3835  2.3544  1.3296
 4025SOL     OW23710   3.631   3.669  16.299 -0.1217 -0.5305  0.6088
 4025SOL    HW123711   3.698   3.693  16.364  3.1997 -3.8226 -1.6352
 4025SOL    HW223712   3.569   3.740  16.317 -0.3202  0.1951 -2.9498
 4026SOL     OW23713   1.762   1.954   2.940  0.3795 -0.0515  0.5623
 4026SOL    HW123714   1.718   1.897   2.878 -0.4036  0.0647  1.0138
 4026SOL    HW223715   1.806   2.012   2.878  0.3478 -0.8797 -0.2159
 4027SOL     OW23716   3.203   0.349   8.428  0.8787  0.3248 -0.0472
 4027SOL    HW123717   3.159   0.269   8.458 -0.4466  0.8476 -0.5923
 4027SOL    HW223718   3.206   0.406   8.505 -0.7168  0.0926  0.1836
 4028SOL     OW23719   1.560   0.171   4.267 -0.3207 -0.1824  0.1100
 4028SOL    HW123720   1.527   0.144   4.181 -2.0195  1.7705  0.1367
 4028SOL    HW223721   1.475   0.195   4.305 -0.3656  2.1532 -1.4732
 4029SOL     OW23722   4.346   0.114   8.224 -0.1096 -0.4179  0.2426
 4029SOL    HW123723   4.302   0.132   8.307 -0.1164 -0.6260  0.2840
 4029SOL    HW223724   4.315   0.194   8.182  1.0243  0.0008  0.2026
 4030SOL     OW23725   0.344   4.433   2.079  0.0750  0.5361  0.1924
 4030SOL    HW123726   0.306   4.515   2.110 -0.2349  1.1248 -1.7703
 4030SOL    HW223727   0.306   4.445   1.992 -0.2405 -0.0451  0.2498
 4031SOL     OW23728   2.789   0.712  13.021  0.5986 -0.0374  0.2303
 4031SOL    HW123729   2.819   0.763  12.946 -2.1225 -0.2420 -1.0003
 4031SOL    HW223730   2.859   0.708  13.087  0.3276  1.5529  0.5962
 4032SOL     OW23731   3.486   3.176   6.031  0.5617  0.5015  0.3541
 4032SOL    HW123732   3.562   3.120   6.041  0.9870  0.9099 -0.6061
 4032SOL    HW223733   3.440   3.141   5.955 -2.4899  0.0964  2.3749
 4033SOL     OW23734   2.348   4.575  12.697  0.0917 -0.2483  0.0685
 4033SOL    HW123735   2.364   4.650  12.640 -1.1065 -1.8465 -2.3558
 4033SOL    HW223736   2.279   4.534  12.645 -0.4584  0.2588  0.3940
 4034SOL     OW23737   4.340   4.605   2.816 -0.3149  0.4648 -0.1686
 4034SOL    HW123738   4.349   4.547   2.740 -1.0178  0.7710 -0.4821
 4034SOL    HW223739   4.414   4.665   2.812 -1.0277  1.3109 -0.5878
 4035SOL     OW23740   3.921   2.823   9.325 -0.1603  0.0449  0.2438
 4035SOL    HW123741   3.911   2.881   9.400 -1.2825  1.1217 -0.7386
 4035SOL    HW223742   3.929   2.877   9.246  0.1825  0.7863  0.7800
 4036SOL     OW23743   4.566   1.220   0.330  0.5505 -0.3735  0.6220
 4036SOL    HW123744   4.627   1.146   0.339  0.4161 -0.7440 -1.6181
 4036SOL    HW223745   4.589   1.261   0.413 -1.3893 -1.4544  1.6860
 4037SOL     OW23746   3.539   3.081   2.269 -0.1244 -0.3453 -1.0562
 4037SOL    HW123747   3.609   3.110   2.210 -0.2504 -0.6095 -1.3365
 4037SOL    HW223748   3.560   2.988   2.273 -2.6951 -0.8047  1.7383
 4038SOL     OW23749   1.690   3.496   7.562  0.1359  0.7302  0.3075
 4038SOL    HW123750   1.719   3.415   7.519  1.6618  1.2466  0.3882
 4038SOL    HW223751   1.623   3.466   7.624  0.3262  0.8607  0.5743
 4039SOL     OW23752   0.905   2.268   0.874  0.1660 -0.2631 -1.0555
 4039SOL    HW123753   0.899   2.273   0.969  1.6259 -2.6108 -0.8276
 4039SOL    HW223754   0.978   2.328   0.860 -0.6304  0.9905  0.2460
 4040SOL     OW23755   3.917   1.305   9.434 -0.3965 -0.4195 -0.7415
 4040SOL    HW123756   3.892   1.326   9.524 -0.9455  0.0830 -1.0134
 4040SOL    HW223757   3.968   1.381   9.408 -1.4526  0.0677 -1.3767
 4041SOL     OW23758   0.307   0.013   0.863 -0.5301  0.0763  0.2885
 4041SOL    HW123759   0.236   0.039   0.805 -0.1161  2.4715  0.8353
 4041SOL    HW223760   0.322   4.668   0.815 -2.6300  0.4259 -0.9722
 4042SOL     OW23761   3.904   0.218  13.224 -0.5109  0.2163 -0.9938
 4042SOL    HW123762   3.839   0.207  13.155 -2.1641 -0.5498  0.6838
 4042SOL    HW223763   3.933   0.305  13.197 -1.0604  0.6459 -0.2007
 4043SOL     OW23764   2.170   3.443   9.089  0.1297 -0.3608 -0.5071
 4043SOL    HW123765   2.125   3.521   9.121 -1.3165 -1.2155 -0.4552
 4043SOL    HW223766   2.136   3.367   9.137 -0.3155  1.7448  2.4514
 4044SOL     OW23767   4.572   0.490   8.137  0.0459  0.0295 -0.2994
 4044SOL    HW123768   4.522   0.572   8.139 -1.9010 -1.1921  0.9508
 4044SOL    HW223769   4.658   0.524   8.163  0.1669 -1.4385  1.1949
 4045SOL     OW23770   4.276   2.514   5.305 -0.1032 -0.1958  0.8654
 4045SOL    HW123771   4.352   2.572   5.311  0.9457 -1.3057 -1.6289
 4045SOL    HW223772   4.317   2.441   5.351 -0.9965 -0.2882  1.5134
 4046SOL     OW23773   3.140   3.229   4.443  0.0479 -0.1146 -0.2847
 4046SOL    HW123774   3.150   3.181   4.525  0.6314  2.1738  0.9824
 4046SOL    HW223775   3.229   3.260   4.429  0.5914 -1.0792  0.9993
 4047SOL     OW23776   0.953   0.283  14.547  0.4369 -0.0549 -0.5406
 4047SOL    HW123777   0.891   0.306  14.616  0.7631 -0.9309  0.0467
 4047SOL    HW223778   1.010   0.217  14.588  2.6015  1.3138 -1.3168
 4048SOL     OW23779   3.144   3.859   9.752  0.5159  0.4916  0.1598
 4048SOL    HW123780   3.143   3.849   9.656 -0.9116 -1.0820  0.3359
 4048SOL    HW223781   3.231   3.898   9.763  0.6095 -0.0458  1.2461
 4049SOL     OW23782   2.625   1.431  12.554  0.0333 -0.0506  0.0457
 4049SOL    HW123783   2.579   1.512  12.534 -0.9098 -0.3682  0.9521
 4049SOL    HW223784   2.652   1.438  12.645 -2.2682  3.3773  0.4643
 4050SOL     OW23785   3.919   0.190   3.872  0.8086 -0.2850 -0.4424
 4050SOL    HW123786   3.869   0.223   3.947  2.3721 -0.8555  0.8564
 4050SOL    HW223787   3.969   0.124   3.920  2.0674  1.2408  0.3209
 4051SOL     OW23788   1.591   1.741   5.240  0.1194  0.5439  0.5978
 4051SOL    HW123789   1.539   1.701   5.310  0.0814 -0.5147 -0.0379
 4051SOL    HW223790   1.560   1.832   5.236  1.8132  1.0681 -0.5397
 4052SOL     OW23791   1.020   3.179   2.312 -0.0620 -0.5355 -0.3702
 4052SOL    HW123792   1.086   3.134   2.365 -0.2136 -0.2839  0.0238
 4052SOL    HW223793   0.960   3.105   2.308 -2.1209  1.1555 -0.4148
 4053SOL     OW23794   2.347   3.682   3.418 -0.0217 -0.2168  0.1510
 4053SOL    HW123795   2.383   3.754   3.469  3.1220 -1.7749  0.1032
 4053SOL    HW223796   2.397   3.693   3.338  2.0184 -0.4000  1.4077
 4054SOL     OW23797   1.527   3.380  10.268  0.0982 -0.1659 -0.0756
 4054SOL    HW123798   1.527   3.450  10.202  0.9705  0.3227  0.4454
 4054SOL    HW223799   1.598   3.330  10.229 -0.1284 -0.3387 -0.2626
 4055SOL     OW23800   3.837   1.018   4.797 -0.0691 -0.6028  0.7521
 4055SOL    HW123801   3.779   1.015   4.873  0.6370  0.2565  1.3339
 4055SOL    HW223802   3.774   1.032   4.727  0.8937  0.4734  0.1048
 4056SOL     OW23803   3.134   1.718   3.626  0.3200  1.0874 -0.0394
 4056SOL    HW123804   3.191   1.689   3.697  0.5377 -0.9317 -1.0393
 4056SOL    HW223805   3.050   1.695   3.666  0.2160 -0.5498 -1.2443
 4057SOL     OW23806   1.031   0.781  10.168 -0.0655 -0.4728  1.0053
 4057SOL    HW123807   1.000   0.714  10.228  2.1678  0.5344  3.2707
 4057SOL    HW223808   1.108   0.814  10.214 -0.3868 -0.4119  1.4979
 4058SOL     OW23809   3.872   1.536   1.571 -0.3092 -0.5354  0.4671
 4058SOL    HW123810   3.959   1.532   1.611 -0.0363 -2.8458 -0.3135
 4058SOL    HW223811   3.826   1.490   1.641 -1.6082 -1.7109 -1.1545
 4059SOL     OW23812   2.419   0.404   7.822  0.4526  0.3535  0.4835
 4059SOL    HW123813   2.421   0.317   7.783 -0.5194 -0.3512  2.0414
 4059SOL    HW223814   2.333   0.445   7.811  0.4391 -0.2021 -1.4825
 4060SOL     OW23815   0.887   1.811   2.123  0.2179  0.2325 -0.1062
 4060SOL    HW123816   0.803   1.774   2.148  0.5465 -0.2041  0.3341
 4060SOL    HW223817   0.925   1.727   2.097  0.3560 -0.1834  1.4469
 4061SOL     OW23818   4.075   1.070   1.861  0.0633 -0.0291  0.6507
 4061SOL    HW123819   4.040   1.157   1.881  3.0840  1.5378 -0.9215
 4061SOL    HW223820   4.161   1.108   1.845 -0.0454  1.4353  3.5129
 4062SOL     OW23821   0.771   0.325   6.216  0.2023  0.1897 -0.6833
 4062SOL    HW123822   0.766   0.236   6.181  2.0334 -0.2833  0.2722
 4062SOL    HW223823   0.742   0.326   6.307  1.2690 -1.6470 -0.3083
 4063SOL     OW23824   3.103   4.139  16.229  0.7615  0.3251 -0.7226
 4063SOL    HW123825   3.122   4.198  16.302 -2.5200  0.0305  0.3738
 4063SOL    HW223826   3.115   4.201  16.157 -1.7197 -0.8287 -2.0904
 4064SOL     OW23827   1.796   3.951   6.963 -0.3384 -0.2204 -0.6796
 4064SOL    HW123828   1.786   3.857   6.976  0.2502 -0.1628  0.1698
 4064SOL    HW223829   1.715   3.987   7.000 -1.1112 -3.5241  0.8834
 4065SOL     OW23830   3.272   3.561   2.140  0.0430  0.5491  0.6072
 4065SOL    HW123831   3.242   3.613   2.214 -0.6331  0.7673  0.1852
 4065SOL    HW223832   3.342   3.506   2.175  1.3660  0.9140 -1.3975
 4066SOL     OW23833   0.708   0.844   4.904 -0.3017  0.5956  0.0297
 4066SOL    HW123834   0.636   0.782   4.912 -1.0607  1.8269  2.9574
 4066SOL    HW223835   0.771   0.797   4.958  1.5776  2.0587 -0.8698
 4067SOL     OW23836   3.270   0.047   6.410  0.3515  0.6620 -0.3031
 4067SOL    HW123837   3.211   0.114   6.445  0.4795  0.1834  0.8251
 4067SOL    HW223838   3.331   0.031   6.482  1.2276 -1.9763 -1.6360
 4068SOL     OW23839   1.828   4.483  10.641 -0.0433 -0.1238  0.1883
 4068SOL    HW123840   1.804   4.567  10.680 -0.1461  0.6679 -1.5883
 4068SOL    HW223841   1.750   4.434  10.665  0.0318 -0.7123 -0.8036
 4069SOL     OW23842   1.019   0.892   8.375  0.0949  0.2272  0.7979
 4069SOL    HW123843   0.962   0.871   8.301 -0.0511 -0.9994  1.2716
 4069SOL    HW223844   1.069   0.813   8.394 -1.4224 -1.0493 -0.5103
 4070SOL     OW23845   2.862   2.143   7.738  0.4867  0.1315 -0.0956
 4070SOL    HW123846   2.889   2.223   7.782  0.4991  0.5068 -0.7890
 4070SOL    HW223847   2.848   2.083   7.812  0.2297  1.2340  0.7420
 4071SOL     OW23848   1.837   1.265   7.061  0.5364 -0.3334 -0.1268
 4071SOL    HW123849   1.798   1.341   7.104  1.3523  0.1112 -0.1637
 4071SOL    HW223850   1.928   1.283   7.086  1.2829  0.6442 -3.4424
 4072SOL     OW23851   1.731   3.136  13.657 -0.2553  0.4250 -0.0976
 4072SOL    HW123852   1.721   3.082  13.578  0.7426  0.6811 -0.4063
 4072SOL    HW223853   1.826   3.133  13.670 -0.6713 -0.5580  2.6933
 4073SOL     OW23854   2.934   1.881  15.479 -0.0419  0.3248 -0.2276
 4073SOL    HW123855   2.967   1.910  15.394  1.6832  0.2184  0.3971
 4073SOL    HW223856   2.997   1.921  15.540  0.8364 -1.5269  0.0882
 4074SOL     OW23857   2.921   1.917   7.580 -0.2170 -0.1689  0.0486
 4074SOL    HW123858   2.832   1.883   7.587 -0.5025  0.0740 -2.6080
 4074SOL    HW223859   2.921   1.985   7.648  1.8944  0.7873 -0.9188
 4075SOL     OW23860   3.212   3.345   3.097  0.3968  0.2708 -0.2504
 4075SOL    HW123861   3.267   3.402   3.150 -1.2044  3.3526 -1.8526
 4075SOL    HW223862   3.123   3.382   3.093  0.5757  0.7936  0.5276
 4076SOL     OW23863   3.423   1.676   8.891 -0.1560  0.5137  0.1891
 4076SOL    HW123864   3.330   1.652   8.884 -0.0690  0.2403 -0.0382
 4076SOL    HW223865   3.464   1.597   8.858 -2.1289 -0.8611  1.0125
 4077SOL     OW23866   4.236   4.732   0.649 -0.2244 -0.0020 -0.4510
 4077SOL    HW123867   4.272   0.019   0.734 -0.8102 -1.8638  0.2832
 4077SOL    HW223868   4.295   0.047   0.593 -2.0841  0.3988 -2.0659
 4078SOL     OW23869   3.698   3.276   5.342 -0.0115 -0.7713 -0.3305
 4078SOL    HW123870   3.663   3.336   5.276 -1.5458 -0.9180  0.3655
 4078SOL    HW223871   3.780   3.323   5.359 -0.8000  0.4836 -0.0098
 4079SOL     OW23872   0.058   1.150   8.188 -0.0074  0.0213  0.0826
 4079SOL    HW123873   4.707   1.180   8.159  0.2238 -0.7440 -1.3860
 4079SOL    HW223874   0.110   1.207   8.131  0.7953 -0.0351  0.7633
 4080SOL     OW23875   2.978   2.722   5.527  0.0125 -0.1636  0.3405
 4080SOL    HW123876   2.938   2.694   5.445 -1.2687 -0.6156  1.1154
 4080SOL    HW223877   3.013   2.638   5.556 -1.1183 -0.5310  0.6401
 4081SOL     OW23878   3.598   3.658   6.012 -0.3685 -0.1948 -0.0484
 4081SOL    HW123879   3.589   3.567   5.984 -0.6713  0.1642 -1.1169
 4081SOL    HW223880   3.586   3.648   6.107  0.3773  2.8815  0.3538
 4082SOL     OW23881   1.417   2.383   6.242  0.3003 -0.1628  0.5697
 4082SOL    HW123882   1.430   2.399   6.335 -0.5212 -1.0768  0.8474
 4082SOL    HW223883   1.342   2.324   6.238 -0.5080  0.7540  2.2289
 4083SOL     OW23884   2.747   3.546   3.288 -0.0635  0.1284  0.1172
 4083SOL    HW123885   2.768   3.502   3.370  0.5132 -1.2819 -0.7888
 4083SOL    HW223886   2.726   3.631   3.325  0.0961 -0.1306  0.7997
 4084SOL     OW23887   1.246   0.829   5.936  0.7444  0.7817 -0.1578
 4084SOL    HW123888   1.295   0.873   5.867 -0.2834  2.1328 -0.0177
 4084SOL    HW223889   1.309   0.767   5.973 -2.4496 -0.2092  3.6408
 4085SOL     OW23890   0.723   0.865   7.401 -0.2369 -0.2245 -0.7450
 4085SOL    HW123891   0.734   0.909   7.317 -2.2972 -1.9685 -1.9430
 4085SOL    HW223892   0.744   0.773   7.384 -1.3248 -0.9016  1.5315
 4086SOL     OW23893   0.673   0.668  16.703 -0.2858  0.1261  0.0766
 4086SOL    HW123894   0.670   0.574  16.689  0.8143  0.3976 -2.0560
 4086SOL    HW223895   0.591   0.696  16.664  0.6062 -1.3941 -2.8771
 4087SOL     OW23896   2.323   1.513   8.182 -0.1239  0.3952  0.6878
 4087SOL    HW123897   2.288   1.488   8.096  1.1220 -0.3040  0.3823
 4087SOL    HW223898   2.389   1.450   8.212 -2.4921 -1.4203  2.2031
 4088SOL     OW23899   2.144   0.454   7.733 -0.2243  0.1266  0.2481
 4088SOL    HW123900   2.095   0.381   7.770 -0.1415 -0.2333 -0.3502
 4088SOL    HW223901   2.118   0.465   7.642  1.2019 -1.9940 -0.4065
 4089SOL     OW23902   3.417   0.844   6.603  0.3687 -0.4301  0.4667
 4089SOL    HW123903   3.416   0.868   6.511 -0.0201  2.6878  1.2699
 4089SOL    HW223904   3.462   0.919   6.642  0.7365 -0.1118 -0.5864
 4090SOL     OW23905   1.404   0.852  10.871 -0.3969  0.0654 -0.3006
 4090SOL    HW123906   1.474   0.914  10.889 -0.1756 -0.3918  0.4270
 4090SOL    HW223907   1.326   0.904  10.890 -1.5230 -1.6578 -0.1840
 4091SOL     OW23908   3.256   2.071   5.400 -0.0721  0.4253 -0.2078
 4091SOL    HW123909   3.301   2.084   5.316 -1.8615 -0.4309 -1.2893
 4091SOL    HW223910   3.293   1.992   5.439 -0.1264 -0.6776 -2.3517
 4092SOL     OW23911   4.050   2.944   7.434 -0.3128 -0.7709  0.2602
 4092SOL    HW123912   4.007   3.029   7.449  0.5629 -0.4342  0.8294
 4092SOL    HW223913   4.112   2.945   7.506  0.9670  1.5084 -0.8567
 4093SOL     OW23914   4.216   0.639  10.860  0.0196 -0.1413  0.0059
 4093SOL    HW123915   4.275   0.633  10.935 -0.0099  2.0258  0.2003
 4093SOL    HW223916   4.164   0.716  10.882  0.5381 -0.3245  1.8735
 4094SOL     OW23917   3.526   2.884  11.945 -0.2880 -0.3096 -0.3921
 4094SOL    HW123918   3.613   2.849  11.964 -0.8683 -0.3283  2.3356
 4094SOL    HW223919   3.544   2.939  11.870  1.5336 -0.8156 -0.3165
 4095SOL     OW23920   4.527   2.485  15.879 -0.1976  0.3182  0.2672
 4095SOL    HW123921   4.613   2.443  15.885  0.1376  1.0006  0.1600
 4095SOL    HW223922   4.547   2.545  15.807 -0.8671  0.2568  0.0228
 4096SOL     OW23923   0.708   4.282   6.792 -0.3281 -0.4294  0.1320
 4096SOL    HW123924   0.697   4.278   6.888  0.5001  1.5859  0.3054
 4096SOL    HW223925   0.653   4.356   6.765 -1.9277 -2.9434 -3.4441
 4097SOL     OW23926   1.832   1.851   8.454  0.6748 -0.1135 -0.4203
 4097SOL    HW123927   1.901   1.878   8.393 -0.5434 -0.4634 -1.9516
 4097SOL    HW223928   1.869   1.767   8.479 -0.3704  0.0755  1.7548
 4098SOL     OW23929   0.336   4.187   2.191  0.1764  0.4902  0.3907
 4098SOL    HW123930   0.302   4.232   2.269 -1.6720  1.0894 -0.7694
 4098SOL    HW223931   0.344   4.258   2.128 -0.3404 -0.1871 -0.4377
 4099SOL     OW23932   3.538   3.149   3.279 -0.0060  0.4528 -0.1674
 4099SOL    HW123933   3.464   3.208   3.297  0.7029  1.5396 -0.7947
 4099SOL    HW223934   3.607   3.203   3.318  0.4750  1.2395 -2.0879
 4100SOL     OW23935   1.352   2.479   6.555 -0.2690 -0.1438 -0.6517
 4100SOL    HW123936   1.382   2.568   6.571  0.9696 -0.9907  1.7864
 4100SOL    HW223937   1.268   2.484   6.600 -1.1167 -0.3728 -2.2212
 4101SOL     OW23938   1.779   2.118  17.312 -0.2660  0.1154 -0.2262
 4101SOL    HW123939   1.745   2.044  17.361  0.8100 -2.1231 -2.8178
 4101SOL    HW223940   1.712   2.182  17.333  1.0470  0.8967  1.6039
 4102SOL     OW23941   3.775   2.352   9.196  0.1090  0.8957  0.3511
 4102SOL    HW123942   3.826   2.288   9.245  1.0054  1.4463  0.1388
 4102SOL    HW223943   3.780   2.436   9.244  0.2892  1.9837 -1.5766
 4103SOL     OW23944   0.364   3.758  15.977 -0.2741  0.8574 -0.3881
 4103SOL    HW123945   0.313   3.692  16.025  1.3819 -0.3637 -0.3126
 4103SOL    HW223946   0.325   3.737  15.892  0.2968 -1.0473 -0.1833
 4104SOL     OW23947   2.741   2.080   9.094 -0.3671  0.6372 -0.5518
 4104SOL    HW123948   2.726   2.168   9.127 -2.0889 -0.6254  2.0663
 4104SOL    HW223949   2.835   2.072   9.081 -0.6544  0.0066 -2.3518
 4105SOL     OW23950   2.837   1.338   9.695  0.0315 -0.0609 -0.2767
 4105SOL    HW123951   2.758   1.297   9.729 -0.5630 -0.2161 -1.8646
 4105SOL    HW223952   2.868   1.272   9.632 -2.0476 -2.1621  0.8880
 4106SOL     OW23953   1.822   2.600   4.372 -0.3042 -0.7715 -0.1711
 4106SOL    HW123954   1.837   2.686   4.412 -2.8081 -1.0426  1.2828
 4106SOL    HW223955   1.847   2.537   4.439 -0.4865 -0.3854  0.2596
 4107SOL     OW23956   1.068   1.426  16.757 -0.7774 -0.4536  0.0261
 4107SOL    HW123957   1.133   1.448  16.824  0.1962 -1.5619 -0.5528
 4107SOL    HW223958   1.118   1.400  16.680 -1.0704  0.6257 -0.5327
 4108SOL     OW23959   1.478   2.896   6.392  1.0934  0.1725 -0.5276
 4108SOL    HW123960   1.438   2.857   6.314  1.1288 -2.6115  0.8454
 4108SOL    HW223961   1.441   2.840   6.460 -0.9315 -2.1380 -3.5160
 4109SOL     OW23962   0.688   2.220   5.932 -0.1382 -0.2848  0.6074
 4109SOL    HW123963   0.728   2.281   5.993  1.8610 -1.4810  0.5217
 4109SOL    HW223964   0.760   2.211   5.869 -1.3896 -1.4679 -0.6753
 4110SOL     OW23965   2.548   3.339   1.192  0.5792 -0.2791  0.2578
 4110SOL    HW123966   2.561   3.390   1.112  1.2083 -0.8898 -0.0309
 4110SOL    HW223967   2.513   3.256   1.159 -1.2209  0.4596  0.3521
 4111SOL     OW23968   3.706   2.265   7.826  0.2315 -0.3584 -0.1457
 4111SOL    HW123969   3.612   2.256   7.812 -0.1365  4.6548 -0.7048
 4111SOL    HW223970   3.748   2.222   7.751  0.1198 -1.9509  0.7050
 4112SOL     OW23971   2.548   1.227  12.264  0.1149  0.4903  0.0863
 4112SOL    HW123972   2.530   1.229  12.358  0.7397 -3.3747  0.2877
 4112SOL    HW223973   2.632   1.273  12.272  1.7554 -1.9945 -2.9501
 4113SOL     OW23974   2.349   2.626   6.278 -0.2362  0.7270 -0.5935
 4113SOL    HW123975   2.425   2.681   6.294  1.0751 -1.2880  0.0403
 4113SOL    HW223976   2.375   2.540   6.310 -1.5759  0.6101  0.2025
 4114SOL     OW23977   0.306   3.717   5.022 -0.4078 -0.5494  0.3304
 4114SOL    HW123978   0.247   3.718   4.946  0.3427  2.7428 -0.2107
 4114SOL    HW223979   0.368   3.650   4.992  1.0868 -0.1276  2.5019
 4115SOL     OW23980   1.698   2.545   5.274  0.2231 -0.4886 -0.2219
 4115SOL    HW123981   1.735   2.514   5.356  1.0347 -0.9789 -0.7779
 4115SOL    HW223982   1.731   2.483   5.209  1.0237  0.5869 -0.8384
 4116SOL     OW23983   1.332   1.367   1.160 -0.0083  0.2506 -0.0185
 4116SOL    HW123984   1.381   1.449   1.167 -2.7483  1.8778  0.0883
 4116SOL    HW223985   1.328   1.364   1.064  1.9172 -0.5349 -0.0855
 4117SOL     OW23986   0.996   1.458  14.203  0.2354  0.2707  0.1499
 4117SOL    HW123987   1.007   1.550  14.178  1.0342 -0.1172 -0.9421
 4117SOL    HW223988   1.074   1.412  14.171 -0.4557 -1.0605  0.3646
 4118SOL     OW23989   3.234   1.930   1.715  0.2589 -0.2522  0.3314
 4118SOL    HW123990   3.191   1.981   1.646  0.9037 -1.8710 -1.2502
 4118SOL    HW223991   3.306   1.900   1.661  0.5940 -0.9757  1.1862
 4119SOL     OW23992   4.522   1.507   2.712 -0.7563 -0.1106  0.1613
 4119SOL    HW123993   4.537   1.520   2.618 -3.8880 -0.9030 -0.4334
 4119SOL    HW223994   4.487   1.418   2.714 -1.2636  0.0483 -1.6486
 4120SOL     OW23995   2.261   2.243   1.887  0.6129 -0.0285 -0.4866
 4120SOL    HW123996   2.248   2.318   1.946 -2.0143 -1.8008  1.2060
 4120SOL    HW223997   2.250   2.177   1.954  0.3790  1.4580  0.9486
 4121SOL     OW23998   1.927   4.120   7.429  0.0023 -0.0046 -0.0902
 4121SOL    HW123999   1.949   4.133   7.337 -0.7557 -0.5559 -0.3467
 4121SOL    HW224000   1.939   4.202   7.478 -0.0537 -0.3778  0.5413
 4122SOL     OW24001   3.393   3.444   3.890  0.6159 -0.1332  0.1364
 4122SOL    HW124002   3.308   3.413   3.920  1.4622 -0.6157  2.0455
 4122SOL    HW224003   3.395   3.539   3.902  1.3052 -0.0622 -0.5126
 4123SOL     OW24004   3.977   4.350   6.051 -0.1184 -0.4764 -0.3268
 4123SOL    HW124005   3.912   4.301   6.102  0.2405  1.1100  1.6371
 4123SOL    HW224006   3.930   4.420   6.006  1.9365  2.0980  1.5154
 4124SOL     OW24007   4.397   2.483   7.543 -0.2530  0.3497 -0.9698
 4124SOL    HW124008   4.468   2.520   7.491 -0.2584 -0.9768 -1.9086
 4124SOL    HW224009   4.329   2.478   7.475  0.3512 -0.2901 -1.5230
 4125SOL     OW24010   3.487   1.201   4.833  0.0798  0.2521  1.3145
 4125SOL    HW124011   3.557   1.247   4.786 -0.1404 -0.6291  0.1475
 4125SOL    HW224012   3.524   1.125   4.878  0.3623  1.1596  2.6483
 4126SOL     OW24013   1.468   4.495  12.611  0.3999  0.1928  0.1401
 4126SOL    HW124014   1.433   4.469  12.526  0.2659  4.9053 -1.2357
 4126SOL    HW224015   1.438   4.586  12.606 -1.6311 -0.3530  2.0538
 4127SOL     OW24016   0.842   0.807   3.433 -0.1786 -0.0233  0.5954
 4127SOL    HW124017   0.831   0.883   3.490  0.1993  0.6063 -0.1723
 4127SOL    HW224018   0.928   0.816   3.392 -0.0914  0.5525  0.8967
 4128SOL     OW24019   2.345   1.892   2.486 -0.5650  0.4792 -0.0365
 4128SOL    HW124020   2.407   1.965   2.485 -1.0302  0.8699 -0.1118
 4128SOL    HW224021   2.278   1.903   2.553  0.1337 -1.8935  1.0591
 4129SOL     OW24022   2.143   2.019  12.107 -0.5033  0.2574  0.8387
 4129SOL    HW124023   2.082   1.958  12.147 -1.0592  0.4928  0.3503
 4129SOL    HW224024   2.227   1.975  12.122 -0.7396 -0.4150  0.1928
 4130SOL     OW24025   0.813   4.651   2.690  0.2049  0.5991 -0.9405
 4130SOL    HW124026   0.877   4.589   2.725  0.7877  1.0974 -1.1162
 4130SOL    HW224027   0.869   4.728   2.677  2.0015 -0.2500  1.7610
 4131SOL     OW24028   1.406   1.599   8.947  0.5361  0.3023  0.1104
 4131SOL    HW124029   1.338   1.666   8.937  0.6007  0.1674 -1.3187
 4131SOL    HW224030   1.426   1.603   9.040  1.7849  0.2499 -0.1542
 4132SOL     OW24031   3.213   4.172  13.156 -0.1453 -0.2330  0.3120
 4132SOL    HW124032   3.153   4.098  13.140  0.3132 -1.0762  2.5610
 4132SOL    HW224033   3.300   4.138  13.132 -1.0736 -1.8597 -0.8071
 4133SOL     OW24034   2.616   4.561  15.195  0.5575  0.0438  0.4137
 4133SOL    HW124035   2.639   4.608  15.275  1.8811  0.2579 -0.0871
 4133SOL    HW224036   2.697   4.516  15.171  1.2245  1.1150  0.6730
 4134SOL     OW24037   1.334   0.912   5.127  0.3940 -0.3798  0.6573
 4134SOL    HW124038   1.386   0.873   5.056 -0.9503  0.4551 -0.7813
 4134SOL    HW224039   1.323   1.005   5.106 -1.0239 -0.6735  0.1017
 4135SOL     OW24040   2.943   2.100  13.491 -0.1568  0.5027  0.1648
 4135SOL    HW124041   2.862   2.050  13.501  0.2958 -0.3212 -0.2640
 4135SOL    HW224042   2.930   2.170  13.554 -1.3696  1.9768 -1.7301
 4136SOL     OW24043   2.788   2.741   3.355 -0.1587  0.0023 -0.0155
 4136SOL    HW124044   2.883   2.748   3.352 -0.1507 -0.9449 -1.8370
 4136SOL    HW224045   2.764   2.828   3.385 -0.3817 -0.4222  1.0237
 4137SOL     OW24046   0.705   2.403   6.742  0.0910 -0.2953  0.6139
 4137SOL    HW124047   0.674   2.420   6.653  1.9095  1.7121  0.3669
 4137SOL    HW224048   0.799   2.408   6.721  0.3934 -0.7465  1.8580
 4138SOL     OW24049   4.646   1.985   1.682 -0.1517  0.1884  0.3589
 4138SOL    HW124050   4.621   2.072   1.712 -0.5667 -0.0022  0.5528
 4138SOL    HW224051   4.686   1.946   1.760  0.7890  2.6909  1.1246
 4139SOL     OW24052   0.139   0.472   9.764 -0.0307  0.6659 -0.2734
 4139SOL    HW124053   0.126   0.557   9.804 -1.4330 -0.6658  2.0599
 4139SOL    HW224054   0.230   0.475   9.734 -0.2512 -2.2622 -1.3428
 4140SOL     OW24055   0.104   0.711   9.876 -0.2799 -0.2058  0.2782
 4140SOL    HW124056   0.149   0.683   9.956  1.4232  0.3776 -0.4655
 4140SOL    HW224057   0.096   0.805   9.893  2.2053  0.2913 -1.2813
 4141SOL     OW24058   0.188   3.451  14.722  0.2383 -0.0293  0.4089
 4141SOL    HW124059   0.275   3.458  14.681  0.7786 -1.9502  1.1900
 4141SOL    HW224060   0.149   3.373  14.681  1.3438 -0.5530  0.3350
 4142SOL     OW24061   1.305   1.597  12.465 -0.4426  0.1742  0.2713
 4142SOL    HW124062   1.380   1.555  12.424 -1.7290  0.3527 -2.3115
 4142SOL    HW224063   1.308   1.562  12.554  0.2476  1.1095  0.6129
 4143SOL     OW24064   0.251   4.564   0.203 -0.3123 -0.1910 -0.4553
 4143SOL    HW124065   0.311   4.638   0.212  0.4428 -0.9379  0.6308
 4143SOL    HW224066   0.261   4.521   0.288 -0.7911  1.2303  0.3413
 4144SOL     OW24067   1.841   2.250   7.484 -0.2722 -0.2018  0.3361
 4144SOL    HW124068   1.759   2.228   7.528 -0.3956  0.2268  0.3169
 4144SOL    HW224069   1.878   2.316   7.543  1.0769  0.1876 -0.9599
 4145SOL     OW24070   2.910   0.300  16.584 -0.1050 -0.3631 -0.1181
 4145SOL    HW124071   2.910   0.367  16.516  0.6919  1.9930  2.1710
 4145SOL    HW224072   2.859   0.232  16.541 -1.3380  0.5185 -0.0719
 4146SOL     OW24073   4.292   4.074   1.308 -0.4090  0.7441  0.1685
 4146SOL    HW124074   4.237   4.115   1.241  0.7659  1.1057 -0.5686
 4146SOL    HW224075   4.326   3.998   1.261 -0.8171 -0.6443  2.1228
 4147SOL     OW24076   3.327   0.657   6.053  0.2780  0.6401  0.4586
 4147SOL    HW124077   3.284   0.572   6.060 -2.2845  1.9269  0.2540
 4147SOL    HW224078   3.400   0.629   5.998  1.7197  1.4066  1.9747
 4148SOL     OW24079   0.752   0.429  12.555  0.3886  0.6894  0.5859
 4148SOL    HW124080   0.785   0.430  12.465  0.5508 -0.1086  0.6355
 4148SOL    HW224081   0.827   0.404  12.608  0.5223  0.6106  0.3585
 4149SOL     OW24082   4.660   1.828   3.956  0.0268 -0.0478  0.2923
 4149SOL    HW124083   4.661   1.782   4.039 -2.7434 -2.5081 -1.0415
 4149SOL    HW224084   4.573   1.820   3.916 -0.2260  0.2136  0.7989
 4150SOL     OW24085   0.454   4.575   4.649 -0.0209  0.0160  0.0082
 4150SOL    HW124086   0.549   4.570   4.634  0.1307  0.9042  0.6786
 4150SOL    HW224087   0.438   4.502   4.708  1.9183 -0.8390 -0.5061
 4151SOL     OW24088   2.326   2.215   2.465  0.5038 -0.3589 -0.0552
 4151SOL    HW124089   2.325   2.281   2.396 -2.0386 -1.2970 -0.9374
 4151SOL    HW224090   2.365   2.268   2.534  0.0023  2.2867 -1.8005
 4152SOL     OW24091   4.712   0.043   2.528 -0.5675  0.3596  0.9813
 4152SOL    HW124092   4.681   4.689   2.539  0.2809  0.1994  2.0717
 4152SOL    HW224093   0.058   0.039   2.577  1.0092 -0.0043 -1.6985
 4153SOL     OW24094   2.294   2.092   4.527  0.7647  0.1617  0.1872
 4153SOL    HW124095   2.213   2.139   4.511  0.6016 -0.0302  0.4359
 4153SOL    HW224096   2.354   2.144   4.474  1.3619  0.3627  1.0555
 4154SOL     OW24097   3.708   4.674   2.311 -0.0995  0.3470 -0.4394
 4154SOL    HW124098   3.743   4.639   2.393  0.3401  0.9706 -0.3578
 4154SOL    HW224099   3.779   4.650   2.252 -0.6587  0.2379 -1.0716
 4155SOL     OW24100   3.173   2.796   9.322  0.4132 -0.4907  0.5792
 4155SOL    HW124101   3.111   2.782   9.251 -0.6969 -0.5609  1.5702
 4155SOL    HW224102   3.217   2.877   9.296 -0.3382 -0.6062 -1.0002
 4156SOL     OW24103   0.555   0.458   2.656  0.1650 -0.4119 -0.3523
 4156SOL    HW124104   0.586   0.371   2.631  0.5855  0.0238 -1.3237
 4156SOL    HW224105   0.479   0.465   2.597 -0.2098 -1.0012  0.0622
 4157SOL     OW24106   0.268   0.130   7.659  0.7258  0.1693  0.0042
 4157SOL    HW124107   0.331   0.087   7.601  0.6845 -0.4695  0.4303
 4157SOL    HW224108   0.206   0.058   7.672  2.1118 -0.9569  0.3036
 4158SOL     OW24109   1.072   3.669  12.013 -0.2905  0.0810 -0.0726
 4158SOL    HW124110   1.147   3.686  12.069  0.3406 -0.8336 -0.6649
 4158SOL    HW224111   1.091   3.729  11.941  3.2796 -2.4063 -1.1853
 4159SOL     OW24112   0.149   0.562   4.081 -0.1694 -0.2461 -0.2390
 4159SOL    HW124113   0.176   0.595   3.996 -0.7129 -1.4845 -0.8940
 4159SOL    HW224114   0.057   0.585   4.087 -0.7390 -2.5920  0.2086
 4160SOL     OW24115   4.657   3.696   7.439 -0.3192 -0.0990 -0.3479
 4160SOL    HW124116   4.636   3.663   7.526  1.5442 -0.3807 -0.0035
 4160SOL    HW224117   4.625   3.621   7.389  0.7195 -1.3756  0.9262
 4161SOL     OW24118   0.521   2.409  13.419 -0.4932  0.4855  0.1275
 4161SOL    HW124119   0.600   2.462  13.422  1.5569 -2.6024  0.5973
 4161SOL    HW224120   0.489   2.426  13.508  0.2888  1.6735  0.1796
 4162SOL     OW24121   4.384   4.503  17.275  0.3566 -0.3774  0.2743
 4162SOL    HW124122   4.295   4.467  17.270  0.3244 -0.6814  2.8703
 4162SOL    HW224123   4.433   4.422  17.262 -0.2971 -0.3206 -2.5184
 4163SOL     OW24124   2.663   4.152   7.109 -0.1080  0.4712  0.3023
 4163SOL    HW124125   2.754   4.178   7.125  0.2813 -0.7993  0.1195
 4163SOL    HW224126   2.615   4.200   7.177  2.7729  1.0035  2.0122
 4164SOL     OW24127   2.583   3.165  16.129 -0.5161 -0.5665  0.4078
 4164SOL    HW124128   2.659   3.218  16.155  0.6483  0.0614 -4.3543
 4164SOL    HW224129   2.549   3.151  16.218  0.8025 -2.8698  0.5262
 4165SOL     OW24130   4.190   3.876   8.792  0.1398 -0.0533 -0.1698
 4165SOL    HW124131   4.115   3.833   8.751 -0.1535  0.1605  0.1371
 4165SOL    HW224132   4.181   3.856   8.885  1.4435  2.0803  0.4138
 4166SOL     OW24133   0.545   3.303   2.751  0.2744 -0.4874 -0.5705
 4166SOL    HW124134   0.506   3.226   2.793 -1.5663  0.2134 -0.9924
 4166SOL    HW224135   0.570   3.352   2.829 -0.7257 -1.1589  0.1756
 4167SOL     OW24136   2.479   1.771   7.454 -0.2048 -0.4940  0.3162
 4167SOL    HW124137   2.546   1.811   7.510  0.9715 -2.9480  0.6437
 4167SOL    HW224138   2.400   1.792   7.503  0.2855 -0.4136  1.0772
 4168SOL     OW24139   4.066   3.027   6.348  0.2971 -0.3489  0.2120
 4168SOL    HW124140   4.034   2.987   6.428 -0.3935  0.5746  0.4091
 4168SOL    HW224141   4.055   2.958   6.282 -2.6186  0.8839 -0.6207
 4169SOL     OW24142   2.095   0.003  12.474 -0.1539 -0.1790 -0.3144
 4169SOL    HW124143   2.038   0.079  12.460 -0.2827 -0.1447  0.4120
 4169SOL    HW224144   2.172   0.043  12.513  0.2283  1.0399 -2.3239
 4170SOL     OW24145   2.581   2.094   2.172  0.0223 -0.3089 -0.2537
 4170SOL    HW124146   2.501   2.048   2.144 -1.2492  1.2485  0.8090
 4170SOL    HW224147   2.635   2.049   2.106  0.2282 -1.1915  0.5242
 4171SOL     OW24148   3.868   3.274   6.082 -0.1444  0.4342 -0.1501
 4171SOL    HW124149   3.788   3.292   6.132  0.5127  1.5245  0.5091
 4171SOL    HW224150   3.838   3.203   6.024  1.2906 -0.1042 -0.2243
 4172SOL     OW24151   4.203   2.838   9.210 -0.2412  0.2040  0.0791
 4172SOL    HW124152   4.246   2.836   9.296  0.2948  0.8688 -0.1759
 4172SOL    HW224153   4.176   2.746   9.201  1.0805 -0.2864  1.0880
 4173SOL     OW24154   0.824   0.346   7.101 -0.1563 -0.2886  0.4621
 4173SOL    HW124155   0.860   0.393   7.177 -0.8698 -0.8210  1.1226
 4173SOL    HW224156   0.910   0.332   7.061 -0.4988 -0.1645 -0.3236
 4174SOL     OW24157   4.056   0.807   9.567 -0.1582  0.1685 -0.0288
 4174SOL    HW124158   4.122   0.832   9.503  0.0033 -1.1331 -0.3664
 4174SOL    HW224159   4.105   0.732   9.601 -1.6904 -1.0883 -0.5740
 4175SOL     OW24160   1.006   4.366   8.904  0.5009  0.2969 -0.3240
 4175SOL    HW124161   1.089   4.356   8.950 -0.5094  1.0024  1.6193
 4175SOL    HW224162   0.993   4.287   8.850 -2.6154  1.3835 -1.1743
 4176SOL     OW24163   2.166   2.620   6.059 -0.6602  0.2544  0.3781
 4176SOL    HW124164   2.226   2.609   6.132 -1.7524  0.0072  1.2397
 4176SOL    HW224165   2.089   2.570   6.085  0.6098 -1.8734  0.0696
 4177SOL     OW24166   1.231   0.710   6.248  0.1495 -0.0091  0.9143
 4177SOL    HW124167   1.156   0.734   6.303 -0.7680 -1.3554  0.2488
 4177SOL    HW224168   1.282   0.789   6.262 -1.1884  0.9208  0.5991
 4178SOL     OW24169   1.702   0.150   9.978  0.1508 -0.2993  0.0267
 4178SOL    HW124170   1.740   0.063   9.965  1.2274  0.1892 -0.0506
 4178SOL    HW224171   1.731   0.173  10.066 -0.2879  2.7076 -0.6261
 4179SOL     OW24172   3.422   1.240   7.427  0.2693  0.0010 -0.9322
 4179SOL    HW124173   3.413   1.227   7.521 -0.7142  0.4391 -0.9590
 4179SOL    HW224174   3.350   1.183   7.398 -0.2766  0.2763 -0.1024
 4180SOL     OW24175   3.393   4.700   9.550 -0.2126 -0.0538 -0.4114
 4180SOL    HW124176   3.418   0.057   9.546 -0.7484  0.1319  0.5851
 4180SOL    HW224177   3.461   4.676   9.487 -0.7008  0.1088 -1.0134
 4181SOL     OW24178   4.074   1.093   6.297  0.5992  0.2959 -0.4553
 4181SOL    HW124179   4.078   1.078   6.391  1.9747 -0.2781 -0.6174
 4181SOL    HW224180   3.992   1.046   6.279  1.7088 -1.6639 -0.3584
 4182SOL     OW24181   3.408   1.539   8.262 -0.2863  0.6509  0.1023
 4182SOL    HW124182   3.381   1.468   8.320  1.3933 -0.5501 -0.5647
 4182SOL    HW224183   3.501   1.516   8.262 -0.2399  0.8465 -0.1671
 4183SOL     OW24184   1.808   1.559  15.943  0.8604  0.1702 -0.1995
 4183SOL    HW124185   1.753   1.625  15.901  0.3689 -0.4014 -0.4544
 4183SOL    HW224186   1.866   1.530  15.873  1.0815  1.1899 -0.4357
 4184SOL     OW24187   1.509   3.386  13.786  0.2395  0.1146  0.2370
 4184SOL    HW124188   1.565   3.325  13.739  1.4688  1.8533 -0.5442
 4184SOL    HW224189   1.515   3.468  13.737  2.7037  0.1319  0.5485
 4185SOL     OW24190   4.192   2.524   8.914 -0.5034 -0.0487 -0.2201
 4185SOL    HW124191   4.129   2.516   8.986  0.4406 -1.0064  0.4972
 4185SOL    HW224192   4.255   2.585   8.951 -1.0664  0.1066  0.4695
 4186SOL     OW24193   3.750   3.529   9.361  0.8548 -0.2128  0.0313
 4186SOL    HW124194   3.754   3.610   9.413  0.9828  1.3927 -2.5093
 4186SOL    HW224195   3.843   3.509   9.372  0.4955 -1.9466 -0.0752
 4187SOL     OW24196   0.984   2.021   9.945  0.4389 -0.2338 -0.1271
 4187SOL    HW124197   0.949   1.933   9.936  0.8049 -0.5612  1.7099
 4187SOL    HW224198   1.052   2.005  10.010  0.3777 -0.5885 -0.1531
 4188SOL     OW24199   0.140   3.644  16.109  0.0037  0.0098  0.5467
 4188SOL    HW124200   0.073   3.616  16.171 -0.2219 -2.2385 -0.7140
 4188SOL    HW224201   0.163   3.723  16.157 -1.5083 -1.6400  3.9405
 4189SOL     OW24202   0.028   2.242   8.287  0.5827  0.5200  0.3119
 4189SOL    HW124203   0.088   2.172   8.312  1.7048  0.8418 -1.5495
 4189SOL    HW224204   4.725   2.208   8.207 -1.1272 -0.6155  1.6021
 4190SOL     OW24205   3.234   3.308   6.027 -0.2769  0.7088 -0.3484
 4190SOL    HW124206   3.175   3.251   6.077 -0.7272  0.8051 -0.7729
 4190SOL    HW224207   3.317   3.260   6.030 -1.2589 -1.0235 -0.5024
 4191SOL     OW24208   3.950   3.876   6.354 -0.2122 -0.6476 -0.1951
 4191SOL    HW124209   3.967   3.814   6.284  0.1090  0.6410 -1.2568
 4191SOL    HW224210   3.996   3.953   6.320  0.2176 -0.6952  0.2789
 4192SOL     OW24211   4.605   1.364   9.677  0.2544 -0.2529  0.4819
 4192SOL    HW124212   4.630   1.355   9.585 -0.0931  0.1766  0.3491
 4192SOL    HW224213   4.631   1.281   9.718 -0.5517 -0.8266 -0.1820
 4193SOL     OW24214   4.335   3.918   5.018  0.1184 -0.7291 -0.1693
 4193SOL    HW124215   4.349   3.861   4.942 -0.1282 -0.3646 -0.4916
 4193SOL    HW224216   4.248   3.954   4.998  1.1180  1.0620 -1.3081
 4194SOL     OW24217   1.497   4.182   2.216  0.1600  0.3105  0.1527
 4194SOL    HW124218   1.444   4.197   2.294 -0.4154 -2.0916  0.2229
 4194SOL    HW224219   1.494   4.265   2.170 -1.3082 -1.6265 -3.2443
 4195SOL     OW24220   3.224   0.147  10.770 -0.3396  0.0118 -0.2015
 4195SOL    HW124221   3.268   0.102  10.842  0.2025  1.1808  0.2021
 4195SOL    HW224222   3.138   0.107  10.758  0.0645 -0.7113 -0.7007
 4196SOL     OW24223   1.258   1.856   8.744  0.3072  0.1308 -0.6364
 4196SOL    HW124224   1.225   1.778   8.789 -0.3308  0.3338 -0.7549
 4196SOL    HW224225   1.215   1.834   8.661 -0.8918  0.2055 -0.0396
 4197SOL     OW24226   4.240   4.510   7.026  0.2003 -0.0725  0.3602
 4197SOL    HW124227   4.298   4.462   7.085 -2.7421 -1.9449  1.7680
 4197SOL    HW224228   4.280   4.521   6.940  1.2940 -0.0194  0.8767
 4198SOL     OW24229   3.261   1.048   5.626  0.1357  0.9769 -0.1138
 4198SOL    HW124230   3.276   1.105   5.550 -3.4934  0.2875 -1.3428
 4198SOL    HW224231   3.199   1.107   5.668 -0.4292  0.5914 -0.4039
 4199SOL     OW24232   2.857   4.577   1.708  0.3953 -0.0133 -0.7063
 4199SOL    HW124233   2.790   4.513   1.731  0.5146 -0.2024 -0.8821
 4199SOL    HW224234   2.806   4.658   1.702 -1.3829 -1.0445  0.5651
 4200SOL     OW24235   1.713   0.095   3.024  0.7938  0.3702  0.0357
 4200SOL    HW124236   1.730   0.162   3.090  0.5203 -0.4255  0.9094
 4200SOL    HW224237   1.798   0.061   2.998  0.9845 -0.4122  1.6828
 4201SOL     OW24238   3.904   0.427   9.064 -0.2712 -0.2633 -0.6648
 4201SOL    HW124239   3.955   0.507   9.047  1.6501 -1.6840 -1.6789
 4201SOL    HW224240   3.967   0.372   9.018  1.8481  0.6732  1.1011
 4202SOL     OW24241   3.832   2.432   8.038  0.1215  0.1797  0.1101
 4202SOL    HW124242   3.877   2.364   8.087 -1.5490 -0.8366  0.2246
 4202SOL    HW224243   3.813   2.383   7.958  0.2066  0.4415 -0.0719
 4203SOL     OW24244   2.702   2.639  14.178  0.1894  0.0375  0.2886
 4203SOL    HW124245   2.736   2.725  14.156  0.6660 -0.4259 -0.7834
 4203SOL    HW224246   2.698   2.645  14.274  0.7638  1.5853  0.2151
 4204SOL     OW24247   3.383   0.400   2.078  0.6087  0.7882  0.0877
 4204SOL    HW124248   3.305   0.436   2.119  0.0679  0.4041 -0.5875
 4204SOL    HW224249   3.388   0.456   2.000 -1.4579  2.8390  1.4462
 4205SOL     OW24250   4.500   4.170  10.813 -0.9010  0.0919 -0.3012
 4205SOL    HW124251   4.549   4.167  10.895 -1.0419 -0.0623 -0.2214
 4205SOL    HW224252   4.508   4.260  10.782  1.4025 -0.4073 -1.1514
 4206SOL     OW24253   4.255   2.954  13.482 -0.5626 -0.2035  0.2036
 4206SOL    HW124254   4.232   2.913  13.565  2.8273  0.7228  1.6001
 4206SOL    HW224255   4.173   3.004  13.480  0.0960  0.9022  0.6008
 4207SOL     OW24256   0.163   0.277   8.554 -0.4007  0.4695 -0.5649
 4207SOL    HW124257   0.257   0.264   8.570 -0.2018  1.6065 -0.8176
 4207SOL    HW224258   0.156   0.372   8.558  1.7437  0.5506  1.3531
 4208SOL     OW24259   1.559   4.451   6.992  0.1296 -0.3409  0.7732
 4208SOL    HW124260   1.482   4.436   6.937  0.5684 -0.9166  0.3165
 4208SOL    HW224261   1.589   4.529   6.945  0.6209 -0.9536  0.0831
 4209SOL     OW24262   3.039   4.333  12.498 -0.2720 -0.2920 -0.1073
 4209SOL    HW124263   3.119   4.281  12.498 -0.3514 -0.4183  0.2239
 4209SOL    HW224264   2.975   4.272  12.461  0.3604 -0.4364 -0.9547
 4210SOL     OW24265   0.570   1.374   9.407  0.1403 -0.5930 -0.6880
 4210SOL    HW124266   0.512   1.303   9.435 -0.7108  0.2531 -0.3065
 4210SOL    HW224267   0.544   1.452   9.457  0.7969  0.2212 -1.6382
 4211SOL     OW24268   1.223   1.791   2.766 -0.1997 -0.5435  0.1523
 4211SOL    HW124269   1.303   1.843   2.771 -0.7922  0.4151 -0.4298
 4211SOL    HW224270   1.183   1.815   2.683 -0.4587 -3.2211 -0.5035
 4212SOL     OW24271   0.293   1.549   3.634  0.4887  0.3168 -1.4125
 4212SOL    HW124272   0.214   1.601   3.643 -0.0112 -0.5905 -0.4531
 4212SOL    HW224273   0.262   1.488   3.567  2.7204 -1.9304 -0.4412
 4213SOL     OW24274   1.973   3.297   8.927  0.2407 -0.0943 -0.1505
 4213SOL    HW124275   2.064   3.272   8.913  0.4049  0.3308  0.1486
 4213SOL    HW224276   1.938   3.208   8.915  1.4638 -0.7297  0.9348
 4214SOL     OW24277   3.802   1.793   6.031  0.0952 -0.1949 -0.0379
 4214SOL    HW124278   3.766   1.875   5.995 -0.0539 -0.4248 -0.4137
 4214SOL    HW224279   3.771   1.726   5.971  0.6642 -1.8138  1.4814
 4215SOL     OW24280   0.295   0.140   4.644 -0.5689 -0.0453 -0.0208
 4215SOL    HW124281   0.299   0.236   4.650  0.9885 -0.1476  0.6080
 4215SOL    HW224282   0.389   0.127   4.656 -0.8979  0.4018  3.2129
 4216SOL     OW24283   3.909   1.904   0.161  0.1742  0.3113 -0.1257
 4216SOL    HW124284   3.871   1.974   0.214 -1.3342 -1.3529  1.0008
 4216SOL    HW224285   3.872   1.824   0.200  0.3311 -0.8851 -2.4111
 4217SOL     OW24286   4.579   1.004  15.648  0.2812  0.7215 -0.3583
 4217SOL    HW124287   4.613   0.993  15.559 -1.7548  0.7641 -1.1488
 4217SOL    HW224288   4.499   0.952  15.650  0.4498  0.3797 -2.6561
 4218SOL     OW24289   3.492   3.765   2.243 -0.2821 -0.3929  0.1162
 4218SOL    HW124290   3.530   3.708   2.177 -0.4390 -0.5312  0.1441
 4218SOL    HW224291   3.555   3.761   2.315 -0.6823 -0.2440  0.4799
 4219SOL     OW24292   0.903   3.918  13.545  0.0096 -0.3793  0.1670
 4219SOL    HW124293   0.844   3.989  13.520  0.6560 -0.3135 -1.1549
 4219SOL    HW224294   0.972   3.963  13.593 -2.1176  1.9454  1.0690
 4220SOL     OW24295   3.133   0.560   8.953  0.2026 -0.2674  0.2422
 4220SOL    HW124296   3.197   0.543   9.023  0.6411  0.1761 -0.0509
 4220SOL    HW224297   3.120   0.654   8.962 -0.6665 -0.5514  1.9057
 4221SOL     OW24298   4.446   2.903   8.042  0.2495 -0.3231  0.0511
 4221SOL    HW124299   4.435   2.922   8.135 -0.4988 -0.1374 -0.0736
 4221SOL    HW224300   4.529   2.856   8.044  0.0215 -0.6842  0.9174
 4222SOL     OW24301   4.510   4.726   6.996 -0.2688  0.3647  0.3846
 4222SOL    HW124302   4.428   4.723   7.045  0.8376 -3.2088  1.9908
 4222SOL    HW224303   4.526   0.085   6.989 -0.5745  0.4158  0.3873
 4223SOL     OW24304   4.675   0.475   6.272  0.2641  0.1750  0.2708
 4223SOL    HW124305   4.589   0.435   6.285  0.3025 -1.4024 -4.2887
 4223SOL    HW224306   4.660   0.542   6.339  2.8188  0.7491  0.2551
 4224SOL     OW24307   2.924   3.305   5.178  0.4717  0.3548 -0.0281
 4224SOL    HW124308   2.852   3.335   5.234 -0.9329 -0.5954 -1.3239
 4224SOL    HW224309   2.941   3.218   5.215 -2.4926 -1.0369 -1.9729
 4225SOL     OW24310   1.235   1.894   6.314 -0.4634  0.1758 -0.7869
 4225SOL    HW124311   1.317   1.864   6.274  0.3142 -1.7441  2.2066
 4225SOL    HW224312   1.263   1.982   6.338  1.1726 -0.3132 -0.8907
 4226SOL     OW24313   3.568   4.108   0.943  0.2971  0.2624 -0.0851
 4226SOL    HW124314   3.619   4.044   0.994 -2.4310 -0.9636  1.1072
 4226SOL    HW224315   3.625   4.101   0.867  0.9408  0.2051  0.3996
 4227SOL     OW24316   1.202   3.526  14.321  0.3588 -0.3556 -0.4974
 4227SOL    HW124317   1.267   3.595  14.310 -2.8100  2.6028 -0.6008
 4227SOL    HW224318   1.117   3.568  14.337 -0.1663 -2.0229  1.1569
 4228SOL     OW24319   0.782   4.608  12.215 -0.4302  0.2127  0.1216
 4228SOL    HW124320   0.778   4.703  12.224  4.9923  0.2249  2.4923
 4228SOL    HW224321   0.695   4.583  12.246 -0.2460 -0.1259  0.3722
 4229SOL     OW24322   1.773   0.858   6.443  0.0479 -0.6599  0.2595
 4229SOL    HW124323   1.779   0.897   6.530 -3.4044 -0.2860  0.3252
 4229SOL    HW224324   1.842   0.909   6.400 -0.6960  2.0265  2.2102
 4230SOL     OW24325   1.868   2.130   8.147  0.3378  0.1565 -0.0833
 4230SOL    HW124326   1.796   2.116   8.086  1.5097 -2.1111 -0.9321
 4230SOL    HW224327   1.866   2.226   8.147  0.3747  0.1584 -0.2683
 4231SOL     OW24328   2.973   2.572   0.177  0.1868  0.2586  0.1782
 4231SOL    HW124329   3.025   2.567   0.257  0.5461 -0.5028 -0.1022
 4231SOL    HW224330   3.034   2.528   0.119  0.1411  2.3361 -1.4695
 4232SOL     OW24331   1.500   0.904   3.317  0.0115 -0.5972  0.2262
 4232SOL    HW124332   1.425   0.854   3.286 -0.1001  0.4879 -1.2438
 4232SOL    HW224333   1.543   0.845   3.379 -0.3758 -0.8957  0.2042
 4233SOL     OW24334   4.027   0.981   4.062  0.2731  0.1478 -0.3840
 4233SOL    HW124335   4.008   0.967   4.155 -0.4846  0.8228 -0.4300
 4233SOL    HW224336   4.122   0.976   4.072  0.1273 -0.7089  0.5726
 4234SOL     OW24337   0.796   0.407   9.712  0.0784 -0.4691  0.3847
 4234SOL    HW124338   0.824   0.385   9.624  0.0157 -0.5553  0.3865
 4234SOL    HW224339   0.778   0.500   9.701  0.0786 -0.4006  0.9269
 4235SOL     OW24340   1.392   2.803  15.730  0.0220  0.4017  0.3151
 4235SOL    HW124341   1.478   2.766  15.710 -1.0728 -1.1732 -1.4765
 4235SOL    HW224342   1.353   2.814  15.644  0.1172  0.3472  0.2648
 4236SOL     OW24343   2.529   3.395  15.330 -0.4347  0.6986  0.2041
 4236SOL    HW124344   2.600   3.344  15.369 -0.9601  0.5072  0.8997
 4236SOL    HW224345   2.514   3.352  15.246 -0.4016 -0.2852  0.7036
 4237SOL     OW24346   3.851   1.647   3.120 -0.1639 -0.0227  0.6575
 4237SOL    HW124347   3.783   1.586   3.092 -1.9294  2.0793  0.4246
 4237SOL    HW224348   3.822   1.683   3.204 -1.7976  0.1812  0.0050
 4238SOL     OW24349   1.807   0.137   6.540  0.4550  0.2072  0.2381
 4238SOL    HW124350   1.755   0.167   6.466 -1.6958 -0.3326  1.5389
 4238SOL    HW224351   1.879   0.093   6.495 -0.3416 -2.3775  1.4767
 4239SOL     OW24352   2.908   3.402   5.967 -0.0850  0.1691 -0.9366
 4239SOL    HW124353   2.858   3.332   5.925 -2.4464  0.7458  0.8985
 4239SOL    HW224354   2.976   3.410   5.900 -1.5194  0.1521 -2.3985
 4240SOL     OW24355   1.912   3.058   8.788  0.5651 -0.2748 -0.0539
 4240SOL    HW124356   1.991   3.004   8.797 -0.8575 -2.4031 -0.5388
 4240SOL    HW224357   1.881   3.037   8.700  1.0448 -0.2235 -0.2348
 4241SOL     OW24358   1.087   0.061   3.042 -0.0832  0.1154 -0.8787
 4241SOL    HW124359   1.160   0.012   3.081  0.4821  0.6424 -1.2742
 4241SOL    HW224360   1.123   0.091   2.958  1.3169 -0.9069 -0.6484
 4242SOL     OW24361   4.714   1.770   4.823 -0.7233  0.2514 -0.1856
 4242SOL    HW124362   4.659   1.818   4.760 -0.6050  0.7652  0.1055
 4242SOL    HW224363   0.037   1.721   4.765 -0.2023  0.8011 -0.1195
 4243SOL     OW24364   1.492   3.755  12.434  0.1891 -0.0836 -0.0291
 4243SOL    HW124365   1.417   3.711  12.476 -0.7508 -1.0200 -2.7011
 4243SOL    HW224366   1.545   3.770  12.513  0.2845  0.3285 -0.1727
 4244SOL     OW24367   1.099   2.029  16.778  0.7292 -0.4348  0.2216
 4244SOL    HW124368   1.107   2.076  16.695  2.2320 -0.0042  0.6103
 4244SOL    HW224369   1.004   2.037  16.783  0.7206  0.3362 -1.4107
 4245SOL     OW24370   4.486   3.156  16.830  0.4252  0.5089 -0.2646
 4245SOL    HW124371   4.454   3.171  16.741 -3.0199 -0.6444  0.7491
 4245SOL    HW224372   4.403   3.142  16.876 -1.1497  2.9451 -2.3647
 4246SOL     OW24373   1.776   1.806  11.363 -0.0331  1.1640  0.0109
 4246SOL    HW124374   1.733   1.879  11.319 -3.2852 -1.9048 -1.8833
 4246SOL    HW224375   1.867   1.837  11.357  0.0703  1.5655  3.8178
 4247SOL     OW24376   4.023   4.006   7.567  0.3584  0.3070  0.3646
 4247SOL    HW124377   3.944   4.056   7.546  0.7595  0.1323 -1.6230
 4247SOL    HW224378   4.082   4.032   7.496  0.2780 -0.4745  0.0108
 4248SOL     OW24379   0.407   1.000  17.356  0.1198 -0.0850  0.1797
 4248SOL    HW124380   0.378   0.987  17.266  1.3136  1.4169 -0.4143
 4248SOL    HW224381   0.364   1.082  17.380 -1.4987 -1.2306  1.2426
 4249SOL     OW24382   3.726   3.265   9.262 -0.4232  0.1130  0.3404
 4249SOL    HW124383   3.740   3.355   9.292 -0.8560  0.9672 -2.0552
 4249SOL    HW224384   3.811   3.227   9.285  1.1204  1.8731 -2.3738
 4250SOL     OW24385   1.784   0.659  11.223 -0.0687  0.0735  0.0293
 4250SOL    HW124386   1.718   0.650  11.155 -0.0880  1.0307 -0.0703
 4250SOL    HW224387   1.775   0.576  11.270 -2.4730  0.8823  0.9541
 4251SOL     OW24388   1.215   0.084   8.531  0.3343  0.2198  0.4236
 4251SOL    HW124389   1.291   0.109   8.479  0.4947 -0.1729  0.4680
 4251SOL    HW224390   1.166   0.052   8.455 -0.3148  0.2888  0.8145
 4252SOL     OW24391   1.149   0.344  12.992 -0.0500 -0.4866 -0.0870
 4252SOL    HW124392   1.069   0.381  13.030 -0.6051 -0.8544 -0.9031
 4252SOL    HW224393   1.128   0.251  13.001  1.1456 -0.6660  0.8076
 4253SOL     OW24394   2.975   3.415   3.676  0.2326  0.2136 -0.1909
 4253SOL    HW124395   2.969   3.329   3.718 -0.8249  0.4567  0.1557
 4253SOL    HW224396   3.070   3.422   3.686  0.2280 -0.6488  0.4882
 4254SOL     OW24397   1.582   4.239   6.000  0.0589 -0.4007 -0.6497
 4254SOL    HW124398   1.552   4.302   5.935 -0.8584  0.8624  0.9853
 4254SOL    HW224399   1.589   4.159   5.948 -2.3869 -1.0698  0.0785
 4255SOL     OW24400   4.433   2.513   3.577 -0.1613 -0.0119 -0.4280
 4255SOL    HW124401   4.501   2.456   3.540 -0.3041 -1.6912  1.9380
 4255SOL    HW224402   4.463   2.593   3.534 -0.3507  1.6566  2.5267
 4256SOL     OW24403   1.362   3.711   8.121 -0.7861  0.2514 -0.0719
 4256SOL    HW124404   1.447   3.687   8.156 -0.8601  0.3602  0.1827
 4256SOL    HW224405   1.323   3.628   8.145  0.5515  0.5073  2.9359
 4257SOL     OW24406   2.530   2.844  15.373  0.1278  0.2520 -0.3264
 4257SOL    HW124407   2.498   2.926  15.410 -0.0778  1.2225 -2.6402
 4257SOL    HW224408   2.475   2.834  15.295  1.9105  0.1461 -1.5639
 4258SOL     OW24409   4.684   1.911   5.305  0.1633  0.4563 -0.0262
 4258SOL    HW124410   4.714   1.894   5.216  0.6676  0.2430  0.1860
 4258SOL    HW224411   0.035   1.904   5.344 -0.4170 -1.6115  0.8709
 4259SOL     OW24412   0.966   1.226   7.684  0.7694 -0.3005  0.0774
 4259SOL    HW124413   1.026   1.234   7.610 -0.5853 -0.8634 -1.0913
 4259SOL    HW224414   0.941   1.318   7.696  1.2036  0.0542 -1.7224
 4260SOL     OW24415   2.354   4.678   7.832  0.0614 -0.0437  0.3666
 4260SOL    HW124416   2.277   4.704   7.783 -0.1058  1.5512  1.4588
 4260SOL    HW224417   2.407   4.646   7.759  0.5837 -3.4817  2.2572
 4261SOL     OW24418   0.979   0.607   4.129  0.1455 -0.7127 -0.4273
 4261SOL    HW124419   0.923   0.572   4.059  0.7748  0.4951 -1.5347
 4261SOL    HW224420   1.057   0.624   4.076  0.7246 -1.3575  0.2103
 4262SOL     OW24421   0.505   0.554   5.149  0.1187 -0.1546 -0.5416
 4262SOL    HW124422   0.511   0.582   5.057 -1.1550  1.1795 -0.2246
 4262SOL    HW224423   0.457   0.624   5.194 -1.5950 -1.5123 -0.2944
 4263SOL     OW24424   1.120   4.690   5.396  0.2411  0.1084  0.1018
 4263SOL    HW124425   1.200   4.648   5.364  0.1930  0.5578 -0.6010
 4263SOL    HW224426   1.062   4.614   5.387  0.4053 -0.1066  0.8728
 4264SOL     OW24427   0.075   4.352   9.300 -0.1432  0.1214  0.2099
 4264SOL    HW124428   0.102   4.344   9.391 -0.4738 -3.4261 -0.0059
 4264SOL    HW224429   0.048   4.444   9.306  0.6515  0.3585  0.1850
 4265SOL     OW24430   0.446   3.595   6.084 -0.4247 -0.2981 -0.1983
 4265SOL    HW124431   0.480   3.666   6.029  0.2344 -1.1589 -0.8918
 4265SOL    HW224432   0.461   3.514   6.036  2.1825  0.3251 -0.4660
 4266SOL     OW24433   2.451   2.545  14.123 -0.2303  0.1069 -0.2531
 4266SOL    HW124434   2.524   2.604  14.145  0.5404 -0.8769 -0.1583
 4266SOL    HW224435   2.481   2.466  14.168 -2.0934  0.0533  0.8574
 4267SOL     OW24436   0.360   1.262   0.825 -0.4877  0.2033  0.2542
 4267SOL    HW124437   0.421   1.301   0.763 -0.1209  1.7975  1.5909
 4267SOL    HW224438   0.313   1.342   0.848  1.6161  0.8059  2.5115
 4268SOL     OW24439   3.267   0.277   2.734  0.0091 -0.4807 -0.5117
 4268SOL    HW124440   3.267   0.181   2.742 -1.4308 -0.2478  2.2599
 4268SOL    HW224441   3.207   0.273   2.660 -0.0830  1.9941 -0.5450
 4269SOL     OW24442   0.777   4.110   0.877  0.1719  0.5793 -0.1890
 4269SOL    HW124443   0.737   4.045   0.934  0.1477  0.1075 -0.7420
 4269SOL    HW224444   0.870   4.086   0.880  0.7056  2.4286 -1.6127
 4270SOL     OW24445   3.070   1.488   8.262  0.4876  0.2853 -0.1861
 4270SOL    HW124446   3.005   1.546   8.302  0.8723 -0.4283  1.5072
 4270SOL    HW224447   3.091   1.424   8.331  0.0192 -0.6879 -0.9469
 4271SOL     OW24448   0.432   1.896  15.086  0.8745 -0.3936  0.4978
 4271SOL    HW124449   0.495   1.965  15.105 -0.7286  1.3412 -0.5111
 4271SOL    HW224450   0.394   1.916  15.000 -2.4790 -0.6253  1.9501
 4272SOL     OW24451   3.867   1.872   3.344  0.2807  0.0596 -0.4576
 4272SOL    HW124452   3.934   1.934   3.315  0.6789 -0.4474 -0.5972
 4272SOL    HW224453   3.872   1.886   3.439 -3.3464  1.7056 -0.4897
 4273SOL     OW24454   3.091   2.823   4.016  0.3556  0.4332  0.6493
 4273SOL    HW124455   3.127   2.740   3.985  1.3684  1.2694 -0.4193
 4273SOL    HW224456   3.141   2.876   3.954  1.0009  0.6533  1.3572
 4274SOL     OW24457   0.711   2.070   4.726 -0.5478  0.3032  0.2555
 4274SOL    HW124458   0.673   2.119   4.799 -1.0090 -1.2248  1.0427
 4274SOL    HW224459   0.801   2.104   4.734 -0.3687 -0.3720  1.0352
 4275SOL     OW24460   4.602   1.246   7.334 -0.1938  0.0702  0.2286
 4275SOL    HW124461   4.690   1.284   7.323 -0.8700  1.2735 -1.0188
 4275SOL    HW224462   4.571   1.265   7.246 -0.0142 -0.0183  0.1463
 4276SOL     OW24463   4.285   4.092   4.544 -0.4824 -0.1601  0.5035
 4276SOL    HW124464   4.285   4.188   4.544  2.7927 -0.1616 -0.0213
 4276SOL    HW224465   4.380   4.083   4.545 -0.2601  1.8462 -1.4931
 4277SOL     OW24466   2.076   0.166   5.780 -0.4673 -0.0242  0.9880
 4277SOL    HW124467   2.065   0.149   5.687  3.1387 -1.0607  0.7402
 4277SOL    HW224468   2.045   0.082   5.813 -3.3608 -0.2074 -2.1725
 4278SOL     OW24469   3.649   0.483  13.603  0.1023  0.6347  0.9919
 4278SOL    HW124470   3.744   0.472  13.599  0.0759  0.1016  1.9785
 4278SOL    HW224471   3.629   0.401  13.646 -2.4140  1.2988  1.0927
 4279SOL     OW24472   1.623   3.308  14.585 -0.3523 -0.3558  0.5543
 4279SOL    HW124473   1.662   3.387  14.549 -0.1149 -0.1985  1.1576
 4279SOL    HW224474   1.534   3.313  14.550 -0.0771  0.9838  0.0407
 4280SOL     OW24475   3.894   3.046  15.141 -0.4032 -0.1236 -0.0987
 4280SOL    HW124476   3.845   3.021  15.063  0.4273  1.4877 -1.1593
 4280SOL    HW224477   3.819   3.033  15.199 -0.0328  0.8538  0.6204
 4281SOL     OW24478   0.582   4.154  14.488 -0.5276 -0.1773 -0.4909
 4281SOL    HW124479   0.607   4.243  14.464  2.3790 -0.9709 -0.3432
 4281SOL    HW224480   0.652   4.098  14.455  0.2509  0.6086 -0.1899
 4282SOL     OW24481   1.137   3.827   2.176  0.0193  0.0208  0.2100
 4282SOL    HW124482   1.154   3.733   2.185 -0.4261 -0.0574  0.2245
 4282SOL    HW224483   1.045   3.845   2.195  0.1532  1.1379 -0.2250
 4283SOL     OW24484   4.545   1.229  13.862  0.2150 -0.3830  0.2696
 4283SOL    HW124485   4.484   1.297  13.835  2.4989  1.0055 -1.3630
 4283SOL    HW224486   4.583   1.266  13.942  0.9081  3.9352 -2.0699
 4284SOL     OW24487   0.365   0.165   2.271 -0.2579 -0.2156 -0.1142
 4284SOL    HW124488   0.407   0.225   2.211  0.1052  0.4852  0.8358
 4284SOL    HW224489   0.313   0.238   2.304 -0.2866 -0.6653  0.8676
 4285SOL     OW24490   4.168   3.081   5.854 -0.3667 -0.2592  0.2511
 4285SOL    HW124491   4.239   3.084   5.918  0.8304  0.8249 -1.1295
 4285SOL    HW224492   4.094   3.041   5.900 -0.7205  0.0531 -0.0529
 4286SOL     OW24493   3.998   2.665   6.425 -0.5468  0.2160  0.3213
 4286SOL    HW124494   4.067   2.700   6.482 -0.1668  0.8162 -0.5093
 4286SOL    HW224495   4.053   2.673   6.347  0.2534  1.6371  1.0386
 4287SOL     OW24496   0.414   1.504   7.727  0.1051  0.1969 -0.2519
 4287SOL    HW124497   0.383   1.424   7.684 -1.7169 -0.4757  2.3028
 4287SOL    HW224498   0.496   1.467   7.760 -0.1584 -1.6902 -1.7036
 4288SOL     OW24499   1.105   4.430   0.787  0.3763 -0.4309  0.3783
 4288SOL    HW124500   1.183   4.460   0.740 -2.2656 -1.1798 -4.4571
 4288SOL    HW224501   1.043   4.494   0.753  0.6676  0.6167  1.8350
 4289SOL     OW24502   0.328   3.350   4.898 -0.6182  0.1662 -0.6299
 4289SOL    HW124503   0.319   3.426   4.841  1.7719 -0.2681 -1.6074
 4289SOL    HW224504   0.243   3.313   4.875 -0.3967 -0.3582 -0.6242
 4290SOL     OW24505   3.931   0.931   4.320 -0.2138  0.0210 -0.0959
 4290SOL    HW124506   3.938   0.979   4.402  1.8362  0.9116 -0.8076
 4290SOL    HW224507   3.904   0.853   4.368 -0.5602  0.1476 -0.0850
 4291SOL     OW24508   1.891   4.201   3.678  0.2027  0.2437 -0.5255
 4291SOL    HW124509   1.974   4.244   3.657  0.6227 -0.6340 -0.6680
 4291SOL    HW224510   1.879   4.237   3.766  0.7891 -0.5094 -0.1336
 4292SOL     OW24511   4.477   0.541   5.067 -0.0093  0.2236 -0.1067
 4292SOL    HW124512   4.465   0.623   5.114  0.3784  0.2263 -0.0197
 4292SOL    HW224513   4.447   0.567   4.980 -0.7929  0.5548  0.2619
 4293SOL     OW24514   0.791   2.793   5.429 -0.6832  0.2953 -0.2262
 4293SOL    HW124515   0.717   2.846   5.400 -2.1593 -0.5114  2.1216
 4293SOL    HW224516   0.780   2.789   5.524 -0.3646 -0.2212 -0.2102
 4294SOL     OW24517   0.444   3.015   7.025  0.4133 -0.1146  0.5660
 4294SOL    HW124518   0.482   2.979   7.105  1.5487  2.6924  1.2984
 4294SOL    HW224519   0.508   2.997   6.956  0.4079  1.8917  0.0274
 4295SOL     OW24520   0.630   3.302   6.164 -0.4745  0.4267  0.5147
 4295SOL    HW124521   0.549   3.316   6.115 -0.4946 -0.9914  0.1193
 4295SOL    HW224522   0.694   3.350   6.111 -0.5221 -0.5716 -0.4514
 4296SOL     OW24523   3.174   2.727   6.023  0.3590  0.7088  0.3506
 4296SOL    HW124524   3.083   2.709   6.046 -0.0292  0.9301 -0.9959
 4296SOL    HW224525   3.159   2.809   5.975  0.7351 -0.0905 -1.1135
 4297SOL     OW24526   3.134   1.100   4.447 -0.8055 -0.4990  0.4478
 4297SOL    HW124527   3.151   1.179   4.396  2.7617 -1.0404  0.7993
 4297SOL    HW224528   3.209   1.113   4.504  1.5230 -2.0261 -2.3018
 4298SOL     OW24529   0.964   1.527   4.363 -0.2417  0.0446 -0.7839
 4298SOL    HW124530   0.939   1.619   4.372  1.4888  0.4042  0.4062
 4298SOL    HW224531   0.927   1.516   4.276 -0.2981 -1.3069 -0.5862
 4299SOL     OW24532   1.385   3.024   2.957 -0.4992 -0.0212 -0.3256
 4299SOL    HW124533   1.417   3.011   2.868  1.6848 -0.1130  0.4851
 4299SOL    HW224534   1.466   3.042   3.004 -2.7553 -0.5138  3.7459
 4300SOL     OW24535   3.644   1.627  11.691  0.9469 -0.0764 -0.6990
 4300SOL    HW124536   3.578   1.639  11.759  3.1123  2.6220  0.9217
 4300SOL    HW224537   3.709   1.693  11.715  0.2628  0.9254 -1.6355
 4301SOL     OW24538   0.084   0.652   5.349 -0.1486 -0.3225 -0.3276
 4301SOL    HW124539   0.049   0.675   5.435  1.8208 -1.2884  0.7210
 4301SOL    HW224540   0.171   0.690   5.354  0.6845 -2.0803 -1.7639
 4302SOL     OW24541   4.530   4.399   9.028  0.8008  0.0058 -0.0339
 4302SOL    HW124542   4.548   4.364   8.940  0.1193  3.0908 -1.3963
 4302SOL    HW224543   4.547   4.493   9.018 -2.2589  0.8418  2.7624
 4303SOL     OW24544   0.119   1.611   8.629  0.1761 -0.3302  0.0590
 4303SOL    HW124545   0.055   1.675   8.597  1.7225  1.8911  1.3596
 4303SOL    HW224546   0.192   1.674   8.627 -0.0579 -0.0930 -0.6270
 4304SOL     OW24547   3.028   3.297   7.310 -0.1709  0.2949  0.4160
 4304SOL    HW124548   3.018   3.328   7.220  0.1171 -0.4241  0.1349
 4304SOL    HW224549   2.940   3.270   7.335 -0.2499  0.0764 -0.0810
 4305SOL     OW24550   1.013   4.147   1.950 -0.6853 -0.3655 -0.1204
 4305SOL    HW124551   1.060   4.177   2.028  1.4140 -4.1213  0.0338
 4305SOL    HW224552   0.929   4.184   1.977 -0.9333 -1.0313  0.0117
 4306SOL     OW24553   0.761   1.170   1.282  0.2543 -0.1598 -0.2612
 4306SOL    HW124554   0.813   1.197   1.357 -1.6738  2.3831  0.1723
 4306SOL    HW224555   0.737   1.079   1.301  0.5354 -0.5285 -1.7182
 4307SOL     OW24556   0.213   2.451   8.384 -0.8684  0.3158 -0.0550
 4307SOL    HW124557   0.192   2.387   8.452  1.3977 -0.9217 -0.5373
 4307SOL    HW224558   0.191   2.411   8.300  1.7726 -1.5921  0.1765
 4308SOL     OW24559   1.330   1.192   7.081  0.1737  0.3598  0.2974
 4308SOL    HW124560   1.399   1.233   7.027  0.3171 -0.5824 -0.2499
 4308SOL    HW224561   1.387   1.171   7.155 -0.4262 -1.5030  0.2184
 4309SOL     OW24562   2.756   0.676   8.253  0.6131 -0.8299  0.2069
 4309SOL    HW124563   2.782   0.584   8.255 -2.6427 -1.8057 -1.3128
 4309SOL    HW224564   2.684   0.676   8.190  0.6240 -0.4885  0.1949
 4310SOL     OW24565   3.654   0.670   1.946  0.0428 -0.2727 -0.1596
 4310SOL    HW124566   3.642   0.637   1.857 -0.7002 -0.8288  0.1499
 4310SOL    HW224567   3.574   0.633   1.981  0.0165  1.6352  1.8083
 4311SOL     OW24568   3.284   0.188   7.268 -0.2689 -0.2111  0.0299
 4311SOL    HW124569   3.369   0.227   7.289  0.1245 -1.2979  0.4700
 4311SOL    HW224570   3.226   0.254   7.305 -0.5650 -1.1411  1.2205
 4312SOL     OW24571   2.967   1.551   2.921 -0.4249 -0.3714 -0.3090
 4312SOL    HW124572   3.029   1.600   2.866  0.9991 -2.4858 -0.5840
 4312SOL    HW224573   2.984   1.602   3.000 -1.1959  3.9174 -2.8929
 4313SOL     OW24574   2.815   2.759  10.657 -0.7102  0.0278 -0.4600
 4313SOL    HW124575   2.841   2.815  10.584  0.7221 -1.4074 -1.0284
 4313SOL    HW224576   2.728   2.721  10.639 -0.2514 -0.4011 -1.7777
 4314SOL     OW24577   1.305   2.242   3.764  0.6825 -0.1496  0.2770
 4314SOL    HW124578   1.350   2.164   3.798  2.8383  1.0052  0.0680
 4314SOL    HW224579   1.286   2.218   3.674  0.0062 -0.4804  0.5053
 4315SOL     OW24580   1.236   2.158   7.634  0.1611  0.5364  0.2360
 4315SOL    HW124581   1.308   2.117   7.682 -1.3674 -0.9296  1.2821
 4315SOL    HW224582   1.202   2.203   7.712  1.2253  3.5599 -1.0745
 4316SOL     OW24583   3.129   0.028   2.723  0.1916 -0.0092 -0.0998
 4316SOL    HW124584   3.100   4.684   2.680 -0.9428 -0.8947  2.2868
 4316SOL    HW224585   3.057   0.045   2.784 -1.0220 -2.3136 -0.9235
 4317SOL     OW24586   0.584   3.469  13.046  0.1999 -0.1658  0.2422
 4317SOL    HW124587   0.533   3.397  13.085 -2.5508  2.5816  1.6580
 4317SOL    HW224588   0.584   3.530  13.120 -2.2381 -0.8756  0.8305
 4318SOL     OW24589   4.160   0.874  11.266  0.1590 -0.0622  0.0296
 4318SOL    HW124590   4.162   0.786  11.228  0.7699 -1.0317  2.3388
 4318SOL    HW224591   4.239   0.904  11.221 -0.5619  0.8992 -0.6029
 4319SOL     OW24592   2.572   2.868   2.078 -0.1710 -0.5657 -0.0198
 4319SOL    HW124593   2.609   2.898   1.995  2.3083 -1.3597  0.7866
 4319SOL    HW224594   2.615   2.785   2.099 -1.1510 -0.7331  1.3011
 4320SOL     OW24595   4.323   1.364   5.902  0.0530 -0.5386 -0.1751
 4320SOL    HW124596   4.300   1.456   5.888 -0.1765 -0.0952  3.0325
 4320SOL    HW224597   4.315   1.353   5.997  0.0156 -1.3519 -0.2712
 4321SOL     OW24598   2.836   1.421   6.587  0.6226 -0.0850  0.0739
 4321SOL    HW124599   2.906   1.362   6.612 -1.6550 -2.6256  0.4490
 4321SOL    HW224600   2.848   1.407   6.493 -3.2143 -2.5913 -0.0375
 4322SOL     OW24601   4.365   0.833   4.258 -0.0314  0.3173 -0.0080
 4322SOL    HW124602   4.387   0.741   4.274 -0.0830  0.3705  0.3597
 4322SOL    HW224603   4.333   0.824   4.169  0.1908  0.4178 -0.0985
 4323SOL     OW24604   1.296   4.108   5.992 -0.3573 -0.1486  0.1459
 4323SOL    HW124605   1.369   4.169   5.986 -1.3811  0.9088 -1.5598
 4323SOL    HW224606   1.339   4.033   5.952 -2.7381  0.9687 -4.5750
 4324SOL     OW24607   2.363   4.062   2.746  0.3022 -0.0136 -0.7025
 4324SOL    HW124608   2.361   4.084   2.653  1.6821 -0.9832 -0.9571
 4324SOL    HW224609   2.457   4.069   2.762  0.3780 -3.0056  0.0739
 4325SOL     OW24610   0.960   1.254   3.625 -0.1510 -0.0184 -0.1167
 4325SOL    HW124611   0.936   1.255   3.532  3.1052  3.3860 -0.9451
 4325SOL    HW224612   1.005   1.338   3.613 -1.9082  0.7113 -1.5841
 4326SOL     OW24613   2.045   0.912  17.604 -0.6890 -0.1512  0.0734
 4326SOL    HW124614   2.049   0.864  17.687  0.9132  1.5431  0.9737
 4326SOL    HW224615   1.998   0.987  17.640  0.6204  0.5913  0.2203
 4327SOL     OW24616   1.247   2.711   7.088 -0.2080  0.3953 -0.1854
 4327SOL    HW124617   1.282   2.773   7.152  0.0170  2.0405 -1.8899
 4327SOL    HW224618   1.265   2.633   7.140 -0.1919  1.2768  1.1263
 4328SOL     OW24619   0.908   1.591  13.190  0.1576 -0.1242  0.7431
 4328SOL    HW124620   0.959   1.528  13.140  1.3580 -1.2305  3.3314
 4328SOL    HW224621   0.897   1.657  13.122 -4.0581 -1.9438 -0.3234
 4329SOL     OW24622   1.933   2.420   3.812  0.3341 -0.1462  0.3073
 4329SOL    HW124623   1.921   2.447   3.721  2.1253 -1.8875 -0.4498
 4329SOL    HW224624   2.016   2.461   3.835 -0.2508  0.4316  1.3563
 4330SOL     OW24625   1.886   0.891   8.894 -0.6086  0.1282 -0.0339
 4330SOL    HW124626   1.877   0.858   8.804  1.1638  2.8448 -1.1871
 4330SOL    HW224627   1.948   0.830   8.934  0.1243  1.6844  1.1542
 4331SOL     OW24628   2.616   2.699  10.411  0.2050  0.2643 -0.0630
 4331SOL    HW124629   2.626   2.794  10.416  3.4087  0.0310 -1.4285
 4331SOL    HW224630   2.621   2.693  10.315  1.2344 -3.3132  0.2157
 4332SOL     OW24631   0.558   1.100   6.284 -0.2442 -0.2632  0.6003
 4332SOL    HW124632   0.613   1.133   6.213  0.4402 -0.9466  0.8175
 4332SOL    HW224633   0.572   1.008   6.261 -1.0531 -0.0525 -0.6946
 4333SOL     OW24634   2.626   3.919   0.123  0.2115 -0.1473 -0.0838
 4333SOL    HW124635   2.558   3.976   0.087 -0.9335 -1.9422 -0.7406
 4333SOL    HW224636   2.674   3.992   0.164  1.1710 -0.1187 -1.2588
 4334SOL     OW24637   1.428   0.693   4.033  0.2117 -0.1558  0.2955
 4334SOL    HW124638   1.448   0.613   4.082  0.0363  0.7356  1.8091
 4334SOL    HW224639   1.457   0.769   4.084  0.9140 -1.8083  2.3520
 4335SOL     OW24640   2.119   1.905   9.186  0.5632  0.5145  0.0262
 4335SOL    HW124641   2.081   1.965   9.251 -1.7242 -0.4551 -0.4263
 4335SOL    HW224642   2.053   1.836   9.189 -1.8227  2.9563  2.8797
 4336SOL     OW24643   4.103   4.567   9.051 -0.0270 -0.6050  0.0045
 4336SOL    HW124644   4.141   4.482   9.075 -0.2779 -0.6593  0.2143
 4336SOL    HW224645   4.182   4.621   9.055  0.1577 -0.8995  0.3316
 4337SOL     OW24646   1.334   0.987  17.464  0.5218 -0.8385 -0.1488
 4337SOL    HW124647   1.356   0.908  17.514 -0.6010 -0.2442  1.2981
 4337SOL    HW224648   1.291   0.948  17.388  0.7085 -1.5817  0.1276
 4338SOL     OW24649   1.752   1.423   8.206 -0.0747  0.6857  0.1415
 4338SOL    HW124650   1.840   1.396   8.232  0.1915  2.0962  0.7210
 4338SOL    HW224651   1.721   1.483   8.274 -0.4968 -1.1455  1.5449
 4339SOL     OW24652   4.540   2.281   4.654  0.1188 -0.2579 -0.2167
 4339SOL    HW124653   4.612   2.310   4.710 -0.5165 -1.8194  1.4247
 4339SOL    HW224654   4.506   2.364   4.622 -1.9359 -0.6869  0.8517
 4340SOL     OW24655   2.487   0.063   3.744  0.4012 -0.2541  0.0421
 4340SOL    HW124656   2.428   4.734   3.706 -2.4348  0.4817  3.1801
 4340SOL    HW224657   2.451   0.082   3.831  0.1578  0.0308 -0.1222
 4341SOL     OW24658   1.650   2.012   7.177  0.4499  0.5213 -0.0367
 4341SOL    HW124659   1.719   2.077   7.164  1.5199 -0.5463  0.3143
 4341SOL    HW224660   1.591   2.077   7.216 -0.4790  0.8020 -1.9104
 4342SOL     OW24661   1.946   3.534   7.725  0.2678 -0.6757 -0.0311
 4342SOL    HW124662   1.873   3.516   7.666 -0.0047  0.6245 -0.0866
 4342SOL    HW224663   2.013   3.528   7.657 -0.5678 -2.1322 -0.7143
 4343SOL     OW24664   2.545   2.499   6.533  0.2519 -0.0406 -0.0407
 4343SOL    HW124665   2.593   2.447   6.468 -1.0146 -1.8859  0.4789
 4343SOL    HW224666   2.619   2.496   6.593  0.7639 -1.0985 -0.7277
 4344SOL     OW24667   3.857   0.927   6.251  0.6116 -0.0988  0.4698
 4344SOL    HW124668   3.763   0.939   6.243  0.2384 -1.0620  3.4211
 4344SOL    HW224669   3.871   0.877   6.171  0.1879  1.3609 -0.5105
 4345SOL     OW24670   2.852   3.045  16.792 -0.2166 -0.2882  0.5667
 4345SOL    HW124671   2.813   3.123  16.752 -0.5720 -0.9044 -0.2733
 4345SOL    HW224672   2.779   2.991  16.821  0.7874 -1.7159  0.4076
 4346SOL     OW24673   1.020   1.462   4.776 -0.2784 -0.0848 -0.2229
 4346SOL    HW124674   1.007   1.547   4.732 -0.6759  1.0705  2.1318
 4346SOL    HW224675   1.007   1.409   4.697  1.1078  0.6747 -0.9694
 4347SOL     OW24676   0.575   3.528   7.878 -0.3792  0.2609  0.3197
 4347SOL    HW124677   0.511   3.553   7.945  0.4275  0.1439  1.1362
 4347SOL    HW224678   0.594   3.614   7.840  1.2660 -0.7753 -1.1403
 4348SOL     OW24679   0.208   0.572   2.613  0.1081  0.3663  0.1549
 4348SOL    HW124680   0.284   0.549   2.559  0.0484 -1.8330  0.9983
 4348SOL    HW224681   0.225   0.666   2.621  0.3605  0.2127  1.4336
 4349SOL     OW24682   4.549   4.529  12.444  0.6777 -0.5044  0.1004
 4349SOL    HW124683   4.633   4.572  12.465 -0.8659  1.6929  1.7606
 4349SOL    HW224684   4.586   4.442  12.430 -1.3259 -1.0775 -1.4591
 4350SOL     OW24685   3.321   3.884   8.552 -1.0321  0.1967 -0.2535
 4350SOL    HW124686   3.327   3.971   8.512  0.5379  0.3476  0.3017
 4350SOL    HW224687   3.384   3.888   8.624 -2.5867 -1.0877  1.1846
 4351SOL     OW24688   0.057   3.031   7.814  0.3930  0.1614  0.0315
 4351SOL    HW124689   0.138   2.980   7.809  0.9951  1.3321 -2.1993
 4351SOL    HW224690   4.735   2.972   7.863  1.4598 -0.1323  0.9618
 4352SOL     OW24691   4.089   4.012   0.609  0.0500 -0.1073 -0.0569
 4352SOL    HW124692   4.064   3.970   0.527 -1.2202 -1.9502  1.2789
 4352SOL    HW224693   4.021   4.079   0.609  1.3089  1.1475 -2.2811
 4353SOL     OW24694   3.327   3.335   4.244 -0.0120 -0.1894  0.0508
 4353SOL    HW124695   3.257   3.339   4.179 -0.6925  2.6030  0.9727
 4353SOL    HW224696   3.341   3.240   4.247 -2.0319 -0.4894 -0.3202
 4354SOL     OW24697   0.665   2.109   8.619 -0.0181 -0.7705  0.7405
 4354SOL    HW124698   0.614   2.028   8.611 -0.0694 -0.7225  0.5882
 4354SOL    HW224699   0.678   2.137   8.528 -1.0473 -1.1298  0.4838
 4355SOL     OW24700   1.284   0.626  14.375  0.0068  0.0363 -0.2939
 4355SOL    HW124701   1.249   0.712  14.397  0.8002  0.5601 -1.0728
 4355SOL    HW224702   1.289   0.620  14.280  1.4116 -0.7984 -0.1628
 4356SOL     OW24703   2.518   3.681   1.112  0.7125  0.0053  0.0002
 4356SOL    HW124704   2.501   3.597   1.069 -0.1918 -0.0699  0.5161
 4356SOL    HW224705   2.472   3.677   1.196  1.9362  3.6722  0.8636
 4357SOL     OW24706   0.723   4.534   9.280 -0.4963 -0.5511 -0.4214
 4357SOL    HW124707   0.679   4.602   9.331  0.8968 -1.0269  1.4209
 4357SOL    HW224708   0.768   4.497   9.355 -2.5619 -1.7056  0.2568
 4358SOL     OW24709   3.342   4.056   9.774  0.6157 -0.2943 -0.5781
 4358SOL    HW124710   3.388   4.138   9.756 -0.6787  0.6241  0.2824
 4358SOL    HW224711   3.292   4.085   9.850  0.2957 -0.5043 -0.7088
 4359SOL     OW24712   3.178   1.003   9.177 -0.6884  0.1986  0.0396
 4359SOL    HW124713   3.163   1.077   9.118 -0.8646 -0.9305 -1.3560
 4359SOL    HW224714   3.113   0.939   9.148 -2.3096  1.4928  0.8649
 4360SOL     OW24715   1.503   4.731   9.149 -0.7040  0.1580  0.0021
 4360SOL    HW124716   1.498   4.697   9.239 -0.1228 -1.6038 -0.6284
 4360SOL    HW224717   1.445   0.069   9.166 -1.7177 -0.8002  0.7133
 4361SOL     OW24718   3.367   2.117  15.543 -0.3211  0.2885  0.1435
 4361SOL    HW124719   3.353   2.200  15.496  2.9143 -0.5830 -2.3922
 4361SOL    HW224720   3.460   2.130  15.563 -0.3764  0.4762  0.2806
 4362SOL     OW24721   2.145   4.033  16.012  0.2246 -0.3350 -0.2923
 4362SOL    HW124722   2.215   4.024  15.947  0.3955  2.0872 -0.4402
 4362SOL    HW224723   2.072   3.980  15.978 -0.7478 -0.2854  1.6898
 4363SOL     OW24724   3.122   2.194   7.546  0.1341 -0.0644  0.4091
 4363SOL    HW124725   3.188   2.240   7.598 -1.0317  0.4772  1.3993
 4363SOL    HW224726   3.043   2.240   7.572  0.0338 -0.8298  1.4618
 4364SOL     OW24727   3.698   3.807   7.779 -0.2258 -0.5010  0.2054
 4364SOL    HW124728   3.665   3.804   7.689  1.5512  0.7928 -0.5039
 4364SOL    HW224729   3.654   3.728   7.810 -0.2775 -0.3994  0.3909
 4365SOL     OW24730   2.976   3.282   2.743 -0.2389 -0.0812 -0.7707
 4365SOL    HW124731   2.906   3.243   2.691 -0.0678  0.8517 -1.7037
 4365SOL    HW224732   3.019   3.325   2.669  2.9971  1.4976  2.0292
 4366SOL     OW24733   1.669   4.330   7.759  0.2770  0.3395 -0.1723
 4366SOL    HW124734   1.615   4.386   7.703  1.2097 -0.2618 -1.6652
 4366SOL    HW224735   1.610   4.256   7.769  2.7283 -1.6171 -0.0686
 4367SOL     OW24736   0.886   1.177  14.315 -0.3538 -0.1239 -0.0432
 4367SOL    HW124737   0.836   1.228  14.250  1.0135  0.9243 -0.2752
 4367SOL    HW224738   0.827   1.102  14.307 -1.6830  0.5064  3.9546
 4368SOL     OW24739   3.366   1.518   2.980 -0.5481 -0.0962  0.0753
 4368SOL    HW124740   3.324   1.491   3.061 -0.3937  0.1331  0.2311
 4368SOL    HW224741   3.327   1.461   2.913  0.3990 -1.0190  0.3142
 4369SOL     OW24742   3.901   1.176   8.451  0.1754 -0.0397 -0.2238
 4369SOL    HW124743   3.917   1.086   8.479  0.0764 -0.0674 -0.2567
 4369SOL    HW224744   3.857   1.205   8.530  0.1307  0.6237 -0.4980
 4370SOL     OW24745   2.809   1.485   0.236 -0.5355  0.5383  0.2812
 4370SOL    HW124746   2.775   1.563   0.280 -0.0564  0.8550  0.0937
 4370SOL    HW224747   2.725   1.439   0.232  0.1896 -0.8181  0.6571
 4371SOL     OW24748   0.405   4.481   7.083  0.1067 -0.1341  0.7675
 4371SOL    HW124749   0.366   4.525   7.007  3.3841  1.3581 -0.0843
 4371SOL    HW224750   0.376   4.391   7.069 -0.9084  0.5908 -1.7975
 4372SOL     OW24751   3.562   2.368   6.711  0.3568  0.2518 -1.2559
 4372SOL    HW124752   3.553   2.332   6.800  0.6170  1.2496 -0.8313
 4372SOL    HW224753   3.612   2.448   6.722  2.4728 -1.3723  1.0428
 4373SOL     OW24754   3.738   1.930  13.660  0.3100  0.0654 -0.3639
 4373SOL    HW124755   3.643   1.937  13.652  0.3108  0.6942  0.1671
 4373SOL    HW224756   3.747   1.964  13.749  1.4517 -3.3232  0.8097
 4374SOL     OW24757   4.070   1.643  15.751 -0.0427 -0.3315  1.1638
 4374SOL    HW124758   4.097   1.712  15.811 -2.2095  1.2592  0.2938
 4374SOL    HW224759   4.034   1.576  15.809 -0.1140 -0.9646  0.3967
 4375SOL     OW24760   3.390   1.824  10.113 -0.1865 -0.4065 -0.3767
 4375SOL    HW124761   3.428   1.825  10.201  0.2387 -0.2964 -0.5597
 4375SOL    HW224762   3.446   1.888  10.069 -0.0558 -0.6449 -0.5592
 4376SOL     OW24763   0.634   3.145   7.590 -0.3666 -0.1051 -0.0541
 4376SOL    HW124764   0.633   3.165   7.496  3.0027 -1.1912 -0.3109
 4376SOL    HW224765   0.544   3.174   7.605  0.1375  1.2410  0.3503
 4377SOL     OW24766   3.762   4.087   0.448 -0.5179 -0.5035 -0.3650
 4377SOL    HW124767   3.783   4.093   0.542  2.2352 -0.7704 -0.9643
 4377SOL    HW224768   3.764   3.993   0.432 -0.0155 -0.3699 -1.0627
 4378SOL     OW24769   3.783   0.206   7.203  0.1497  0.3344 -0.3078
 4378SOL    HW124770   3.800   0.113   7.219  0.1395  0.3862  0.0121
 4378SOL    HW224771   3.812   0.240   7.288  0.5833 -0.6384 -0.0618
 4379SOL     OW24772   3.861   1.720   8.118 -0.2208 -0.3489 -0.4087
 4379SOL    HW124773   3.774   1.699   8.149 -0.7498  0.5480 -1.2870
 4379SOL    HW224774   3.909   1.717   8.201 -1.7146 -0.8813  0.4296
 4380SOL     OW24775   4.630   3.266  10.050 -0.1862  0.5838 -0.1620
 4380SOL    HW124776   4.579   3.312  10.116 -1.2608 -1.7186  0.6069
 4380SOL    HW224777   4.674   3.330   9.994  0.4767  0.2363 -0.0389
 4381SOL     OW24778   0.689   1.629   8.737 -0.8922 -0.3896 -0.3163
 4381SOL    HW124779   0.621   1.593   8.794  0.4875 -0.2779  1.4107
 4381SOL    HW224780   0.766   1.647   8.791 -1.9068 -0.8491  1.2791
 4382SOL     OW24781   4.617   2.940   8.720 -0.5165  0.6505  0.0053
 4382SOL    HW124782   4.666   2.859   8.730  0.5690  1.0674 -1.8168
 4382SOL    HW224783   4.650   2.993   8.793  0.9321  0.7534 -0.7225
 4383SOL     OW24784   4.117   4.152   6.829  0.2298  0.4682  0.6403
 4383SOL    HW124785   4.125   4.094   6.752 -1.4781 -0.2864  1.0389
 4383SOL    HW224786   4.103   4.088   6.899  1.1474 -0.2158  0.2020
 4384SOL     OW24787   0.550   0.667   9.647  0.0792  0.1947 -0.7210
 4384SOL    HW124788   0.575   0.631   9.562 -0.9748 -1.9876 -0.1056
 4384SOL    HW224789   0.637   0.700   9.669  0.4133 -2.5160  1.9811
 4385SOL     OW24790   3.965   4.074   7.090  0.1647 -0.0336  0.1907
 4385SOL    HW124791   3.883   4.087   7.042  1.0409  2.7557 -0.5172
 4385SOL    HW224792   4.008   4.002   7.045  0.2962  0.1170  0.0787
 4386SOL     OW24793   1.958   2.766   0.533 -0.5790 -0.0776  0.1506
 4386SOL    HW124794   2.031   2.708   0.512 -2.1584 -1.9290 -0.1823
 4386SOL    HW224795   1.902   2.734   0.462 -2.7711  5.0895 -0.4831
 4387SOL     OW24796   0.443   4.463   7.943  0.0880 -0.0917  0.0632
 4387SOL    HW124797   0.466   4.555   7.933 -0.4223  0.2039  1.5400
 4387SOL    HW224798   0.527   4.426   7.969 -0.3624 -1.2656 -0.1268
 4388SOL     OW24799   1.389   0.706   8.769 -0.1067  0.2875  0.0443
 4388SOL    HW124800   1.321   0.773   8.773  2.1000  2.6044 -1.7803
 4388SOL    HW224801   1.455   0.747   8.825 -2.3317  0.1576  2.7853
 4389SOL     OW24802   3.561   4.053   1.494  0.0630  0.0043  0.0732
 4389SOL    HW124803   3.648   4.093   1.498  0.5482 -0.9393 -0.8777
 4389SOL    HW224804   3.506   4.112   1.545 -3.0157 -2.5838 -0.2358
 4390SOL     OW24805   3.459   0.752  10.355 -0.0397 -0.5659 -0.2058
 4390SOL    HW124806   3.435   0.822  10.416 -2.1244 -0.9095 -0.6668
 4390SOL    HW224807   3.511   0.800  10.290 -0.3080  2.4805  1.8500
 4391SOL     OW24808   3.083   2.183   8.485  0.3925 -0.1481 -0.0200
 4391SOL    HW124809   3.111   2.248   8.549  0.6536 -0.9806  0.7261
 4391SOL    HW224810   3.166   2.142   8.460 -0.1943  0.7080 -3.3209
 4392SOL     OW24811   3.445   4.098   9.406 -0.3326 -0.4774 -0.2880
 4392SOL    HW124812   3.351   4.103   9.388 -0.0657  0.5600 -1.3686
 4392SOL    HW224813   3.467   4.012   9.371  0.4055  0.4003 -1.9655
 4393SOL     OW24814   4.452   0.847   0.363 -0.4585  0.1364  0.5682
 4393SOL    HW124815   4.544   0.863   0.342 -0.2992  0.3331  1.3882
 4393SOL    HW224816   4.402   0.920   0.327  0.4985  0.0993 -0.8209
 4394SOL     OW24817   1.275   4.096   1.639 -0.5035 -0.5192 -0.2596
 4394SOL    HW124818   1.243   4.015   1.598  0.1569 -0.5997 -0.6169
 4394SOL    HW224819   1.344   4.057   1.692  0.2313  0.1425 -0.7411
 4395SOL     OW24820   3.396   2.470   7.907 -0.8480  0.3041  0.0162
 4395SOL    HW124821   3.419   2.448   7.998  0.6116  0.6671 -0.2654
 4395SOL    HW224822   3.314   2.516   7.924 -0.0952  1.6524 -0.0106
 4396SOL     OW24823   1.513   4.615  10.538 -0.3767  0.1618 -0.3464
 4396SOL    HW124824   1.426   4.639  10.505 -1.0000  0.4687  1.5314
 4396SOL    HW224825   1.568   4.607  10.460 -0.3180 -1.3131 -0.1510
 4397SOL     OW24826   0.175   1.290   3.456 -0.0208  0.0645 -0.2159
 4397SOL    HW124827   0.109   1.357   3.441 -1.4299 -0.9538  1.3319
 4397SOL    HW224828   0.130   1.216   3.414  2.8382 -1.3359 -0.8156
 4398SOL     OW24829   4.058   1.270  12.264 -0.1729 -0.7798  0.1246
 4398SOL    HW124830   4.084   1.179  12.282  0.3935 -0.5552  0.4246
 4398SOL    HW224831   4.124   1.312  12.319 -1.1072  1.4743 -0.4651
 4399SOL     OW24832   3.965   2.864   2.609 -0.3662  0.3543  0.4498
 4399SOL    HW124833   3.870   2.847   2.605  0.0605 -1.8365 -0.2873
 4399SOL    HW224834   4.008   2.780   2.596 -0.5649  0.3009  0.1187
 4400SOL     OW24835   1.606   0.687   3.467 -0.1811  0.2393  0.0684
 4400SOL    HW124836   1.669   0.732   3.523 -2.1477  1.3238  1.3676
 4400SOL    HW224837   1.556   0.642   3.535 -1.0195 -1.4334 -1.6529
 4401SOL     OW24838   2.978   0.045   6.636 -0.2761  0.5896 -0.2121
 4401SOL    HW124839   3.049   0.053   6.699  1.3487 -0.3228 -1.9390
 4401SOL    HW224840   2.974   4.687   6.618  0.2753  0.3110  1.1243
 4402SOL     OW24841   3.315   3.924   2.095 -0.0034  0.1370 -0.7283
 4402SOL    HW124842   3.245   3.927   2.160 -0.8285  0.9620 -1.6674
 4402SOL    HW224843   3.371   3.858   2.135 -0.1204  0.8053  0.5357
 4403SOL     OW24844   3.498   4.259  11.454 -0.2505 -0.2408  0.2321
 4403SOL    HW124845   3.554   4.198  11.502 -2.1591 -0.5712  2.0196
 4403SOL    HW224846   3.408   4.237  11.476 -0.9738  0.0464 -2.3867
 4404SOL     OW24847   0.396   3.775   3.904 -0.0765  0.2169  0.0498
 4404SOL    HW124848   0.308   3.808   3.885  0.3632  1.8140  0.8022
 4404SOL    HW224849   0.413   3.734   3.819 -0.9345 -0.6639  0.2941
 4405SOL     OW24850   4.675   2.044   6.745 -0.7045  0.2226 -0.3397
 4405SOL    HW124851   0.007   1.976   6.743 -0.7760  0.0818  2.3052
 4405SOL    HW224852   4.707   2.115   6.691 -3.1286 -0.2522 -2.4402
 4406SOL     OW24853   2.318   0.554   5.085  0.5202  0.3805 -0.0358
 4406SOL    HW124854   2.367   0.630   5.115 -0.6769  0.3107  2.1159
 4406SOL    HW224855   2.236   0.600   5.066  0.0924  0.2702  1.5924
 4407SOL     OW24856   3.465   3.538   5.734 -0.4561  0.6125  0.5641
 4407SOL    HW124857   3.519   3.489   5.796 -1.2210  0.8914  1.4566
 4407SOL    HW224858   3.374   3.534   5.764 -0.1709 -1.3246  1.1656
 4408SOL     OW24859   0.973   0.875   8.102 -0.2651 -0.3118  0.0313
 4408SOL    HW124860   1.018   0.831   8.030  0.1533  1.4363 -0.7751
 4408SOL    HW224861   1.037   0.946   8.109 -1.2763  0.8328 -2.5135
 4409SOL     OW24862   3.647   1.150   5.630 -0.4297 -0.4615  0.6088
 4409SOL    HW124863   3.570   1.197   5.662 -0.9659 -0.7872 -0.2027
 4409SOL    HW224864   3.638   1.184   5.541  1.0176 -2.1421 -0.1848
 4410SOL     OW24865   0.842   3.678  11.612 -0.3602 -0.5782 -0.3725
 4410SOL    HW124866   0.901   3.629  11.669  2.1694  0.4979 -2.0690
 4410SOL    HW224867   0.827   3.610  11.546  0.8094  0.5130 -1.7550
 4411SOL     OW24868   0.709   2.993   1.292 -0.1950 -0.1948  0.0392
 4411SOL    HW124869   0.754   3.071   1.259 -0.3869  0.4747  1.3341
 4411SOL    HW224870   0.754   2.974   1.374  2.5719 -0.3810 -1.5390
 4412SOL     OW24871   0.570   4.733   0.602  0.1184 -0.4885  0.8778
 4412SOL    HW124872   0.584   4.659   0.544 -0.4455 -1.2961  1.7710
 4412SOL    HW224873   0.596   4.705   0.690  2.8258 -0.9913 -0.0915
 4413SOL     OW24874   0.166   2.281  12.645 -0.0324  0.1721  0.1771
 4413SOL    HW124875   0.145   2.338  12.719  0.9538 -1.6183  1.8555
 4413SOL    HW224876   0.208   2.346  12.590  0.3588 -0.2855 -0.0656
 4414SOL     OW24877   4.208   3.718   5.965 -0.1067 -0.1057 -0.0557
 4414SOL    HW124878   4.170   3.631   5.973 -0.2860 -0.0320 -0.1030
 4414SOL    HW224879   4.295   3.702   5.928 -0.4792  0.2412 -1.0877
 4415SOL     OW24880   1.018   0.666   8.784  0.1456  0.6878 -0.5330
 4415SOL    HW124881   0.979   0.598   8.839  0.4107  1.3892  0.5076
 4415SOL    HW224882   0.938   0.686   8.735  0.2436  0.2101 -0.8912
 4416SOL     OW24883   0.634   2.703  14.707 -0.0840 -0.1818 -0.4047
 4416SOL    HW124884   0.730   2.707  14.701 -0.0328 -0.6411  0.1177
 4416SOL    HW224885   0.610   2.796  14.711  0.7511  0.1741 -3.5624
 4417SOL     OW24886   3.959   1.591   1.200 -0.1825 -0.1191 -0.2760
 4417SOL    HW124887   4.001   1.674   1.179  0.0867 -0.2273 -0.1667
 4417SOL    HW224888   3.897   1.585   1.128  1.5831 -0.4083 -1.7761
 4418SOL     OW24889   4.157   2.185   5.083 -0.0539  0.4316 -0.0603
 4418SOL    HW124890   4.130   2.149   5.168 -0.3823 -0.7432 -0.6714
 4418SOL    HW224891   4.082   2.159   5.030 -0.3657 -2.4288  1.7794
 4419SOL     OW24892   4.309   1.037   8.522  0.5285 -0.2322  0.0134
 4419SOL    HW124893   4.379   1.060   8.583  1.3798  0.1828 -1.0997
 4419SOL    HW224894   4.366   1.046   8.445  1.0503 -0.7374  0.3346
 4420SOL     OW24895   4.302   3.999   9.232  0.2541  0.1689  0.0981
 4420SOL    HW124896   4.346   4.078   9.264  1.3048 -0.5330  0.3721
 4420SOL    HW224897   4.376   3.941   9.220 -0.1937 -0.2303 -0.7408
 4421SOL     OW24898   1.678   1.296   6.184  0.4889 -0.4204 -0.2167
 4421SOL    HW124899   1.642   1.242   6.255  1.6600 -0.1061  0.6229
 4421SOL    HW224900   1.632   1.375   6.211  3.2590  1.2818 -0.3898
 4422SOL     OW24901   4.507   1.956  11.232 -0.0660 -0.2617  0.0447
 4422SOL    HW124902   4.475   1.949  11.142 -0.8682 -0.2195  0.3253
 4422SOL    HW224903   4.600   1.935  11.226  0.6921  2.6121  1.5017
 4423SOL     OW24904   2.792   2.659   8.474  0.2858 -0.7692  0.2239
 4423SOL    HW124905   2.753   2.719   8.537 -4.8645  0.8881 -4.5585
 4423SOL    HW224906   2.879   2.700   8.474  0.2572 -0.6951  1.0279
 4424SOL     OW24907   1.927   1.549   6.820  0.0126 -0.4102  0.3469
 4424SOL    HW124908   1.948   1.618   6.882 -0.2902  0.6013 -0.6845
 4424SOL    HW224909   2.013   1.508   6.830 -0.0593 -1.1007 -2.0052
 4425SOL     OW24910   0.297   0.374  15.834 -0.7096  0.2021  0.1733
 4425SOL    HW124911   0.257   0.428  15.902 -1.2537 -0.9373  0.7615
 4425SOL    HW224912   0.363   0.328  15.886  0.4878  0.3926 -1.1659
 4426SOL     OW24913   2.476   4.568   5.111 -0.0803  0.0235 -0.5196
 4426SOL    HW124914   2.417   4.595   5.181  1.3618 -1.1238  1.1559
 4426SOL    HW224915   2.531   4.505   5.158  1.6609  0.2768 -2.1904
 4427SOL     OW24916   2.703   3.471  10.257 -0.0186 -0.4373  0.2492
 4427SOL    HW124917   2.614   3.490  10.227 -0.2480 -0.0191  1.2011
 4427SOL    HW224918   2.730   3.393  10.208 -0.9388 -1.2143  0.9694
 4428SOL     OW24919   3.641   3.411  16.330  0.4559 -0.1726  0.6056
 4428SOL    HW124920   3.730   3.377  16.326  0.9893  1.5519 -1.9240
 4428SOL    HW224921   3.638   3.504  16.305 -0.3525 -0.7690 -1.4999
 4429SOL     OW24922   2.198   2.266   9.293  0.1564 -0.6214  0.0740
 4429SOL    HW124923   2.116   2.230   9.326  0.0675  2.5298  3.2354
 4429SOL    HW224924   2.198   2.232   9.203 -0.3351 -0.7614  0.1297
 4430SOL     OW24925   3.652   3.841   4.771 -0.0844 -0.3721 -0.8931
 4430SOL    HW124926   3.608   3.894   4.704 -0.4266  2.0626  1.3198
 4430SOL    HW224927   3.583   3.832   4.837 -1.3038  1.1889 -1.9548
 4431SOL     OW24928   4.283   3.609  12.534 -0.0755  0.1880 -0.1484
 4431SOL    HW124929   4.300   3.614  12.441  0.4270 -1.2530 -0.1338
 4431SOL    HW224930   4.337   3.535  12.561 -0.2891 -0.1751 -0.7254
 4432SOL     OW24931   0.444   0.746   0.859 -0.2006 -0.1748  0.1653
 4432SOL    HW124932   0.403   0.798   0.928  1.5855  1.9449 -0.3864
 4432SOL    HW224933   0.483   0.672   0.905 -2.0276 -1.5308 -0.4845
 4433SOL     OW24934   2.767   2.955   4.343  0.0253 -0.2708  0.1378
 4433SOL    HW124935   2.795   2.959   4.434 -2.5467 -1.4416  0.9783
 4433SOL    HW224936   2.853   2.962   4.301  0.1633  1.0812  0.6319
 4434SOL     OW24937   1.336   3.216   4.647 -0.4564 -0.1254 -0.2688
 4434SOL    HW124938   1.342   3.129   4.608 -1.2420  0.5071 -1.7661
 4434SOL    HW224939   1.386   3.271   4.587 -0.6717  0.5066  0.1284
 4435SOL     OW24940   1.272   4.693   6.038  0.5068 -0.2741  0.0595
 4435SOL    HW124941   1.253   0.036   5.987 -0.3445  0.6713  1.8722
 4435SOL    HW224942   1.309   0.003   6.114  0.3901 -0.2630  0.1086
 4436SOL     OW24943   1.234   3.255  11.294 -0.9634  0.3554  0.0634
 4436SOL    HW124944   1.189   3.337  11.273 -2.0100 -0.0267  0.8251
 4436SOL    HW224945   1.159   3.196  11.306  0.2233 -0.9168  1.1520
 4437SOL     OW24946   0.928   0.605   8.043  0.6074 -0.3590  0.3075
 4437SOL    HW124947   0.977   0.676   8.083 -2.3875  2.0516 -0.2624
 4437SOL    HW224948   0.930   0.535   8.108  0.7930 -0.6868 -0.0479
 4438SOL     OW24949   0.191   3.379   8.622  0.3477  0.9330  0.6006
 4438SOL    HW124950   0.277   3.420   8.628  1.7012 -1.7348 -0.2561
 4438SOL    HW224951   0.219   3.309   8.681  0.4046 -0.0606 -0.6063
 4439SOL     OW24952   4.582   0.364   8.654 -0.2717 -0.3622  0.6902
 4439SOL    HW124953   4.583   0.376   8.559  0.7769  0.1663  0.7576
 4439SOL    HW224954   4.621   0.447   8.681  1.2919 -0.5478 -0.9308
 4440SOL     OW24955   4.482   3.127   8.575  0.0051 -0.1207 -0.1067
 4440SOL    HW124956   4.494   3.196   8.640 -0.3167 -0.3374  0.1803
 4440SOL    HW224957   4.538   3.058   8.611 -0.7805 -1.0969 -0.7641
 4441SOL     OW24958   4.728   2.158   3.187  0.0069  0.1889 -0.3366
 4441SOL    HW124959   0.066   2.208   3.151  0.4861 -1.1519 -1.2073
 4441SOL    HW224960   0.008   2.077   3.138 -0.4240 -1.3748  2.1344
 4442SOL     OW24961   0.692   1.246   6.087 -0.1417 -0.0844  0.5649
 4442SOL    HW124962   0.702   1.341   6.076  0.6860 -0.1392  0.8506
 4442SOL    HW224963   0.774   1.219   6.046  0.5734  3.3483 -0.3054
 4443SOL     OW24964   3.646   3.105  12.058 -0.4760 -0.2153  0.6058
 4443SOL    HW124965   3.740   3.107  12.039 -0.4683 -0.5165  0.6124
 4443SOL    HW224966   3.625   3.012  12.044 -0.4840  0.0063 -0.8831
 4444SOL     OW24967   1.886   3.850   3.093 -0.5655  0.4039 -0.0422
 4444SOL    HW124968   1.924   3.827   3.008 -1.6995  1.1981 -0.7646
 4444SOL    HW224969   1.946   3.800   3.149 -0.5407 -0.2330 -0.6292
 4445SOL     OW24970   0.690   3.727   4.423  0.4794  0.3235  0.5977
 4445SOL    HW124971   0.745   3.780   4.366  2.9737 -2.4083  0.4511
 4445SOL    HW224972   0.625   3.706   4.356  1.1432 -0.5409  0.2141
 4446SOL     OW24973   1.674   2.718  16.137  0.5010  0.3575 -0.0617
 4446SOL    HW124974   1.710   2.802  16.111 -0.8272  1.7298  2.5883
 4446SOL    HW224975   1.647   2.681  16.052  0.6541 -0.3274  0.1873
 4447SOL     OW24976   0.848   1.351   9.400  0.1690 -0.2547  0.3383
 4447SOL    HW124977   0.870   1.390   9.484 -2.2418 -0.0005  0.8460
 4447SOL    HW224978   0.762   1.386   9.379  0.3202 -0.3470 -0.4383
 4448SOL     OW24979   0.618   4.258   8.027  0.1023  0.6868  0.3712
 4448SOL    HW124980   0.609   4.248   7.932 -2.3715  1.9313  0.4703
 4448SOL    HW224981   0.603   4.172   8.067 -0.2422  0.6698  0.2019
 4449SOL     OW24982   3.219   2.947   0.470 -0.0371  0.0634  0.1211
 4449SOL    HW124983   3.156   2.987   0.531 -0.1058 -1.2255  0.8871
 4449SOL    HW224984   3.187   2.967   0.382 -0.9726  2.2654  0.9491
 4450SOL     OW24985   4.412   1.168  14.178  0.5537 -0.2907 -0.6122
 4450SOL    HW124986   4.339   1.159  14.117 -0.9804  0.9414  1.0495
 4450SOL    HW224987   4.412   1.263  14.187  0.3150 -0.5113  1.6903
 4451SOL     OW24988   1.058   2.789  10.523 -0.1516  0.1339  0.5265
 4451SOL    HW124989   1.012   2.780  10.607 -0.1137 -0.2833  0.5034
 4451SOL    HW224990   0.981   2.799  10.468  0.6168 -0.3793 -0.6597
 4452SOL     OW24991   1.203   0.013  16.645 -0.4394 -0.4101  0.1489
 4452SOL    HW124992   1.177   0.053  16.728  0.3429  0.3505  0.0296
 4452SOL    HW224993   1.279   0.061  16.611 -1.1582 -0.1956 -1.1577
 4453SOL     OW24994   2.366   4.592   4.000  0.8135 -0.2941  0.0200
 4453SOL    HW124995   2.440   4.651   4.011  0.3840  0.4711 -1.2279
 4453SOL    HW224996   2.339   4.568   4.088 -1.7562 -0.8763 -0.9344
 4454SOL     OW24997   2.885   0.514   9.253  0.3591  0.4875  0.1279
 4454SOL    HW124998   2.832   0.533   9.175  0.8494 -0.3948 -0.4270
 4454SOL    HW224999   2.819   0.497   9.319  1.1049  2.1846  1.3038
 4455SOL     OW25000   1.725   3.227   5.501 -0.1219 -0.3452 -0.3851
 4455SOL    HW125001   1.817   3.233   5.527 -0.4804  0.8776  0.5830
 4455SOL    HW225002   1.721   3.132   5.510  0.5620 -0.2835  0.5869
 4456SOL     OW25003   0.635   2.225   8.358 -0.4078 -0.4055  0.1890
 4456SOL    HW125004   0.658   2.317   8.342 -2.9386 -0.0996 -1.5454
 4456SOL    HW225005   0.544   2.220   8.331 -0.6053  1.9303  0.4574
 4457SOL     OW25006   4.490   4.592   3.664 -0.0974 -0.0336  0.2938
 4457SOL    HW125007   4.519   4.682   3.653 -0.8348  0.1649 -0.0469
 4457SOL    HW225008   4.550   4.568   3.734 -0.1326  0.6398  0.5510
 4458SOL     OW25009   4.641   4.390  16.939 -0.4846 -0.4261 -0.2503
 4458SOL    HW125010   4.680   4.424  17.020  2.6365 -1.4498 -1.3223
 4458SOL    HW225011   4.704   4.425  16.876  2.5632 -2.4218  1.7153
 4459SOL     OW25012   4.700   1.840   8.246  0.6826  0.1152 -0.0302
 4459SOL    HW125013   4.646   1.916   8.223 -1.0749 -1.2432 -0.4326
 4459SOL    HW225014   0.016   1.830   8.166  1.0376  2.2305 -0.0535
 4460SOL     OW25015   2.998   4.150   3.862  0.0453 -0.2626 -0.2603
 4460SOL    HW125016   2.907   4.174   3.843 -0.3592 -1.2664  0.3837
 4460SOL    HW225017   2.982   4.101   3.943  1.6298 -0.9722 -0.3762
 4461SOL     OW25018   3.777   3.278   3.954 -0.5409 -0.0395 -0.1278
 4461SOL    HW125019   3.810   3.196   3.989  1.8294  0.1805 -1.8744
 4461SOL    HW225020   3.841   3.277   3.884 -0.9534  0.5626 -0.5161
 4462SOL     OW25021   2.358   1.444   3.517  0.4080  0.1146  0.0874
 4462SOL    HW125022   2.331   1.496   3.593  0.5399  1.8484 -1.0627
 4462SOL    HW225023   2.441   1.422   3.559  1.8466  0.6916 -2.4488
 4463SOL     OW25024   4.083   1.414   7.870 -0.0393 -0.7708 -0.1537
 4463SOL    HW125025   4.165   1.407   7.822 -1.5609 -0.7192 -2.7157
 4463SOL    HW225026   4.022   1.352   7.830 -0.5597  1.2999 -2.5783
 4464SOL     OW25027   1.336   0.663   1.368  0.6190  0.4829  0.6127
 4464SOL    HW125028   1.401   0.674   1.437 -1.1600  0.1273  2.3347
 4464SOL    HW225029   1.307   0.574   1.386  0.4119  0.3529 -0.3750
 4465SOL     OW25030   0.973   3.260   5.754 -0.4185 -0.1819  0.7279
 4465SOL    HW125031   0.965   3.351   5.726 -0.3204 -0.3750  0.0715
 4465SOL    HW225032   1.003   3.262   5.845  0.3360  0.6353  0.4650
 4466SOL     OW25033   4.243   0.063   3.468 -0.6264 -0.8784 -0.2467
 4466SOL    HW125034   4.171   0.000   3.467  0.0964 -1.7019 -0.5816
 4466SOL    HW225035   4.287   0.036   3.387 -0.3358 -0.7944 -0.1180
 4467SOL     OW25036   0.500   1.798   4.782 -0.4457  0.4573 -0.2298
 4467SOL    HW125037   0.482   1.796   4.688 -0.8898  1.7281 -0.1700
 4467SOL    HW225038   0.479   1.706   4.802  0.2882  0.2584 -0.3978
 4468SOL     OW25039   1.313   0.095   0.239  0.0792  0.0018  0.0680
 4468SOL    HW125040   1.393   0.147   0.242 -0.8513  1.3515  1.6126
 4468SOL    HW225041   1.265   0.150   0.300 -2.1566 -0.9925 -0.7640
 4469SOL     OW25042   4.268   3.594  16.623 -0.1789  0.1152  0.0722
 4469SOL    HW125043   4.201   3.527  16.640  1.2899 -1.3711  0.0553
 4469SOL    HW225044   4.216   3.674  16.625 -2.3737 -1.2900 -2.0018
 4470SOL     OW25045   3.366   0.475   4.147 -0.2896  0.1130  0.6593
 4470SOL    HW125046   3.431   0.544   4.162 -0.0620  0.0182  0.0952
 4470SOL    HW225047   3.415   0.421   4.086 -0.0244  1.2091 -0.0942
 4471SOL     OW25048   1.050   3.578   7.299 -0.1510  0.3653 -0.2413
 4471SOL    HW125049   1.009   3.494   7.277  1.5271 -0.1351 -1.4939
 4471SOL    HW225050   1.023   3.589   7.390  0.1701 -0.6892 -0.0114
 4472SOL     OW25051   3.326   3.351   9.130  0.1829  0.0297 -0.3122
 4472SOL    HW125052   3.340   3.314   9.217 -0.2326  1.4272  0.3549
 4472SOL    HW225053   3.232   3.371   9.131 -0.3657 -2.6498 -0.1430
 4473SOL     OW25054   0.264   3.467   3.842  0.1904 -0.2940 -0.3046
 4473SOL    HW125055   0.222   3.538   3.891  0.6630 -1.3295  1.5592
 4473SOL    HW225056   0.240   3.504   3.757 -1.2935  2.0038  1.0965
 4474SOL     OW25057   1.117   2.358  10.221  0.3349  0.5059  0.0498
 4474SOL    HW125058   1.034   2.335  10.180  0.7242  0.7426 -0.8758
 4474SOL    HW225059   1.078   2.436  10.260 -0.0386  0.8700 -1.0444
 4475SOL     OW25060   4.665   3.324   9.221 -0.1644  0.1254 -0.1033
 4475SOL    HW125061   4.667   3.420   9.217  1.2862  0.1466  1.2718
 4475SOL    HW225062   4.729   3.309   9.152  0.6941 -0.5810  0.8500
 4476SOL     OW25063   4.542   2.568   9.265  0.2038  0.6427  0.4028
 4476SOL    HW125064   4.487   2.639   9.300 -0.1022 -0.4766  2.1393
 4476SOL    HW225065   4.624   2.587   9.309 -0.1777  0.7667  1.0598
 4477SOL     OW25066   3.216   0.514   8.682  0.6217  0.2876 -0.0234
 4477SOL    HW125067   3.311   0.518   8.682  0.6205  0.3995  0.7082
 4477SOL    HW225068   3.201   0.535   8.774 -0.8341  0.4665 -0.2902
 4478SOL     OW25069   2.484   1.396  15.004  0.0505 -0.2470 -0.2999
 4478SOL    HW125070   2.491   1.427  14.914  0.8957 -2.2147 -0.9193
 4478SOL    HW225071   2.469   1.475  15.056 -0.0527  0.3751 -1.2783
 4479SOL     OW25072   1.021   3.338  17.124 -0.2545 -0.5404 -0.1882
 4479SOL    HW125073   1.020   3.271  17.056 -0.1490 -2.0819  1.3339
 4479SOL    HW225074   0.973   3.400  17.069 -1.6816 -1.2485  0.2495
 4480SOL     OW25075   0.727   1.742   6.368  0.0570 -0.3283  0.4334
 4480SOL    HW125076   0.797   1.707   6.423 -0.0114  0.0056  0.7331
 4480SOL    HW225077   0.707   1.824   6.414 -1.6661 -0.6400  0.2247
 4481SOL     OW25078   1.217   1.164  16.055  0.4428 -0.2058 -0.1316
 4481SOL    HW125079   1.149   1.230  16.067  0.0069 -0.5092 -1.0046
 4481SOL    HW225080   1.292   1.222  16.037  0.9693 -0.0266  2.5530
 4482SOL     OW25081   1.227   2.152   0.936  0.3886  0.1184  0.1438
 4482SOL    HW125082   1.212   2.102   0.855  0.1093  0.0699  0.2228
 4482SOL    HW225083   1.287   2.217   0.900  1.6387 -1.0372  0.1384
 4483SOL     OW25084   1.784   1.254  12.052  0.1192  0.2898  0.0024
 4483SOL    HW125085   1.765   1.291  12.138  0.3303  1.8967 -0.6430
 4483SOL    HW225086   1.701   1.226  12.013  0.1771  0.3255 -0.1461
 4484SOL     OW25087   0.211   1.974   8.357  0.4391  0.6057  0.3827
 4484SOL    HW125088   0.159   1.894   8.355  1.0233  0.2631 -1.3287
 4484SOL    HW225089   0.234   1.986   8.265 -0.1799  0.1533  0.1723
 4485SOL     OW25090   1.655   3.198   6.228  0.3964 -0.1340 -0.3952
 4485SOL    HW125091   1.629   3.286   6.255  0.6585  0.6932 -2.7720
 4485SOL    HW225092   1.656   3.222   6.135 -1.5591  0.3034 -0.2953
 4486SOL     OW25093   0.752   4.613  13.081  0.9437 -1.0874  0.0456
 4486SOL    HW125094   0.820   4.654  13.134 -0.3110 -1.6726  2.1002
 4486SOL    HW225095   0.796   4.534  13.051 -1.0487 -1.9113 -0.7310
 4487SOL     OW25096   0.456   2.288   6.055 -0.2636  0.4795  0.2765
 4487SOL    HW125097   0.455   2.232   6.133 -1.4987 -0.8103 -0.6722
 4487SOL    HW225098   0.549   2.293   6.035  0.7734 -0.9193  4.7039
 4488SOL     OW25099   4.469   1.070  10.320 -0.4731 -0.2308 -0.1036
 4488SOL    HW125100   4.394   1.061  10.261  1.0380 -0.4282 -1.9723
 4488SOL    HW225101   4.543   1.033  10.274 -0.2643 -1.8852  1.5682
 4489SOL     OW25102   3.659   3.851   8.419 -0.2942  0.2530 -0.9194
 4489SOL    HW125103   3.658   3.876   8.511  2.4891 -1.9443 -0.3008
 4489SOL    HW225104   3.749   3.871   8.394 -0.2900 -0.0236 -1.1178
 4490SOL     OW25105   2.717   3.187   0.065 -0.5292 -0.1356  0.2337
 4490SOL    HW125106   2.672   3.219  17.729  0.5293 -1.3717 -0.8922
 4490SOL    HW225107   2.761   3.269   0.088  4.3247 -2.7376  0.3672
 4491SOL     OW25108   3.720   1.242   8.667 -0.0275 -0.3003  0.3071
 4491SOL    HW125109   3.742   1.224   8.759  0.1435 -1.9722 -0.0625
 4491SOL    HW225110   3.737   1.336   8.654  0.7053 -0.0830  2.6380
 4492SOL     OW25111   2.477   0.545   4.584 -0.5383  0.0147  0.1915
 4492SOL    HW125112   2.545   0.532   4.519 -0.8181  1.6622 -0.4259
 4492SOL    HW225113   2.418   0.598   4.531  1.2815  1.9635  0.1130
 4493SOL     OW25114   1.100   2.933   7.370 -0.3666  0.4392 -0.3799
 4493SOL    HW125115   1.014   2.945   7.330  0.2912  0.9388 -1.6128
 4493SOL    HW225116   1.085   2.848   7.412  1.9991  0.2473  0.1009
 4494SOL     OW25117   4.372   4.686   9.080  0.0822 -0.2623 -0.7164
 4494SOL    HW125118   4.382   4.651   9.168 -1.1830  2.5763  0.5548
 4494SOL    HW225119   4.463   4.682   9.051 -0.3151  0.4297 -2.0685
 4495SOL     OW25120   1.764   2.673   2.765 -0.2811 -0.3396  0.1158
 4495SOL    HW125121   1.731   2.756   2.798 -1.7328 -1.4898  1.4972
 4495SOL    HW225122   1.857   2.689   2.782 -0.0758  0.3828 -1.6740
 4496SOL     OW25123   0.102   2.918   4.681 -0.0368  0.0104 -0.2710
 4496SOL    HW125124   0.032   2.886   4.623 -1.5863 -1.3890  2.3839
 4496SOL    HW225125   0.139   2.985   4.624 -1.2947  2.1252  1.4011
 4497SOL     OW25126   3.571   1.454   2.648  0.7164 -0.3091  0.1363
 4497SOL    HW125127   3.643   1.513   2.629  1.4802 -1.9296 -2.0341
 4497SOL    HW225128   3.515   1.479   2.574  0.0422  0.8295  1.0385
 4498SOL     OW25129   0.600   4.573   5.274 -0.7063  0.5464  0.6633
 4498SOL    HW125130   0.538   4.512   5.314 -1.0891  0.4354 -0.0982
 4498SOL    HW225131   0.538   4.639   5.243  1.7712  2.9098  0.6784
 4499SOL     OW25132   2.305   1.993   7.147  0.3020 -0.0658 -0.0351
 4499SOL    HW125133   2.373   1.969   7.084  0.1506  0.9188 -0.5689
 4499SOL    HW225134   2.351   1.983   7.230 -1.0202  1.4271  0.8802
 4500SOL     OW25135   4.703   0.985   7.226 -0.8978  0.1573 -0.3066
 4500SOL    HW125136   4.683   1.077   7.207 -0.5398  0.1476 -0.7262
 4500SOL    HW225137   4.699   0.994   7.321  0.7613 -0.6176 -0.1612
 4501SOL     OW25138   1.624   0.565   8.838  0.2021  0.1208  0.0985
 4501SOL    HW125139   1.652   0.479   8.806  0.8276  0.1756  0.4844
 4501SOL    HW225140   1.540   0.580   8.795  0.1640  0.3335  0.2465
 4502SOL     OW25141   0.612   4.173   9.487  0.5278  0.2926 -0.6431
 4502SOL    HW125142   0.565   4.236   9.433  1.5971  1.3495 -0.3449
 4502SOL    HW225143   0.566   4.194   9.568 -0.1655 -0.7974 -0.7463
 4503SOL     OW25144   2.246   1.836   7.595 -0.1855 -0.1340 -0.1743
 4503SOL    HW125145   2.191   1.914   7.584  1.3858  0.7005 -1.9668
 4503SOL    HW225146   2.181   1.780   7.638  0.6475 -2.0468 -1.4029
 4504SOL     OW25147   4.627   0.839   9.576 -0.0820 -0.2167  0.2448
 4504SOL    HW125148   4.624   0.757   9.528  1.0612  0.4912 -1.0306
 4504SOL    HW225149   4.722   0.845   9.586 -0.0109 -0.8868 -0.0393
 4505SOL     OW25150   1.978   0.501   6.510 -0.1134  0.4114 -0.4070
 4505SOL    HW125151   1.888   0.530   6.525  0.5092  2.1664 -0.0515
 4505SOL    HW225152   2.032   0.578   6.529  2.7112 -1.7713  0.4710
 4506SOL     OW25153   1.467   0.101   8.632 -0.7503 -0.0347 -0.2737
 4506SOL    HW125154   1.465   0.190   8.667 -2.8440 -0.2728  0.1995
 4506SOL    HW225155   1.398   0.058   8.683  1.0043  0.7212  2.7503
 4507SOL     OW25156   1.987   0.901   9.374  0.2905 -0.3948 -0.0654
 4507SOL    HW125157   1.913   0.919   9.317  1.0651 -0.1580 -0.9986
 4507SOL    HW225158   1.977   0.971   9.439  2.0825  0.3183 -0.5419
 4508SOL     OW25159   3.780   3.633   5.088 -0.1203 -0.2010  0.2871
 4508SOL    HW125160   3.752   3.688   5.161  1.9872 -1.5705  2.1249
 4508SOL    HW225161   3.704   3.576   5.078 -0.9921  0.8114  1.1018
 4509SOL     OW25162   3.415   3.011   6.297 -0.1068 -0.1181  0.0061
 4509SOL    HW125163   3.494   3.010   6.242 -0.4438  0.5772 -0.4911
 4509SOL    HW225164   3.450   3.042   6.380  1.5297  2.0339 -1.4840
 4510SOL     OW25165   2.932   4.106   5.539 -0.8065  0.3063  0.0035
 4510SOL    HW125166   2.974   4.079   5.457 -0.0998  1.6847 -0.0972
 4510SOL    HW225167   2.984   4.056   5.602  0.2564 -0.2754 -1.3218
 4511SOL     OW25168   2.798   2.937   3.991 -0.0729 -0.3261  0.7720
 4511SOL    HW125169   2.868   2.871   3.992 -2.0252 -2.3609  2.9396
 4511SOL    HW225170   2.826   2.986   4.068  0.9757 -0.2624  0.3537
 4512SOL     OW25171   3.976   1.515   2.378 -0.0602 -0.3986 -0.2470
 4512SOL    HW125172   3.978   1.435   2.325  1.0512 -0.8458  0.4648
 4512SOL    HW225173   4.012   1.489   2.463 -1.4380 -1.0245  0.1494
 4513SOL     OW25174   2.975   2.033  12.777  0.2320 -0.2314 -0.0478
 4513SOL    HW125175   2.937   1.951  12.811 -1.3654  0.2320 -0.7020
 4513SOL    HW225176   2.994   2.072  12.862 -0.4248  2.1400 -0.9887
 4514SOL     OW25177   0.894   3.259  10.501 -0.3085  0.3479 -0.6723
 4514SOL    HW125178   0.956   3.186  10.504  0.5566  1.0547 -1.8387
 4514SOL    HW225179   0.937   3.321  10.444 -1.5476  0.2072 -1.7538
 4515SOL     OW25180   3.133   0.930  13.125  0.6356 -0.1162  0.3832
 4515SOL    HW125181   3.105   0.839  13.119  1.0571 -0.3008  1.2808
 4515SOL    HW225182   3.180   0.948  13.044 -0.8447  3.6096  0.3238
 4516SOL     OW25183   4.010   2.046   2.661 -0.7235 -0.1531  0.2183
 4516SOL    HW125184   4.034   2.020   2.750  0.9546  1.2392  0.1574
 4516SOL    HW225185   3.975   1.966   2.622  0.6198 -0.5685 -0.1010
 4517SOL     OW25186   4.482   3.218  14.077  0.3784  0.2012 -0.4802
 4517SOL    HW125187   4.485   3.313  14.068  1.6463  0.1308 -0.8515
 4517SOL    HW225188   4.387   3.212  14.066  0.6561 -0.1772 -2.6660
 4518SOL     OW25189   3.868   3.344  11.803 -0.3657  0.0465 -0.5371
 4518SOL    HW125190   3.885   3.407  11.872 -1.1803 -0.3457  0.0216
 4518SOL    HW225191   3.786   3.375  11.765 -0.6086  1.6378  1.3069
 4519SOL     OW25192   0.286   0.375   9.462 -0.3091  0.1365  0.2390
 4519SOL    HW125193   0.345   0.322   9.409 -0.4016  1.3105 -1.0344
 4519SOL    HW225194   0.325   0.366   9.549 -1.4898  2.1813  0.9805
 4520SOL     OW25195   2.968   1.159   9.535  0.3985  0.0034  0.5557
 4520SOL    HW125196   2.942   1.191   9.448 -0.4057 -0.6848  0.5410
 4520SOL    HW225197   3.016   1.078   9.524  1.1825  0.4414  0.7707
 4521SOL     OW25198   1.455   4.127  10.712  0.9658 -0.2140 -0.0769
 4521SOL    HW125199   1.409   4.179  10.646 -0.8542  0.2995  1.5916
 4521SOL    HW225200   1.483   4.206  10.760 -1.6240  0.0936  0.9424
 4522SOL     OW25201   2.062   3.472   2.480 -0.8688 -0.0453  0.1246
 4522SOL    HW125202   2.039   3.492   2.389 -2.3264 -1.9429  0.0838
 4522SOL    HW225203   2.153   3.498   2.494 -0.6163 -1.2253  0.6294
 4523SOL     OW25204   0.562   4.636   3.958  0.5473  0.4185 -0.5848
 4523SOL    HW125205   0.534   4.692   4.030 -2.1168  1.3120 -2.3242
 4523SOL    HW225206   0.489   4.575   3.967  2.9969 -2.5120 -0.3445
 4524SOL     OW25207   0.944   3.560   4.831 -0.0239  0.5323 -0.2602
 4524SOL    HW125208   0.917   3.534   4.743 -1.0670 -0.7006  0.4182
 4524SOL    HW225209   1.017   3.617   4.807  0.3111 -1.3673 -3.5997
 4525SOL     OW25210   1.251   4.722   7.046 -1.1005  0.2590 -0.5061
 4525SOL    HW125211   1.209   4.662   7.108 -1.3998 -0.3044 -1.2544
 4525SOL    HW225212   1.182   0.038   7.004 -1.7010 -0.1904 -0.0751
 4526SOL     OW25213   4.468   1.992  11.701 -0.3257  0.6552 -0.5601
 4526SOL    HW125214   4.478   1.966  11.793 -0.4239  0.7379 -0.5258
 4526SOL    HW225215   4.536   1.947  11.651  0.4238 -0.3247  1.3050
 4527SOL     OW25216   0.377   3.358   4.478 -0.6284 -0.0274  0.1618
 4527SOL    HW125217   0.420   3.289   4.528  1.2403  0.9579 -0.0758
 4527SOL    HW225218   0.417   3.413   4.545 -0.2977  1.1874 -1.0326
 4528SOL     OW25219   4.321   2.446   2.873  0.1972  0.7352  0.4741
 4528SOL    HW125220   4.328   2.414   2.963  0.9726  0.6371  0.3727
 4528SOL    HW225221   4.292   2.374   2.817 -0.0165  0.9017  0.3723
 4529SOL     OW25222   3.009   0.609   5.802  0.1716  0.4201  0.2552
 4529SOL    HW125223   2.975   0.562   5.726  0.0541 -1.4879  1.5084
 4529SOL    HW225224   3.029   0.696   5.768 -0.7825  0.3247 -0.5331
 4530SOL     OW25225   2.832   1.993   5.903 -0.0078 -0.1294  0.0589
 4530SOL    HW125226   2.882   2.045   5.840  0.1762 -1.1228 -0.6177
 4530SOL    HW225227   2.849   2.052   5.976  2.2677 -1.0173  0.2347
 4531SOL     OW25228   3.315   4.651   1.927  0.0577  0.4008 -0.1079
 4531SOL    HW125229   3.239   4.615   1.880 -0.9566 -0.3907  2.1755
 4531SOL    HW225230   3.275   4.734   1.949 -0.5975  0.1168 -0.2412
 4532SOL     OW25231   2.943   1.857  12.020 -0.0182 -0.1836  0.4760
 4532SOL    HW125232   2.932   1.950  12.001 -0.4017 -0.2925  0.1760
 4532SOL    HW225233   3.036   1.852  12.042  0.1845 -1.0580 -0.5381
 4533SOL     OW25234   0.136   2.057   2.103 -0.5586 -0.0431 -0.7095
 4533SOL    HW125235   0.218   2.090   2.068  0.9900  0.6164  3.5171
 4533SOL    HW225236   0.095   2.140   2.125 -0.7429  0.2002 -1.9544
 4534SOL     OW25237   3.044   3.864   6.490  0.1914  0.3298  0.4759
 4534SOL    HW125238   3.090   3.947   6.478 -0.6555  0.7162 -0.1221
 4534SOL    HW225239   3.037   3.849   6.396 -0.9055  2.2422  0.2509
 4535SOL     OW25240   2.906   4.368   3.647  0.6717 -0.1909  0.3717
 4535SOL    HW125241   2.976   4.414   3.694  0.4282 -0.0506  0.5940
 4535SOL    HW225242   2.912   4.411   3.561  2.8406 -0.1811  0.5355
 4536SOL     OW25243   2.733   0.337  12.499  0.2965 -0.1217  0.1080
 4536SOL    HW125244   2.641   0.319  12.517  0.1509  1.3397  0.7660
 4536SOL    HW225245   2.724   0.329  12.404  4.0356  0.0181 -0.2651
 4537SOL     OW25246   3.494   1.343  13.379 -0.3363  0.5989  0.1305
 4537SOL    HW125247   3.452   1.272  13.426 -0.1432  0.1340 -0.3967
 4537SOL    HW225248   3.415   1.396  13.369  0.1692  0.9827 -1.9964
 4538SOL     OW25249   1.915   4.587   2.979  0.1649  0.5810 -0.0344
 4538SOL    HW125250   1.835   4.545   3.010  0.0745  1.5090  0.9787
 4538SOL    HW225251   1.977   4.516   2.997 -1.9228 -0.8530  1.4899
 4539SOL     OW25252   2.269   1.807  11.971  0.0831 -0.0400  0.5028
 4539SOL    HW125253   2.176   1.804  11.951 -0.0137  0.8451  0.8448
 4539SOL    HW225254   2.307   1.847  11.892  0.1186  2.2647  1.7036
 4540SOL     OW25255   2.993   1.452  13.857 -0.1677 -0.3336  0.0595
 4540SOL    HW125256   2.986   1.361  13.827  2.7352 -0.1118 -1.2545
 4540SOL    HW225257   3.008   1.490  13.770 -2.1331 -1.3841 -0.7337
 4541SOL     OW25258   1.506   0.332   8.419  0.1347  0.2610  0.5810
 4541SOL    HW125259   1.519   0.353   8.512  0.9875 -0.2403  0.5782
 4541SOL    HW225260   1.589   0.284   8.411 -0.0128 -0.0189  0.7228
 4542SOL     OW25261   2.274   1.814  16.715 -0.5513 -0.2388 -0.3907
 4542SOL    HW125262   2.292   1.862  16.796  0.8529  2.4895 -2.3415
 4542SOL    HW225263   2.220   1.883  16.676  0.3760  1.1496  0.7677
 4543SOL     OW25264   0.585   1.206  15.803 -0.3098 -0.1190 -0.2257
 4543SOL    HW125265   0.612   1.206  15.895 -1.4749 -0.0267  0.1166
 4543SOL    HW225266   0.654   1.150  15.766  2.1653  1.8455  1.4228
 4544SOL     OW25267   3.065   2.235   4.615 -0.0677  0.1390  0.9185
 4544SOL    HW125268   3.060   2.246   4.520  0.0003 -1.0252  0.7798
 4544SOL    HW225269   3.157   2.208   4.615 -0.2035 -0.3002 -0.5268
 4545SOL     OW25270   2.671   3.599   1.776  0.6595 -0.4157  0.0836
 4545SOL    HW125271   2.739   3.538   1.749  0.1568 -1.5398  1.3151
 4545SOL    HW225272   2.664   3.649   1.695 -0.8670 -0.1915  0.3533
 4546SOL     OW25273   0.910   0.124   4.547 -0.1035  0.1238 -0.1536
 4546SOL    HW125274   0.935   0.184   4.617  0.9021 -0.3381 -0.1177
 4546SOL    HW225275   0.962   0.151   4.470 -1.9952 -0.2291 -1.5512
 4547SOL     OW25276   2.466   0.276   8.049  0.4860  0.5397  0.0046
 4547SOL    HW125277   2.402   0.312   8.111 -2.2500 -0.6208 -2.1723
 4547SOL    HW225278   2.442   0.326   7.971  0.1744  0.7802  0.2501
 4548SOL     OW25279   2.606   4.233   0.176 -0.4871 -0.2640 -0.2212
 4548SOL    HW125280   2.639   4.307   0.125 -1.2465  1.3594  1.6226
 4548SOL    HW225281   2.550   4.190   0.112 -1.8277 -0.7068  1.2613
 4549SOL     OW25282   1.783   3.227   7.462  0.7354  0.5852  0.0104
 4549SOL    HW125283   1.777   3.186   7.548  0.6688 -0.3089 -0.4161
 4549SOL    HW225284   1.771   3.157   7.398 -0.9284  0.8850 -0.0134
 4550SOL     OW25285   3.742   3.367   6.920 -0.5058  0.3810 -0.1274
 4550SOL    HW125286   3.666   3.330   6.965 -0.0294  0.7530  0.9759
 4550SOL    HW225287   3.813   3.309   6.948 -1.1645 -0.7656 -0.7968
 4551SOL     OW25288   3.059   4.331   5.527  0.0867  0.1853 -0.5947
 4551SOL    HW125289   2.998   4.258   5.536 -0.5717  0.7508 -0.4585
 4551SOL    HW225290   3.119   4.301   5.460  2.6119  0.3241  1.6090
 4552SOL     OW25291   0.156   2.040   8.090  0.3350  0.1505  0.1567
 4552SOL    HW125292   0.142   2.089   8.009  0.4324  0.6128  0.4211
 4552SOL    HW225293   0.126   1.955   8.060 -1.2212 -0.4734  3.4462
 4553SOL     OW25294   3.858   3.739  16.430 -0.8582  0.2151  0.7972
 4553SOL    HW125295   3.822   3.821  16.465  0.0620  0.4031  1.2935
 4553SOL    HW225296   3.909   3.780  16.360 -3.3746  2.3799  0.2067
 4554SOL     OW25297   0.977   3.349  12.730  0.2121 -0.0043 -0.6693
 4554SOL    HW125298   0.914   3.416  12.703 -1.5585 -2.1287 -1.8170
 4554SOL    HW225299   0.969   3.280  12.664  2.9624 -0.9769  0.0293
 4555SOL     OW25300   3.061   0.242   3.329  0.7394  0.5223 -0.6718
 4555SOL    HW125301   2.977   0.203   3.350 -0.0308  3.4680  1.8151
 4555SOL    HW225302   3.036   0.335   3.335 -1.4851 -0.2028  1.5016
 4556SOL     OW25303   3.977   4.424   5.495  0.2789 -0.0399 -0.7418
 4556SOL    HW125304   4.014   4.505   5.460 -0.4270  0.0158 -1.3613
 4556SOL    HW225305   4.056   4.386   5.533  0.6461  0.4135 -1.0550
 4557SOL     OW25306   4.277   1.203   9.685  0.0934 -0.3392  0.0736
 4557SOL    HW125307   4.260   1.147   9.761 -2.0973  1.6697  1.0681
 4557SOL    HW225308   4.345   1.149   9.644  0.0172  0.4943 -1.1256
 4558SOL     OW25309   2.163   2.088   1.313  0.0214 -0.4301  0.1027
 4558SOL    HW125310   2.208   2.092   1.229 -0.8824 -0.9837 -0.4026
 4558SOL    HW225311   2.078   2.054   1.286  1.1652 -2.3158 -1.1866
 4559SOL     OW25312   2.658   3.654   8.326  0.0229  0.2756 -0.0138
 4559SOL    HW125313   2.743   3.611   8.322  1.4305  3.0694 -0.6561
 4559SOL    HW225314   2.597   3.581   8.332  1.2044 -0.8100 -1.6214
 4560SOL     OW25315   4.621   3.254   5.651  0.2188  0.2460 -0.4623
 4560SOL    HW125316   4.592   3.169   5.619 -2.6829  0.6978  0.9658
 4560SOL    HW225317   4.637   3.242   5.745 -1.4708  1.0917 -0.0720
 4561SOL     OW25318   4.379   0.726  17.362 -0.1293 -0.1336  0.6145
 4561SOL    HW125319   4.304   0.785  17.356  0.8234  0.9985 -0.2006
 4561SOL    HW225320   4.400   0.716  17.269 -0.0824 -0.8572  0.7024
 4562SOL     OW25321   2.651   4.261  12.351 -0.2811  0.3419 -0.6365
 4562SOL    HW125322   2.566   4.262  12.394 -0.0142  1.6713 -0.1279
 4562SOL    HW225323   2.694   4.317  12.416 -1.3365 -0.5330  0.8278
 4563SOL     OW25324   4.044   2.177   7.068 -0.4764 -0.1946  0.3713
 4563SOL    HW125325   3.964   2.186   7.016 -2.0121 -0.4706  2.6727
 4563SOL    HW225326   4.106   2.164   6.997 -0.3577 -0.3133  0.4974
 4564SOL     OW25327   4.651   4.182   4.287  0.0257  0.2620 -0.2181
 4564SOL    HW125328   4.731   4.184   4.235  0.4013  5.5318  0.5533
 4564SOL    HW225329   4.611   4.269   4.278 -1.9706 -0.5815  0.5119
 4565SOL     OW25330   1.174   3.163   8.189 -0.2518  0.1966  0.4072
 4565SOL    HW125331   1.090   3.158   8.144 -0.4311  1.7489  0.5574
 4565SOL    HW225332   1.225   3.183   8.110 -2.1495  1.7249 -0.4204
 4566SOL     OW25333   0.383   0.786   2.696  0.4308 -0.3528  0.1227
 4566SOL    HW125334   0.470   0.778   2.655  1.5605 -2.4482  2.9392
 4566SOL    HW225335   0.366   0.880   2.695  0.3356 -0.3911 -2.7900
 4567SOL     OW25336   0.093   4.509   2.333 -0.1014  0.3370 -0.3205
 4567SOL    HW125337   0.016   4.479   2.285  0.4153 -2.8425  0.8104
 4567SOL    HW225338   0.141   4.574   2.281 -3.3586  1.7121 -1.5745
 4568SOL     OW25339   4.286   0.149   7.122 -0.5741 -0.1646  0.3559
 4568SOL    HW125340   4.272   0.243   7.107 -2.3757 -0.2807  1.3564
 4568SOL    HW225341   4.211   0.112   7.076  1.2004 -0.3621 -2.4195
 4569SOL     OW25342   3.303   1.796  16.466 -0.4647 -0.0447  0.0620
 4569SOL    HW125343   3.231   1.787  16.529  1.4622  0.9806  2.4489
 4569SOL    HW225344   3.263   1.871  16.422 -1.5814 -1.5627 -1.5058
 4570SOL     OW25345   1.970   3.091   2.011 -0.3329  0.0944 -0.0510
 4570SOL    HW125346   2.039   3.156   2.015 -0.3992  0.1419  0.3512
 4570SOL    HW225347   1.896   3.144   1.980  0.6757  1.8394  0.5371
 4571SOL     OW25348   0.694   2.505   2.585  0.8001 -0.4385  0.1354
 4571SOL    HW125349   0.640   2.448   2.530  0.8583  0.2019 -0.5870
 4571SOL    HW225350   0.629   2.571   2.608  1.0721 -0.5442  1.1898
 4572SOL     OW25351   4.444   0.445  11.843  0.7125  0.5591 -0.0978
 4572SOL    HW125352   4.455   0.540  11.840  0.7355  0.5597 -0.0131
 4572SOL    HW225353   4.486   0.433  11.929 -2.9643  0.0536  1.6153
 4573SOL     OW25354   3.990   3.980  13.556  0.1147  0.1942  0.1195
 4573SOL    HW125355   3.915   3.928  13.585  0.3343 -1.1815 -1.7943
 4573SOL    HW225356   4.050   3.913  13.522  1.1482  1.2926 -0.2194
 4574SOL     OW25357   4.688   1.427   6.037 -0.2061  0.0346 -0.5775
 4574SOL    HW125358   4.625   1.492   6.007 -3.8512 -3.2835 -0.1973
 4574SOL    HW225359   4.634   1.398   6.110 -1.9516  0.6430 -1.6314
 4575SOL     OW25360   4.319   2.709   4.237 -0.2800 -0.7185  0.2349
 4575SOL    HW125361   4.389   2.671   4.184  0.1576  0.4430 -0.0241
 4575SOL    HW225362   4.290   2.640   4.296 -1.2338  0.1543  0.7906
 4576SOL     OW25363   0.105   4.532  10.920  0.0638  0.0657  0.3058
 4576SOL    HW125364   0.111   4.492  11.007 -0.0032  2.3002  1.3222
 4576SOL    HW225365   0.010   4.537  10.917 -0.0012 -0.3510  1.5465
 4577SOL     OW25366   0.300   3.353   3.056 -0.1695  0.2739 -0.4618
 4577SOL    HW125367   0.261   3.382   3.138  1.6441  2.2520 -0.2837
 4577SOL    HW225368   0.376   3.307   3.092  0.6923  0.2886 -2.2512
 4578SOL     OW25369   3.059   2.827  12.044 -0.2926  0.2915 -0.6277
 4578SOL    HW125370   3.154   2.812  12.044 -0.4627 -0.7910  1.1252
 4578SOL    HW225371   3.030   2.811  12.134  1.9357  0.6703  0.1823
 4579SOL     OW25372   4.546   1.081   4.756  0.1118 -0.1024  0.3882
 4579SOL    HW125373   4.620   1.046   4.806 -2.0715  0.6153  4.1617
 4579SOL    HW225374   4.470   1.036   4.793  0.4074 -0.3749  0.6642
 4580SOL     OW25375   2.772   3.088   8.208  0.1830 -0.0824 -0.1243
 4580SOL    HW125376   2.829   3.019   8.175  1.3730  1.0366 -0.4172
 4580SOL    HW225377   2.835   3.158   8.188  1.3002 -1.0482  0.0035
 4581SOL     OW25378   1.921   2.259   6.397  0.5856  0.2472 -0.6641
 4581SOL    HW125379   1.880   2.227   6.477  1.6712 -2.4045 -1.1614
 4581SOL    HW225380   2.008   2.221   6.405  0.1128 -0.4525  1.1720
 4582SOL     OW25381   3.147   1.967   2.720  0.1517  0.1311 -0.1158
 4582SOL    HW125382   3.100   1.884   2.721 -0.5504  0.5442  0.8636
 4582SOL    HW225383   3.199   1.956   2.640  0.1321  0.3606 -0.1620
 4583SOL     OW25384   3.157   3.514   1.441 -0.3899  0.4187  0.2580
 4583SOL    HW125385   3.120   3.544   1.357  1.4465 -1.7928 -1.3359
 4583SOL    HW225386   3.244   3.553   1.435 -0.8751  1.2713 -1.2929
 4584SOL     OW25387   2.018   2.618   3.092 -0.8116  0.7709 -0.1893
 4584SOL    HW125388   1.928   2.633   3.119 -1.7518 -1.7422 -1.9362
 4584SOL    HW225389   2.031   2.704   3.053  2.3593  0.6005  0.4238
 4585SOL     OW25390   0.442   2.461  12.757  0.1289  0.1506  0.5341
 4585SOL    HW125391   0.415   2.465  12.849  0.8370 -2.0079  0.8261
 4585SOL    HW225392   0.472   2.370  12.759  2.2194  0.8671  2.1494
 4586SOL     OW25393   0.555   0.349   0.286 -0.2045 -0.2562  0.6098
 4586SOL    HW125394   0.568   0.351   0.380  1.8072  0.3452  0.3247
 4586SOL    HW225395   0.468   0.314   0.268 -0.4978  0.8050 -0.0573
 4587SOL     OW25396   4.382   0.978   5.631 -0.2236  0.5243 -0.5805
 4587SOL    HW125397   4.327   1.052   5.655  0.3442  0.9505 -0.5811
 4587SOL    HW225398   4.322   0.909   5.660  0.9152 -0.4710 -0.5435
 4588SOL     OW25399   1.597   0.417   0.367 -0.0877 -0.0314  0.0808
 4588SOL    HW125400   1.599   0.512   0.363 -0.1235 -0.1079 -1.7358
 4588SOL    HW225401   1.533   0.397   0.298  0.0577 -0.9021  0.1957
 4589SOL     OW25402   4.146   2.235   8.903 -0.9170 -0.2744  0.0438
 4589SOL    HW125403   4.113   2.175   8.836  0.0329  1.1818 -1.7075
 4589SOL    HW225404   4.140   2.315   8.851 -0.9023 -0.6862 -0.5884
 4590SOL     OW25405   3.370   2.763   6.481  0.4403  0.2405  0.0690
 4590SOL    HW125406   3.280   2.732   6.478  0.9482 -1.1690 -0.7609
 4590SOL    HW225407   3.360   2.857   6.467 -0.1251  0.0409 -0.9002
 4591SOL     OW25408   3.124   3.578  16.084  0.4092 -0.0204 -0.3971
 4591SOL    HW125409   3.035   3.582  16.119  0.6066  1.0081 -0.0305
 4591SOL    HW225410   3.180   3.561  16.160  1.4943 -0.2384 -1.2478
 4592SOL     OW25411   0.464   1.402   1.083  0.0579  0.1498 -0.1675
 4592SOL    HW125412   0.469   1.476   1.143  0.5929 -0.3108  0.3515
 4592SOL    HW225413   0.370   1.406   1.064  0.3067  2.1718 -0.9840
 4593SOL     OW25414   4.709   3.815   4.894  0.0383 -0.3215 -0.1011
 4593SOL    HW125415   4.617   3.814   4.869 -0.3872 -1.8465  1.5633
 4593SOL    HW225416   4.719   3.732   4.941 -0.6520 -0.2964  0.0925
 4594SOL     OW25417   1.183   1.941   4.327  0.5588 -0.2275 -0.1695
 4594SOL    HW125418   1.093   1.912   4.345  1.7829 -2.9454  1.5324
 4594SOL    HW225419   1.211   1.864   4.278  0.9777 -0.0959 -0.1336
 4595SOL     OW25420   0.355   2.465   1.837 -0.5261  0.4186  0.6061
 4595SOL    HW125421   0.270   2.458   1.881 -1.0943 -0.4755 -0.6194
 4595SOL    HW225422   0.332   2.524   1.765  0.9735 -0.3451 -0.5067
 4596SOL     OW25423   1.515   1.317   4.688 -0.1174  0.7805  0.4540
 4596SOL    HW125424   1.571   1.395   4.684 -1.4943  1.7438 -0.1288
 4596SOL    HW225425   1.475   1.334   4.774  0.3715 -1.0323  1.0424
 4597SOL     OW25426   3.012   0.174  16.788  0.3446  0.5040  0.3418
 4597SOL    HW125427   3.097   0.218  16.788  0.1569  0.8693  0.1008
 4597SOL    HW225428   2.958   0.224  16.728 -1.1943  0.3955  1.6478
 4598SOL     OW25429   4.434   4.345  11.202  0.3913 -0.1629 -0.3317
 4598SOL    HW125430   4.431   4.269  11.143  1.3050  0.3661 -1.0685
 4598SOL    HW225431   4.359   4.324  11.256  0.9744  1.4358  1.1044
 4599SOL     OW25432   2.939   3.409   4.910 -0.1188 -0.0600 -0.1181
 4599SOL    HW125433   2.994   3.336   4.941 -0.7297 -0.3164  0.3461
 4599SOL    HW225434   2.867   3.406   4.973  1.7630  0.5405  2.0983
 4600SOL     OW25435   1.354   0.965   8.358 -0.2856  0.7110 -0.0522
 4600SOL    HW125436   1.275   0.915   8.380  0.6248 -1.3556 -1.4207
 4600SOL    HW225437   1.391   0.967   8.446  0.4664 -0.8489 -0.3266
 4601SOL     OW25438   2.455   4.041  15.521 -0.5061 -0.2139  0.1971
 4601SOL    HW125439   2.413   4.017  15.438 -0.7684 -2.7568  1.0737
 4601SOL    HW225440   2.473   4.135  15.510 -1.1228  0.0441  1.4134
 4602SOL     OW25441   3.605   2.406  17.498 -0.4218 -0.0264  0.3576
 4602SOL    HW125442   3.576   2.352  17.424 -0.8082 -1.6765  1.7165
 4602SOL    HW225443   3.665   2.340  17.532  0.6124  0.3916 -0.6758
 4603SOL     OW25444   4.562   1.921   2.198  0.2138 -0.0803 -0.1967
 4603SOL    HW125445   4.529   1.967   2.121 -0.3340 -1.3978 -0.7414
 4603SOL    HW225446   4.483   1.893   2.243  2.1655 -2.7844  1.5641
 4604SOL     OW25447   1.401   0.594   1.107 -0.0781  0.2453  0.2119
 4604SOL    HW125448   1.489   0.557   1.108 -0.6366 -1.0466  1.8844
 4604SOL    HW225449   1.390   0.645   1.188 -3.8678 -0.5900  0.2348
 4605SOL     OW25450   4.076   1.870   2.882 -0.9204  0.0767  0.2806
 4605SOL    HW125451   4.149   1.918   2.920  0.2261 -0.1900 -1.5924
 4605SOL    HW225452   4.116   1.784   2.870 -1.5961 -0.1451 -0.4430
 4606SOL     OW25453   2.045   1.271  12.056 -0.1745  0.2281 -0.7064
 4606SOL    HW125454   2.031   1.298  12.147  1.1106  1.3892 -0.8525
 4606SOL    HW225455   1.957   1.242  12.030 -1.3072  1.5606  1.6051
 4607SOL     OW25456   0.923   1.932   5.000  0.1288 -0.3767  0.0286
 4607SOL    HW125457   0.853   1.870   4.977 -0.6989  0.9269 -0.9602
 4607SOL    HW225458   1.002   1.885   4.972 -0.1143 -0.7169 -0.0862
 4608SOL     OW25459   1.329   2.063   2.201 -0.9094 -0.2740  0.2521
 4608SOL    HW125460   1.375   2.142   2.232 -1.3181 -0.7588  2.0924
 4608SOL    HW225461   1.241   2.091   2.177 -0.5848  1.2368  0.7899
 4609SOL     OW25462   1.450   2.416  12.964 -0.0737 -0.2015  0.0490
 4609SOL    HW125463   1.400   2.459  13.033  0.1686 -1.1852  0.8434
 4609SOL    HW225464   1.446   2.491  12.905 -0.8915 -0.0706  0.2740
 4610SOL     OW25465   1.841   3.809   8.595 -0.0153  0.0633  0.1421
 4610SOL    HW125466   1.752   3.807   8.629  0.2804 -1.2096  0.8467
 4610SOL    HW225467   1.842   3.904   8.583 -0.2208 -0.0443 -0.6886
 4611SOL     OW25468   2.333   3.613  12.058  0.0221  0.0828 -0.1030
 4611SOL    HW125469   2.381   3.604  12.140 -2.3516  1.5145  1.4663
 4611SOL    HW225470   2.390   3.670  12.007  1.2309 -0.3640  0.7423
 4612SOL     OW25471   2.072   0.029   5.532 -0.5131  0.4434 -0.5110
 4612SOL    HW125472   2.014   4.692   5.554  2.2297 -1.0506  1.7244
 4612SOL    HW225473   2.006   0.088   5.495 -0.0602  0.7544 -0.8251
 4613SOL     OW25474   1.154   3.886  14.157  0.3313 -0.4685  0.5480
 4613SOL    HW125475   1.131   3.841  14.237 -2.6963  0.9110  0.4513
 4613SOL    HW225476   1.160   3.975  14.193 -0.4230 -0.1976  0.0147
 4614SOL     OW25477   3.547   2.746   6.010 -0.2965 -0.1015 -0.0179
 4614SOL    HW125478   3.464   2.774   6.050  0.1463  0.0086  0.8291
 4614SOL    HW225479   3.510   2.677   5.954  0.8397 -0.1129 -0.7482
 4615SOL     OW25480   1.626   0.980  16.719  0.0157  0.1844  0.1888
 4615SOL    HW125481   1.548   0.961  16.666 -1.1991  1.6349  1.4565
 4615SOL    HW225482   1.595   0.934  16.797 -0.4438  1.6141  0.8489
 4616SOL     OW25483   2.637   2.011   8.867 -0.2634  0.0772  0.0626
 4616SOL    HW125484   2.677   2.038   8.950 -2.0960 -1.5370  1.4581
 4616SOL    HW225485   2.644   2.087   8.810  0.1223  0.3532  0.4733
 4617SOL     OW25486   0.714   0.899   2.946 -0.5645  0.1436  0.0624
 4617SOL    HW125487   0.801   0.863   2.931 -0.2044  1.3040 -0.6050
 4617SOL    HW225488   0.706   0.883   3.041  0.0984  1.9170  0.4206
 4618SOL     OW25489   0.715   2.709   8.469 -0.5224  0.4009 -0.2889
 4618SOL    HW125490   0.660   2.684   8.543  1.0255 -1.9174  0.0677
 4618SOL    HW225491   0.774   2.765   8.520  1.1567 -0.7511 -0.9796
 4619SOL     OW25492   0.074   2.746   8.771  0.1128  0.9748  0.1474
 4619SOL    HW125493   0.021   2.728   8.849 -0.8436  0.0934 -0.7019
 4619SOL    HW225494   0.120   2.663   8.772 -2.2993 -0.3871 -1.5019
 4620SOL     OW25495   1.172   0.767   7.350 -0.1720 -0.3890  0.7955
 4620SOL    HW125496   1.139   0.821   7.422 -1.6351 -0.2383  0.0334
 4620SOL    HW225497   1.126   0.688   7.377  0.0691 -0.5370  0.7660
 4621SOL     OW25498   3.698   1.034   0.292  0.7657 -0.1495  0.1375
 4621SOL    HW125499   3.707   1.122   0.328  0.3776 -0.5324  1.1785
 4621SOL    HW225500   3.788   1.003   0.298  0.2815 -1.3268  1.2970
 4622SOL     OW25501   3.437   0.286  13.384 -0.4923 -0.8092  0.0392
 4622SOL    HW125502   3.475   0.202  13.356 -0.4636 -0.7642 -0.0559
 4622SOL    HW225503   3.428   0.277  13.479 -0.1490  0.1890  0.1603
 4623SOL     OW25504   3.591   2.105  15.011 -0.2662 -0.6421 -0.0108
 4623SOL    HW125505   3.606   2.093  14.917  1.3328  0.3185  0.1145
 4623SOL    HW225506   3.640   2.035  15.053 -0.9889 -0.2909  1.4224
 4624SOL     OW25507   2.718   3.989   4.436 -0.0031  0.3173  0.0718
 4624SOL    HW125508   2.623   3.997   4.447 -0.5116 -1.1027 -3.2867
 4624SOL    HW225509   2.756   4.055   4.494  0.0916 -1.1745  1.7119
 4625SOL     OW25510   3.116   2.471   4.254 -0.0362  0.1365 -0.2243
 4625SOL    HW125511   3.040   2.412   4.255  0.3842 -0.4104 -0.5546
 4625SOL    HW225512   3.121   2.491   4.347  0.0619 -1.2332  0.0650
 4626SOL     OW25513   2.424   4.330   3.553 -0.6285 -0.3303 -0.6930
 4626SOL    HW125514   2.465   4.336   3.640 -0.7269 -0.6952 -0.6213
 4626SOL    HW225515   2.357   4.263   3.561 -0.7132  0.1364  2.7848
 4627SOL     OW25516   4.586   3.944   6.982  0.5064 -0.0979  0.4910
 4627SOL    HW125517   4.646   3.889   7.032  2.3885  1.7924  0.3212
 4627SOL    HW225518   4.505   3.907   7.016  1.0214 -1.0883  0.6378
 4628SOL     OW25519   4.523   1.102   8.364 -0.0916 -0.1279 -0.2188
 4628SOL    HW125520   4.561   1.089   8.277  1.1002  0.3117  0.2469
 4628SOL    HW225521   4.537   1.196   8.370 -0.2915 -0.1042 -0.1183
 4629SOL     OW25522   4.596   1.915   7.041  0.3652  0.4276 -0.0579
 4629SOL    HW125523   4.574   1.994   7.090 -1.3894  0.6591 -1.2130
 4629SOL    HW225524   4.677   1.887   7.084  1.0855  1.2749 -0.8604
 4630SOL     OW25525   2.341   0.962  16.795 -0.4092 -0.2358  0.2367
 4630SOL    HW125526   2.306   0.965  16.884 -1.4671 -0.2977 -0.1764
 4630SOL    HW225527   2.331   0.870  16.771 -0.5123  0.0159 -0.6893
 4631SOL     OW25528   1.290   0.022   3.234  0.2371  0.3082 -0.2418
 4631SOL    HW125529   1.356   0.086   3.261  0.1022  1.3759 -2.4341
 4631SOL    HW225530   1.325   4.680   3.278  0.2401  0.4375 -0.0150
 4632SOL     OW25531   3.093   2.722   9.565  0.0136 -0.2461 -0.5025
 4632SOL    HW125532   3.085   2.742   9.471  1.9768 -1.1382 -0.8642
 4632SOL    HW225533   3.120   2.810   9.590 -0.3842 -0.2412 -0.0833
 4633SOL     OW25534   2.047   2.095   3.359 -0.8256  0.8779  0.8984
 4633SOL    HW125535   2.011   2.049   3.435 -1.0484 -0.3273  0.0629
 4633SOL    HW225536   1.968   2.138   3.327 -1.1440  0.3561  0.9779
 4634SOL     OW25537   0.053   1.753   7.200 -0.3438 -0.0736 -0.2163
 4634SOL    HW125538   0.127   1.744   7.141 -0.7135  0.7629 -0.8182
 4634SOL    HW225539   0.093   1.723   7.281 -0.2996  4.6232  1.5443
 4635SOL     OW25540   0.223   3.466  16.847 -0.1648  0.3513 -0.1405
 4635SOL    HW125541   0.276   3.392  16.815 -0.0466  0.1103  0.5885
 4635SOL    HW225542   0.299   3.516  16.877  1.1853 -1.5968 -0.2377
 4636SOL     OW25543   2.628   2.633   3.848  0.0811  0.3641  0.1792
 4636SOL    HW125544   2.632   2.609   3.941 -1.5879 -0.4584  0.0373
 4636SOL    HW225545   2.624   2.546   3.807 -1.3870  1.1779 -1.3958
 4637SOL     OW25546   4.257   0.511  15.663  0.3443  0.6394 -0.2066
 4637SOL    HW125547   4.222   0.453  15.595 -0.9765  1.6184 -0.3635
 4637SOL    HW225548   4.301   0.446  15.716 -1.3747 -0.8334 -0.5949
 4638SOL     OW25549   2.763   2.542   7.654  0.2313 -0.2636 -0.4219
 4638SOL    HW125550   2.761   2.487   7.733  1.3755 -0.7279 -0.7232
 4638SOL    HW225551   2.834   2.493   7.613  1.2510 -0.2851  1.3542
 4639SOL     OW25552   0.156   2.260   1.104 -0.3910  0.6669  0.3535
 4639SOL    HW125553   0.202   2.188   1.146  0.3817  0.1118 -1.4342
 4639SOL    HW225554   0.120   2.222   1.024 -0.0616  1.2737 -0.0886
 4640SOL     OW25555   1.495   1.559   7.539 -0.1294  0.1265 -0.1692
 4640SOL    HW125556   1.514   1.510   7.459 -2.4139 -0.0218 -0.6297
 4640SOL    HW225557   1.484   1.648   7.508  0.8163  0.6204  0.9161
 4641SOL     OW25558   2.921   1.081   3.692 -0.3362  0.3158 -0.7357
 4641SOL    HW125559   2.888   1.133   3.765  0.3600 -3.1149  1.9942
 4641SOL    HW225560   2.996   1.037   3.731  0.0841  0.1219 -1.7666
 4642SOL     OW25561   0.083   2.557   2.884 -0.6181  0.5596  0.1381
 4642SOL    HW125562   0.054   2.557   2.975 -0.1097 -3.2765  0.2942
 4642SOL    HW225563   0.003   2.533   2.837 -0.3444  3.8483 -1.9794
 4643SOL     OW25564   1.566   0.267   3.743 -0.8126  0.2260 -0.8593
 4643SOL    HW125565   1.622   0.314   3.806 -0.1227 -1.0207 -0.5466
 4643SOL    HW225566   1.488   0.317   3.768  0.7270  1.8514  0.8369
 4644SOL     OW25567   3.674   4.505   4.605  0.0985  0.6024  0.2704
 4644SOL    HW125568   3.584   4.475   4.595 -0.1518  1.4694 -0.1090
 4644SOL    HW225569   3.702   4.435   4.664 -0.0247 -0.7936 -1.3317
 4645SOL     OW25570   2.433   1.226   4.599 -0.4368 -0.0250  0.9476
 4645SOL    HW125571   2.391   1.268   4.674  0.1497  1.8474  0.2039
 4645SOL    HW225572   2.363   1.169   4.566 -1.1239  0.3824  1.7020
 4646SOL     OW25573   3.119   3.721   0.142  0.1903 -0.4692  0.0258
 4646SOL    HW125574   3.084   3.808   0.161 -1.3901 -0.2938 -3.6632
 4646SOL    HW225575   3.039   3.671   0.129 -0.1977  0.5257 -1.4080
 4647SOL     OW25576   1.356   0.072   9.988 -0.2122 -0.3768 -0.0645
 4647SOL    HW125577   1.342   0.074  10.083 -0.4307 -1.4282 -0.0800
 4647SOL    HW225578   1.372   4.716   9.970  0.5837 -0.8240  2.8864
 4648SOL     OW25579   0.971   1.843  14.643 -0.7192 -0.1431  0.6507
 4648SOL    HW125580   1.016   1.788  14.708  1.4208  2.2540  1.2447
 4648SOL    HW225581   0.884   1.852  14.681 -0.9338 -2.4044  0.7211
 4649SOL     OW25582   1.403   3.107   3.350  0.1056 -0.0889 -0.0890
 4649SOL    HW125583   1.420   3.149   3.266  1.2519 -0.9573 -0.2882
 4649SOL    HW225584   1.444   3.171   3.409 -1.5121  0.1217  0.8157
 4650SOL     OW25585   0.363   4.415   8.773 -0.1606 -0.1215 -0.1501
 4650SOL    HW125586   0.382   4.453   8.687  1.5541 -0.2851  0.1481
 4650SOL    HW225587   0.413   4.334   8.774 -2.2070 -1.3943 -1.1792
 4651SOL     OW25588   4.347   4.479   2.167 -0.1573  0.4310  0.3331
 4651SOL    HW125589   4.395   4.405   2.203  1.4027  0.8704 -0.8398
 4651SOL    HW225590   4.335   4.525   2.250 -0.4308 -0.8622  1.0048
 4652SOL     OW25591   3.607   1.153   2.732 -0.0520 -0.2587 -0.4865
 4652SOL    HW125592   3.557   1.211   2.674 -0.4161 -0.8900 -0.7952
 4652SOL    HW225593   3.602   1.067   2.691  2.0367  0.0903 -1.5120
 4653SOL     OW25594   0.576   4.058   2.240  0.3856 -0.4398  0.4567
 4653SOL    HW125595   0.580   4.153   2.252 -1.6798 -0.0748 -1.5639
 4653SOL    HW225596   0.486   4.051   2.206  0.0283  0.1870  1.2727
 4654SOL     OW25597   3.330   4.369   6.186  0.2742  0.1656  0.4991
 4654SOL    HW125598   3.274   4.437   6.224 -1.6664 -1.8379  1.1827
 4654SOL    HW225599   3.297   4.373   6.096 -0.9595 -0.1287  0.9494
 4655SOL     OW25600   4.057   3.320   8.887  0.5907 -0.3223 -0.1314
 4655SOL    HW125601   4.063   3.360   8.974  0.8256 -2.0282  0.6359
 4655SOL    HW225602   3.997   3.246   8.898  1.2714 -0.7201  0.9798
 4656SOL     OW25603   2.307   4.502   4.885  0.1232 -0.7417  0.6916
 4656SOL    HW125604   2.324   4.410   4.867 -0.3407 -0.3393 -1.7843
 4656SOL    HW225605   2.357   4.508   4.967  2.8942 -1.4232 -0.9289
 4657SOL     OW25606   3.451   4.289   1.725  0.8347  0.6635 -0.2009
 4657SOL    HW125607   3.374   4.232   1.715  1.6589 -0.1032 -2.1036
 4657SOL    HW225608   3.484   4.264   1.811  2.7017  3.4389 -0.1238
 4658SOL     OW25609   1.490   3.627  13.654  0.3076 -0.0359 -0.7915
 4658SOL    HW125610   1.461   3.642  13.563 -0.9907  2.5858  0.0478
 4658SOL    HW225611   1.441   3.697  13.697 -1.4474 -1.7711  0.0187
 4659SOL     OW25612   3.358   2.147  10.081  0.4144 -0.0109  0.2453
 4659SOL    HW125613   3.277   2.195  10.101 -0.7907 -1.4057 -1.3100
 4659SOL    HW225614   3.422   2.217  10.097 -0.6973  1.0884 -0.1142
 4660SOL     OW25615   0.355   1.469   5.856  0.3997  0.1374 -0.0114
 4660SOL    HW125616   0.429   1.420   5.820 -0.2475 -0.4412 -0.5617
 4660SOL    HW225617   0.409   1.525   5.911 -1.3565  0.6658  1.1611
 4661SOL     OW25618   1.970   0.085  11.016 -0.0870  0.0119  0.1381
 4661SOL    HW125619   2.030   0.092  11.090  0.1461  0.7393 -0.1212
 4661SOL    HW225620   1.981   4.729  10.989 -1.1855  0.1755 -0.9235
 4662SOL     OW25621   4.227   4.123   7.388 -0.7464  0.2229  0.1559
 4662SOL    HW125622   4.248   4.098   7.298  0.8463 -1.7207  1.0675
 4662SOL    HW225623   4.288   4.078   7.446  0.1773  1.2958  0.0259
 4663SOL     OW25624   2.828   1.916   7.143 -0.2468 -0.0199 -0.3087
 4663SOL    HW125625   2.910   1.919   7.192 -0.3478 -0.9377 -0.0944
 4663SOL    HW225626   2.858   1.954   7.061 -1.1425 -0.8173 -0.9994
 4664SOL     OW25627   2.928   3.083  11.272 -0.3242  0.3225 -0.0323
 4664SOL    HW125628   2.845   3.054  11.234  0.1127  1.1148 -1.5796
 4664SOL    HW225629   2.981   3.076  11.193 -1.2121 -0.0578 -0.6033
 4665SOL     OW25630   4.537   3.972  12.240 -0.1453  0.2576 -0.0812
 4665SOL    HW125631   4.608   3.940  12.296  1.9366 -1.3003 -3.6213
 4665SOL    HW225632   4.563   3.937  12.155  0.7672 -0.9240  0.6756
 4666SOL     OW25633   3.165   0.461   7.932 -0.1034  0.1583  0.7670
 4666SOL    HW125634   3.228   0.404   7.976  0.1045 -0.9200 -0.9166
 4666SOL    HW225635   3.094   0.472   7.994 -0.5139 -1.4831  0.5890
 4667SOL     OW25636   0.442   0.839   4.635 -0.1620  0.3733 -0.6539
 4667SOL    HW125637   0.354   0.841   4.597 -1.0371  0.9543  1.3410
 4667SOL    HW225638   0.498   0.826   4.559 -0.2124 -2.2829 -0.2183
 4668SOL     OW25639   2.044   0.853  11.098 -0.5069  0.0952 -0.0721
 4668SOL    HW125640   2.018   0.770  11.057 -0.7681  0.9048 -1.5175
 4668SOL    HW225641   2.137   0.831  11.108 -0.3961  0.0564 -1.2292
 4669SOL     OW25642   0.322   0.450   0.773  0.2278 -0.4254 -0.5308
 4669SOL    HW125643   0.252   0.510   0.796  2.1063  1.7089 -0.3803
 4669SOL    HW225644   0.278   0.404   0.702 -1.2681  0.0379  0.0955
 4670SOL     OW25645   2.309   2.143   3.385 -0.2469  0.3833  0.2855
 4670SOL    HW125646   2.214   2.131   3.390 -0.3911  1.3043 -0.2055
 4670SOL    HW225647   2.308   2.154   3.290 -1.6120  1.8119  0.4720
 4671SOL     OW25648   3.514   1.195   8.491 -0.1516 -0.3884 -0.0328
 4671SOL    HW125649   3.564   1.228   8.416  2.3743 -2.4140  0.7582
 4671SOL    HW225650   3.590   1.189   8.549 -0.2281 -0.0394  0.1037
 4672SOL     OW25651   0.785   3.049   8.420 -1.1441 -0.4122 -0.2505
 4672SOL    HW125652   0.832   3.018   8.497 -1.0927  1.6159  0.5399
 4672SOL    HW225653   0.709   3.092   8.459 -0.5285  2.0958 -1.8554
 4673SOL     OW25654   0.763   3.084   5.728 -0.3486 -0.1218  0.0308
 4673SOL    HW125655   0.760   2.989   5.713  0.0389  0.1453 -1.7176
 4673SOL    HW225656   0.853   3.105   5.703  0.0303 -0.5695  1.0038
 4674SOL     OW25657   2.531   2.219   2.971 -0.1781 -0.1680 -0.3334
 4674SOL    HW125658   2.555   2.308   2.998 -0.6069 -0.0676 -0.2799
 4674SOL    HW225659   2.459   2.202   3.032  1.4022  0.7615  1.8170
 4675SOL     OW25660   2.389   0.465   6.073  0.1069 -0.5822 -0.5614
 4675SOL    HW125661   2.360   0.551   6.043 -0.8168 -0.2401  1.3379
 4675SOL    HW225662   2.312   0.420   6.039 -0.6982 -1.4313  2.4627
 4676SOL     OW25663   2.671   0.164   3.580  0.3626  0.2191  0.4283
 4676SOL    HW125664   2.617   0.126   3.649 -0.9901  1.3019 -0.0390
 4676SOL    HW225665   2.605   0.148   3.512 -0.0865  0.6190  0.7702
 4677SOL     OW25666   2.459   4.436   5.916 -0.3998 -0.1886  0.1458
 4677SOL    HW125667   2.464   4.352   5.962  1.6822 -0.3730 -0.4345
 4677SOL    HW225668   2.389   4.479   5.966 -2.0391 -0.5430 -1.8711
 4678SOL     OW25669   2.102   0.056   3.159 -0.5134  0.7264 -0.8637
 4678SOL    HW125670   2.144   0.139   3.181  2.6651 -1.4222  1.2763
 4678SOL    HW225671   2.138   0.048   3.071  0.6108  0.0424 -0.3406
 4679SOL     OW25672   2.137   0.492   2.744  1.0415 -0.3199 -0.3457
 4679SOL    HW125673   2.226   0.498   2.778  1.3226 -2.2290 -0.7342
 4679SOL    HW225674   2.095   0.556   2.802 -1.7651 -1.3146 -1.2675
 4680SOL     OW25675   2.112   4.466   2.760  0.0433  0.4035  0.4007
 4680SOL    HW125676   2.103   4.393   2.822 -1.4952  0.9143  0.7696
 4680SOL    HW225677   2.116   4.422   2.675 -2.9166 -1.4265  1.2143
 4681SOL     OW25678   0.653   0.501   1.844 -0.1088 -0.3643 -0.1184
 4681SOL    HW125679   0.609   0.463   1.767 -0.3783 -1.1330  0.4166
 4681SOL    HW225680   0.720   0.545   1.791  0.3188 -0.1119  0.6354
 4682SOL     OW25681   0.369   3.799   6.421  0.0691  0.2053  0.3769
 4682SOL    HW125682   0.443   3.845   6.380 -0.5001 -2.0888 -3.2171
 4682SOL    HW225683   0.328   3.878   6.456 -0.4255 -0.5926  1.6065
 4683SOL     OW25684   1.692   1.001   2.665  0.4166  0.1378 -0.4507
 4683SOL    HW125685   1.726   1.027   2.751 -0.5243 -1.8892  0.5483
 4683SOL    HW225686   1.774   0.986   2.617  0.0478 -0.7949 -0.7878
 4684SOL     OW25687   2.174   1.373   2.484 -0.6865 -0.4503 -0.5665
 4684SOL    HW125688   2.228   1.448   2.508 -0.8203 -0.6712  0.4572
 4684SOL    HW225689   2.118   1.413   2.418  0.7061 -2.2325 -2.8265
 4685SOL     OW25690   1.214   3.924   5.250 -0.1847  0.5143  0.1960
 4685SOL    HW125691   1.121   3.922   5.274  0.2668  0.1772  1.9152
 4685SOL    HW225692   1.210   3.998   5.190  1.4401  0.1510 -0.3354
 4686SOL     OW25693   3.393   1.970   9.851 -0.2025 -0.1689 -0.2108
 4686SOL    HW125694   3.350   1.994   9.769  0.2273  3.4680  0.6318
 4686SOL    HW225695   3.371   2.043   9.909  0.6598 -1.0271  1.2229
 4687SOL     OW25696   4.573   1.493  12.210 -0.3823 -0.6680 -0.0618
 4687SOL    HW125697   4.566   1.587  12.197 -0.3047 -0.4630  1.3684
 4687SOL    HW225698   4.502   1.454  12.159 -1.1049  0.0467  0.4189
 4688SOL     OW25699   3.679   2.991   6.065 -0.8163 -0.2760 -0.5004
 4688SOL    HW125700   3.649   2.900   6.070  1.4391 -1.1076 -1.9905
 4688SOL    HW225701   3.698   3.003   6.158 -1.4099  0.7617 -0.5139
 4689SOL     OW25702   0.564   4.718   2.326 -0.0492  0.0164  0.3732
 4689SOL    HW125703   0.489   0.032   2.294 -0.7976 -0.5552  1.2544
 4689SOL    HW225704   0.542   4.721   2.419  0.2161  0.2534  0.4280
 4690SOL     OW25705   1.281   3.196   8.689  0.6384  0.1329  0.2773
 4690SOL    HW125706   1.262   3.274   8.740  0.9739 -0.6258  1.5525
 4690SOL    HW225707   1.323   3.234   8.612  1.5756  0.4233  0.9402
 4691SOL     OW25708   0.854   3.669   8.144  0.1751  0.0802  0.6621
 4691SOL    HW125709   0.882   3.578   8.134  1.7009  0.4791  1.3776
 4691SOL    HW225710   0.872   3.688   8.236  1.2674  3.0465 -0.1593
 4692SOL     OW25711   2.533   1.561   5.918  0.4548  0.0953 -0.8888
 4692SOL    HW125712   2.599   1.626   5.943  2.5843 -1.6151 -2.0558
 4692SOL    HW225713   2.569   1.484   5.962 -1.5308 -0.6242 -0.5596
 4693SOL     OW25714   2.724   3.493  14.858  0.3562 -0.3355  0.3930
 4693SOL    HW125715   2.747   3.402  14.881  0.0015 -0.8355 -1.2677
 4693SOL    HW225716   2.792   3.519  14.796  0.7328 -0.0309  0.9275
 4694SOL     OW25717   4.432   1.276   5.354  0.3265  1.0317 -0.3833
 4694SOL    HW125718   4.435   1.238   5.442 -0.0021 -0.7302 -1.1210
 4694SOL    HW225719   4.510   1.332   5.349  1.3338 -0.5835 -3.0684
 4695SOL     OW25720   2.839   0.853   9.313 -0.1548  0.0420 -0.0117
 4695SOL    HW125721   2.759   0.866   9.262  1.3692  1.7956 -1.9534
 4695SOL    HW225722   2.800   0.795   9.379  2.4206 -1.0548  0.5236
 4696SOL     OW25723   1.523   4.226   3.154 -0.2038  0.6543 -0.4079
 4696SOL    HW125724   1.545   4.135   3.135 -1.4010  0.0568  1.0202
 4696SOL    HW225725   1.483   4.237   3.068 -2.2022 -0.2030  0.3964
 4697SOL     OW25726   1.690   0.334   5.220  0.6160  0.7242  0.2307
 4697SOL    HW125727   1.655   0.325   5.308  1.6744 -0.2194  0.5648
 4697SOL    HW225728   1.693   0.244   5.186 -0.4791  1.8669 -2.9444
 4698SOL     OW25729   2.634   0.111  15.671  0.2142 -0.2525 -0.1318
 4698SOL    HW125730   2.685   0.146  15.745 -0.8501 -1.3612  1.1365
 4698SOL    HW225731   2.590   0.190  15.640  2.0416 -0.1060 -2.3642
 4699SOL     OW25732   2.457   4.054   9.631 -0.4306 -0.6712 -0.2224
 4699SOL    HW125733   2.535   4.106   9.613 -1.5776  0.9864 -0.3956
 4699SOL    HW225734   2.383   4.104   9.597  0.8770  1.7694  0.5603
 4700SOL     OW25735   3.927   1.871  10.943  0.1921 -0.1675  0.0827
 4700SOL    HW125736   3.992   1.926  10.987  2.1347 -1.9484 -0.5748
 4700SOL    HW225737   3.852   1.864  11.002  0.1163 -0.3322 -0.0327
 4701SOL     OW25738   2.580   0.327   8.664  0.1202  0.5519  0.9456
 4701SOL    HW125739   2.485   0.333   8.668 -0.0638 -2.2388  0.7093
 4701SOL    HW225740   2.591   0.282   8.581 -3.7928 -0.0880  0.7825
 4702SOL     OW25741   3.516   0.815   6.267 -0.3250 -0.2880  0.2069
 4702SOL    HW125742   3.477   0.766   6.195  0.1930 -2.0293  1.0979
 4702SOL    HW225743   3.498   0.908   6.252  0.8353 -0.2238 -0.8117
 4703SOL     OW25744   4.659   2.213  13.036  0.3329 -0.4565  0.5502
 4703SOL    HW125745   4.600   2.147  13.000  0.3214  0.0908 -0.4371
 4703SOL    HW225746   4.694   2.251  12.955 -2.9054  1.5186  0.0537
 4704SOL     OW25747   0.575   3.174   4.059 -0.0479 -0.1533  0.1678
 4704SOL    HW125748   0.482   3.180   4.080 -0.0723 -0.3920  0.1223
 4704SOL    HW225749   0.587   3.269   4.059 -0.4589 -0.0996  0.9482
 4705SOL     OW25750   3.005   1.455   5.880 -0.0185 -0.4242 -0.4726
 4705SOL    HW125751   3.065   1.437   5.807  0.2319  0.2850 -0.4410
 4705SOL    HW225752   3.072   1.462   5.948 -0.5855 -0.4909  0.0879
 4706SOL     OW25753   3.827   1.809   9.652 -0.1236  0.7542  0.4345
 4706SOL    HW125754   3.851   1.772   9.567 -0.7624  1.8790 -0.2572
 4706SOL    HW225755   3.896   1.787   9.714 -0.5518 -1.9174 -0.0637
 4707SOL     OW25756   1.559   0.337   6.912  0.0465  0.7011 -0.3119
 4707SOL    HW125757   1.507   0.401   6.961 -1.0114  0.7663 -1.5126
 4707SOL    HW225758   1.558   0.265   6.976 -3.1302  0.5373 -0.5360
 4708SOL     OW25759   2.796   0.615   5.511 -0.0852  0.5301 -0.5325
 4708SOL    HW125760   2.740   0.673   5.459  0.4816 -0.8065 -2.6396
 4708SOL    HW225761   2.770   0.524   5.492 -0.8707  0.9186 -1.3365
 4709SOL     OW25762   2.915   3.142   9.481  0.1436 -0.4846 -0.2337
 4709SOL    HW125763   2.908   3.050   9.456 -1.0151  0.0128 -1.7604
 4709SOL    HW225764   2.918   3.137   9.576  2.1760  0.2607 -0.2511
 4710SOL     OW25765   0.159   2.172  11.797 -0.6929 -0.2396 -0.1809
 4710SOL    HW125766   0.081   2.199  11.749 -1.0034 -2.4604 -0.9161
 4710SOL    HW225767   0.226   2.222  11.750 -0.8080 -1.9007 -2.1244
 4711SOL     OW25768   0.890   3.683   2.014 -0.6617  0.7217 -0.5839
 4711SOL    HW125769   0.882   3.627   2.091  1.2804  0.6537 -0.4321
 4711SOL    HW225770   0.895   3.771   2.051  0.5945  0.1811  0.4929
 4712SOL     OW25771   3.143   0.950   3.796 -0.1283 -0.2077  0.0123
 4712SOL    HW125772   3.097   0.923   3.875 -1.6152  0.2962 -0.6938
 4712SOL    HW225773   3.181   0.865   3.774  1.1799 -0.0049  1.5039
 4713SOL     OW25774   3.202   3.407   7.494  0.0317  0.5776 -0.1363
 4713SOL    HW125775   3.153   3.378   7.417  0.1422 -0.4654  0.1863
 4713SOL    HW225776   3.207   3.503   7.488 -0.3152  0.5792 -0.3704
 4714SOL     OW25777   0.070   0.036   0.208  0.3514 -0.4533  0.0073
 4714SOL    HW125778   0.140   4.707   0.203  1.6581  0.9574 -0.1615
 4714SOL    HW225779   0.000   4.725   0.162  0.0756 -0.3058  0.2747
 4715SOL     OW25780   4.676   0.733  16.555 -0.3707  0.3595  0.5295
 4715SOL    HW125781   4.599   0.788  16.541  0.4609  0.3260 -4.0442
 4715SOL    HW225782   4.643   0.645  16.537  1.3546 -0.7229  2.6493
 4716SOL     OW25783   0.384   4.314  14.881 -0.4684 -0.3376 -0.2728
 4716SOL    HW125784   0.346   4.298  14.794 -1.6095  3.3309 -0.4558
 4716SOL    HW225785   0.475   4.321  14.852  0.7201 -3.3270  2.7565
 4717SOL     OW25786   3.710   2.664  16.228 -0.3208  0.5847  0.4538
 4717SOL    HW125787   3.787   2.706  16.192 -0.7705  0.6119 -0.4783
 4717SOL    HW225788   3.649   2.735  16.248  0.5009  0.9519  1.6137
 4718SOL     OW25789   0.185   1.157  15.735 -0.0289 -0.2240  0.0738
 4718SOL    HW125790   0.231   1.204  15.805  1.8625 -4.4927  1.6407
 4718SOL    HW225791   0.158   1.086  15.792  2.5963 -2.4546 -1.5012
 4719SOL     OW25792   4.502   4.432   4.228  0.6181  0.0884  0.2693
 4719SOL    HW125793   4.452   4.436   4.147 -0.4921  0.2280  0.9602
 4719SOL    HW225794   4.507   4.526   4.244 -2.6839  0.7527 -2.7432
 4720SOL     OW25795   3.062   1.695   6.467  0.1744 -0.3637  0.4747
 4720SOL    HW125796   3.127   1.758   6.436 -0.1443  1.2840  3.1248
 4720SOL    HW225797   3.049   1.721   6.558 -2.5763 -0.6384  0.1687
 4721SOL     OW25798   1.577   3.930   8.620  0.0468  1.1967 -0.2726
 4721SOL    HW125799   1.599   3.922   8.713 -0.8869  1.0082 -0.0687
 4721SOL    HW225800   1.483   3.913   8.627  0.3177 -0.4054 -0.4866
 4722SOL     OW25801   3.841   1.203  10.045 -0.5659 -0.3683 -0.4554
 4722SOL    HW125802   3.834   1.288  10.002 -2.1563  0.7756  2.1030
 4722SOL    HW225803   3.757   1.203  10.091 -1.1056  2.0935 -1.4234
 4723SOL     OW25804   2.625   3.674   7.356  0.1011  0.0337 -0.1848
 4723SOL    HW125805   2.612   3.750   7.299 -0.8459  0.9058  1.1879
 4723SOL    HW225806   2.634   3.711   7.445  0.1930  1.4885 -0.7910
 4724SOL     OW25807   1.110   2.913   4.607  0.3137 -0.2882 -0.4933
 4724SOL    HW125808   1.163   2.974   4.556  0.6936 -0.1084  0.1131
 4724SOL    HW225809   1.021   2.949   4.605  0.6771  0.8346  2.6995
 4725SOL     OW25810   1.573   4.597   8.099  0.2453  0.1184  0.5330
 4725SOL    HW125811   1.503   4.546   8.140  0.9635 -1.5375 -0.3012
 4725SOL    HW225812   1.612   4.523   8.052  1.1339  2.4059 -2.3489
 4726SOL     OW25813   1.808   3.430   7.011 -0.8094 -0.6084 -0.3129
 4726SOL    HW125814   1.746   3.460   7.077 -2.1390  0.4164 -2.0386
 4726SOL    HW225815   1.855   3.362   7.059  0.3462  0.2038 -0.2896
 4727SOL     OW25816   2.540   0.324  16.471  0.2382  0.1807 -0.1505
 4727SOL    HW125817   2.515   0.384  16.542 -1.1605  2.5877 -2.6759
 4727SOL    HW225818   2.452   0.324  16.432 -0.5427 -1.0490  1.5583
 4728SOL     OW25819   0.917   1.969  16.272  0.9409 -0.2978 -0.4469
 4728SOL    HW125820   0.848   1.916  16.231  3.2375 -1.8022 -2.3875
 4728SOL    HW225821   0.892   1.947  16.362  0.8724 -1.1651 -0.6785
 4729SOL     OW25822   1.519   3.752   4.430 -0.5591  0.5884  0.2994
 4729SOL    HW125823   1.598   3.789   4.391  0.5055 -0.2953  1.6293
 4729SOL    HW225824   1.463   3.743   4.353 -1.3179  0.2638  0.8928
 4730SOL     OW25825   1.325   0.295   3.048 -0.1231 -0.3472 -0.0849
 4730SOL    HW125826   1.388   0.244   3.100  0.4132  0.3494 -0.0614
 4730SOL    HW225827   1.372   0.371   3.014  0.5794 -1.4381 -1.5643
 4731SOL     OW25828   3.101   1.450   4.707 -0.1979  0.3367 -0.4385
 4731SOL    HW125829   3.070   1.469   4.796 -2.3583  0.1879 -1.1569
 4731SOL    HW225830   3.016   1.429   4.668  0.0018 -0.2136 -0.5760
 4732SOL     OW25831   2.271   4.238   6.356 -0.3849  0.2365 -0.2163
 4732SOL    HW125832   2.363   4.257   6.374 -0.5031 -0.0019  0.6256
 4732SOL    HW225833   2.218   4.277   6.425  0.7497  1.0155  0.2073
 4733SOL     OW25834   3.213   2.787   4.256 -0.0508  0.1685 -0.1672
 4733SOL    HW125835   3.135   2.776   4.201  0.0981 -0.2103 -0.3002
 4733SOL    HW225836   3.199   2.727   4.330 -1.9161 -0.1094 -0.7494
 4734SOL     OW25837   0.355   1.769   9.741  0.9712  0.0522 -0.0179
 4734SOL    HW125838   0.427   1.764   9.804  3.6894  0.4504 -3.0845
 4734SOL    HW225839   0.284   1.761   9.805  2.4607  0.5696  1.6939
 4735SOL     OW25840   3.353   0.955   4.187 -0.4193  0.3378  0.1693
 4735SOL    HW125841   3.367   1.040   4.229 -2.0823  0.3072  0.7993
 4735SOL    HW225842   3.335   0.992   4.100 -0.5635 -0.0550  0.0351
 4736SOL     OW25843   1.904   0.620   4.269  0.7535 -0.7198  0.3656
 4736SOL    HW125844   1.946   0.535   4.284  0.0746 -1.0306  0.5002
 4736SOL    HW225845   1.815   0.584   4.263 -0.6061  2.6336  0.4653
 4737SOL     OW25846   2.622   2.231   7.076  0.4017  0.9333 -0.2078
 4737SOL    HW125847   2.553   2.296   7.089 -1.1575 -0.6292 -0.5867
 4737SOL    HW225848   2.636   2.202   7.166  0.2324 -2.7412 -1.3617
 4738SOL     OW25849   4.131   4.180   1.684  0.3055  0.2696 -0.2893
 4738SOL    HW125850   4.109   4.209   1.772  0.6265 -2.3357  0.6493
 4738SOL    HW225851   4.079   4.099   1.684  2.1164 -0.8875 -1.1832
 4739SOL     OW25852   2.103   1.726   1.730  0.3022 -0.0647  0.1252
 4739SOL    HW125853   2.120   1.777   1.651  1.4062  1.8214  1.5835
 4739SOL    HW225854   2.194   1.702   1.745  0.9797  2.0899 -0.5713
 4740SOL     OW25855   2.309   2.957   7.529 -0.5266 -0.1927 -0.4308
 4740SOL    HW125856   2.351   3.036   7.495 -0.8061  0.8052  1.5277
 4740SOL    HW225857   2.299   2.903   7.450  1.2693  0.0710 -0.8185
 4741SOL     OW25858   3.437   1.643   6.554 -0.1622 -0.1702 -0.2999
 4741SOL    HW125859   3.446   1.686   6.639  2.7034  0.2757 -0.8157
 4741SOL    HW225860   3.354   1.598   6.570 -0.1802 -1.1738 -3.1758
 4742SOL     OW25861   2.726   4.262   2.924  0.4487  0.1426 -0.7150
 4742SOL    HW125862   2.770   4.307   2.853 -0.1611  0.4780 -0.8814
 4742SOL    HW225863   2.668   4.335   2.946  0.8342 -0.2896  1.7920
 4743SOL     OW25864   4.016   4.227   7.799 -0.1479  0.2123 -0.1627
 4743SOL    HW125865   3.953   4.195   7.734  0.2824 -1.7353  0.3946
 4743SOL    HW225866   3.971   4.199   7.878  0.6947  0.9057  0.5535
 4744SOL     OW25867   1.069   2.532   4.022 -0.7164 -0.1456  0.0517
 4744SOL    HW125868   0.996   2.580   4.061 -0.0531  0.3533  0.6810
 4744SOL    HW225869   1.143   2.572   4.068  0.9233  0.2308 -2.9078
 4745SOL     OW25870   0.194   1.180  11.545  0.3662 -0.5617  0.0166
 4745SOL    HW125871   0.279   1.204  11.583  0.2392 -1.0360  0.6007
 4745SOL    HW225872   0.140   1.256  11.566 -0.1801 -0.9266 -0.0623
 4746SOL     OW25873   0.087   2.326   4.678  0.8536  0.1556  0.1727
 4746SOL    HW125874   0.132   2.265   4.737  0.2192  0.8807  1.4222
 4746SOL    HW225875   0.120   2.412   4.706  0.3951  0.0132  1.1474
 4747SOL     OW25876   1.837   3.392   9.156  0.6693  0.6002 -0.8387
 4747SOL    HW125877   1.837   3.318   9.216  1.0570 -0.5355 -2.2570
 4747SOL    HW225878   1.871   3.355   9.074  0.3071 -0.4848 -0.4969
 4748SOL     OW25879   2.851   0.492   4.178 -0.0327 -0.3298 -0.1282
 4748SOL    HW125880   2.942   0.500   4.208 -0.5273  3.1691  0.4473
 4748SOL    HW225881   2.864   0.414   4.124  2.0844  0.0029 -0.0794
 4749SOL     OW25882   1.609   2.547   3.991 -0.1941 -0.0363 -0.6383
 4749SOL    HW125883   1.536   2.565   3.932  0.9649 -1.0811 -2.3507
 4749SOL    HW225884   1.658   2.628   3.974  0.5461 -0.3208  0.1370
 4750SOL     OW25885   4.278   3.806  16.422 -0.0783 -0.3956 -0.3163
 4750SOL    HW125886   4.340   3.737  16.444  0.6660 -0.6250 -3.1175
 4750SOL    HW225887   4.293   3.817  16.329  1.1833  0.0297 -0.0588
 4751SOL     OW25888   4.102   4.694  15.257  0.0895 -0.2060  0.4343
 4751SOL    HW125889   4.170   0.008  15.303 -1.3983  1.5595  0.7235
 4751SOL    HW225890   4.103   4.732  15.169 -1.2188  2.0497  1.3860
 4752SOL     OW25891   0.645   1.446   4.523 -0.0303 -0.1385  0.0339
 4752SOL    HW125892   0.620   1.536   4.545 -1.5383 -0.2148 -1.3863
 4752SOL    HW225893   0.636   1.446   4.428  1.4829  0.1784 -0.1073
 4753SOL     OW25894   2.654   3.229   6.170 -0.3082  0.1045 -0.2616
 4753SOL    HW125895   2.583   3.274   6.215 -1.0575  1.1900 -2.4859
 4753SOL    HW225896   2.724   3.288   6.200 -1.0797  0.8625  0.0419
 4754SOL     OW25897   0.163   1.732   9.929  0.2124  0.1724  0.1472
 4754SOL    HW125898   0.133   1.645   9.955  0.6905 -0.2293 -0.6577
 4754SOL    HW225899   0.214   1.755  10.007 -2.3401  2.7948  1.0635
 4755SOL     OW25900   3.788   2.979  16.012 -0.4120  0.1076  0.4314
 4755SOL    HW125901   3.819   2.933  16.090 -0.1688 -0.6821 -0.1217
 4755SOL    HW225902   3.838   3.060  16.010 -2.0806  1.1184 -0.8434
 4756SOL     OW25903   1.688   0.447  10.898 -0.3345  0.2819 -0.2771
 4756SOL    HW125904   1.661   0.522  10.950  1.3008  0.5086  0.2452
 4756SOL    HW225905   1.632   0.462  10.822  1.4356 -1.0814 -1.8630
 4757SOL     OW25906   1.866   4.576   6.400 -1.0745  0.3828  0.0181
 4757SOL    HW125907   1.936   4.634   6.370 -0.3347 -0.1668  0.7062
 4757SOL    HW225908   1.891   4.565   6.491 -1.4759 -0.2705  0.0524
 4758SOL     OW25909   1.167   2.057   5.606 -0.3966  0.0793  0.4425
 4758SOL    HW125910   1.166   2.052   5.701  0.1941  2.3662  0.5538
 4758SOL    HW225911   1.246   2.101   5.575 -0.8429  0.8951  0.4601
 4759SOL     OW25912   2.848   3.964   9.518 -0.1272  0.3551  0.6573
 4759SOL    HW125913   2.836   3.904   9.592 -1.5196 -1.6838 -1.2357
 4759SOL    HW225914   2.818   3.913   9.443 -2.1277  1.4938  0.6739
 4760SOL     OW25915   3.602   0.139   0.269  1.2326 -0.3554  0.4617
 4760SOL    HW125916   3.584   0.216   0.216  0.5730 -0.9642 -0.1987
 4760SOL    HW225917   3.516   0.103   0.292  1.0900  0.0465  0.5614
 4761SOL     OW25918   1.287   2.180   2.929 -0.3783 -0.0768  0.0558
 4761SOL    HW125919   1.340   2.144   2.858  1.4821  1.2944  0.7343
 4761SOL    HW225920   1.324   2.268   2.934  1.8810 -0.9485 -0.7502
 4762SOL     OW25921   1.216   1.127   8.674 -0.1321 -0.5332  0.0009
 4762SOL    HW125922   1.309   1.125   8.650 -0.2177  1.3325 -0.4822
 4762SOL    HW225923   1.203   1.035   8.697  0.7292 -0.9640 -1.2310
 4763SOL     OW25924   4.022   3.902   0.350 -0.2815  0.6122 -0.2541
 4763SOL    HW125925   4.065   3.851   0.281 -3.2686 -2.2418 -0.0273
 4763SOL    HW225926   3.929   3.892   0.334 -0.5145 -0.9496  2.0368
 4764SOL     OW25927   1.311   3.082   2.146 -0.0888  0.1105 -0.5731
 4764SOL    HW125928   1.364   3.002   2.142  1.5829  1.3610 -3.0452
 4764SOL    HW225929   1.273   3.059   2.231  1.8698  1.9355  0.7775
 4765SOL     OW25930   2.584   3.647   2.391 -0.0472  0.4496 -0.5283
 4765SOL    HW125931   2.516   3.583   2.369 -0.3539  0.4963  0.3043
 4765SOL    HW225932   2.568   3.671   2.482  0.9481  0.5241 -0.3728
 4766SOL     OW25933   2.880   4.166  11.710  0.0191  0.0548 -0.0516
 4766SOL    HW125934   2.847   4.109  11.640 -2.6222 -1.2052  2.1982
 4766SOL    HW225935   2.864   4.113  11.789  1.5655  2.1044  1.6493
 4767SOL     OW25936   0.379   1.368   3.038 -0.1421  0.8427  0.7916
 4767SOL    HW125937   0.321   1.297   3.010 -0.3476  0.8279  1.2526
 4767SOL    HW225938   0.317   1.440   3.050  1.0053  2.0664 -0.5747
 4768SOL     OW25939   4.377   0.564   9.668  0.3697 -0.2386 -0.3638
 4768SOL    HW125940   4.316   0.570   9.742 -0.6317  0.0641 -1.2188
 4768SOL    HW225941   4.452   0.519   9.708  1.2081 -0.1814 -1.8911
 4769SOL     OW25942   3.811   1.773   3.797 -0.0981 -0.0569  0.0390
 4769SOL    HW125943   3.842   1.711   3.862  0.6198 -0.2809 -0.5217
 4769SOL    HW225944   3.877   1.842   3.788  1.5225 -1.4256  1.5383
 4770SOL     OW25945   4.718   2.795   8.012 -0.3391 -0.5849 -0.3366
 4770SOL    HW125946   4.684   2.706   8.024 -0.0798 -0.4846  1.1335
 4770SOL    HW225947   0.072   2.771   8.033  0.5142  1.7356 -1.3722
 4771SOL     OW25948   2.836   3.023   6.051 -0.4004 -0.5775  0.1230
 4771SOL    HW125949   2.787   3.045   5.972  1.0782  0.8364 -0.4069
 4771SOL    HW225950   2.774   2.981   6.111  1.4238 -2.1382  0.9118
 4772SOL     OW25951   4.402   3.445   5.924  0.8205  0.1032 -0.1360
 4772SOL    HW125952   4.414   3.493   6.006  0.3795  0.3486 -0.2153
 4772SOL    HW225953   4.471   3.487   5.873 -0.4392  1.3637 -0.7968
 4773SOL     OW25954   0.145   1.481   7.067  0.2986  0.1134 -0.9220
 4773SOL    HW125955   0.177   1.499   6.978  0.3653  3.4161 -0.2120
 4773SOL    HW225956   0.050   1.488   7.058 -0.1898 -4.5010  0.6266
 4774SOL     OW25957   0.070   3.868  11.717 -0.2440  0.6698 -0.2352
 4774SOL    HW125958   0.143   3.818  11.754  1.5377  2.3936 -1.4266
 4774SOL    HW225959   0.062   3.931  11.788 -3.2393 -0.7200  0.6807
 4775SOL     OW25960   1.971   4.622  13.398 -0.3511 -0.2071  0.7995
 4775SOL    HW125961   1.972   4.537  13.442 -1.3779 -0.5940  0.0771
 4775SOL    HW225962   2.065   4.624  13.379 -0.2280  0.2434  1.4861
 4776SOL     OW25963   0.215   4.030   1.988 -0.2510  0.4023 -0.1722
 4776SOL    HW125964   0.211   4.084   2.066 -1.2894 -2.4740  1.7616
 4776SOL    HW225965   0.139   4.060   1.939  2.3445  1.2725 -3.6961
 4777SOL     OW25966   1.504   1.237  16.770 -0.0398  0.1805 -0.6248
 4777SOL    HW125967   1.564   1.277  16.707  1.8695 -1.5970  0.0589
 4777SOL    HW225968   1.530   1.147  16.753  0.8623 -0.1949  2.7587
 4778SOL     OW25969   2.549   2.037   6.596  0.1171 -0.9013 -0.4952
 4778SOL    HW125970   2.473   2.009   6.648  1.8085  1.1474  3.0859
 4778SOL    HW225971   2.526   2.012   6.507  1.8954  0.9271 -1.4588
 4779SOL     OW25972   0.785   3.153   7.235  0.6873  0.2305 -0.1404
 4779SOL    HW125973   0.755   3.173   7.146 -1.0451  0.7999  0.5854
 4779SOL    HW225974   0.717   3.199   7.284  0.1856 -1.0711  0.3768
 4780SOL     OW25975   3.041   3.327   6.762 -0.1024  0.5372  0.2848
 4780SOL    HW125976   3.007   3.415   6.776 -0.3517  0.5313 -0.2817
 4780SOL    HW225977   3.107   3.340   6.694  2.2449 -1.7734  2.1193
 4781SOL     OW25978   3.166   0.450  13.611 -0.2568 -0.4469  0.4057
 4781SOL    HW125979   3.124   0.487  13.689 -1.1939  2.7175 -1.6295
 4781SOL    HW225980   3.160   0.521  13.547 -1.0631 -0.7557  0.1291
 4782SOL     OW25981   3.384   3.380   8.388  0.0738  0.3414 -0.0878
 4782SOL    HW125982   3.295   3.416   8.384 -0.2839 -0.5622 -0.1891
 4782SOL    HW225983   3.429   3.462   8.408 -0.8628  0.8112  0.0903
 4783SOL     OW25984   3.175   2.882   6.272  0.8653 -0.3453 -0.4134
 4783SOL    HW125985   3.244   2.947   6.288  0.6177 -0.8830  2.9350
 4783SOL    HW225986   3.211   2.836   6.197 -1.4188 -0.4325 -1.4263
 4784SOL     OW25987   3.111   2.738  15.341 -0.4464 -0.2287 -0.3041
 4784SOL    HW125988   3.200   2.717  15.312 -0.6873 -0.7556 -0.6621
 4784SOL    HW225989   3.091   2.647  15.360 -2.7294 -0.0405 -1.8354
 4785SOL     OW25990   1.303   1.315   7.457 -0.2716 -0.3770 -0.0131
 4785SOL    HW125991   1.218   1.304   7.414 -0.9323 -1.6112  1.6266
 4785SOL    HW225992   1.319   1.409   7.465  0.3796 -0.5440  0.6004
 4786SOL     OW25993   3.286   0.893  16.709 -0.0079 -0.0686  0.1701
 4786SOL    HW125994   3.210   0.838  16.692 -0.1986 -0.0731  1.0435
 4786SOL    HW225995   3.295   0.863  16.800  2.1117 -0.0933 -0.0367
 4787SOL     OW25996   0.134   2.813   5.159  0.0676  0.5058 -0.5622
 4787SOL    HW125997   0.143   2.905   5.133  0.0943  0.7793  0.4139
 4787SOL    HW225998   0.055   2.785   5.113  0.8738 -0.0148 -1.6143
 4788SOL     OW25999   2.849   2.206  15.062  0.4290 -0.3559 -0.0281
 4788SOL    HW126000   2.902   2.278  15.096  1.9372 -1.1834 -0.5983
 4788SOL    HW226001   2.817   2.247  14.982 -1.4803 -0.6389  0.6072
 4789SOL     OW26002   4.126   3.196   2.056 -0.2656 -0.3007 -0.0210
 4789SOL    HW126003   4.085   3.274   2.092 -0.8917  0.0118 -1.3839
 4789SOL    HW226004   4.207   3.192   2.106 -0.1291  1.7792 -0.0846
 4790SOL     OW26005   3.840   3.647  16.137  0.1170 -0.2460  0.2051
 4790SOL    HW126006   3.838   3.727  16.085  3.6415 -0.7443 -0.6788
 4790SOL    HW226007   3.768   3.649  16.200 -2.0436  2.9513 -2.3965
 4791SOL     OW26008   2.912   3.111   3.256 -0.2103 -0.2772  0.1394
 4791SOL    HW126009   2.923   3.179   3.189 -0.6063  0.0029  0.3535
 4791SOL    HW226010   2.972   3.138   3.326  1.4177 -1.8530 -0.6451
 4792SOL     OW26011   0.726   0.416  12.271  0.1673 -0.1109 -0.0959
 4792SOL    HW126012   0.747   0.323  12.258  1.0502 -0.3163  2.7306
 4792SOL    HW226013   0.632   0.419  12.255  0.4177  0.9571 -1.3994
 4793SOL     OW26014   1.804   3.093   5.232 -0.2531 -0.1484  0.4411
 4793SOL    HW126015   1.729   3.062   5.180  0.2841  0.1474 -0.5217
 4793SOL    HW226016   1.764   3.177   5.257 -0.5265 -0.6801  1.7523
 4794SOL     OW26017   2.464   2.415   3.462  0.3408  0.1722  0.4521
 4794SOL    HW126018   2.472   2.342   3.400 -0.7931  1.3373 -1.0451
 4794SOL    HW226019   2.369   2.421   3.453  0.4334 -0.0519 -0.7447
 4795SOL     OW26020   3.758   3.089  16.312  0.2564  0.9802 -0.2260
 4795SOL    HW126021   3.673   3.113  16.348  0.6728 -1.3368  2.3657
 4795SOL    HW226022   3.801   3.065  16.394  0.7232  1.3758 -0.3555
 4796SOL     OW26023   2.154   0.377   4.903  0.1334  0.1037  0.5921
 4796SOL    HW126024   2.233   0.407   4.949 -0.4824  2.0871  0.3670
 4796SOL    HW226025   2.165   0.284   4.920 -0.6145  0.4114  2.8059
 4797SOL     OW26026   2.890   0.672  10.482  0.6329 -0.1474  0.7303
 4797SOL    HW126027   2.919   0.761  10.505 -1.4649  0.7260 -0.0245
 4797SOL    HW226028   2.812   0.650  10.533  1.3496 -1.8032  1.1044
 4798SOL     OW26029   2.877   3.209   8.994  0.6088  0.4940  0.0082
 4798SOL    HW126030   2.846   3.129   9.036 -0.9806  1.0932 -0.0127
 4798SOL    HW226031   2.971   3.190   8.995  0.5775  0.2682 -0.9010
 4799SOL     OW26032   2.657   1.386   1.066  0.6362 -0.3096 -0.2592
 4799SOL    HW126033   2.690   1.299   1.090 -0.3999 -0.3692  0.9381
 4799SOL    HW226034   2.726   1.414   1.006  0.1544  1.1851 -0.0975
 4800SOL     OW26035   0.338   0.244  13.291  0.6938 -0.1508 -0.1914
 4800SOL    HW126036   0.326   0.300  13.215  1.9931  0.2473 -0.1043
 4800SOL    HW226037   0.392   0.171  13.260 -1.5692 -3.2508  3.1873
 4801SOL     OW26038   3.681   4.727  17.068 -0.4963 -0.1532 -0.5424
 4801SOL    HW126039   3.688   4.636  17.037  0.7014  0.1277 -1.0749
 4801SOL    HW226040   3.594   4.713  17.107 -1.1472  1.7007 -1.3400
 4802SOL     OW26041   4.460   3.560   6.158 -0.2499 -0.6434 -0.7338
 4802SOL    HW126042   4.432   3.636   6.210  2.6022  1.1262 -1.7900
 4802SOL    HW226043   4.555   3.570   6.163 -0.3295  1.0736 -2.8372
 4803SOL     OW26044   0.239   0.442   3.277  0.0929  0.3901 -0.0231
 4803SOL    HW126045   0.161   0.421   3.329  2.1169  0.6336  3.1091
 4803SOL    HW226046   0.250   0.535   3.295  1.1561  0.4598 -1.0235
 4804SOL     OW26047   3.349   4.055  15.501 -0.9092  0.3867  0.3359
 4804SOL    HW126048   3.340   4.131  15.443  0.4820  1.3739  1.4193
 4804SOL    HW226049   3.334   3.987  15.435  1.9817  2.0133 -1.9721
 4805SOL     OW26050   1.946   3.089  14.663  0.2884 -0.3377 -0.2486
 4805SOL    HW126051   2.037   3.079  14.636  0.2659 -0.2161 -0.3688
 4805SOL    HW226052   1.947   3.029  14.737 -0.0241  1.3731  1.1481
 4806SOL     OW26053   1.044   1.116   3.408  0.2403 -0.1701  0.2403
 4806SOL    HW126054   0.974   1.162   3.361  0.0559  2.0253  2.6859
 4806SOL    HW226055   1.119   1.144   3.356  0.1266  0.2359  0.2938
 4807SOL     OW26056   0.103   0.854  13.165 -0.4043 -0.4235  0.5490
 4807SOL    HW126057   0.113   0.905  13.085 -0.1038  0.9607  1.4556
 4807SOL    HW226058   0.086   0.926  13.226 -1.9641 -0.2459 -0.0993
 4808SOL     OW26059   4.019   1.964   4.196  0.2721  0.3865 -0.2170
 4808SOL    HW126060   3.925   1.948   4.210  0.6243 -0.0114  1.6783
 4808SOL    HW226061   4.024   2.053   4.231  2.4757  0.3260 -0.3916
 4809SOL     OW26062   4.026   1.016   9.796 -0.3168  0.2665  0.2227
 4809SOL    HW126063   3.934   1.043   9.796 -0.1630  0.7947  0.2543
 4809SOL    HW226064   4.021   0.963   9.717  0.5543  0.8768 -0.2411
 4810SOL     OW26065   2.834   1.605   7.760  0.3214 -0.5318  0.5497
 4810SOL    HW126066   2.850   1.666   7.832 -0.4075 -0.4773  0.6690
 4810SOL    HW226067   2.847   1.523   7.808  3.5039  0.4687  1.3490
 4811SOL     OW26068   3.624   0.887  13.686  0.7615  0.1574  0.1696
 4811SOL    HW126069   3.566   0.824  13.643  2.8022 -1.6247  0.0155
 4811SOL    HW226070   3.660   0.829  13.753 -0.4184 -1.0021 -0.2069
 4812SOL     OW26071   0.007   0.082   1.661 -0.0177 -0.0375  0.0676
 4812SOL    HW126072   0.096   0.078   1.626 -0.5454 -0.4551 -1.2277
 4812SOL    HW226073   4.701   0.008   1.616 -0.2051 -0.1179  0.3719
 4813SOL     OW26074   0.384   0.034  16.959 -0.0078 -0.3020  0.2446
 4813SOL    HW126075   0.349   0.031  17.048 -1.5653  0.6071 -0.3304
 4813SOL    HW226076   0.437   0.113  16.954 -0.9625  0.3669  0.6885
 4814SOL     OW26077   4.254   1.278   2.108 -0.0551 -0.0139  0.5513
 4814SOL    HW126078   4.164   1.311   2.105 -0.2932 -0.7153  0.2007
 4814SOL    HW226079   4.241   1.205   2.168  0.7767  0.1790  0.9666
 4815SOL     OW26080   2.980   4.167  17.219  0.1391  0.2848 -0.0405
 4815SOL    HW126081   2.922   4.215  17.160  0.5921  0.2809 -0.4897
 4815SOL    HW226082   3.007   4.086  17.176 -0.2910 -0.4907  1.1457
 4816SOL     OW26083   1.117   1.780  13.013  0.5597 -0.0456 -0.5511
 4816SOL    HW126084   1.181   1.776  12.942  1.5177 -0.5620  0.3376
 4816SOL    HW226085   1.155   1.857  13.056 -1.0007 -0.3238  1.3547
 4817SOL     OW26086   2.660   4.349   9.399  0.2390 -0.1193 -0.4537
 4817SOL    HW126087   2.570   4.333   9.372 -0.3763 -0.3484  1.7183
 4817SOL    HW226088   2.685   4.429   9.354  0.3426 -0.5713 -1.2073
 4818SOL     OW26089   1.395   0.416   5.116  0.0213  0.4871 -0.1469
 4818SOL    HW126090   1.305   0.399   5.144  0.9852 -4.7499 -0.2347
 4818SOL    HW226091   1.411   0.502   5.157  1.5926  0.4753 -0.7147
 4819SOL     OW26092   1.484   3.467   8.674 -0.0091 -0.4050  0.1328
 4819SOL    HW126093   1.500   3.542   8.732  0.3789 -1.6180  1.6157
 4819SOL    HW226094   1.505   3.387   8.723 -1.4996 -0.6017  0.4590
 4820SOL     OW26095   0.468   0.270   8.576 -0.1887 -0.7240  0.8585
 4820SOL    HW126096   0.551   0.249   8.618 -1.1390 -2.5601  1.8028
 4820SOL    HW226097   0.487   0.247   8.485  1.2057 -0.4055  1.0805
 4821SOL     OW26098   2.718   0.811   7.620  0.2169  0.3346 -1.5225
 4821SOL    HW126099   2.721   0.845   7.530 -1.0763  0.7554 -1.4114
 4821SOL    HW226100   2.660   0.735   7.611 -0.2716  0.5902 -0.5328
 4822SOL     OW26101   3.522   0.577   5.878  0.4022  0.2686  0.4393
 4822SOL    HW126102   3.518   0.491   5.835  0.8596 -0.8290  2.5700
 4822SOL    HW226103   3.507   0.634   5.802 -1.5875  1.6320  1.8469
 4823SOL     OW26104   0.891   1.775   9.063  0.6517 -0.3523 -0.4908
 4823SOL    HW126105   0.831   1.718   9.111  0.5972  0.7455  0.7307
 4823SOL    HW226106   0.968   1.757   9.116  0.4165  1.8428  0.5883
 4824SOL     OW26107   0.494   1.068   6.664  0.6011  0.0507  0.1936
 4824SOL    HW126108   0.411   1.111   6.643  1.4791  1.3291 -0.6149
 4824SOL    HW226109   0.451   0.993   6.707  1.3207  0.4761  1.6621
 4825SOL     OW26110   2.628   0.655   8.690 -0.2667  0.3253 -0.4386
 4825SOL    HW126111   2.676   0.662   8.772  1.6080 -0.7072 -1.4340
 4825SOL    HW226112   2.620   0.559   8.692  2.3939  0.0684 -2.4670
 4826SOL     OW26113   1.318   4.181   2.966  0.2893  0.0934 -0.3424
 4826SOL    HW126114   1.230   4.218   2.978 -0.0904 -0.5731 -1.0824
 4826SOL    HW226115   1.297   4.104   3.020 -0.5658 -0.4968 -1.5308
 4827SOL     OW26116   2.559   1.897   1.574  0.5666 -0.1286  0.7117
 4827SOL    HW126117   2.528   1.931   1.658 -1.1557 -0.2808  0.1438
 4827SOL    HW226118   2.505   1.941   1.509  1.4870 -0.7482 -0.4806
 4828SOL     OW26119   3.848   4.111   8.288 -0.6507  0.8575  0.3375
 4828SOL    HW126120   3.880   4.027   8.319  1.4128  1.5783  0.1655
 4828SOL    HW226121   3.891   4.170   8.350  1.8409 -0.0603 -0.5346
 4829SOL     OW26122   1.566   0.526   7.204  0.0292 -0.2300  0.1938
 4829SOL    HW126123   1.645   0.482   7.170  0.0857  0.3790 -0.4530
 4829SOL    HW226124   1.589   0.552   7.293 -1.3515 -0.1909  0.5335
 4830SOL     OW26125   3.414   2.959  14.006  0.0312  0.2084 -0.3611
 4830SOL    HW126126   3.489   2.900  14.012 -1.1324 -1.1333  0.8877
 4830SOL    HW226127   3.342   2.913  14.049  0.5869  2.2129  2.6799
 4831SOL     OW26128   1.060   4.495   6.781  0.3538  0.0249  0.3417
 4831SOL    HW126129   0.993   4.498   6.849  0.7737 -1.5759  0.8428
 4831SOL    HW226130   1.008   4.473   6.704  1.2370  1.0482 -0.5411
 4832SOL     OW26131   3.845   4.007  15.304 -0.2983  0.1832  0.3484
 4832SOL    HW126132   3.828   3.940  15.238  2.2168 -2.0323  1.9565
 4832SOL    HW226133   3.813   4.090  15.269 -0.4485  0.1474  0.4009
 4833SOL     OW26134   0.662   2.214   4.994  0.1439  0.0054 -0.4300
 4833SOL    HW126135   0.699   2.150   5.054 -0.2191 -0.3303 -0.5652
 4833SOL    HW226136   0.652   2.290   5.052 -0.4179  0.6515 -1.3616
 4834SOL     OW26137   0.205   3.855  15.731 -0.0954 -0.0205  0.0526
 4834SOL    HW126138   0.275   3.917  15.708  0.0485 -0.1686  0.0939
 4834SOL    HW226139   0.177   3.889  15.816 -0.4253 -2.3141  0.8571
 4835SOL     OW26140   4.230   2.901  16.854  0.1515 -0.1322  0.2561
 4835SOL    HW126141   4.253   2.983  16.896 -1.6519  0.5276 -0.0374
 4835SOL    HW226142   4.287   2.849  16.911  2.1928  0.5403 -1.1625
 4836SOL     OW26143   1.323   0.274   4.381 -0.0403 -0.0674 -0.2196
 4836SOL    HW126144   1.340   0.220   4.458 -1.6725  1.4547  1.1808
 4836SOL    HW226145   1.239   0.314   4.400  0.7996  0.1331  3.0558
 4837SOL     OW26146   3.662   1.135  11.125  0.1119  0.0255 -0.0169
 4837SOL    HW126147   3.713   1.082  11.187 -1.5893  1.5085  2.6152
 4837SOL    HW226148   3.626   1.071  11.063  2.0529 -0.7880 -0.3353
 4838SOL     OW26149   3.538   4.494   7.069  0.1504  0.6124  1.0057
 4838SOL    HW126150   3.612   4.555   7.068  0.9279 -0.3427  1.0527
 4838SOL    HW226151   3.564   4.412   7.027 -0.2085 -0.1623  2.2813
 4839SOL     OW26152   2.066   2.679  16.138 -0.0308  0.4693  0.3106
 4839SOL    HW126153   2.011   2.642  16.069 -0.4347  1.6103  0.0056
 4839SOL    HW226154   2.151   2.637  16.127 -1.8969 -3.1815 -0.0033
 4840SOL     OW26155   2.913   2.701   9.218  0.4874 -0.1768  0.3294
 4840SOL    HW126156   2.839   2.759   9.235  0.2641 -1.0616  2.3826
 4840SOL    HW226157   2.872   2.622   9.182  1.2827 -1.7672  2.8731
 4841SOL     OW26158   4.084   0.025   6.962 -0.7748  0.0186  0.6866
 4841SOL    HW126159   4.127   4.679   6.983 -1.5848 -0.2103  1.4354
 4841SOL    HW226160   3.990   0.015   6.974 -1.3449  1.0818 -2.7476
 4842SOL     OW26161   3.662   0.822   7.438  0.4340  0.6081  0.0170
 4842SOL    HW126162   3.659   0.795   7.530  0.7134 -1.7135 -0.6443
 4842SOL    HW226163   3.588   0.883   7.438 -0.4239 -0.4355  1.2897
 4843SOL     OW26164   1.310   0.400  12.474 -0.1466  0.3209  0.1103
 4843SOL    HW126165   1.376   0.464  12.445 -0.2218  0.3613  0.0287
 4843SOL    HW226166   1.328   0.403  12.568  1.6862  2.1151 -0.2950
 4844SOL     OW26167   1.866   0.995   7.066 -0.1802 -0.0284  0.0198
 4844SOL    HW126168   1.835   1.086   7.066  0.3619  0.1571  0.1723
 4844SOL    HW226169   1.914   0.987   7.149  2.1285  0.9381 -1.2450
 4845SOL     OW26170   3.407   0.762  13.105  0.2766 -0.4628 -0.3902
 4845SOL    HW126171   3.375   0.684  13.061 -0.8157 -0.6603  0.7462
 4845SOL    HW226172   3.354   0.837  13.075 -0.0713 -0.5580 -0.0183
 4846SOL     OW26173   4.278   2.477   6.635  0.0311 -0.4055  0.0272
 4846SOL    HW126174   4.349   2.413   6.633  1.5912  1.2581  2.3449
 4846SOL    HW226175   4.259   2.469   6.541 -2.3079  3.4561  0.1756
 4847SOL     OW26176   3.742   0.489  12.614  0.5154  0.3381  0.5663
 4847SOL    HW126177   3.772   0.529  12.532 -2.2704  0.8121 -0.2033
 4847SOL    HW226178   3.750   0.397  12.590 -1.5131  0.2795  0.1415
 4848SOL     OW26179   3.018   1.480   4.956 -0.1996  0.0725  0.6022
 4848SOL    HW126180   2.942   1.484   5.014 -0.5668 -0.3827  0.1425
 4848SOL    HW226181   3.075   1.413   4.995  1.2606  0.3933 -0.9757
 4849SOL     OW26182   1.545   4.298   7.426 -0.2651  0.1992 -0.4104
 4849SOL    HW126183   1.488   4.325   7.497 -0.1187  2.3884 -1.1379
 4849SOL    HW226184   1.590   4.380   7.408 -1.6969  1.5775  2.2803
 4850SOL     OW26185   0.854   2.534   7.750  0.2369  0.3098  0.2271
 4850SOL    HW126186   0.931   2.587   7.735  0.9561  0.0293  2.9571
 4850SOL    HW226187   0.801   2.594   7.803 -0.2945 -0.3483  0.4596
 4851SOL     OW26188   3.912   0.110  15.536 -0.2056 -0.2303 -0.4427
 4851SOL    HW126189   3.819   0.097  15.553  0.3559 -0.8991  2.2173
 4851SOL    HW226190   3.944   0.037  15.588  2.1407 -0.1905 -1.8558
 4852SOL     OW26191   2.882   2.498   3.221  0.1040  0.1344 -0.2170
 4852SOL    HW126192   2.857   2.526   3.133  0.6334  3.4144  0.6895
 4852SOL    HW226193   2.828   2.547   3.283  1.7856  0.8230  0.7044
 4853SOL     OW26194   1.638   1.353   5.438 -0.1782  0.1341  0.8792
 4853SOL    HW126195   1.718   1.404   5.453 -0.3069  0.4393  0.5128
 4853SOL    HW226196   1.667   1.268   5.471  1.3955 -0.2671 -1.5449
 4854SOL     OW26197   1.077   2.548   6.853  0.2132 -0.1185  0.0515
 4854SOL    HW126198   1.080   2.516   6.944 -0.8100  0.7978  0.4114
 4854SOL    HW226199   1.099   2.641   6.854  0.9309 -0.3119  2.7107
 4855SOL     OW26200   2.402   2.194  12.068  0.2717 -0.1039 -0.4271
 4855SOL    HW126201   2.369   2.109  12.097  4.5500 -1.4499  0.5969
 4855SOL    HW226202   2.496   2.175  12.064  0.6324  1.3805  1.0799
 4856SOL     OW26203   3.390   3.513   4.436  1.1123  0.0545  0.1199
 4856SOL    HW126204   3.363   3.449   4.370 -0.1956  1.1499 -0.4007
 4856SOL    HW226205   3.450   3.551   4.372  1.5673 -2.7326 -1.1040
 4857SOL     OW26206   1.474   3.723  11.338 -0.2580  0.2906  0.7880
 4857SOL    HW126207   1.546   3.663  11.319 -0.2241  0.7048 -0.3523
 4857SOL    HW226208   1.505   3.770  11.415  1.3041 -2.8434  2.0750
 4858SOL     OW26209   1.448   0.526  14.591  0.0585 -0.3438  0.4321
 4858SOL    HW126210   1.391   0.555  14.520 -0.7661 -4.0073 -0.3972
 4858SOL    HW226211   1.422   0.434  14.594 -2.0029  0.1819 -1.7111
 4859SOL     OW26212   3.816   3.832  15.087  0.3831 -0.3216 -0.3371
 4859SOL    HW126213   3.803   3.754  15.141  1.6754 -0.1601  0.2178
 4859SOL    HW226214   3.863   3.795  15.011  0.9361 -0.4890  0.0885
 4860SOL     OW26215   2.099   2.796   8.388 -0.2333  0.2955 -0.3120
 4860SOL    HW126216   2.057   2.875   8.422  3.4279  2.2221 -0.2142
 4860SOL    HW226217   2.098   2.818   8.295 -0.8297  0.4837 -0.2570
 4861SOL     OW26218   3.581   2.999  12.996  0.3653 -0.5614  0.2498
 4861SOL    HW126219   3.560   2.921  12.944 -0.4341 -0.1118 -0.1011
 4861SOL    HW226220   3.652   3.036  12.944  2.8377 -2.9474  1.9727
 4862SOL     OW26221   0.556   1.637   1.766 -0.2894  0.0553  0.0236
 4862SOL    HW126222   0.528   1.549   1.793 -1.5775  0.3277 -0.4750
 4862SOL    HW226223   0.650   1.627   1.785 -0.1620  0.5929 -0.3148
 4863SOL     OW26224   4.614   1.221   7.036 -0.0850  0.4580  0.8422
 4863SOL    HW126225   4.654   1.286   6.978 -1.3210 -0.1977 -0.7389
 4863SOL    HW226226   4.526   1.213   6.999  0.0418 -0.2600  0.6953
 4864SOL     OW26227   0.353   0.671   6.770 -0.2314  0.6970 -0.1310
 4864SOL    HW126228   0.287   0.650   6.704  0.2550 -0.8234 -0.1302
 4864SOL    HW226229   0.294   0.715   6.831 -0.5851 -0.5922  0.4418
 4865SOL     OW26230   0.025   2.787  10.882  0.1050 -0.3243 -0.5774
 4865SOL    HW126231   4.708   2.861  10.909  0.5236 -0.3499  0.3179
 4865SOL    HW226232   4.725   2.710  10.925  1.5489 -1.1157 -0.7818
 4866SOL     OW26233   0.666   0.118   8.643 -0.1083  0.2982  0.0932
 4866SOL    HW126234   0.722   0.159   8.578 -2.5479 -0.6902 -2.6845
 4866SOL    HW226235   0.736   0.065   8.681  0.4529 -0.1740 -1.5977
 4867SOL     OW26236   3.139   0.006   3.465 -0.0816  0.4555 -0.2730
 4867SOL    HW126237   3.157   0.073   3.531  0.7503  1.6862 -1.7501
 4867SOL    HW226238   3.122   0.063   3.389 -1.7477  2.9902  2.0044
 4868SOL     OW26239   3.401   3.611   7.646 -0.1220 -0.4259 -0.1243
 4868SOL    HW126240   3.392   3.578   7.557  0.7380 -1.7371  0.2847
 4868SOL    HW226241   3.310   3.606   7.676  0.9126  2.8836  3.5409
 4869SOL     OW26242   4.155   2.705  13.005 -0.1281 -0.0353 -0.1921
 4869SOL    HW126243   4.110   2.682  12.923 -2.6670  0.0926  1.1684
 4869SOL    HW226244   4.212   2.777  12.979  0.7019 -0.9801 -1.0035
 4870SOL     OW26245   4.295   0.474   8.649 -0.1394 -0.4348 -0.0357
 4870SOL    HW126246   4.232   0.403   8.641 -0.6790  0.1397 -0.9771
 4870SOL    HW226247   4.372   0.426   8.677 -0.0395  0.2342  0.8512
 4871SOL     OW26248   3.107   4.475   8.483 -0.3683  0.0428  0.0864
 4871SOL    HW126249   3.043   4.469   8.413  0.2859 -0.3590 -0.4794
 4871SOL    HW226250   3.051   4.473   8.561  1.1273 -1.2274  1.1422
 4872SOL     OW26251   0.013   0.985   6.155 -0.1102 -0.5347 -0.1915
 4872SOL    HW126252   0.012   0.892   6.134  0.6519 -0.5027 -0.3786
 4872SOL    HW226253   4.709   0.984   6.242 -2.4268 -1.1411 -1.2679
 4873SOL     OW26254   2.224   2.292   7.647  0.2820  0.4912  0.1244
 4873SOL    HW126255   2.253   2.237   7.574 -2.1512 -0.7130  0.0540
 4873SOL    HW226256   2.309   2.289   7.691  0.7492  3.2596 -0.6181
 4874SOL     OW26257   1.229   1.852  12.529  0.4847  0.0633 -0.0503
 4874SOL    HW126258   1.232   1.761  12.498 -1.5768  0.1451 -0.5142
 4874SOL    HW226259   1.321   1.864  12.552  0.1828  1.5744  0.3427
 4875SOL     OW26260   4.617   2.528   3.172 -0.1264 -0.0252  0.2318
 4875SOL    HW126261   4.528   2.557   3.153  0.0977 -0.2509 -1.1103
 4875SOL    HW226262   4.665   2.611   3.176 -1.5394  1.0049 -4.6203
 4876SOL     OW26263   3.280   0.703   6.787  0.6049 -0.2074 -0.0001
 4876SOL    HW126264   3.244   0.779   6.833 -0.2330  0.3140 -1.5088
 4876SOL    HW226265   3.322   0.747   6.713  0.1371  1.1804  0.5683
 4877SOL     OW26266   2.390   1.123   9.299  0.5123  0.3204 -0.7563
 4877SOL    HW126267   2.473   1.093   9.335 -0.6630 -1.6227  0.3707
 4877SOL    HW226268   2.351   1.175   9.368 -0.2545 -0.3248 -0.6925
 4878SOL     OW26269   2.822   2.965   9.150 -0.2980  0.1275 -0.6630
 4878SOL    HW126270   2.888   2.901   9.121  1.0941  2.6396 -3.0940
 4878SOL    HW226271   2.805   2.942   9.241  0.8266  0.2631 -0.4196
 4879SOL     OW26272   4.415   4.558  17.538  0.2526  0.7872 -0.0420
 4879SOL    HW126273   4.397   4.551  17.444 -1.3821  0.5859  0.2954
 4879SOL    HW226274   4.332   4.597  17.567 -0.3388 -0.7164  0.2513
 4880SOL     OW26275   4.313   3.067   1.194  0.5900  0.4554 -0.2485
 4880SOL    HW126276   4.332   3.156   1.166 -2.3935  1.0280 -0.4167
 4880SOL    HW226277   4.309   3.080   1.289  2.3310 -0.2316 -0.0788
 4881SOL     OW26278   1.519   3.724   3.232 -0.4771 -0.1477  0.0882
 4881SOL    HW126279   1.594   3.674   3.267 -1.3929 -0.7581  1.1976
 4881SOL    HW226280   1.488   3.762   3.314  1.5206  1.0622  0.2620
 4882SOL     OW26281   1.914   0.136   5.331  1.0348 -0.1544  0.4317
 4882SOL    HW126282   1.908   0.229   5.309  0.6625  0.0958  1.5695
 4882SOL    HW226283   1.897   0.091   5.249  1.2692  0.6206 -0.0387
 4883SOL     OW26284   3.390   0.955   7.754 -0.2131 -0.1113  0.1925
 4883SOL    HW126285   3.378   1.007   7.834 -1.6343  0.0905 -0.1530
 4883SOL    HW226286   3.321   0.889   7.762  1.5738 -1.9373  0.8517
 4884SOL     OW26287   1.902   4.417   3.311  0.1103  0.5718  0.4693
 4884SOL    HW126288   1.939   4.421   3.400  0.8945  0.0323  0.1723
 4884SOL    HW226289   1.917   4.508   3.285  0.5820  0.4980  0.4770
 4885SOL     OW26290   3.414   4.352   3.498  0.3121  0.3793  0.1585
 4885SOL    HW126291   3.485   4.396   3.545  0.3112 -1.7396  2.1783
 4885SOL    HW226292   3.394   4.287   3.565  1.7261  0.0126  0.2173
 4886SOL     OW26293   3.480   2.750   4.010 -0.2204  0.2981 -0.2725
 4886SOL    HW126294   3.400   2.697   4.009  0.4464 -0.6834 -0.7166
 4886SOL    HW226295   3.450   2.837   3.981 -2.0416  0.7700  3.0099
 4887SOL     OW26296   2.473   1.373   5.045 -0.6149  0.0294 -0.3185
 4887SOL    HW126297   2.561   1.402   5.069  0.3633 -1.7776 -1.6819
 4887SOL    HW226298   2.438   1.349   5.131  1.4405  2.0486  1.0922
 4888SOL     OW26299   4.145   1.843  12.031  0.5024 -0.1606 -0.0826
 4888SOL    HW126300   4.191   1.779  12.084  2.3460  1.9200  0.8301
 4888SOL    HW226301   4.077   1.784  11.999 -1.9025  2.7844 -0.4245
 4889SOL     OW26302   2.048   3.770   3.521  0.1610  0.0338  0.2442
 4889SOL    HW126303   1.959   3.761   3.487 -0.3121  2.1281  0.9134
 4889SOL    HW226304   2.038   3.738   3.610  2.3512 -0.5059  0.2986
 4890SOL     OW26305   0.377   0.564   5.828  1.1368  0.3951  0.2184
 4890SOL    HW126306   0.374   0.659   5.839 -0.8124  0.5325 -1.4655
 4890SOL    HW226307   0.389   0.543   5.921  1.0693  0.3978  0.2273
 4891SOL     OW26308   0.745   1.948   3.591  0.6635 -0.8076 -0.7076
 4891SOL    HW126309   0.813   2.013   3.571  0.9620 -0.7644  0.3982
 4891SOL    HW226310   0.705   1.980   3.672  2.3148  0.5738 -0.4121
 4892SOL     OW26311   2.209   3.152   7.839  0.2116  0.0171  0.0992
 4892SOL    HW126312   2.285   3.106   7.805 -0.0128  0.3677 -0.8887
 4892SOL    HW226313   2.205   3.235   7.791 -0.5335 -0.1684 -0.1708
 4893SOL     OW26314   4.721   0.384   0.845  0.6754 -0.0059 -0.3215
 4893SOL    HW126315   0.036   0.442   0.903 -1.4471  1.9050 -0.3900
 4893SOL    HW226316   4.667   0.448   0.799  0.7805  0.4899  0.2416
 4894SOL     OW26317   3.111   2.004   8.050 -0.0213  0.3717 -0.3133
 4894SOL    HW126318   3.079   2.010   8.141  0.7003 -1.0112  0.0209
 4894SOL    HW226319   3.084   1.916   8.025  1.3538 -0.1124 -0.0562
 4895SOL     OW26320   0.141   1.065   5.392  0.1485 -0.2738  0.1535
 4895SOL    HW126321   0.067   1.058   5.452  0.5797  1.2122  0.8593
 4895SOL    HW226322   0.210   1.083   5.455  1.0837  1.6097 -1.4008
 4896SOL     OW26323   1.735   3.898  11.380 -0.3971  0.1343 -0.0137
 4896SOL    HW126324   1.700   3.824  11.429  0.8967 -1.9262 -2.2360
 4896SOL    HW226325   1.700   3.972  11.430 -0.0197 -1.4598  2.5834
 4897SOL     OW26326   1.555   4.093   4.521  0.1573  0.5088 -0.2538
 4897SOL    HW126327   1.648   4.082   4.541  0.0154 -0.8756 -0.3311
 4897SOL    HW226328   1.535   4.015   4.469 -0.1305 -1.2815  2.5649
 4898SOL     OW26329   3.629   3.655   5.561  0.1094  0.0034  0.0544
 4898SOL    HW126330   3.577   3.602   5.621 -0.7766  2.1272  1.1414
 4898SOL    HW226331   3.715   3.636   5.597  0.1709  1.4823  0.6974
 4899SOL     OW26332   2.224   4.124   1.776 -0.3006 -0.0212  0.0690
 4899SOL    HW126333   2.277   4.107   1.854 -1.0611 -0.3018  0.5264
 4899SOL    HW226334   2.224   4.035   1.740 -3.3906 -0.5589  1.4335
 4900SOL     OW26335   4.584   3.945   5.847  0.3137  0.4052  0.1477
 4900SOL    HW126336   4.495   3.968   5.873  0.3243  1.0337 -0.4033
 4900SOL    HW226337   4.628   3.927   5.931 -2.1862 -1.9786  0.9358
 4901SOL     OW26338   0.946   3.887   5.388 -0.1894  0.0328  0.3304
 4901SOL    HW126339   0.868   3.938   5.408  0.2452  1.8121 -2.5512
 4901SOL    HW226340   1.002   3.898   5.466 -2.3270  1.8992  1.6180
 4902SOL     OW26341   1.470   4.334   0.151  0.2665 -0.3443  0.1408
 4902SOL    HW126342   1.392   4.365   0.196 -1.2044 -2.8755 -0.6610
 4902SOL    HW226343   1.481   4.401   0.084 -0.4846 -0.1884  0.1721
 4903SOL     OW26344   1.885   1.762  14.986 -0.2475 -0.2512 -0.1478
 4903SOL    HW126345   1.833   1.799  14.915 -0.9093 -0.9031 -0.0076
 4903SOL    HW226346   1.977   1.777  14.964  0.6793 -1.3078  3.0022
 4904SOL     OW26347   1.073   4.393  14.393  0.4645  0.1242  0.3244
 4904SOL    HW126348   1.159   4.434  14.386 -0.2427  1.1748 -2.0173
 4904SOL    HW226349   1.020   4.469  14.366 -0.5561 -1.6389 -2.5580
 4905SOL     OW26350   2.669   1.082   3.024 -0.5598 -0.0200  0.2280
 4905SOL    HW126351   2.737   1.085   3.092 -0.0345  1.4879 -0.3607
 4905SOL    HW226352   2.693   1.163   2.979  0.7023  0.5951  2.0225
 4906SOL     OW26353   0.870   3.375   8.885 -1.0136  0.7292  0.0525
 4906SOL    HW126354   0.818   3.356   8.807 -0.0663 -1.1178 -0.1370
 4906SOL    HW226355   0.815   3.446   8.918 -1.2038  0.6646 -0.1235
 4907SOL     OW26356   4.414   3.593   9.192  0.2019  0.2461  0.2405
 4907SOL    HW126357   4.458   3.510   9.173  1.1967  0.8732 -0.2361
 4907SOL    HW226358   4.428   3.642   9.111 -0.2696  1.1786  0.7285
 4908SOL     OW26359   3.555   1.582   8.547  0.1616 -0.6030 -0.4201
 4908SOL    HW126360   3.462   1.600   8.560  0.3512 -0.1639  0.3468
 4908SOL    HW226361   3.587   1.640   8.616 -0.8707 -2.0349  1.2734
 4909SOL     OW26362   2.552   3.045  10.877 -0.3677 -0.1906  0.3473
 4909SOL    HW126363   2.557   3.129  10.831 -0.3008  0.0248  0.7372
 4909SOL    HW226364   2.635   3.005  10.854 -0.1934 -0.0936  0.7956
 4910SOL     OW26365   0.315   2.347  11.643 -0.1276 -0.0502 -0.2627
 4910SOL    HW126366   0.375   2.406  11.688 -2.1251  0.9108  1.1278
 4910SOL    HW226367   0.325   2.376  11.552 -3.9261 -0.1498 -0.7369
 4911SOL     OW26368   4.676   3.300  15.574  0.0419  0.2014 -0.1262
 4911SOL    HW126369   4.736   3.341  15.637  0.5552 -0.1380 -0.3922
 4911SOL    HW226370   4.730   3.292  15.496  0.7317 -2.0487  0.5756
 4912SOL     OW26371   3.616   3.363   7.930  0.2376  0.2694  0.4984
 4912SOL    HW126372   3.711   3.352   7.937  0.3527  0.8989 -0.0196
 4912SOL    HW226373   3.611   3.377   7.835 -0.8800 -0.3866  0.4675
 4913SOL     OW26374   0.232   2.941   8.638  0.0875 -0.1645 -0.1133
 4913SOL    HW126375   0.311   2.901   8.674  0.6563  0.3258 -0.8270
 4913SOL    HW226376   0.162   2.899   8.688 -0.5250  0.8302 -0.1248
 4914SOL     OW26377   1.319   4.142   7.623 -0.4533 -0.6687  0.1213
 4914SOL    HW126378   1.298   4.230   7.591  1.4302  0.5374  2.1891
 4914SOL    HW226379   1.318   4.085   7.547  2.2449 -0.9900  0.3238
 4915SOL     OW26380   4.600   1.339   4.848 -0.8423 -0.5915  0.2315
 4915SOL    HW126381   4.611   1.252   4.809 -0.2880 -0.7072  0.6378
 4915SOL    HW226382   4.658   1.334   4.924  1.4571 -0.2156 -1.5033
 4916SOL     OW26383   2.428   3.972   4.828  0.4231 -0.5398  0.4108
 4916SOL    HW126384   2.482   3.919   4.887 -0.5199 -2.5604 -0.5378
 4916SOL    HW226385   2.441   4.064   4.848 -0.0435 -0.4017  0.0804
 4917SOL     OW26386   2.062   2.285   4.446 -0.3835 -0.0031  0.3433
 4917SOL    HW126387   2.122   2.358   4.429  0.0515 -0.4724 -0.1445
 4917SOL    HW226388   1.987   2.333   4.481 -0.0487  1.4910 -1.0015
 4918SOL     OW26389   3.292   3.737   3.715  0.2879 -0.3453  0.2441
 4918SOL    HW126390   3.352   3.698   3.652  1.1808  0.9772  0.3038
 4918SOL    HW226391   3.234   3.786   3.656 -1.9750 -0.2399  2.5462
 4919SOL     OW26392   2.399   0.031  12.498 -0.1971 -0.4373  0.3126
 4919SOL    HW126393   2.466   0.003  12.436  0.3508  1.2126  0.1523
 4919SOL    HW226394   2.416   0.125  12.498 -1.1514 -0.2709 -1.3406
 4920SOL     OW26395   1.626   4.658   5.104  0.0812  0.3008 -0.3984
 4920SOL    HW126396   1.660   4.604   5.175 -1.7419 -0.2155  0.0797
 4920SOL    HW226397   1.551   4.612   5.067 -0.9091  1.4080  0.2617
 4921SOL     OW26398   4.082   2.350  12.043 -0.1016  0.1840 -0.6879
 4921SOL    HW126399   4.161   2.358  11.990  1.3307  0.3118  1.4687
 4921SOL    HW226400   4.083   2.258  12.071 -0.6537  0.4506  0.1887
 4922SOL     OW26401   3.994   0.494   7.534 -0.2615 -0.0289 -0.6347
 4922SOL    HW126402   3.964   0.574   7.577  1.6261 -0.7562  2.0047
 4922SOL    HW226403   3.933   0.486   7.460 -0.5187 -0.1296 -0.4122
 4923SOL     OW26404   4.143   3.693   5.615  0.2854 -0.0083  0.1082
 4923SOL    HW126405   4.200   3.618   5.629  0.9217  0.2091 -1.2482
 4923SOL    HW226406   4.207   3.760   5.639 -0.1071  0.5217 -0.3084
 4924SOL     OW26407   1.043   0.388   2.020 -0.2170 -0.0041 -0.0252
 4924SOL    HW126408   1.027   0.294   2.024 -0.7642  0.0530 -0.8796
 4924SOL    HW226409   1.059   0.400   1.926 -1.7684 -0.2039 -0.3096
 4925SOL     OW26410   3.045   1.936  11.344 -0.1130 -0.3777  0.1396
 4925SOL    HW126411   3.086   2.010  11.299 -0.8348  0.4073  0.7586
 4925SOL    HW226412   3.123   1.895  11.382 -0.2484 -1.1199 -0.3771
 4926SOL     OW26413   1.146   1.152   4.433  0.1943  0.3940 -0.2313
 4926SOL    HW126414   1.180   1.093   4.501 -1.2733 -0.7964 -0.5110
 4926SOL    HW226415   1.071   1.192   4.476 -0.3646  2.1695 -2.8935
 4927SOL     OW26416   0.006   0.245  12.092  0.1090  0.2362 -0.2762
 4927SOL    HW126417   0.059   0.239  12.013  0.2062 -2.3214 -0.0064
 4927SOL    HW226418   4.698   0.326  12.068  0.5134  0.5535  0.0507
 4928SOL     OW26419   1.484   3.376   4.446 -0.7785  0.2083 -0.1313
 4928SOL    HW126420   1.502   3.440   4.515 -1.5782  0.9259 -0.5872
 4928SOL    HW226421   1.479   3.434   4.370 -2.3821  0.0126 -0.1751
 4929SOL     OW26422   3.675   0.732   9.738  0.9580  0.2698  0.3590
 4929SOL    HW126423   3.677   0.677   9.659 -1.2559  1.8073 -0.7772
 4929SOL    HW226424   3.697   0.816   9.696  1.2552  0.3317  0.6408
 4930SOL     OW26425   0.754   3.392   6.627 -0.1885 -0.0163 -0.0493
 4930SOL    HW126426   0.679   3.429   6.579  0.1709  0.0573 -0.5577
 4930SOL    HW226427   0.784   3.469   6.676 -0.3710  1.4775 -2.2702
 4931SOL     OW26428   1.470   1.824   6.589  0.0002 -0.1465 -0.5765
 4931SOL    HW126429   1.474   1.732   6.613  2.9329  0.9608  3.3264
 4931SOL    HW226430   1.375   1.821   6.578 -0.3453  1.4000  1.9395
 4932SOL     OW26431   2.335   3.989   3.855 -0.0303  0.1570  0.2785
 4932SOL    HW126432   2.339   3.909   3.802  2.2188  0.7965 -0.5216
 4932SOL    HW226433   2.280   3.966   3.929 -0.9438  0.8783 -0.1787
 4933SOL     OW26434   1.492   1.647   2.513 -0.0110 -0.3016  0.1241
 4933SOL    HW126435   1.528   1.570   2.469  0.9162  0.1812  0.0448
 4933SOL    HW226436   1.445   1.689   2.441  0.2224 -0.5254 -0.1589
 4934SOL     OW26437   3.175   3.391   5.109 -0.2367  0.1838 -0.3551
 4934SOL    HW126438   3.090   3.350   5.121  0.0621 -0.0559  1.0309
 4934SOL    HW226439   3.227   3.321   5.069  1.5146  0.1140  1.9861
 4935SOL     OW26440   2.319   1.123   8.058  0.0291 -0.0460 -0.4896
 4935SOL    HW126441   2.361   1.053   8.109 -0.3481  0.3863  0.4245
 4935SOL    HW226442   2.368   1.198   8.090  0.3118 -0.8263  0.8981
 4936SOL     OW26443   4.222   3.815   0.189 -0.2823 -0.3696 -0.6581
 4936SOL    HW126444   4.285   3.872   0.234  0.3183  0.7109 -2.9016
 4936SOL    HW226445   4.243   3.829   0.097  0.3993 -0.9306 -0.5908
 4937SOL     OW26446   4.098   3.059  15.296 -0.1150  0.3706  0.0483
 4937SOL    HW126447   4.053   3.024  15.373 -0.1665 -0.7687 -0.4999
 4937SOL    HW226448   4.030   3.061  15.228 -0.8374 -0.3230  0.7402
 4938SOL     OW26449   4.408   3.161   6.443 -0.0305  0.0850 -0.2008
 4938SOL    HW126450   4.325   3.191   6.480 -0.5337  1.7592 -2.6630
 4938SOL    HW226451   4.408   3.212   6.361 -1.1318  0.5388  0.0833
 4939SOL     OW26452   1.855   4.005  14.029  0.3079  0.5518  0.6212
 4939SOL    HW126453   1.915   3.941  13.992 -0.5484 -0.7031  1.3911
 4939SOL    HW226454   1.855   4.059  13.951 -2.1547 -1.0669 -0.5179
 4940SOL     OW26455   1.156   2.119   8.249  0.3809  0.2220  0.2011
 4940SOL    HW126456   1.209   2.188   8.290 -4.1172  2.7170  1.7634
 4940SOL    HW226457   1.168   2.045   8.309  0.0756 -0.3607 -0.4592
 4941SOL     OW26458   1.881   2.581   6.649  0.5800  0.0181 -0.1065
 4941SOL    HW126459   1.962   2.594   6.599  1.7838  0.6666  2.0141
 4941SOL    HW226460   1.923   2.526   6.715 -0.8585 -1.5006 -0.4665
 4942SOL     OW26461   2.642   2.646   7.000 -0.1100 -0.4865  0.3721
 4942SOL    HW126462   2.729   2.681   6.980 -0.0973 -0.7546 -0.0506
 4942SOL    HW226463   2.573   2.698   6.960 -0.6355  0.0107  1.9103
 4943SOL     OW26464   2.138   0.485  17.296 -0.1670  0.4979 -0.1674
 4943SOL    HW126465   2.125   0.391  17.289 -0.5228  0.5767 -0.5850
 4943SOL    HW226466   2.050   0.520  17.315 -0.2478 -1.1657  2.5661
 4944SOL     OW26467   3.880   3.651   3.676 -0.3818  0.5522 -0.2064
 4944SOL    HW126468   3.909   3.647   3.767 -0.0146  1.1126 -0.2989
 4944SOL    HW226469   3.846   3.740   3.666 -1.0886  0.6309  2.8256
 4945SOL     OW26470   1.073   4.282   3.104 -0.4364  0.4784 -0.0065
 4945SOL    HW126471   1.016   4.342   3.151  1.4634  4.2151 -2.4903
 4945SOL    HW226472   1.137   4.352   3.090 -0.9310  0.5657 -1.8843
 4946SOL     OW26473   0.765   4.218   2.052  0.3912  0.3201 -0.1453
 4946SOL    HW126474   0.712   4.170   1.989  0.7479 -0.0405 -0.1725
 4946SOL    HW226475   0.699   4.265   2.103  0.9720 -0.4090  1.3036
 4947SOL     OW26476   0.652   0.415  12.863  0.1649 -0.1750 -0.4607
 4947SOL    HW126477   0.691   0.496  12.895  3.0774 -1.9480  0.4950
 4947SOL    HW226478   0.730   0.362  12.849  0.1539 -0.3893  0.2840
 4948SOL     OW26479   0.195   3.489   1.905  0.2030  0.2936  0.1795
 4948SOL    HW126480   0.259   3.487   1.834  0.9996  1.1318  0.8694
 4948SOL    HW226481   0.165   3.580   1.898 -1.4013 -0.4368 -2.5332
 4949SOL     OW26482   4.614   1.029   8.928 -0.0020 -0.1009  0.1715
 4949SOL    HW126483   4.699   1.041   8.970 -0.8408 -0.3249  1.9595
 4949SOL    HW226484   4.609   1.098   8.861  0.9356  0.5941  0.8224
 4950SOL     OW26485   2.680   4.087  15.320  0.0598  0.4136 -0.2873
 4950SOL    HW126486   2.624   4.158  15.289  0.4456  0.9708  0.2711
 4950SOL    HW226487   2.672   4.101  15.415 -1.3485  0.0780 -0.3610
 4951SOL     OW26488   0.916   2.788  11.642 -0.3508  0.1358 -0.2462
 4951SOL    HW126489   0.993   2.797  11.697  0.0529 -2.4853 -0.3864
 4951SOL    HW226490   0.945   2.822  11.558  2.0822  1.1052  1.0121
 4952SOL     OW26491   1.648   2.995  16.346 -0.0593 -0.0848  0.6321
 4952SOL    HW126492   1.732   2.958  16.318 -1.1401 -1.2549 -1.0753
 4952SOL    HW226493   1.602   3.004  16.262 -1.4016  0.7123  1.4597
 4953SOL     OW26494   3.749   2.069   5.879 -0.0573  0.0481  0.1258
 4953SOL    HW126495   3.808   2.141   5.900 -2.1589  1.0887  2.4233
 4953SOL    HW226496   3.685   2.077   5.950 -0.6972  2.0671 -0.6969
 4954SOL     OW26497   3.196   3.200  17.582 -0.4750  0.4745  0.2653
 4954SOL    HW126498   3.193   3.186  17.488 -2.0986  1.4315  0.1705
 4954SOL    HW226499   3.288   3.176  17.594 -0.6442 -0.1363  0.3670
 4955SOL     OW26500   1.278   3.354   6.701 -0.4801  0.1279 -0.1375
 4955SOL    HW126501   1.192   3.318   6.679  0.7251 -1.2085 -2.6819
 4955SOL    HW226502   1.318   3.333   6.617 -1.6146 -2.1663 -0.1150
 4956SOL     OW26503   1.074   4.160   0.717  0.1426 -0.0289 -0.8251
 4956SOL    HW126504   1.094   4.247   0.752 -0.2418 -0.9208  1.5808
 4956SOL    HW226505   1.057   4.117   0.800  1.8591 -1.3101 -1.1455
 4957SOL     OW26506   0.284   1.251   6.683 -0.3202 -0.0922 -0.3319
 4957SOL    HW126507   0.317   1.288   6.765  0.8994  1.6902 -1.6273
 4957SOL    HW226508   0.275   1.333   6.634  0.0248  0.5410  0.6497
 4958SOL     OW26509   0.191   3.646  13.526 -0.3274  0.5902 -0.2890
 4958SOL    HW126510   0.179   3.640  13.621  0.9018 -1.9683 -0.3050
 4958SOL    HW226511   0.109   3.612  13.491 -0.5690 -0.8007  1.6590
 4959SOL     OW26512   3.838   4.080   4.294  0.2307 -0.2216  0.2717
 4959SOL    HW126513   3.831   4.119   4.207 -2.0098  1.0604  1.0275
 4959SOL    HW226514   3.883   4.154   4.336 -0.6572  0.9439 -0.8391
 4960SOL     OW26515   0.352   2.498   4.466 -0.1904  0.5651  0.1374
 4960SOL    HW126516   0.363   2.420   4.521 -1.0432  0.1774 -0.2435
 4960SOL    HW226517   0.257   2.497   4.460 -0.2451 -1.0697  1.1746
 4961SOL     OW26518   1.867   1.062   4.541  0.0521  0.2533  0.0189
 4961SOL    HW126519   1.861   0.967   4.526 -0.6573  0.0101  1.7532
 4961SOL    HW226520   1.775   1.087   4.544  0.0063  0.0163  0.6452
 4962SOL     OW26521   2.875   0.644   2.899 -0.3034 -0.7646  0.0505
 4962SOL    HW126522   2.786   0.627   2.867  0.4398 -4.2052 -0.2380
 4962SOL    HW226523   2.869   0.739   2.907  1.3381 -0.6900  0.3838
 4963SOL     OW26524   0.761   0.545   7.357  0.1535 -0.2182  0.0419
 4963SOL    HW126525   0.834   0.541   7.418  0.5345  0.2850 -0.3892
 4963SOL    HW226526   0.717   0.462   7.378  0.6443 -0.5794 -0.3773
 4964SOL     OW26527   1.794   2.927   2.434  0.2674  0.1551 -0.4545
 4964SOL    HW126528   1.783   2.986   2.509 -0.7436  0.0487 -0.5276
 4964SOL    HW226529   1.889   2.937   2.428  0.3365 -1.4074 -1.7287
 4965SOL     OW26530   3.618   1.004  13.308  0.4332 -0.2395 -0.3184
 4965SOL    HW126531   3.526   0.981  13.299 -0.5604  3.4089  0.7137
 4965SOL    HW226532   3.643   0.911  13.307  1.1016 -0.0666 -0.2383
 4966SOL     OW26533   1.205   0.250   6.347 -0.0950  0.1427  0.3358
 4966SOL    HW126534   1.266   0.193   6.300 -1.8869  0.1330 -1.9549
 4966SOL    HW226535   1.155   0.282   6.272  2.0680  1.2442 -0.6222
 4967SOL     OW26536   3.753   1.143   8.923  0.1490 -0.6208  0.6703
 4967SOL    HW126537   3.790   1.056   8.935  0.3094 -0.2859  2.6341
 4967SOL    HW226538   3.787   1.182   9.004  1.8775  3.4839 -2.0465
 4968SOL     OW26539   0.905   3.641   8.716  0.6201  0.1253  0.2287
 4968SOL    HW126540   0.992   3.645   8.755  0.0154  0.2554  1.5573
 4968SOL    HW226541   0.862   3.713   8.763  1.7014 -1.6788  4.0313
 4969SOL     OW26542   1.506   0.992  13.869  0.2551  0.3324 -0.3989
 4969SOL    HW126543   1.435   1.047  13.901 -0.8700 -1.2191 -0.2318
 4969SOL    HW226544   1.500   0.916  13.927  1.6477  1.3424  1.0326
 4970SOL     OW26545   4.272   0.959   5.360 -0.1922  0.4735 -0.1745
 4970SOL    HW126546   4.343   0.955   5.423 -0.1189 -1.3576 -0.3683
 4970SOL    HW226547   4.203   0.986   5.421 -0.7413 -0.6183 -0.2987
 4971SOL     OW26548   0.300   0.609   1.176 -0.6009  0.1102 -0.3923
 4971SOL    HW126549   0.332   0.690   1.214 -0.5823 -1.0372  2.0313
 4971SOL    HW226550   0.274   0.558   1.253  0.3170  0.5863  0.2336
 4972SOL     OW26551   4.271   0.347   8.122 -0.0732 -0.2940  0.2446
 4972SOL    HW126552   4.199   0.371   8.180  0.6879 -1.1759  1.5662
 4972SOL    HW226553   4.297   0.429   8.082 -1.3902  0.2537  0.5184
 4973SOL     OW26554   0.982   0.666   6.076  0.3296 -0.0799  0.1486
 4973SOL    HW126555   1.062   0.614   6.069 -0.7278 -1.4426 -1.6972
 4973SOL    HW226556   1.014   0.732   6.138  2.4449  1.5046 -2.6425
 4974SOL     OW26557   4.319   0.224   9.674 -0.0191  0.4403  0.4858
 4974SOL    HW126558   4.246   0.211   9.734  0.1814 -1.4588  0.3275
 4974SOL    HW226559   4.292   0.188   9.590  1.2310 -1.1375  0.7429
 4975SOL     OW26560   4.357   1.465   9.740 -0.3751 -0.1242  0.3128
 4975SOL    HW126561   4.309   1.384   9.726  0.5881 -0.8775  1.3622
 4975SOL    HW226562   4.451   1.453   9.730 -0.4764  0.6887 -1.6043
 4976SOL     OW26563   2.957   0.122   2.184  0.1510  0.2082  0.3551
 4976SOL    HW126564   2.905   0.108   2.106  0.3555 -0.0787  0.2697
 4976SOL    HW226565   2.957   0.038   2.231  0.5722 -1.1091 -2.0316
 4977SOL     OW26566   1.467   1.296  16.016  0.6282 -0.5165 -0.0585
 4977SOL    HW126567   1.502   1.357  16.082  0.9457  0.9017 -1.5523
 4977SOL    HW226568   1.516   1.218  16.041  0.3593 -0.9635 -0.9377
 4978SOL     OW26569   3.975   3.344   1.780  0.1849 -0.2267 -0.0820
 4978SOL    HW126570   3.960   3.427   1.735  0.4651 -0.9867 -1.6013
 4978SOL    HW226571   4.056   3.364   1.826 -0.3460  0.8917  0.3696
 4979SOL     OW26572   2.286   2.389   1.095  0.2668  0.0530  0.3186
 4979SOL    HW126573   2.370   2.357   1.060 -0.3417  0.0848 -1.1456
 4979SOL    HW226574   2.299   2.365   1.187 -1.8003  0.2009  0.6443
 4980SOL     OW26575   3.210   1.335   2.447 -0.3235  0.4472  0.3188
 4980SOL    HW126576   3.248   1.248   2.439 -0.2827  0.4468  0.5184
 4980SOL    HW226577   3.121   1.306   2.465  0.9581 -3.5082  0.2874
 4981SOL     OW26578   4.301   4.248   6.625  0.1820 -0.2319  0.3195
 4981SOL    HW126579   4.349   4.182   6.674 -0.3797 -0.3275  0.7382
 4981SOL    HW226580   4.238   4.180   6.602  2.5753 -3.0768  2.2058
 4982SOL     OW26581   1.644   4.299   3.564 -0.0521  0.4405  0.2407
 4982SOL    HW126582   1.718   4.248   3.598  1.4831  1.4838 -1.5166
 4982SOL    HW226583   1.584   4.294   3.638 -0.1582  1.0018  0.1898
 4983SOL     OW26584   4.201   1.584   0.418 -0.0962 -0.5668 -0.0980
 4983SOL    HW126585   4.164   1.563   0.504 -2.1527 -2.0938 -1.3501
 4983SOL    HW226586   4.251   1.658   0.452 -0.3785  1.3233 -3.7551
 4984SOL     OW26587   3.250   1.421  17.038 -0.1707 -0.0133 -0.2999
 4984SOL    HW126588   3.241   1.345  17.096  0.6427  0.8588  0.9799
 4984SOL    HW226589   3.317   1.400  16.973  0.1743  1.0056 -0.2844
 4985SOL     OW26590   0.553   4.633   2.597 -0.6795 -0.1024 -0.0223
 4985SOL    HW126591   0.515   4.551   2.628  1.1787 -2.2097 -3.3691
 4985SOL    HW226592   0.641   4.642   2.632 -0.8081 -0.1345  0.3086
 4986SOL     OW26593   0.229   4.628   9.622  0.6145 -0.2892 -0.4588
 4986SOL    HW126594   0.207   4.720   9.638 -0.2941 -0.1277 -2.6647
 4986SOL    HW226595   0.195   4.599   9.537  1.3314 -0.6062 -0.6415
 4987SOL     OW26596   4.340   1.299   4.091 -0.0663 -0.3805 -0.2295
 4987SOL    HW126597   4.418   1.318   4.143 -1.0226 -2.6250  2.0826
 4987SOL    HW226598   4.372   1.218   4.051 -0.3665 -0.5790 -0.0678
 4988SOL     OW26599   4.049   1.755  15.175  0.0166 -0.4409  0.9274
 4988SOL    HW126600   4.031   1.723  15.263  0.2333  0.6456  1.3689
 4988SOL    HW226601   4.102   1.834  15.188  1.2995 -1.4451  1.8439
 4989SOL     OW26602   4.103   0.066   6.692  0.1982  0.1159  0.0970
 4989SOL    HW126603   4.097   0.061   6.787 -1.7630 -1.0656 -0.0815
 4989SOL    HW226604   4.073   4.717   6.661  1.5555 -0.1046 -0.5927
 4990SOL     OW26605   2.685   2.981  11.122  0.4247  0.3951  0.3844
 4990SOL    HW126606   2.593   2.982  11.096  0.3474  0.6410  0.6686
 4990SOL    HW226607   2.721   2.957  11.037  1.4942  1.2232  0.6187
 4991SOL     OW26608   3.834   4.535   5.902 -0.1740  0.5516  0.5890
 4991SOL    HW126609   3.751   4.547   5.856  0.1951 -0.0652 -0.2519
 4991SOL    HW226610   3.872   4.622   5.912  2.3675 -0.6659  1.6210
 4992SOL     OW26611   3.281   0.712   3.821 -0.5459 -0.5730  0.4890
 4992SOL    HW126612   3.362   0.679   3.782  0.1031  2.7003 -0.8905
 4992SOL    HW226613   3.239   0.632   3.853  0.8487 -1.8644 -0.8828
 4993SOL     OW26614   1.083   3.926   9.411 -0.4312  0.0318  0.1890
 4993SOL    HW126615   1.010   3.984   9.389  0.0470  0.2420 -0.8063
 4993SOL    HW226616   1.041   3.842   9.389  0.2473 -0.5592  1.1590
 4994SOL     OW26617   2.609   2.880   6.750 -0.0155  0.6820 -0.2110
 4994SOL    HW126618   2.622   2.973   6.767  1.1142  0.1263  1.9551
 4994SOL    HW226619   2.697   2.868   6.714  0.8453  2.5899  1.2340
 4995SOL     OW26620   1.656   3.465  13.367 -0.0318 -0.7312 -0.6520
 4995SOL    HW126621   1.642   3.370  13.373 -2.2294 -0.4302 -0.7684
 4995SOL    HW226622   1.740   3.481  13.410 -1.1089 -1.9003  1.8966
 4996SOL     OW26623   1.237   0.504   6.006 -0.1925  0.4809  0.0944
 4996SOL    HW126624   1.233   0.492   6.101  0.2891 -1.9547 -0.2127
 4996SOL    HW226625   1.316   0.559   6.009  0.9348 -1.2322  1.6591
 4997SOL     OW26626   4.206   2.179   7.979  0.0896  0.3293  0.3501
 4997SOL    HW126627   4.189   2.228   8.059  1.4872 -0.4815  1.1358
 4997SOL    HW226628   4.117   2.172   7.945  0.8379 -0.2875 -1.4679
 4998SOL     OW26629   1.729   4.719  10.735  0.2588 -0.3685 -0.1557
 4998SOL    HW126630   1.640   4.683  10.734  0.4166 -0.7712  0.9479
 4998SOL    HW226631   1.710   0.052  10.799 -0.8006 -1.2648  0.4942
 4999SOL     OW26632   0.120   4.525  17.706  0.2774  0.1159  0.0746
 4999SOL    HW126633   0.156   4.535   0.052  3.4289  0.6464 -1.2727
 4999SOL    HW226634   0.153   4.436  17.690  1.4771  0.8336 -1.4155
 5000SOL     OW26635   1.380   0.452  16.239  0.2832  0.4983  0.4550
 5000SOL    HW126636   1.411   0.533  16.200  0.4071  0.5532  0.6691
 5000SOL    HW226637   1.288   0.478  16.228  0.4559  0.2207 -1.6350
 5001SOL     OW26638   1.620   1.991   8.330  0.3648  0.1838 -0.0849
 5001SOL    HW126639   1.693   1.987   8.391  0.0603 -2.4260  0.0962
 5001SOL    HW226640   1.667   1.962   8.252  0.1948 -0.6837  0.1360
 5002SOL     OW26641   0.260   4.160  16.381 -0.2847 -0.2140 -0.0588
 5002SOL    HW126642   0.280   4.146  16.288 -1.5871  1.6097 -0.6236
 5002SOL    HW226643   0.245   4.074  16.421  0.9131 -0.3388  0.1116
 5003SOL     OW26644   2.015   2.681   5.593  0.3414  0.7722  0.0743
 5003SOL    HW126645   1.978   2.683   5.505  1.6045  0.3436 -0.4692
 5003SOL    HW226646   1.964   2.728   5.659 -0.0765 -2.0093  1.7355
 5004SOL     OW26647   4.047   0.361   9.461  0.4348 -0.4816 -0.0745
 5004SOL    HW126648   4.104   0.437   9.460  1.4996 -1.2800  0.4970
 5004SOL    HW226649   4.120   0.299   9.464  1.1613  0.3871  0.2321
 5005SOL     OW26650   2.601   4.592   6.194 -0.0805 -0.0044 -0.5872
 5005SOL    HW126651   2.657   4.562   6.265 -0.2337 -4.1526 -2.2197
 5005SOL    HW226652   2.641   4.548   6.118  2.7697 -0.3162  1.1018
 5006SOL     OW26653   2.133   4.187   4.283  0.3569  0.5209 -0.5246
 5006SOL    HW126654   2.075   4.191   4.207  0.8934 -0.9299 -1.0085
 5006SOL    HW226655   2.136   4.277   4.314  2.3972 -0.5665  2.4384
 5007SOL     OW26656   3.264   2.452   9.619 -0.2265 -0.2394 -0.6015
 5007SOL    HW126657   3.325   2.414   9.556 -0.0397  0.4573 -0.8386
 5007SOL    HW226658   3.204   2.496   9.560  0.2210  1.3202  0.1074
 5008SOL     OW26659   1.429   3.848  11.920 -0.0415 -0.2722  0.2856
 5008SOL    HW126660   1.506   3.843  11.864 -1.6679 -0.4675 -1.9231
 5008SOL    HW226661   1.469   3.846  12.007 -1.0739 -1.2208  0.7444
 5009SOL     OW26662   3.965   2.121   4.452 -0.3852 -0.2873 -0.3580
 5009SOL    HW126663   3.983   2.114   4.546  1.0110 -0.3711 -0.6407
 5009SOL    HW226664   3.908   2.198   4.447  2.3084  1.6243 -1.4191
 5010SOL     OW26665   1.009   1.012   4.919 -0.3977 -0.1194 -0.5372
 5010SOL    HW126666   0.948   1.001   4.992 -0.4352  1.4734 -0.3441
 5010SOL    HW226667   0.950   1.032   4.848 -0.8200 -0.0932 -0.1782
 5011SOL     OW26668   2.128   0.995   9.865 -0.0070  0.3062 -0.0309
 5011SOL    HW126669   2.155   0.903   9.873 -0.3945  0.1777 -0.1843
 5011SOL    HW226670   2.037   0.988   9.895 -0.5117 -0.4391 -1.7439
 5012SOL     OW26671   2.956   4.311   4.335  0.1969  0.4406  0.6447
 5012SOL    HW126672   3.004   4.241   4.290 -1.1836 -0.3879  0.4564
 5012SOL    HW226673   2.961   4.288   4.427 -0.3049 -0.0664  0.5451
 5013SOL     OW26674   0.366   1.824   1.851 -0.2093 -0.3386 -0.5200
 5013SOL    HW126675   0.404   1.752   1.800  1.5962  1.6374 -1.9156
 5013SOL    HW226676   0.359   1.896   1.789 -1.9895 -0.2358 -0.1856
 5014SOL     OW26677   2.244   1.892   5.623  0.1187  0.2370 -0.4381
 5014SOL    HW126678   2.300   1.824   5.585 -1.2788  0.0279 -2.0641
 5014SOL    HW226679   2.235   1.950   5.548  0.4802  2.1325  0.9637
 5015SOL     OW26680   0.332   3.950   4.205  0.3413  0.6222  0.1118
 5015SOL    HW126681   0.284   3.957   4.123 -1.8057  0.5380  1.3670
 5015SOL    HW226682   0.277   3.898   4.265  0.5273  1.1173  0.7157
 5016SOL     OW26683   3.298   4.197   1.026  0.1343  0.3461 -0.1032
 5016SOL    HW126684   3.355   4.169   0.954 -2.1076 -2.8882 -0.6152
 5016SOL    HW226685   3.347   4.157   1.097  1.4879  1.2389 -0.5203
 5017SOL     OW26686   2.089   0.903   6.380  0.1749 -0.4465  0.3287
 5017SOL    HW126687   2.083   0.856   6.463 -0.2313 -0.1707  0.4527
 5017SOL    HW226688   2.178   0.877   6.355  0.3727  1.1975 -0.6410
 5018SOL     OW26689   3.016   4.421   9.204  0.5974  0.0975  0.3583
 5018SOL    HW126690   3.110   4.431   9.192  0.7744  1.4632  2.9099
 5018SOL    HW226691   3.008   4.373   9.286 -1.2523  1.4322  0.9669
 5019SOL     OW26692   0.800   1.437   9.892  0.1138 -0.3995 -0.0316
 5019SOL    HW126693   0.765   1.353   9.922 -1.6552  0.8765  1.4600
 5019SOL    HW226694   0.867   1.443   9.960  1.6719 -0.8247 -1.5037
 5020SOL     OW26695   0.877   0.279  15.310 -0.2097  0.3403  0.2981
 5020SOL    HW126696   0.965   0.266  15.343 -0.0408 -2.4304 -1.2744
 5020SOL    HW226697   0.851   0.350  15.369 -0.2193  0.9436 -0.4287
 5021SOL     OW26698   2.708   0.624   7.237  0.1167  0.5130 -0.0537
 5021SOL    HW126699   2.698   0.695   7.175  0.3987  0.0714 -0.6119
 5021SOL    HW226700   2.778   0.570   7.199 -0.9859  0.8002 -2.4897
 5022SOL     OW26701   0.778   0.128   1.378 -0.6072  0.2765  0.2005
 5022SOL    HW126702   0.834   0.060   1.415 -2.1461  0.6553  3.2377
 5022SOL    HW226703   0.817   0.127   1.291  0.4510 -1.4210  0.6856
 5023SOL     OW26704   1.045   2.893   2.650  0.2688 -0.6553 -0.2961
 5023SOL    HW126705   0.959   2.859   2.627 -0.0235  0.3156 -0.6581
 5023SOL    HW226706   1.023   2.959   2.717 -0.0156 -0.6404 -0.4051
 5024SOL     OW26707   2.314   4.290  15.871  0.1309  0.6338  0.5992
 5024SOL    HW126708   2.311   4.198  15.844  0.9326  0.4386  1.1819
 5024SOL    HW226709   2.325   4.290  15.966 -1.3890  0.4855  0.7794
 5025SOL     OW26710   3.957   4.620   0.331 -0.2761  0.1242  0.8535
 5025SOL    HW126711   3.929   4.529   0.330 -0.6015  0.2441 -0.4660
 5025SOL    HW226712   3.901   4.654   0.261  0.2522  0.7803  0.7511
 5026SOL     OW26713   3.058   3.983   0.159  0.2726  0.1475 -0.8091
 5026SOL    HW126714   2.995   4.042   0.199 -0.7223 -0.3878 -1.5888
 5026SOL    HW226715   3.138   4.000   0.210 -0.7093 -1.6211  1.3040
 5027SOL     OW26716   1.514   2.167   3.457  0.2200  0.3960 -0.3736
 5027SOL    HW126717   1.600   2.165   3.499  0.3320 -2.9749 -0.7833
 5027SOL    HW226718   1.543   2.230   3.390  1.5228 -0.6036 -0.7616
 5028SOL     OW26719   0.901   4.691   0.374  0.2801 -0.0906  0.6519
 5028SOL    HW126720   0.892   4.619   0.311  0.1852  0.1836  0.3495
 5028SOL    HW226721   0.846   0.022   0.332 -1.3978 -0.3769  2.3778
 5029SOL     OW26722   3.345   2.409   4.426  0.1793  0.0970  0.2995
 5029SOL    HW126723   3.345   2.476   4.494  1.0657 -0.8771  1.2487
 5029SOL    HW226724   3.367   2.451   4.343 -0.3185 -0.1955  0.0227
 5030SOL     OW26725   1.676   1.871   6.325  0.8515  0.2915 -0.3913
 5030SOL    HW126726   1.638   1.857   6.412  0.2446  0.6665 -0.6020
 5030SOL    HW226727   1.608   1.855   6.260  0.6583 -0.9933  0.1196
 5031SOL     OW26728   2.834   0.017   8.399 -0.2144  0.1157  0.6603
 5031SOL    HW126729   2.763   0.022   8.463  0.7913  0.3465  1.7650
 5031SOL    HW226730   2.787   4.720   8.323 -2.9962  2.2726  1.4642
 5032SOL     OW26731   0.075   0.343   2.667 -0.3558 -0.3513  0.5580
 5032SOL    HW126732   0.130   0.405   2.619  1.3123 -1.0720  1.5448
 5032SOL    HW226733   0.111   0.258   2.642  1.0406  0.3096  0.2831
 5033SOL     OW26734   2.686   1.436   4.795 -0.3884  0.1337 -0.1562
 5033SOL    HW126735   2.697   1.453   4.889 -0.3815  0.2223 -0.1732
 5033SOL    HW226736   2.649   1.348   4.800  0.2161 -0.2540 -2.5095
 5034SOL     OW26737   1.287   2.319   5.844  0.3722  0.3171 -0.3985
 5034SOL    HW126738   1.352   2.356   5.904 -1.2997  0.0507  1.5858
 5034SOL    HW226739   1.339   2.254   5.796  1.8802  2.0485 -1.1018
 5035SOL     OW26740   1.805   1.259   3.269 -0.3665 -0.7606 -0.4468
 5035SOL    HW126741   1.741   1.261   3.340 -0.8072 -3.3321 -0.7913
 5035SOL    HW226742   1.784   1.347   3.238  2.4994  0.6713  1.6257
 5036SOL     OW26743   0.703   3.830   7.503 -0.1153 -0.3841  0.6329
 5036SOL    HW126744   0.775   3.883   7.535  0.1617 -1.4582  1.7915
 5036SOL    HW226745   0.625   3.870   7.540  1.4537  0.3973  3.0344
 5037SOL     OW26746   0.160   4.609   9.118 -0.2544  0.2225 -0.3760
 5037SOL    HW126747   0.231   4.654   9.073  0.5540  0.2842  0.9394
 5037SOL    HW226748   0.189   4.518   9.104  1.3428  0.7263 -0.3228
 5038SOL     OW26749   0.230   1.647   5.165 -0.0364  0.2434  0.2156
 5038SOL    HW126750   0.220   1.621   5.074 -1.9741 -0.3649  0.6153
 5038SOL    HW226751   0.176   1.726   5.166 -0.7843 -0.2808  1.0894
 5039SOL     OW26752   4.352   3.227  11.186 -0.0704 -0.0811  0.2450
 5039SOL    HW126753   4.368   3.175  11.108 -0.4534 -0.8829  0.7044
 5039SOL    HW226754   4.434   3.276  11.183 -1.5754  2.5619  1.9866
 5040SOL     OW26755   3.340   3.230  11.553 -0.2993  0.3049  0.0707
 5040SOL    HW126756   3.430   3.240  11.523 -0.1077 -1.1448  0.1451
 5040SOL    HW226757   3.299   3.243  11.468  0.3053  0.2350 -0.2304
 5041SOL     OW26758   1.270   0.124  10.782 -0.2004 -0.0112 -0.0289
 5041SOL    HW126759   1.275   0.215  10.753 -3.0918  0.1623  0.0352
 5041SOL    HW226760   1.298   0.139  10.872 -1.1036 -0.8326  0.3807
 5042SOL     OW26761   2.386   3.145   4.885 -0.1668 -0.1366  0.5989
 5042SOL    HW126762   2.321   3.120   4.819 -0.2026  4.3031 -1.0799
 5042SOL    HW226763   2.328   3.183   4.951 -0.7840  1.2267 -0.7298
 5043SOL     OW26764   1.536   3.459  12.565 -0.2260  0.3597  0.5115
 5043SOL    HW126765   1.544   3.419  12.651 -2.8333 -0.9009  0.1422
 5043SOL    HW226766   1.557   3.387  12.505 -2.7519  0.1593 -0.1201
 5044SOL     OW26767   1.012   1.014  12.388  0.2874  0.6582  0.3441
 5044SOL    HW126768   1.046   1.071  12.458 -1.3647  1.1428  0.7394
 5044SOL    HW226769   0.926   1.048  12.364  0.7970 -0.0675 -2.4731
 5045SOL     OW26770   1.695   1.565   4.337  0.4279  0.2324  0.2767
 5045SOL    HW126771   1.767   1.569   4.274 -0.8046 -1.0904 -1.1863
 5045SOL    HW226772   1.739   1.574   4.422  1.3688 -0.1714 -0.1749
 5046SOL     OW26773   3.233   1.050   7.350  0.3736  0.4768  0.1712
 5046SOL    HW126774   3.153   1.066   7.400  0.7503 -1.1897  1.2783
 5046SOL    HW226775   3.196   1.032   7.263  2.8291 -1.6740 -0.4042
 5047SOL     OW26776   0.640   0.903   8.982  0.1365 -0.6081  0.0404
 5047SOL    HW126777   0.582   0.942   9.048  0.6294  1.0989 -0.5108
 5047SOL    HW226778   0.572   0.840   8.958  0.0097 -1.0919  1.6626
 5048SOL     OW26779   0.969   3.869   8.546 -0.1641  1.2396 -0.2561
 5048SOL    HW126780   0.904   3.938   8.557 -1.7860 -0.5000  1.0265
 5048SOL    HW226781   0.917   3.799   8.585  2.9329 -2.1593 -2.2578
 5049SOL     OW26782   0.954   3.104   8.038 -0.4165  0.2097 -0.4267
 5049SOL    HW126783   1.011   3.031   8.014 -0.2055  0.1010  0.4268
 5049SOL    HW226784   0.876   3.097   7.984 -1.5686  1.3896  1.0882
 5050SOL     OW26785   1.802   2.089  14.031 -0.3115 -0.5965  0.3581
 5050SOL    HW126786   1.778   2.143  14.106 -0.5688  0.7501 -0.6707
 5050SOL    HW226787   1.878   2.140  14.001  0.4174 -0.7632  1.9345
 5051SOL     OW26788   4.377   3.911  10.723 -0.3421  0.3077 -0.9839
 5051SOL    HW126789   4.438   3.985  10.729  1.7444 -1.6822  2.2611
 5051SOL    HW226790   4.295   3.948  10.691  1.4500  3.5706 -1.8647
 5052SOL     OW26791   1.394   0.118   4.587 -0.0290  0.1351  0.2410
 5052SOL    HW126792   1.371   0.105   4.679 -0.7613 -0.5744 -0.0394
 5052SOL    HW226793   1.455   0.044   4.591  0.6827  0.8955  2.8725
 5053SOL     OW26794   2.511   3.194   8.310 -0.4433 -0.0081  0.2537
 5053SOL    HW126795   2.452   3.127   8.276 -0.2224 -0.5233  0.8838
 5053SOL    HW226796   2.598   3.159   8.288  0.2276  1.3360  0.7530
 5054SOL     OW26797   3.907   4.687   7.604  0.5177 -0.3441 -0.2782
 5054SOL    HW126798   3.958   4.657   7.529 -0.8073  0.8746 -1.6849
 5054SOL    HW226799   3.923   4.619   7.669  0.5889  2.9057  3.1346
 5055SOL     OW26800   1.574   4.470  16.227  0.4000 -0.4685  0.4228
 5055SOL    HW126801   1.579   4.374  16.228  1.6304 -0.4139 -0.6774
 5055SOL    HW226802   1.654   4.491  16.179  0.2847 -0.1586  0.3664
 5056SOL     OW26803   1.839   3.605   4.813 -0.0784  0.3909 -0.2457
 5056SOL    HW126804   1.890   3.677   4.849 -1.2022 -1.0657  4.1996
 5056SOL    HW226805   1.900   3.602   4.739  1.4001 -0.9661  1.0265
 5057SOL     OW26806   0.674   3.019   6.084  0.4124  0.1308 -0.3872
 5057SOL    HW126807   0.592   3.008   6.035  0.4789 -2.0840 -0.0007
 5057SOL    HW226808   0.655   3.100   6.131  0.7762  0.2751 -0.4876
 5058SOL     OW26809   2.473   2.686  17.708 -0.2318 -0.3633  0.1193
 5058SOL    HW126810   2.486   2.601   0.008 -0.7511 -1.2759 -1.5422
 5058SOL    HW226811   2.567   2.705  17.711 -0.6514  1.6049  0.3813
 5059SOL     OW26812   0.409   1.328   4.653  0.0698  0.1126 -0.3983
 5059SOL    HW126813   0.481   1.356   4.595  0.3277 -0.5854 -0.4075
 5059SOL    HW226814   0.387   1.245   4.611 -0.9948 -0.0108  0.4120
 5060SOL     OW26815   1.573   1.081  12.279  0.4044 -0.0948 -0.2323
 5060SOL    HW126816   1.547   1.145  12.212 -1.4576  0.4851  1.0455
 5060SOL    HW226817   1.600   1.006  12.226  0.5866 -0.7847  0.8319
 5061SOL     OW26818   1.838   3.536   1.872  0.1343 -0.2360 -0.0610
 5061SOL    HW126819   1.799   3.600   1.932 -0.8484  0.2595 -1.2288
 5061SOL    HW226820   1.786   3.558   1.794  2.3322  0.7592 -1.2441
 5062SOL     OW26821   2.000   4.389  10.445  0.4707 -0.3811  0.4694
 5062SOL    HW126822   2.093   4.387  10.466  0.4636 -0.6629  0.4715
 5062SOL    HW226823   1.957   4.395  10.530  0.2475  0.2263  0.3156
 5063SOL     OW26824   3.065   3.334  11.669 -0.2961 -0.2463 -0.7640
 5063SOL    HW126825   3.082   3.302  11.580 -0.4819 -0.3401 -0.7651
 5063SOL    HW226826   3.070   3.421  11.629 -0.4109 -0.0257 -0.2992
 5064SOL     OW26827   3.757   0.320   3.519  0.1480 -0.3969  0.1926
 5064SOL    HW126828   3.776   0.243   3.465 -2.4663  0.2181 -1.6300
 5064SOL    HW226829   3.732   0.386   3.453 -0.8772 -2.2571 -1.2924
 5065SOL     OW26830   1.907   3.312   5.003  0.1757 -0.0698  0.2286
 5065SOL    HW126831   1.877   3.246   4.940  2.0974 -0.1242 -0.6406
 5065SOL    HW226832   1.980   3.265   5.044  0.3683 -0.3788 -0.4711
 5066SOL     OW26833   2.848   1.942  15.041 -0.1431 -0.1633  0.3673
 5066SOL    HW126834   2.895   1.909  15.117 -0.0698 -0.8168  0.0439
 5066SOL    HW226835   2.848   2.036  15.058 -0.4937 -0.1727  0.4215
 5067SOL     OW26836   4.597   2.892   3.633 -0.0589 -0.6367  0.8041
 5067SOL    HW126837   4.674   2.836   3.636  2.0985  2.2830  0.1567
 5067SOL    HW226838   4.541   2.837   3.687  2.4761 -1.9804  2.0691
 5068SOL     OW26839   3.342   2.988   3.961 -0.2274 -0.2141 -0.0695
 5068SOL    HW126840   3.418   3.037   3.930  0.8738 -2.4274 -0.8160
 5068SOL    HW226841   3.272   3.038   3.919  0.0319 -0.2733 -0.5645
 5069SOL     OW26842   3.434   4.662  17.692  0.7015 -0.2834 -0.7122
 5069SOL    HW126843   3.390   4.731  17.644 -1.3540  0.4205  2.1755
 5069SOL    HW226844   3.393   4.683   0.034  2.4848 -2.2236  0.6587
 5070SOL     OW26845   1.899   4.681   3.291 -0.1984  0.0517 -0.2436
 5070SOL    HW126846   1.970   4.720   3.239 -2.9727  1.9659 -2.5908
 5070SOL    HW226847   1.849   0.026   3.303  0.6041  0.7200 -1.4213
 5071SOL     OW26848   0.084   3.014   7.365 -0.4080  0.5271 -0.2070
 5071SOL    HW126849   0.067   3.100   7.327 -1.1452  0.4320 -0.1080
 5071SOL    HW226850   0.072   3.038   7.457  3.1608 -1.0394  0.6540
 5072SOL     OW26851   4.113   0.046   2.830 -0.3957  0.1304  0.0785
 5072SOL    HW126852   4.182   4.720   2.853  0.3868  0.8375 -0.3821
 5072SOL    HW226853   4.098   0.018   2.740  0.4139  0.0586 -0.0277
 5073SOL     OW26854   3.209   3.243  16.888  0.1436 -0.0102  0.1610
 5073SOL    HW126855   3.210   3.148  16.899 -0.2798  0.2303  2.2410
 5073SOL    HW226856   3.142   3.262  16.822  1.2743  1.0689 -0.6651
 5074SOL     OW26857   3.140   1.447   0.162 -0.2598  0.8251  0.3727
 5074SOL    HW126858   3.067   1.393   0.131 -0.5819  1.1173  0.6166
 5074SOL    HW226859   3.086   1.525   0.167 -2.8278 -0.7822 -2.1738
 5075SOL     OW26860   0.077   4.216   4.887 -0.1299  0.8276  0.1718
 5075SOL    HW126861   0.025   4.140   4.914  1.9883 -0.6631  0.0618
 5075SOL    HW226862   0.030   4.240   4.807 -0.6375  1.6264  0.6986
 5076SOL     OW26863   2.243   0.634   4.428  0.3831 -0.4471  0.1011
 5076SOL    HW126864   2.205   0.568   4.369 -2.9648  1.6584 -0.1075
 5076SOL    HW226865   2.251   0.714   4.377  2.3613 -0.9908 -0.4346
 5077SOL     OW26866   2.190   2.472   3.648  0.0250 -0.2173 -0.1459
 5077SOL    HW126867   2.184   2.493   3.555  1.5352 -2.7299 -0.8038
 5077SOL    HW226868   2.157   2.554   3.685 -1.3936 -1.5506  1.5582
 5078SOL     OW26869   2.432   2.332   8.361 -0.1382 -0.0864  0.8197
 5078SOL    HW126870   2.404   2.413   8.318  1.2233 -1.0528 -1.9278
 5078SOL    HW226871   2.525   2.326   8.340 -0.5059  1.4942 -1.2249
 5079SOL     OW26872   2.322   1.540   3.773 -0.6450  0.0356  0.3114
 5079SOL    HW126873   2.246   1.492   3.807  1.3090 -2.1046  1.6899
 5079SOL    HW226874   2.291   1.628   3.792  2.1253  1.0070  0.1765
 5080SOL     OW26875   3.328   3.385  16.643 -0.1530  0.4555  0.5666
 5080SOL    HW126876   3.253   3.365  16.587  0.7614  0.3152 -0.6030
 5080SOL    HW226877   3.300   3.358  16.731  1.6095 -0.0786  0.9602
 5081SOL     OW26878   4.430   2.743   7.177  0.1766  0.5080  0.6244
 5081SOL    HW126879   4.456   2.813   7.237  0.1908  2.3174 -1.4836
 5081SOL    HW226880   4.477   2.767   7.096 -0.0601 -1.8105 -0.1833
 5082SOL     OW26881   3.517   2.992  16.934 -0.2457  0.2170  0.3380
 5082SOL    HW126882   3.561   3.016  16.852 -0.5532  0.1367  0.1493
 5082SOL    HW226883   3.468   2.913  16.912  0.1017  0.0903  0.0188
 5083SOL     OW26884   0.572   2.190  11.837 -0.1593 -0.2653 -0.3924
 5083SOL    HW126885   0.610   2.179  11.924 -1.7146  1.6650  0.5478
 5083SOL    HW226886   0.561   2.285  11.832 -2.3931 -0.4744  0.6335
 5084SOL     OW26887   4.480   2.263   7.931  0.3566 -0.0652 -0.0661
 5084SOL    HW126888   4.412   2.202   7.902 -0.1686 -0.0685  1.2036
 5084SOL    HW226889   4.432   2.337   7.967 -0.7545 -0.0060 -1.6645
 5085SOL     OW26890   1.110   1.020  11.723 -0.1033  0.4672 -0.5472
 5085SOL    HW126891   1.082   0.932  11.749 -1.8459  0.8993 -1.0031
 5085SOL    HW226892   1.169   0.998  11.651 -0.0152 -0.9382 -0.0596
 5086SOL     OW26893   1.319   3.062   9.461  0.3361  0.5708  0.4598
 5086SOL    HW126894   1.242   3.044   9.407  1.4587 -0.2449 -0.8582
 5086SOL    HW226895   1.372   2.985   9.443 -0.2485  0.0494  0.9819
 5087SOL     OW26896   1.500   4.294  12.790 -0.1612  0.1253  0.4813
 5087SOL    HW126897   1.499   4.376  12.740 -0.8645  1.2948  2.4170
 5087SOL    HW226898   1.546   4.233  12.732 -1.4985 -0.9209  0.5211
 5088SOL     OW26899   2.545   4.347   7.336  0.5908 -0.3392 -0.5363
 5088SOL    HW126900   2.595   4.426   7.313  0.9842 -0.0974  1.1030
 5088SOL    HW226901   2.529   4.370   7.428  0.2229  0.7955 -0.8819
 5089SOL     OW26902   0.094   4.283  10.806 -0.1748 -0.2375  0.0735
 5089SOL    HW126903   0.019   4.335  10.779  1.7293  1.3209 -2.1831
 5089SOL    HW226904   0.155   4.355  10.816 -0.5680  0.0952  0.0722
 5090SOL     OW26905   0.105   0.065   5.993 -0.3456 -0.0964  0.4218
 5090SOL    HW126906   0.192   0.095   5.966 -0.3790 -1.7858 -1.5591
 5090SOL    HW226907   0.118   4.706   5.996  1.4924  0.0580 -2.8732
 5091SOL     OW26908   1.162   2.265   6.139  0.2345  0.0799  0.4660
 5091SOL    HW126909   1.080   2.237   6.098 -1.0814  2.5148  1.4190
 5091SOL    HW226910   1.129   2.341   6.187  1.4038  1.3760 -0.8034
 5092SOL     OW26911   3.863   2.427  10.022 -0.1414 -0.0355  0.0467
 5092SOL    HW126912   3.853   2.521  10.038  0.3118 -0.7798  4.7129
 5092SOL    HW226913   3.958   2.419  10.027 -0.1380 -0.0775 -0.0930
 5093SOL     OW26914   3.732   4.013   1.846 -0.2027  0.4218  0.2236
 5093SOL    HW126915   3.742   3.988   1.938  0.0204  0.5522  0.2344
 5093SOL    HW226916   3.688   4.098   1.858 -0.7223  0.3112 -0.9395
 5094SOL     OW26917   0.382   4.551  14.591 -0.4168  0.3265 -0.2386
 5094SOL    HW126918   0.415   4.521  14.506  0.6617  1.6337 -0.2742
 5094SOL    HW226919   0.461   4.535  14.644 -0.4970 -1.7966 -0.7406
 5095SOL     OW26920   3.713   1.832   1.992  0.1675  0.4980 -0.2149
 5095SOL    HW126921   3.761   1.783   2.059 -1.4542  0.1179  0.6690
 5095SOL    HW226922   3.622   1.815   2.017  0.4685 -0.8660 -0.0571
 5096SOL     OW26923   1.000   4.322  14.094  0.0017 -0.0982  0.0867
 5096SOL    HW126924   0.930   4.275  14.048  1.6859 -2.0023 -0.5550
 5096SOL    HW226925   1.065   4.324  14.023 -1.6941 -1.1279 -1.4961
 5097SOL     OW26926   1.558   3.902   6.648  0.3958 -0.0587 -0.1133
 5097SOL    HW126927   1.592   3.854   6.572  1.8244 -0.4793  0.7852
 5097SOL    HW226928   1.464   3.889   6.640  0.7324 -1.9342 -1.0755
 5098SOL     OW26929   3.682   4.422   7.562  0.3081 -0.5658 -0.0465
 5098SOL    HW126930   3.633   4.445   7.641 -0.1444 -0.0420 -0.4782
 5098SOL    HW226931   3.650   4.479   7.492  0.8778 -0.8644 -0.5528
 5099SOL     OW26932   0.311   0.105   1.109  0.1671  0.0402  0.1536
 5099SOL    HW126933   0.320   0.197   1.084 -0.1743 -0.4553 -1.7804
 5099SOL    HW226934   0.316   0.056   1.027 -3.0028 -0.3724  0.1913
 5100SOL     OW26935   0.830   0.751  10.892 -0.7555 -0.2944  0.4680
 5100SOL    HW126936   0.759   0.815  10.892 -1.1787 -0.7529  1.7749
 5100SOL    HW226937   0.893   0.805  10.844  0.2543  0.3911  2.5409
 5101SOL     OW26938   1.179   3.669  17.379  0.1847  0.4685  0.3171
 5101SOL    HW126939   1.102   3.713  17.415 -0.9357 -0.6338 -0.7289
 5101SOL    HW226940   1.198   3.743  17.321  0.6331 -1.3608 -1.8876
 5102SOL     OW26941   4.042   4.034   2.257 -0.5065 -0.2532 -0.3205
 5102SOL    HW126942   4.052   4.032   2.162  1.3364 -0.8655 -0.1145
 5102SOL    HW226943   4.132   4.053   2.282  0.1390 -1.3758 -1.7646
 5103SOL     OW26944   0.865   1.675   2.542  0.0801 -0.0815  0.2792
 5103SOL    HW126945   0.808   1.731   2.594  0.0477 -0.5852  0.7859
 5103SOL    HW226946   0.919   1.642   2.613  0.7319  0.7572  0.1721
 5104SOL     OW26947   0.468   2.017   3.827  0.4170 -0.1570 -0.4818
 5104SOL    HW126948   0.554   2.058   3.824  0.1551  0.2320 -2.8257
 5104SOL    HW226949   0.424   2.070   3.893  0.7746  0.3910 -0.6879
 5105SOL     OW26950   3.679   0.694  16.937  1.0379 -0.2712  0.0709
 5105SOL    HW126951   3.697   0.601  16.924  0.7476 -0.6428  2.2699
 5105SOL    HW226952   3.670   0.730  16.849  3.4524 -1.4724 -0.6568
 5106SOL     OW26953   0.813   2.052   7.659  0.5383 -0.6705 -0.7203
 5106SOL    HW126954   0.800   2.125   7.720  0.6075 -1.4000  0.1588
 5106SOL    HW226955   0.735   2.072   7.607 -0.7191 -0.2248  1.3445
 5107SOL     OW26956   4.119   0.807   7.523 -0.3923  0.0857 -1.0552
 5107SOL    HW126957   4.124   0.897   7.554 -0.8729  1.8137 -6.0841
 5107SOL    HW226958   4.040   0.772   7.563 -0.1563 -0.3318 -0.9550
 5108SOL     OW26959   1.730   2.805   1.626  0.5728  0.0389  0.4039
 5108SOL    HW126960   1.654   2.778   1.678  0.5260  3.1505  1.9293
 5108SOL    HW226961   1.714   2.898   1.612 -0.7681 -0.0210  1.4797
 5109SOL     OW26962   2.375   3.753   9.163  0.4546 -0.2236 -0.5927
 5109SOL    HW126963   2.402   3.669   9.198 -0.2465 -0.8072 -1.4493
 5109SOL    HW226964   2.403   3.807   9.237 -1.6441  0.0670 -0.0362
 5110SOL     OW26965   0.125   1.412   2.669  0.1116 -0.5810  0.1185
 5110SOL    HW126966   0.065   1.338   2.676 -0.1043 -0.4729 -0.5297
 5110SOL    HW226967   0.192   1.373   2.614  0.3857 -2.0967  1.5229
 5111SOL     OW26968   3.734   1.410   4.371 -0.4452 -0.1120  0.0975
 5111SOL    HW126969   3.815   1.415   4.421  0.0930 -1.9328 -0.5897
 5111SOL    HW226970   3.685   1.488   4.396 -1.8351 -1.0867  0.4080
 5112SOL     OW26971   3.566   2.025   4.470  0.1322 -0.0759  0.1972
 5112SOL    HW126972   3.552   1.946   4.523  1.8618 -1.0898 -0.8695
 5112SOL    HW226973   3.627   1.987   4.407 -0.8874 -1.3483 -0.0242
 5113SOL     OW26974   3.303   3.493   2.818  0.4372  0.1667 -0.5275
 5113SOL    HW126975   3.324   3.519   2.908 -0.4455 -1.1131  0.0604
 5113SOL    HW226976   3.378   3.435   2.805  0.1536 -0.1573 -0.7201
 5114SOL     OW26977   2.108   2.183   7.893  0.3400  0.2635 -0.2896
 5114SOL    HW126978   2.031   2.239   7.899  0.1393 -0.1896  1.1477
 5114SOL    HW226979   2.150   2.207   7.810 -0.8252  1.4409 -0.5390
 5115SOL     OW26980   2.137   3.559  10.326 -0.6589  0.2820 -0.0318
 5115SOL    HW126981   2.101   3.479  10.288  3.4260 -1.3378 -0.5434
 5115SOL    HW226982   2.057   3.608  10.311 -1.5201 -0.6972  1.2790
 5116SOL     OW26983   4.689   4.067   8.284 -0.1230 -0.5170 -0.3815
 5116SOL    HW126984   4.674   4.143   8.340  1.4277 -1.5137  1.3974
 5116SOL    HW226985   4.624   4.075   8.215  0.4156  0.9931 -0.7170
 5117SOL     OW26986   3.874   3.511   2.773 -0.0677 -0.4156  0.6977
 5117SOL    HW126987   3.876   3.604   2.796  1.4005 -0.4605  0.7839
 5117SOL    HW226988   3.950   3.508   2.714 -0.8797  1.8295 -0.4947
 5118SOL     OW26989   0.587   3.081   2.003  0.0554 -0.4895 -0.2482
 5118SOL    HW126990   0.524   3.153   1.992 -0.1776 -0.8065 -0.9801
 5118SOL    HW226991   0.522   3.012   1.993 -0.2482 -0.3183  0.5600
 5119SOL     OW26992   2.915   2.135   5.667  0.8871  0.2335  0.4227
 5119SOL    HW126993   2.871   2.202   5.615 -1.6733 -0.6696  1.4238
 5119SOL    HW226994   2.929   2.074   5.595  0.9398 -0.7858  1.2943
 5120SOL     OW26995   1.954   2.071   4.637 -1.1066 -0.2500 -0.3900
 5120SOL    HW126996   1.900   1.998   4.606 -0.9571 -1.3980  2.0071
 5120SOL    HW226997   1.939   2.144   4.577  2.2123  0.5886 -0.2039
 5121SOL     OW26998   3.820   0.467   5.267 -0.4321 -0.1788 -0.2526
 5121SOL    HW126999   3.805   0.519   5.346 -2.9176 -0.5070 -0.5082
 5121SOL    HW227000   3.786   0.523   5.198  0.4732  1.2101  0.4339
 5122SOL     OW27001   2.992   4.149  13.385  0.3470  1.0373 -0.3480
 5122SOL    HW127002   2.971   4.085  13.317 -0.6068  2.3305 -1.2523
 5122SOL    HW227003   3.044   4.213  13.337  0.3057  1.6665  0.4339
 5123SOL     OW27004   3.983   4.275   8.460  0.6350  0.0495  0.3799
 5123SOL    HW127005   3.980   4.370   8.474  0.8043 -0.3051  2.7169
 5123SOL    HW227006   4.017   4.241   8.543 -1.0166 -0.1056  0.9917
 5124SOL     OW27007   3.213   1.274   3.428 -0.7340 -0.9133  0.8945
 5124SOL    HW127008   3.194   1.321   3.509 -0.3452 -0.0984  0.5229
 5124SOL    HW227009   3.293   1.234   3.460  0.3898 -0.1259 -0.8932
 5125SOL     OW27010   2.951   0.908   2.973  0.7082  0.3499  0.1939
 5125SOL    HW127011   2.917   0.960   3.046 -1.0212 -0.3068 -0.1504
 5125SOL    HW227012   3.040   0.944   2.973  0.5934  0.6364 -0.0187
 5126SOL     OW27013   2.623   2.277  11.829  0.1852 -0.0800 -0.7264
 5126SOL    HW127014   2.651   2.285  11.921  1.8890 -0.4217 -1.2233
 5126SOL    HW227015   2.639   2.183  11.830  0.3026 -0.0614 -0.8395
 5127SOL     OW27016   0.733   4.434   7.738  0.1011 -0.1104  0.1985
 5127SOL    HW127017   0.693   4.516   7.710  0.2848  0.6464  2.1604
 5127SOL    HW227018   0.686   4.372   7.682 -1.1094  1.0575 -0.0790
 5128SOL     OW27019   2.310   0.088   8.740 -0.1242  0.0258 -0.3396
 5128SOL    HW127020   2.317   0.182   8.724 -0.2222  0.1559  0.3982
 5128SOL    HW227021   2.388   0.072   8.793 -1.0336  0.8021  1.2032
 5129SOL     OW27022   3.443   4.282  16.057  0.0268 -0.2154  0.2633
 5129SOL    HW127023   3.486   4.348  16.111  0.1600 -0.2453  0.1919
 5129SOL    HW227024   3.458   4.196  16.095  1.1024 -0.5390 -0.8974
 5130SOL     OW27025   2.800   3.330  17.527  0.4143  0.4730  0.1111
 5130SOL    HW127026   2.883   3.378  17.536 -0.5918  2.0620  0.9699
 5130SOL    HW227027   2.816   3.244  17.566  1.0563  0.1642 -0.8425
 5131SOL     OW27028   1.767   4.503   4.496  0.2837  0.1908 -0.2569
 5131SOL    HW127029   1.807   4.586   4.524  1.2178 -0.5326  0.5448
 5131SOL    HW227030   1.826   4.433   4.523  1.9440  2.4734  2.0157
 5132SOL     OW27031   1.638   4.618   8.713 -0.1281  0.5917  0.3926
 5132SOL    HW127032   1.643   4.541   8.769 -2.6354  1.7465  2.1926
 5132SOL    HW227033   1.550   4.621   8.677 -0.2538  1.5779  0.7858
 5133SOL     OW27034   3.154   4.600  10.658 -0.1765 -0.0995  0.0196
 5133SOL    HW127035   3.111   4.609  10.743 -2.2534  0.3161 -1.0667
 5133SOL    HW227036   3.077   4.589  10.602 -0.0130  2.2225 -0.6866
 5134SOL     OW27037   1.431   0.120  12.729 -0.5289 -0.0637 -0.1661
 5134SOL    HW127038   1.379   0.067  12.668 -0.9437 -0.9029  0.9113
 5134SOL    HW227039   1.477   0.062  12.790 -1.1598 -0.5489 -0.1507
 5135SOL     OW27040   2.816   4.241  16.137  0.3503 -0.8877 -0.2143
 5135SOL    HW127041   2.794   4.303  16.068  0.3728 -0.7320 -0.0813
 5135SOL    HW227042   2.859   4.166  16.095 -0.2035  0.3982 -3.0265
 5136SOL     OW27043   4.112   3.701   8.500  0.2583  0.1708 -0.0485
 5136SOL    HW127044   4.197   3.665   8.526  1.0214  2.8637  1.2457
 5136SOL    HW227045   4.053   3.626   8.492  1.8263 -1.1507  0.8271
 5137SOL     OW27046   2.525   3.592   9.338 -0.3223  0.4728  0.4996
 5137SOL    HW127047   2.485   3.506   9.325 -1.9505  1.4174 -0.7325
 5137SOL    HW227048   2.498   3.604   9.430  0.8544 -0.2150  0.9387
 5138SOL     OW27049   4.362   2.392   3.835  0.1646  0.1048 -0.1105
 5138SOL    HW127050   4.392   2.392   3.744 -1.2433  2.0212 -0.5772
 5138SOL    HW227051   4.433   2.450   3.863 -0.9850  2.4656 -2.0533
 5139SOL     OW27052   3.407   2.965   7.471  0.5087  0.1480 -0.0923
 5139SOL    HW127053   3.426   3.059   7.466 -0.9052  0.5542  1.9660
 5139SOL    HW227054   3.313   2.976   7.451  0.3240 -4.3934 -1.6882
 5140SOL     OW27055   2.737   2.621   0.006 -0.0562 -0.2111 -0.3996
 5140SOL    HW127056   2.804   2.682  17.718 -0.2343  1.2584  2.1359
 5140SOL    HW227057   2.781   2.577   0.079 -1.2876  0.2375  0.6229
 5141SOL     OW27058   1.190   0.964   3.578 -0.2283 -0.1925 -0.2253
 5141SOL    HW127059   1.221   0.920   3.499  0.7864 -0.4385  0.3160
 5141SOL    HW227060   1.128   1.026   3.539  0.8141  0.6739 -0.4801
 5142SOL     OW27061   3.673   2.035  14.763  0.3777  0.7892 -0.0913
 5142SOL    HW127062   3.761   2.039  14.727  0.0797  1.3836 -0.7595
 5142SOL    HW227063   3.623   1.994  14.692  1.0153  0.4334 -0.3317
 5143SOL     OW27064   0.698   1.370   4.779  0.3718  0.6097 -0.6854
 5143SOL    HW127065   0.721   1.389   4.688  1.1489  2.8350 -0.0146
 5143SOL    HW227066   0.605   1.352   4.772  0.6052 -1.0326  0.2589
 5144SOL     OW27067   2.859   0.114  15.840 -0.2031 -0.2814 -0.1206
 5144SOL    HW127068   2.881   0.166  15.763  0.9225  0.3982  0.6558
 5144SOL    HW227069   2.934   0.070  15.880  1.0130  1.4052 -0.5572
 5145SOL     OW27070   1.249   0.221   7.608  0.2041  0.0609 -0.7393
 5145SOL    HW127071   1.191   0.274   7.553  0.3146  2.4584  1.4915
 5145SOL    HW227072   1.212   0.216   7.696  0.4488 -0.9037 -0.6848
 5146SOL     OW27073   4.456   0.260   4.524 -0.4404 -0.2250  0.2260
 5146SOL    HW127074   4.476   0.337   4.470 -0.1983 -0.7767 -0.4653
 5146SOL    HW227075   4.377   0.228   4.480 -0.7478 -1.4151  1.6461
 5147SOL     OW27076   4.187   0.330   6.649 -0.4671 -0.0439  0.2780
 5147SOL    HW127077   4.179   0.237   6.669 -2.6638 -0.0843 -0.7234
 5147SOL    HW227078   4.260   0.327   6.587 -0.1011  0.4116  0.6859
 5148SOL     OW27079   0.994   4.489   8.289 -0.5685 -0.3233 -0.4787
 5148SOL    HW127080   1.037   4.421   8.238 -2.5670 -0.2765 -2.2448
 5148SOL    HW227081   0.904   4.456   8.299 -1.4641  2.4671  0.9625
 5149SOL     OW27082   1.853   3.781   6.672 -0.6615  0.1521 -0.3426
 5149SOL    HW127083   1.869   3.739   6.756  0.0608  0.3270 -0.3875
 5149SOL    HW227084   1.759   3.785   6.654 -0.7922 -1.1300  0.0993
 5150SOL     OW27085   0.670   4.587   1.945  0.3931  0.1731 -0.4455
 5150SOL    HW127086   0.655   4.495   1.927 -1.1360  0.3392 -0.0025
 5150SOL    HW227087   0.755   4.572   1.986 -0.2518  0.7916  1.1275
 5151SOL     OW27088   0.596   0.343   7.415 -0.1570 -0.3239  0.3981
 5151SOL    HW127089   0.569   0.290   7.341 -0.6566  0.1510  0.2420
 5151SOL    HW227090   0.520   0.389   7.450  0.9788  0.2760  2.1271
 5152SOL     OW27091   2.178   3.038   5.745 -0.2529 -0.0426 -0.0646
 5152SOL    HW127092   2.226   2.989   5.678  0.1824 -1.3103  1.1608
 5152SOL    HW227093   2.192   2.980   5.821 -0.7303  0.0405  0.0829
 5153SOL     OW27094   2.203   2.685   6.905  0.0038  0.0866 -0.8095
 5153SOL    HW127095   2.260   2.679   6.828 -0.9066  1.0476 -1.5709
 5153SOL    HW227096   2.157   2.601   6.898 -0.9424  0.6975 -2.1413
 5154SOL     OW27097   0.202   4.257   3.133 -0.2906  0.5275  0.0687
 5154SOL    HW127098   0.174   4.205   3.208 -0.9395 -0.0301 -0.5492
 5154SOL    HW227099   0.279   4.289   3.179  0.0615  0.5398 -0.5283
 5155SOL     OW27100   0.634   0.812  15.328 -0.4585 -0.1884  0.3073
 5155SOL    HW127101   0.594   0.855  15.253  0.0138 -0.4346 -0.0830
 5155SOL    HW227102   0.565   0.752  15.359  1.1670 -1.6499  1.0849
 5156SOL     OW27103   1.030   1.204  11.904  0.6066  0.1629  0.6804
 5156SOL    HW127104   1.037   1.139  11.834 -0.4459  1.3182 -0.4895
 5156SOL    HW227105   0.938   1.206  11.931  0.2200  1.9606 -0.8496
 5157SOL     OW27106   4.327   2.047  16.416 -0.4018  0.8873 -0.0561
 5157SOL    HW127107   4.386   2.119  16.399 -1.3170  1.1136 -2.2710
 5157SOL    HW227108   4.389   1.985  16.454  0.5729  1.2616 -1.0700
 5158SOL     OW27109   3.370   1.218   4.562  0.6519  0.2548  0.5944
 5158SOL    HW127110   3.386   1.194   4.653  2.5372 -1.8226 -0.2577
 5158SOL    HW227111   3.409   1.304   4.551  1.9709 -0.1004  2.4391
 5159SOL     OW27112   3.827   0.834   7.067  0.4486  0.0389 -0.1369
 5159SOL    HW127113   3.804   0.841   6.974 -2.1799  0.6244  0.5416
 5159SOL    HW227114   3.745   0.852   7.114  1.9111 -0.4959  2.5697
 5160SOL     OW27115   3.327   2.701   7.670 -0.3394  0.2584 -0.0248
 5160SOL    HW127116   3.363   2.789   7.662  0.4633  0.0106  0.9069
 5160SOL    HW227117   3.364   2.682   7.756 -0.0650  0.1668 -0.1630
 5161SOL     OW27118   0.355   0.227  11.470 -0.0365  0.8119  0.2913
 5161SOL    HW127119   0.442   0.216  11.509 -0.2439 -0.4170  0.4296
 5161SOL    HW227120   0.377   0.224  11.377  3.3683  0.5164  1.0761
 5162SOL     OW27121   2.193   1.995   5.128 -0.0267 -0.0048 -0.1070
 5162SOL    HW127122   2.285   2.003   5.104  0.5662 -1.8968  1.5534
 5162SOL    HW227123   2.153   1.983   5.042  2.0181  1.4082 -1.2391
 5163SOL     OW27124   2.236   3.880   2.895 -0.6038  0.6073 -0.0752
 5163SOL    HW127125   2.283   3.908   2.974  0.7342  1.3764 -1.1491
 5163SOL    HW227126   2.286   3.940   2.840 -0.7512  1.4664  0.7158
 5164SOL     OW27127   1.080   2.083   3.200 -0.2427 -0.4601 -0.6345
 5164SOL    HW127128   1.169   2.051   3.184  0.1783  0.4708 -0.1187
 5164SOL    HW227129   1.085   2.162   3.146  0.3249 -2.3643 -3.3956
 5165SOL     OW27130   3.499   0.351   7.313 -0.5737 -0.2968 -0.2046
 5165SOL    HW127131   3.573   0.349   7.253 -0.6790 -0.2709 -0.3345
 5165SOL    HW227132   3.547   0.334   7.394 -1.2807 -2.3764 -0.2052
 5166SOL     OW27133   3.389   4.122   5.667 -0.2906 -0.0379  0.8870
 5166SOL    HW127134   3.430   4.123   5.580 -0.9394  1.1293  0.5944
 5166SOL    HW227135   3.311   4.070   5.649 -0.0045 -0.3663  0.5910
 5167SOL     OW27136   2.651   1.070   9.439  0.4321  0.0837 -0.5581
 5167SOL    HW127137   2.644   1.136   9.509  1.6918 -0.1476 -0.2171
 5167SOL    HW227138   2.733   1.093   9.396  0.5792 -0.5514 -0.6069
 5168SOL     OW27139   1.327   2.957  11.335  0.1289 -0.0987 -0.3338
 5168SOL    HW127140   1.308   2.949  11.429  0.3572 -1.2858 -0.3808
 5168SOL    HW227141   1.420   2.976  11.345 -0.2844  1.4591  0.5075
 5169SOL     OW27142   4.632   3.178   1.445 -0.4887 -0.3161 -0.3370
 5169SOL    HW127143   4.602   3.186   1.354 -0.9741  1.4825 -0.0225
 5169SOL    HW227144   4.702   3.114   1.433  0.5194  0.5227  1.1313
 5170SOL     OW27145   0.900   1.445   1.999 -0.2684 -0.0465 -0.0227
 5170SOL    HW127146   0.818   1.419   2.039  0.0259 -0.6227  0.2107
 5170SOL    HW227147   0.955   1.370   2.022 -0.6083  0.6326  2.9042
 5171SOL     OW27148   1.077   0.292   3.234  0.2307 -0.0436  0.0575
 5171SOL    HW127149   1.093   0.210   3.188  0.5574  0.6215 -1.0164
 5171SOL    HW227150   1.146   0.350   3.201  0.5234 -1.2894 -1.5160
 5172SOL     OW27151   2.903   1.705   8.793 -0.2429 -0.6944  0.2243
 5172SOL    HW127152   2.845   1.777   8.816 -0.0979 -0.0503 -1.4289
 5172SOL    HW227153   2.880   1.640   8.860  0.8902  0.2738  1.5599
 5173SOL     OW27154   0.990   1.198  15.793  0.0710  0.0150 -0.2631
 5173SOL    HW127155   0.939   1.136  15.740  1.9998 -2.0319  0.2821
 5173SOL    HW227156   1.077   1.160  15.778 -0.8658 -2.3139  0.1443
 5174SOL     OW27157   4.702   0.666  12.656  0.2679 -0.5301 -0.0806
 5174SOL    HW127158   4.699   0.635  12.747  3.4920  0.2241  0.2564
 5174SOL    HW227159   4.642   0.740  12.651 -1.0451 -1.5267  0.6956
 5175SOL     OW27160   0.641   1.278   3.025 -0.7946 -0.4915 -0.0271
 5175SOL    HW127161   0.675   1.338   2.960 -0.5066 -0.6216  0.0029
 5175SOL    HW227162   0.551   1.311   3.026 -1.2212 -1.6608  0.9530
 5176SOL     OW27163   3.376   4.619   2.830 -0.3345  0.4966 -0.0507
 5176SOL    HW127164   3.391   4.541   2.885  2.4348 -1.8788 -4.1922
 5176SOL    HW227165   3.282   4.612   2.816 -0.5867 -0.5059  2.1293
 5177SOL     OW27166   1.298   0.509   1.701 -0.5325 -0.2727 -0.3406
 5177SOL    HW127167   1.260   0.469   1.623 -1.9100  2.0487 -0.8859
 5177SOL    HW227168   1.237   0.583   1.710  0.4108  0.4205  0.4091
 5178SOL     OW27169   1.502   0.813   6.728 -0.6059 -0.4888  0.0373
 5178SOL    HW127170   1.539   0.870   6.795  0.6531  1.1345 -2.0497
 5178SOL    HW227171   1.465   0.736   6.772 -1.1790 -0.3193 -0.1587
 5179SOL     OW27172   2.628   3.391   1.435 -0.4218  0.2811 -0.4958
 5179SOL    HW127173   2.613   3.374   1.342 -1.9203  0.0127 -0.1963
 5179SOL    HW227174   2.536   3.403   1.458 -0.1965 -1.8303  1.5003
 5180SOL     OW27175   0.280   1.493   6.500 -0.3677  0.2317 -0.6452
 5180SOL    HW127176   0.361   1.509   6.450 -0.2722  0.6282 -0.3601
 5180SOL    HW227177   0.215   1.536   6.445  2.1937  1.9957 -2.3174
 5181SOL     OW27178   3.081   3.008  15.271 -0.0567 -0.4368  0.0370
 5181SOL    HW127179   2.995   2.974  15.245  0.0382 -0.8384  0.2537
 5181SOL    HW227180   3.131   2.927  15.279 -0.1525 -0.6066 -1.1534
 5182SOL     OW27181   2.493   3.739  11.837  0.2636 -0.1874  0.5660
 5182SOL    HW127182   2.541   3.810  11.880  1.2492  0.4788 -1.6408
 5182SOL    HW227183   2.560   3.682  11.799  1.5867 -0.0361  2.6676
 5183SOL     OW27184   1.890   2.301   2.448 -0.1823  0.3960 -0.3720
 5183SOL    HW127185   1.864   2.337   2.363 -0.9892 -1.2906 -0.8206
 5183SOL    HW227186   1.871   2.208   2.440 -0.8967  0.5357 -0.2884
 5184SOL     OW27187   3.711   3.031   6.329  0.7552  0.0390 -0.2253
 5184SOL    HW127188   3.725   3.112   6.377  1.3639  1.3478 -2.6385
 5184SOL    HW227189   3.726   2.969   6.401 -1.1108  0.8624  0.8445
 5185SOL     OW27190   0.104   3.754   1.898  0.4767 -0.1439 -0.4161
 5185SOL    HW127191   0.093   3.733   1.805 -1.1348 -0.3463 -0.1741
 5185SOL    HW227192   0.141   3.843   1.898 -1.8850  0.8311 -2.3031
 5186SOL     OW27193   3.342   3.138   9.584 -0.4050 -0.4602  0.4352
 5186SOL    HW127194   3.381   3.183   9.509 -0.8081 -0.0485  0.4737
 5186SOL    HW227195   3.382   3.185   9.657 -0.0358 -0.1979  0.0625
 5187SOL     OW27196   0.580   4.282  13.675  0.4126 -0.3986  0.2166
 5187SOL    HW127197   0.636   4.357  13.697 -0.2483  0.4249 -0.8927
 5187SOL    HW227198   0.547   4.261  13.763 -1.1470 -1.3371 -0.6070
 5188SOL     OW27199   0.364   0.898   4.270 -0.0342 -0.1658  0.2573
 5188SOL    HW127200   0.448   0.894   4.315  0.9606 -2.6305 -1.7978
 5188SOL    HW227201   0.310   0.875   4.345 -1.0706 -0.2237 -0.5014
 5189SOL     OW27202   3.413   2.377  14.452  0.0714 -0.1762 -0.4035
 5189SOL    HW127203   3.457   2.453  14.413  2.0376 -1.0772  0.0385
 5189SOL    HW227204   3.363   2.351  14.375  0.6322 -3.5022  0.3508
 5190SOL     OW27205   3.000   0.799  12.568  0.1374 -1.0556  0.5227
 5190SOL    HW127206   3.052   0.731  12.526 -0.7906  0.6408 -3.4288
 5190SOL    HW227207   3.000   0.861  12.495  0.9538 -1.2979  0.3175
 5191SOL     OW27208   3.612   4.307   3.989  0.1685  0.0551 -0.0690
 5191SOL    HW127209   3.538   4.366   3.973  0.9876  1.4859  1.3494
 5191SOL    HW227210   3.586   4.224   3.949  0.6785 -0.6208  0.9926
 5192SOL     OW27211   2.844   2.825  17.230  0.3640 -0.2327  0.4552
 5192SOL    HW127212   2.822   2.740  17.268  1.2255 -1.1154 -1.0102
 5192SOL    HW227213   2.874   2.786  17.148  0.5178  0.6413  0.0953
 5193SOL     OW27214   4.060   3.167   8.562 -0.2399 -0.0874 -0.1004
 5193SOL    HW127215   4.070   3.079   8.524 -1.0746 -0.6367  0.9470
 5193SOL    HW227216   3.993   3.129   8.619  1.0769 -1.2016  0.7170
 5194SOL     OW27217   2.446   2.928  17.024 -0.2698  0.6520  0.0537
 5194SOL    HW127218   2.526   2.964  17.061  0.0121 -2.6533  2.6155
 5194SOL    HW227219   2.387   2.935  17.099  0.6202  0.8199  0.7388
 5195SOL     OW27220   3.789   2.538   5.059  1.0419  0.0599  0.0394
 5195SOL    HW127221   3.880   2.557   5.080  1.7543 -0.1983 -2.8145
 5195SOL    HW227222   3.748   2.616   5.095  1.4279  0.2462  0.0794
 5196SOL     OW27223   0.402   3.301   1.972  0.3134  0.1207 -0.0658
 5196SOL    HW127224   0.415   3.341   2.058 -0.8466  0.0724  0.1424
 5196SOL    HW227225   0.323   3.354   1.963  0.2578  0.4920  2.4857
 5197SOL     OW27226   0.435   4.209   3.297  0.3201  0.2749 -0.0276
 5197SOL    HW127227   0.512   4.233   3.245 -0.3391 -1.3944 -1.7542
 5197SOL    HW227228   0.446   4.257   3.380  0.4245  2.7947 -1.5110
 5198SOL     OW27229   4.714   4.439   2.083 -0.4608  0.4691  0.0003
 5198SOL    HW127230   4.730   4.447   1.989 -1.4578 -1.3395 -0.3124
 5198SOL    HW227231   4.671   4.524   2.097  1.2829  0.8369  3.2191
 5199SOL     OW27232   3.647   0.371   7.036  0.1366 -0.2668 -0.3077
 5199SOL    HW127233   3.716   0.437   7.030 -2.0934  2.1280  0.4027
 5199SOL    HW227234   3.688   0.300   7.084 -3.0412 -1.0766  1.1999
 5200SOL     OW27235   0.458   0.722   8.907  0.2889  0.2070  0.5605
 5200SOL    HW127236   0.521   0.671   8.857  0.0754 -0.0003  0.5027
 5200SOL    HW227237   0.376   0.675   8.893 -0.4583  1.1542  1.6889
 5201SOL     OW27238   4.273   1.357  12.392  0.2261  0.1041  0.7205
 5201SOL    HW127239   4.306   1.445  12.409 -1.9492  0.8165  1.2397
 5201SOL    HW227240   4.319   1.318  12.466  0.9653  0.6572  0.5519
 5202SOL     OW27241   2.821   0.436   8.366 -0.2917  0.2168  0.2381
 5202SOL    HW127242   2.900   0.445   8.419 -0.1409  0.3484 -0.0079
 5202SOL    HW227243   2.781   0.361   8.411  0.5622  0.2404  1.0197
 5203SOL     OW27244   2.522   2.322   1.291  0.2289 -0.0985 -0.6414
 5203SOL    HW127245   2.433   2.333   1.324  0.8278  0.7148  0.7156
 5203SOL    HW227246   2.555   2.404   1.328 -1.8917  1.2565 -1.7584
 5204SOL     OW27247   3.767   2.279   5.346  0.5626  0.5098  0.3155
 5204SOL    HW127248   3.787   2.252   5.436  3.5524 -2.1413 -1.1728
 5204SOL    HW227249   3.836   2.343   5.329  0.0761  1.2067  0.9386
 5205SOL     OW27250   4.515   4.618  10.049 -0.2206  0.1208  0.4344
 5205SOL    HW127251   4.511   4.675  10.127  1.6702 -0.3814  0.8977
 5205SOL    HW227252   4.539   4.534  10.089  0.0886  0.9099  1.9342
 5206SOL     OW27253   2.015   0.376   5.495  0.3525 -0.0460  0.3525
 5206SOL    HW127254   2.098   0.359   5.449 -0.2248 -2.1995  0.1371
 5206SOL    HW227255   2.038   0.441   5.561 -0.8405 -0.1930  0.8975
 5207SOL     OW27256   3.934   0.486  16.564  0.0758  0.0851  0.4238
 5207SOL    HW127257   3.982   0.427  16.506 -0.2220  1.2633 -1.0255
 5207SOL    HW227258   3.997   0.496  16.635  1.1401  1.9579 -0.7741
 5208SOL     OW27259   0.635   1.301   7.806 -0.2606  0.1367  0.1901
 5208SOL    HW127260   0.719   1.340   7.782 -1.1404  0.8863 -1.6839
 5208SOL    HW227261   0.652   1.207   7.813 -0.4689  0.0997  0.2128
 5209SOL     OW27262   2.928   0.066   7.178 -0.3839  0.3831  0.1619
 5209SOL    HW127263   2.948   0.002   7.246  0.2524  0.2573 -0.1455
 5209SOL    HW227264   2.904   0.146   7.225  2.4416  2.1961 -1.5100
 5210SOL     OW27265   0.060   2.377   9.587 -0.2093 -0.1397  0.1424
 5210SOL    HW127266   0.141   2.410   9.626 -0.5420  0.8243  0.0289
 5210SOL    HW227267   0.094   2.299   9.544  1.0078  1.8146 -2.4451
 5211SOL     OW27268   2.007   4.657   7.923  0.4195  0.1573  0.0986
 5211SOL    HW127269   2.055   4.696   7.996  1.5531 -1.4995  0.2275
 5211SOL    HW227270   1.922   4.664   7.967 -0.2286 -0.3883 -1.0683
 5212SOL     OW27271   3.603   3.482  16.603 -0.0119 -0.0089 -0.5688
 5212SOL    HW127272   3.511   3.457  16.604 -0.5830  2.1549  0.8936
 5212SOL    HW227273   3.618   3.479  16.508 -0.5312  0.2940 -0.6543
 5213SOL     OW27274   2.711   0.106   1.394  0.0465 -0.5424 -0.1434
 5213SOL    HW127275   2.711   0.186   1.341  0.0418  0.7221  1.8074
 5213SOL    HW227276   2.677   0.142   1.475  0.7728  1.1975 -0.6190
 5214SOL     OW27277   4.341   0.297   2.106 -0.2267  0.2002 -0.0555
 5214SOL    HW127278   4.326   0.256   2.021 -1.5683 -0.4472  0.4852
 5214SOL    HW227279   4.260   0.348   2.095 -0.9098 -1.0278 -0.6721
 5215SOL     OW27280   0.652   4.342   6.448  0.1864  0.6536  0.0765
 5215SOL    HW127281   0.688   4.270   6.500 -2.5817 -1.6750 -1.1398
 5215SOL    HW227282   0.563   4.317   6.474  0.6395  0.8221  1.7546
 5216SOL     OW27283   0.519   1.008  11.966  0.4495  0.0221  0.1632
 5216SOL    HW127284   0.500   1.072  12.035 -0.3845  0.6633 -0.6704
 5216SOL    HW227285   0.450   1.025  11.902  2.2661  1.1423 -1.5139
 5217SOL     OW27286   2.666   2.382  17.608  0.4227 -0.4137  0.3257
 5217SOL    HW127287   2.675   2.322  17.682  1.5334 -1.5810 -0.7451
 5217SOL    HW227288   2.694   2.465  17.645  1.6210 -1.2741  1.3148
 5218SOL     OW27289   4.699   4.618  11.352  0.3241  0.3497  0.1544
 5218SOL    HW127290   4.640   4.553  11.390 -0.7176  0.3732 -1.4374
 5218SOL    HW227291   4.688   4.697  11.405 -1.8988  0.8458 -1.0430
 5219SOL     OW27292   1.133   4.341   9.386 -0.3232  0.0032 -1.0369
 5219SOL    HW127293   1.187   4.271   9.350 -0.1223 -0.7168  0.6746
 5219SOL    HW227294   1.114   4.398   9.311 -1.9330  0.8235 -0.0087
 5220SOL     OW27295   4.619   3.946  15.672 -0.0268  0.2321 -0.6937
 5220SOL    HW127296   4.594   3.983  15.756 -0.6592 -1.2581 -0.2275
 5220SOL    HW227297   4.662   4.024  15.635  3.1966 -0.6971  1.0766
 5221SOL     OW27298   3.474   4.709   4.068  0.0498  0.0194 -0.1241
 5221SOL    HW127299   3.565   4.687   4.047  0.1929 -0.8343  1.3647
 5221SOL    HW227300   3.478   4.725   4.162 -0.9029  2.3267 -0.4756
 5222SOL     OW27301   4.302   3.967   5.891 -0.6712  0.2387  0.4824
 5222SOL    HW127302   4.229   4.029   5.897 -1.1957 -0.2348 -1.0753
 5222SOL    HW227303   4.266   3.884   5.921 -0.3646 -0.2223 -0.4465
 5223SOL     OW27304   1.936   2.464  14.191  0.3888  0.1692  0.3209
 5223SOL    HW127305   1.998   2.532  14.166  1.5858 -1.6418 -1.6395
 5223SOL    HW227306   1.851   2.498  14.161 -0.3644 -0.9127  1.1916
 5224SOL     OW27307   1.437   1.024   6.015 -0.2750  0.6051  0.3910
 5224SOL    HW127308   1.404   0.935   6.004  0.8907  0.2081  0.1898
 5224SOL    HW227309   1.514   1.019   5.959  0.3585  2.4642  1.1020
 5225SOL     OW27310   0.407   4.270   0.907  0.6434  0.2704 -0.8533
 5225SOL    HW127311   0.391   4.287   1.000 -0.3429 -0.1757 -0.9366
 5225SOL    HW227312   0.402   4.175   0.898  0.8524  0.2859 -1.1331
 5226SOL     OW27313   4.337   0.269  10.095  0.3489  0.4109 -0.5790
 5226SOL    HW127314   4.368   0.260  10.185  0.3019  1.3593 -0.4742
 5226SOL    HW227315   4.407   0.233  10.040 -0.8639 -2.4757 -0.2503
 5227SOL     OW27316   4.408   0.646   9.263  0.1819  0.3735  0.4056
 5227SOL    HW127317   4.366   0.731   9.248  0.7798  0.7502  0.8938
 5227SOL    HW227318   4.408   0.614   9.173 -2.2809 -0.7842  0.8287
 5228SOL     OW27319   1.284   3.728   3.936  0.2184 -0.1702  0.2100
 5228SOL    HW127320   1.205   3.741   3.987  0.3371  2.9309 -0.4018
 5228SOL    HW227321   1.247   3.742   3.849 -2.3852  0.8698  1.5095
 5229SOL     OW27322   4.718   0.597  12.929  0.4094 -0.0469  0.1655
 5229SOL    HW127323   4.704   0.607  13.023  0.0867 -0.8132  0.1983
 5229SOL    HW227324   0.077   0.583  12.926  0.4224  0.1403 -0.2804
 5230SOL     OW27325   3.321   1.345   5.079 -0.2306  0.1005  0.0794
 5230SOL    HW127326   3.327   1.400   5.000 -0.6832  0.3420  0.2083
 5230SOL    HW227327   3.315   1.261   5.033 -2.7159  0.1370  0.3037
 5231SOL     OW27328   1.461   3.264   5.707 -0.3493  0.0840 -0.1036
 5231SOL    HW127329   1.405   3.282   5.632  0.1495 -0.6992 -0.6677
 5231SOL    HW227330   1.509   3.186   5.678 -0.8640  0.2159 -1.3026
 5232SOL     OW27331   3.953   1.266   0.053  0.0442  0.4977  0.4860
 5232SOL    HW127332   3.979   1.329   0.120 -1.3942 -0.5823  2.0576
 5232SOL    HW227333   3.981   1.181   0.086  0.5175  0.4246 -0.1034
 5233SOL     OW27334   0.909   0.948   6.241 -0.4854  0.2591  0.0445
 5233SOL    HW127335   0.958   0.897   6.306 -0.3803  0.2821 -0.0171
 5233SOL    HW227336   0.975   0.975   6.178 -1.0645  0.1328 -0.6225
 5234SOL     OW27337   1.284   2.954  11.599 -0.2446 -0.0707 -0.5892
 5234SOL    HW127338   1.335   2.906  11.664 -1.7990 -1.0756 -0.1100
 5234SOL    HW227339   1.289   3.041  11.640 -0.8426  0.6895 -2.1232
 5235SOL     OW27340   4.418   4.274   5.862 -0.3203  0.3987 -0.3037
 5235SOL    HW127341   4.488   4.312   5.808  0.6360  0.5644  1.0499
 5235SOL    HW227342   4.478   4.220   5.913  0.6288 -0.3448 -2.1817
 5236SOL     OW27343   1.038   2.150  16.532  0.3217 -0.1812  0.0547
 5236SOL    HW127344   1.003   2.237  16.551  1.8655 -0.0050  2.0621
 5236SOL    HW227345   0.955   2.107  16.555 -0.7273  0.7176 -2.1191
 5237SOL     OW27346   2.663   4.127  12.066 -0.9760 -1.0411  0.1164
 5237SOL    HW127347   2.686   4.157  12.154  0.4798 -1.5416 -0.0924
 5237SOL    HW227348   2.740   4.080  12.035 -0.5881 -1.2267  1.3541
 5238SOL     OW27349   3.802   1.923   7.701  0.6504  0.0292  0.1873
 5238SOL    HW127350   3.895   1.920   7.679  0.5604 -0.4378 -0.1318
 5238SOL    HW227351   3.798   1.880   7.786 -0.7306 -3.1443 -1.4938
 5239SOL     OW27352   0.788   3.643   3.981  0.0604  0.3191  0.2190
 5239SOL    HW127353   0.725   3.707   3.946 -0.5667  0.8789  2.3909
 5239SOL    HW227354   0.833   3.619   3.900 -2.9384 -2.9598 -0.4330
 5240SOL     OW27355   2.752   4.114   9.218 -0.0098  0.0805  0.0979
 5240SOL    HW127356   2.657   4.102   9.228 -0.2797  0.3034 -2.2960
 5240SOL    HW227357   2.784   4.025   9.227  0.7301  0.1007 -2.4246
 5241SOL     OW27358   3.883   1.400   5.272  0.7649 -0.2538 -0.0097
 5241SOL    HW127359   3.856   1.382   5.182 -2.0356 -2.5928  1.3056
 5241SOL    HW227360   3.813   1.456   5.306  1.0014 -0.8538  1.4933
 5242SOL     OW27361   3.528   4.633   2.590  0.3181 -0.1104  0.1222
 5242SOL    HW127362   3.486   4.617   2.674  0.0904  2.6680  0.5356
 5242SOL    HW227363   3.458   4.656   2.529  1.5736 -0.1489 -1.3341
 5243SOL     OW27364   0.607   0.500   8.826 -0.1903 -0.2526 -0.6671
 5243SOL    HW127365   0.692   0.511   8.785 -0.1099  1.1852 -0.1152
 5243SOL    HW227366   0.599   0.409   8.854 -0.9209 -0.1031 -0.3718
 5244SOL     OW27367   2.571   4.687  12.017  0.4150  0.7126 -0.0375
 5244SOL    HW127368   2.561   4.616  11.952 -1.6830  0.5598  0.4464
 5244SOL    HW227369   2.590   4.647  12.101 -1.8524  0.6494  0.4470
 5245SOL     OW27370   3.324   3.988  16.045  0.3691 -0.2718  0.5664
 5245SOL    HW127371   3.389   3.954  16.107  0.4397 -4.1693 -1.6071
 5245SOL    HW227372   3.250   3.933  16.073  1.1827 -1.5559  0.2087
 5246SOL     OW27373   0.266   1.206  10.113 -0.1166  0.0379  0.3695
 5246SOL    HW127374   0.332   1.247  10.168  2.6872 -2.8568 -0.8005
 5246SOL    HW227375   0.213   1.273  10.070 -0.3479 -0.0164  0.5724
 5247SOL     OW27376   3.114   3.064  16.289  0.2502  0.0205  0.4986
 5247SOL    HW127377   3.095   2.994  16.226 -1.0367  0.1939  0.6978
 5247SOL    HW227378   3.075   3.029  16.369 -0.3052 -3.0397 -1.0906
 5248SOL     OW27379   2.900   3.371   4.572  0.3547  0.3226  0.4138
 5248SOL    HW127380   2.855   3.287   4.573  0.9223  0.0237  0.8493
 5248SOL    HW227381   2.969   3.346   4.510  0.6147 -0.7543  1.1297
 5249SOL     OW27382   4.611   3.779   3.597  0.1075  0.0306  0.1827
 5249SOL    HW127383   4.524   3.760   3.630 -0.1683  0.9237 -0.0350
 5249SOL    HW227384   4.600   3.841   3.525 -0.6321  0.3188  0.5478
 5250SOL     OW27385   0.358   1.928   6.952 -0.3944  0.2914 -0.1678
 5250SOL    HW127386   0.421   1.898   7.018  1.2002  0.0726 -1.8125
 5250SOL    HW227387   0.376   2.021   6.941 -2.6232  0.3603 -3.1662
 5251SOL     OW27388   2.962   3.721   1.603 -0.8441  0.3069 -0.4613
 5251SOL    HW127389   2.943   3.628   1.588 -1.7392  0.6125 -1.2004
 5251SOL    HW227390   2.975   3.709   1.697  2.2167  1.4109 -0.7417
 5252SOL     OW27391   0.080   3.394  15.960 -0.4810 -0.0311 -0.0724
 5252SOL    HW127392   0.134   3.453  16.012  0.8793 -0.2354 -1.2429
 5252SOL    HW227393   0.024   3.359  16.028  0.6453 -1.9813 -0.1516
 5253SOL     OW27394   3.137   3.672   2.384 -0.1168 -0.5348  0.1283
 5253SOL    HW127395   3.055   3.623   2.390 -0.3001 -0.1291  0.9082
 5253SOL    HW227396   3.202   3.604   2.402 -0.2543 -0.5014  0.7596
 5254SOL     OW27397   4.311   3.675   2.292 -0.0753  0.3177  0.0346
 5254SOL    HW127398   4.368   3.746   2.322 -0.4930  1.0643 -0.9388
 5254SOL    HW227399   4.337   3.672   2.200  2.4798  0.7289  0.7511
 5255SOL     OW27400   0.766   2.917   2.304 -0.4313  0.1699  0.9020
 5255SOL    HW127401   0.671   2.908   2.300 -0.4309 -0.4337  2.1035
 5255SOL    HW227402   0.799   2.931   2.215 -1.5760  3.5210  1.0032
 5256SOL     OW27403   2.452   4.546  15.730  0.5533  0.3966 -0.3723
 5256SOL    HW127404   2.518   4.513  15.791 -0.2510 -0.4558  0.0295
 5256SOL    HW227405   2.423   4.627  15.771  3.3192  0.1232  2.1378
 5257SOL     OW27406   0.872   2.783   3.024 -0.4540 -0.4985 -0.0026
 5257SOL    HW127407   0.928   2.744   3.091 -1.6893 -0.1327  1.2526
 5257SOL    HW227408   0.909   2.741   2.947  0.6410 -0.2387  0.3835
 5258SOL     OW27409   3.377   2.743  16.981  0.2023 -0.6168 -0.5573
 5258SOL    HW127410   3.353   2.682  16.912  0.8252 -0.4517 -0.9172
 5258SOL    HW227411   3.468   2.718  16.995  0.0250 -1.0139 -0.1145
 5259SOL     OW27412   2.677   2.211  12.123 -0.2385 -0.1463 -0.0040
 5259SOL    HW127413   2.704   2.268  12.195 -2.0240  2.3512 -1.3331
 5259SOL    HW227414   2.763   2.186  12.089 -0.7662  0.0677 -1.4911
 5260SOL     OW27415   2.959   4.348  10.809 -0.2703 -0.0785 -0.3087
 5260SOL    HW127416   3.010   4.429  10.810  1.7275 -1.3357 -0.0068
 5260SOL    HW227417   3.019   4.283  10.774  0.6139  0.1056  0.8800
 5261SOL     OW27418   1.116   1.036   6.101  0.0994  0.2410  0.2660
 5261SOL    HW127419   1.197   1.049   6.150  1.1770 -1.3646 -1.1197
 5261SOL    HW227420   1.141   0.969   6.038 -2.9158 -1.3565  0.7733
 5262SOL     OW27421   3.039   0.715   8.507  0.5308 -0.2917 -0.6881
 5262SOL    HW127422   3.010   0.632   8.544  0.9934 -0.7698 -1.4008
 5262SOL    HW227423   3.090   0.688   8.431 -2.0397 -1.5224 -1.9555
 5263SOL     OW27424   3.812   4.173   7.619 -0.8117 -0.0365 -0.2226
 5263SOL    HW127425   3.741   4.127   7.575  1.5997 -1.8968 -2.1737
 5263SOL    HW227426   3.797   4.265   7.595 -1.5933  0.0246  0.5166
 5264SOL     OW27427   1.448   2.506  11.421  0.3072  0.1667 -0.5448
 5264SOL    HW127428   1.478   2.596  11.431  1.6907  0.1444 -4.3220
 5264SOL    HW227429   1.355   2.521  11.437  0.5586  1.3422 -0.2405
 5265SOL     OW27430   1.448   0.484   8.630 -0.5922  0.2601  0.0350
 5265SOL    HW127431   1.396   0.439   8.563 -1.4160 -0.1947  0.9812
 5265SOL    HW227432   1.384   0.542   8.669 -0.3032  1.1530 -0.8144
 5266SOL     OW27433   0.027   3.014   8.951  0.1394  0.0392  0.4228
 5266SOL    HW127434   0.100   3.071   8.976 -1.6275  1.8316  1.5943
 5266SOL    HW227435   0.020   2.970   9.036 -2.4069  0.9069  0.6731
 5267SOL     OW27436   4.310   0.711   1.938 -0.6655  0.0775  0.0611
 5267SOL    HW127437   4.328   0.759   2.019  0.0732 -0.8205  0.4326
 5267SOL    HW227438   4.232   0.753   1.901 -0.1193  1.9957  1.0499
 5268SOL     OW27439   1.345   1.837   7.408  0.1833  0.2517  0.0529
 5268SOL    HW127440   1.329   1.845   7.502  1.9609 -0.0389  0.3758
 5268SOL    HW227441   1.257   1.848   7.373  0.5611 -0.3975 -1.0851
 5269SOL     OW27442   2.848   3.418   8.426  0.4307 -0.0233  0.3834
 5269SOL    HW127443   2.903   3.493   8.404  0.4931  0.6917  3.0051
 5269SOL    HW227444   2.818   3.379   8.344 -0.9976  2.8487 -0.4347
 5270SOL     OW27445   1.450   3.499  15.486  0.3915 -0.5013  0.0119
 5270SOL    HW127446   1.402   3.578  15.460 -2.4630 -2.4110 -0.5687
 5270SOL    HW227447   1.495   3.479  15.404 -1.0448 -2.5922 -0.2720
 5271SOL     OW27448   2.402   2.834   0.182  0.4600  0.4877 -0.3580
 5271SOL    HW127449   2.372   2.778   0.111 -0.7941  1.3146 -0.4708
 5271SOL    HW227450   2.464   2.886   0.130  1.5668  0.4402  0.9072
 5272SOL     OW27451   0.678   1.292   2.111 -0.1707  0.2077  0.2906
 5272SOL    HW127452   0.678   1.206   2.069 -1.5227  0.2152  0.2909
 5272SOL    HW227453   0.706   1.270   2.200 -1.0691 -0.4827  0.3998
 5273SOL     OW27454   2.515   3.650   0.052  0.3136 -0.0447  0.4639
 5273SOL    HW127455   2.551   3.738   0.056  1.0527 -0.3429  0.4418
 5273SOL    HW227456   2.596   3.601   0.068  0.5064  0.7059  1.7925
 5274SOL     OW27457   1.080   4.251   7.205 -0.3326 -0.1696 -0.6606
 5274SOL    HW127458   1.047   4.252   7.295  0.4234  2.1447 -0.4181
 5274SOL    HW227459   1.080   4.345   7.186 -0.4906 -0.1373 -0.4970
 5275SOL     OW27460   4.471   1.159   3.494  0.1728 -0.1790  0.1429
 5275SOL    HW127461   4.496   1.145   3.402  0.7226  0.2756  0.2236
 5275SOL    HW227462   4.551   1.134   3.540 -0.0916 -0.0433  0.6719
 5276SOL     OW27463   4.723   2.217  11.477 -0.0445  0.6288 -0.0434
 5276SOL    HW127464   0.019   2.131  11.449  1.1712  1.4132 -1.0678
 5276SOL    HW227465   4.628   2.211  11.478 -0.0645  1.2815  2.0835
 5277SOL     OW27466   1.302   1.437   2.892 -0.2585  0.4841  0.0006
 5277SOL    HW127467   1.252   1.360   2.865 -2.2798  1.0463  2.1459
 5277SOL    HW227468   1.367   1.444   2.822  0.7840  1.7033  1.0957
 5278SOL     OW27469   1.567   1.083   4.574 -0.2953  0.3585  0.8135
 5278SOL    HW127470   1.578   1.144   4.501  0.2718 -1.8028 -0.8677
 5278SOL    HW227471   1.534   1.146   4.638 -0.2074  0.8112  0.4177
 5279SOL     OW27472   3.835   4.178  17.489 -0.4405  0.0295 -0.1391
 5279SOL    HW127473   3.829   4.264  17.448  1.2079 -0.3422 -1.1737
 5279SOL    HW227474   3.860   4.203  17.578  0.9990 -1.9857  0.0285
 5280SOL     OW27475   0.178   0.955   3.115 -0.2949 -0.7319  0.2116
 5280SOL    HW127476   0.255   0.993   3.072 -0.2980  0.8014  1.5547
 5280SOL    HW227477   0.103   0.967   3.056  0.7252  1.4499 -0.6406
 5281SOL     OW27478   3.729   1.054   2.970  0.0696  0.1054  0.0839
 5281SOL    HW127479   3.697   1.107   2.897 -0.0652 -0.8714 -0.5617
 5281SOL    HW227480   3.788   1.112   3.019  0.7455 -1.9362  1.7228
 5282SOL     OW27481   1.168   3.224  10.657 -0.0092  0.0359 -0.2455
 5282SOL    HW127482   1.254   3.227  10.699  0.9914 -1.3503 -2.1796
 5282SOL    HW227483   1.183   3.161  10.587  1.2806  0.8845 -0.7392
 5283SOL     OW27484   4.571   4.609  10.948 -0.2346 -0.1355  0.2715
 5283SOL    HW127485   4.564   4.703  10.965 -1.2153 -0.0155 -0.7649
 5283SOL    HW227486   4.526   4.561  11.018 -0.7822 -1.1111 -0.7532
 5284SOL     OW27487   0.700   2.863   7.552  0.4705  0.1548 -0.1504
 5284SOL    HW127488   0.643   2.937   7.532  1.0604  0.7521  0.3744
 5284SOL    HW227489   0.748   2.856   7.469 -0.7953  1.0259 -0.9616
 5285SOL     OW27490   2.307   1.359   4.804 -0.3705 -0.5457  0.7008
 5285SOL    HW127491   2.324   1.448   4.775 -1.6402 -1.2555 -2.2802
 5285SOL    HW227492   2.352   1.359   4.889  0.3783 -0.7995  0.3123
 5286SOL     OW27493   4.318   2.307  16.622  0.4968 -0.2759  0.6798
 5286SOL    HW127494   4.284   2.390  16.588 -0.7164 -2.2941 -3.0727
 5286SOL    HW227495   4.240   2.257  16.647  0.6362 -1.9937 -2.1977
 5287SOL     OW27496   2.369   0.824   6.412 -0.4845 -0.4102  0.1420
 5287SOL    HW127497   2.459   0.830   6.381 -0.9472 -0.1610 -1.1264
 5287SOL    HW227498   2.365   0.738   6.453 -0.3733 -0.6478 -0.3518
 5288SOL     OW27499   4.342   3.180   7.914 -0.6306  0.6260  0.3486
 5288SOL    HW127500   4.363   3.090   7.936 -0.0047  0.1276 -2.3427
 5288SOL    HW227501   4.409   3.208   7.851  0.7867 -0.7233  1.2729
 5289SOL     OW27502   0.626   3.019   0.746  0.1552 -0.1906 -0.0186
 5289SOL    HW127503   0.563   2.985   0.682 -0.5687 -0.4043  0.8113
 5289SOL    HW227504   0.711   2.994   0.708  1.3107 -0.2701  2.5884
 5290SOL     OW27505   2.959   0.432  12.251  0.1475 -0.2225 -0.0457
 5290SOL    HW127506   2.957   0.411  12.345  2.1926 -0.2699 -0.0160
 5290SOL    HW227507   3.034   0.384  12.217  0.5381  1.3954 -1.4667
 5291SOL     OW27508   2.558   4.222   5.167 -0.0699  0.2684  0.9877
 5291SOL    HW127509   2.648   4.191   5.158  0.1339  0.1096  3.5696
 5291SOL    HW227510   2.569   4.283   5.239 -0.8237  1.3869  0.1715
 5292SOL     OW27511   4.716   0.595   1.258  0.2289  0.2137  0.2986
 5292SOL    HW127512   0.051   0.540   1.293  1.4638  1.3044 -0.4809
 5292SOL    HW227513   0.004   0.685   1.279 -0.0840  0.3297  0.1534
 5293SOL     OW27514   1.770   4.670   1.064  0.1898 -0.4851 -0.2163
 5293SOL    HW127515   1.763   4.597   1.002 -1.4131 -1.0031  0.5990
 5293SOL    HW227516   1.840   4.644   1.124 -1.3573 -1.0710  1.3332
 5294SOL     OW27517   2.137   1.883   4.309 -0.3512  0.0042  0.1065
 5294SOL    HW127518   2.184   1.927   4.239 -1.1342  1.4418  0.4751
 5294SOL    HW227519   2.061   1.940   4.320 -0.8793 -0.6040 -0.4476
 5295SOL     OW27520   0.380   3.637   3.585 -0.1647  0.0920 -0.2456
 5295SOL    HW127521   0.420   3.613   3.501  0.3876 -0.8140  0.2715
 5295SOL    HW227522   0.290   3.663   3.565  0.0259  0.8033 -0.1744
 5296SOL     OW27523   3.818   4.687   8.557  0.0335 -0.0660  0.0347
 5296SOL    HW127524   3.788   0.005   8.483  0.1510 -1.6008 -1.1346
 5296SOL    HW227525   3.768   4.608   8.539 -0.1394  0.0520 -0.0051
 5297SOL     OW27526   4.371   0.068   5.185 -0.0257 -0.3072  0.4836
 5297SOL    HW127527   4.319   0.013   5.127 -1.2771  2.2980 -0.8695
 5297SOL    HW227528   4.326   0.152   5.178 -0.6653 -0.4979  2.2404
 5298SOL     OW27529   2.459   0.190  17.534  0.3685  0.3400  0.6333
 5298SOL    HW127530   2.463   0.106  17.488  1.1393  2.0113 -2.3506
 5298SOL    HW227531   2.370   0.191  17.570 -1.2213 -0.8199 -3.2274
 5299SOL     OW27532   3.748   0.282   2.876  0.4107  0.5257  0.1266
 5299SOL    HW127533   3.674   0.276   2.815  1.8360  1.9606 -1.7269
 5299SOL    HW227534   3.816   0.328   2.828  0.5844  2.7695  2.5330
 5300SOL     OW27535   2.801   4.356   7.794 -0.2565 -0.0730 -0.1801
 5300SOL    HW127536   2.843   4.436   7.825  2.9537 -2.2765  1.1728
 5300SOL    HW227537   2.842   4.364   7.708 -0.3637 -0.4735 -0.2680
 5301SOL     OW27538   4.649   2.075   7.813 -0.4418 -0.4702 -0.2383
 5301SOL    HW127539   4.676   2.088   7.722  2.8963 -2.2731  0.5060
 5301SOL    HW227540   4.635   2.167   7.838  1.0532 -0.3369  0.0834
 5302SOL     OW27541   3.782   2.615   6.044 -0.0573 -0.2850 -0.0122
 5302SOL    HW127542   3.751   2.608   6.135 -1.2018  2.1152 -0.2221
 5302SOL    HW227543   3.709   2.656   5.998 -0.2479  0.3726  0.8611
 5303SOL     OW27544   0.435   0.934   6.975  0.2267 -0.1730 -0.2222
 5303SOL    HW127545   0.502   0.880   6.933  0.9326  0.5463 -0.0196
 5303SOL    HW227546   0.372   0.886   7.030 -1.2328  0.4285 -1.3679
 5304SOL     OW27547   2.033   0.243  17.282  0.3208  0.0573  0.1641
 5304SOL    HW127548   1.945   0.240  17.245  0.2177 -0.9020  0.4787
 5304SOL    HW227549   2.003   0.247  17.373  1.0428  1.1818  0.3554
 5305SOL     OW27550   3.390   4.587   8.570 -0.0677  0.0428 -0.5759
 5305SOL    HW127551   3.356   4.649   8.635 -1.6535 -1.0379 -0.3697
 5305SOL    HW227552   3.314   4.532   8.548  1.3089 -3.1479  2.6391
 5306SOL     OW27553   2.688   0.198  11.978 -0.1465  0.2650 -0.0821
 5306SOL    HW127554   2.631   0.123  11.994  0.4235  0.0393  0.9763
 5306SOL    HW227555   2.744   0.164  11.908 -0.1066  1.8188 -0.7904
 5307SOL     OW27556   3.982   3.017  12.898 -0.5291  0.0677  0.6932
 5307SOL    HW127557   4.017   3.069  12.825 -0.4636  0.4350  0.9874
 5307SOL    HW227558   4.021   3.051  12.978 -1.1657  1.0225  0.5976
 5308SOL     OW27559   1.698   2.920   2.844  0.2105 -0.3028  0.4417
 5308SOL    HW127560   1.674   2.965   2.763  1.8620 -0.3778 -0.0969
 5308SOL    HW227561   1.671   2.986   2.908 -0.9887  0.1982 -0.5907
 5309SOL     OW27562   1.489   3.721  14.597 -0.2473 -0.6500  0.0173
 5309SOL    HW127563   1.435   3.769  14.660  1.2460 -0.0164  0.7853
 5309SOL    HW227564   1.578   3.723  14.632  0.8796 -0.6492 -2.8440
 5310SOL     OW27565   1.947   1.406  17.086  0.4710  0.4332 -0.2628
 5310SOL    HW127566   1.930   1.398  17.179 -1.4916  1.7701 -0.5113
 5310SOL    HW227567   2.037   1.373  17.082  1.0249  1.8921  0.2488
 5311SOL     OW27568   0.661   3.691   6.918  0.1800  0.4571  0.1106
 5311SOL    HW127569   0.701   3.666   6.835  1.5314  1.5254  0.4343
 5311SOL    HW227570   0.712   3.633   6.975  0.2373 -0.8706 -1.2875
 5312SOL     OW27571   2.721   0.942  10.685 -0.4863 -0.1645 -0.1683
 5312SOL    HW127572   2.669   1.021  10.698  0.1979  0.2570 -0.0391
 5312SOL    HW227573   2.700   0.894  10.765 -0.8546 -1.8877 -1.2943
 5313SOL     OW27574   0.038   1.458   8.857 -0.2307  0.3814 -0.5686
 5313SOL    HW127575   4.703   1.518   8.878 -1.3071 -0.7716 -0.9172
 5313SOL    HW227576   0.081   1.508   8.787  0.2522  2.6217  1.3602
 5314SOL     OW27577   0.560   4.056   6.522 -0.0802  0.2717 -0.1123
 5314SOL    HW127578   0.654   4.069   6.519  0.0453 -1.5334 -3.6424
 5314SOL    HW227579   0.548   3.993   6.451 -0.5593 -0.8521  0.9556
 5315SOL     OW27580   1.898   3.562  16.607 -0.3130 -0.0726 -0.3211
 5315SOL    HW127581   1.977   3.540  16.557  0.4060 -0.3006  0.9106
 5315SOL    HW227582   1.892   3.485  16.663  0.2265 -0.3207 -0.6049
 5316SOL     OW27583   3.494   0.555  13.397  0.1700 -0.0070  0.1381
 5316SOL    HW127584   3.555   0.535  13.468 -1.4118  1.3392  1.8539
 5316SOL    HW227585   3.477   0.465  13.369 -0.5395 -0.0791  0.8254
 5317SOL     OW27586   2.796   3.072   2.317  0.2693 -0.3745  0.0989
 5317SOL    HW127587   2.767   3.159   2.346  0.1948 -1.5972  3.6192
 5317SOL    HW227588   2.805   3.022   2.398  0.3747  2.0839  1.6327
 5318SOL     OW27589   0.439   2.955  15.001  0.5496  0.1693  0.7932
 5318SOL    HW127590   0.437   2.860  15.015 -0.7999 -0.4911 -3.7005
 5318SOL    HW227591   0.468   2.979  15.089  1.2306  0.9812  0.3423
 5319SOL     OW27592   0.482   3.292   9.393 -0.4291  0.0440 -0.1847
 5319SOL    HW127593   0.394   3.308   9.359 -0.3350  1.6453  0.3339
 5319SOL    HW227594   0.463   3.236   9.468 -0.2120 -0.7608 -0.7242
 5320SOL     OW27595   2.582   2.564   8.737  0.4281  0.6142  0.1813
 5320SOL    HW127596   2.557   2.650   8.701 -0.1342 -0.8065 -2.8302
 5320SOL    HW227597   2.498   2.536   8.773  1.1416 -1.7680 -0.0341
 5321SOL     OW27598   1.439   2.148   4.339  0.2235  0.1813  0.0542
 5321SOL    HW127599   1.459   2.231   4.295 -0.1177  0.1603 -0.1339
 5321SOL    HW227600   1.345   2.157   4.357  0.3680  0.5017  0.6795
 5322SOL     OW27601   2.080   3.015   4.177 -0.3960  0.2408  0.3161
 5322SOL    HW127602   1.992   2.996   4.211 -0.7327 -1.5061 -1.5477
 5322SOL    HW227603   2.110   3.082   4.239 -2.0093  0.7307  0.5829
 5323SOL     OW27604   2.347   3.856  10.938 -0.3865  0.0302 -0.3485
 5323SOL    HW127605   2.343   3.764  10.964  0.4927 -0.7637 -3.0613
 5323SOL    HW227606   2.319   3.909  11.013  0.5370 -1.6695  1.2033
 5324SOL     OW27607   3.271   0.434   5.536  0.1596  0.1062 -0.1597
 5324SOL    HW127608   3.199   0.496   5.523  0.8725  1.0629  0.5271
 5324SOL    HW227609   3.245   0.384   5.614  0.3996 -0.8158 -0.6604
 5325SOL     OW27610   2.098   2.099   2.388 -0.1724  0.1769  0.6402
 5325SOL    HW127611   2.180   2.130   2.427  1.4607  0.2037 -2.7932
 5325SOL    HW227612   2.083   2.171   2.327  1.4475  0.1726  0.2183
 5326SOL     OW27613   0.848   2.035   9.130  0.0922  0.0922  0.3638
 5326SOL    HW127614   0.866   1.947   9.098 -0.4145 -0.0856  0.5653
 5326SOL    HW227615   0.798   2.073   9.057 -1.3765 -4.5847 -1.0147
 5327SOL     OW27616   2.936   2.917   3.616 -0.1401 -0.0533  0.5228
 5327SOL    HW127617   2.990   2.894   3.540  0.3412 -0.7702  1.0872
 5327SOL    HW227618   2.926   2.832   3.658  1.1130  0.5496  2.0268
 5328SOL     OW27619   1.480   3.982   5.834 -0.0887  0.6413 -0.0338
 5328SOL    HW127620   1.457   4.010   5.745  2.1967 -0.2250 -0.8727
 5328SOL    HW227621   1.543   3.913   5.813 -1.8253 -1.0350  0.2794
 5329SOL     OW27622   2.950   4.157   7.124 -0.0119  0.5946  0.0263
 5329SOL    HW127623   3.004   4.156   7.046  0.7153  0.2073  0.5326
 5329SOL    HW227624   3.001   4.222   7.173  0.8337  1.5276 -2.0948
 5330SOL     OW27625   3.383   3.102   5.805 -0.6772  0.1777  0.5629
 5330SOL    HW127626   3.455   3.059   5.760 -1.3086 -0.7860  0.4799
 5330SOL    HW227627   3.350   3.160   5.736 -0.7949  0.6503  1.0084
 5331SOL     OW27628   1.892   1.514   2.556  0.4891  0.0663 -0.1085
 5331SOL    HW127629   1.796   1.507   2.553  0.3835  1.0533  0.6215
 5331SOL    HW227630   1.913   1.421   2.556  2.4882  0.5319  1.4218
 5332SOL     OW27631   4.565   1.547   2.419  0.5842 -0.2303 -0.0196
 5332SOL    HW127632   4.613   1.580   2.343  0.0906 -1.3359 -0.8207
 5332SOL    HW227633   4.479   1.525   2.384  0.6730  0.8039 -0.8985
 5333SOL     OW27634   0.805   0.151   6.673 -0.8401  0.0185  0.4071
 5333SOL    HW127635   0.763   0.068   6.649  0.0718 -0.0764 -0.8722
 5333SOL    HW227636   0.889   0.136   6.630  0.3770  0.2974  2.7387
 5334SOL     OW27637   0.364   2.802   5.347  0.3066 -0.7428 -0.3681
 5334SOL    HW127638   0.363   2.898   5.341 -0.9211 -0.7449 -0.1607
 5334SOL    HW227639   0.275   2.775   5.324  0.4602 -0.4127 -1.3733
 5335SOL     OW27640   1.212   0.695   2.364  0.0793  0.6572 -0.0201
 5335SOL    HW127641   1.119   0.702   2.341 -0.4412 -2.4194  1.2135
 5335SOL    HW227642   1.204   0.724   2.455 -1.7080 -0.6911  0.2445
 5336SOL     OW27643   4.321   2.033  10.043 -0.2300  0.0741  0.0290
 5336SOL    HW127644   4.366   2.115  10.063  2.2821 -1.5250  0.9772
 5336SOL    HW227645   4.369   1.969  10.097  0.7284  0.6378 -0.1514
 5337SOL     OW27646   1.557   2.866   4.519  0.5600  0.0674 -0.1379
 5337SOL    HW127647   1.515   2.781   4.506 -1.4265  1.2342 -1.4040
 5337SOL    HW227648   1.547   2.874   4.614  0.1590  2.0528 -0.3312
 5338SOL     OW27649   3.288   1.646   9.753  0.3204  0.0237  0.2050
 5338SOL    HW127650   3.383   1.659   9.756  0.3162 -0.0026  0.4706
 5338SOL    HW227651   3.257   1.643   9.844 -0.8382 -0.4287 -0.2018
 5339SOL     OW27652   4.608   0.622   2.070  0.1877  0.0161  0.0743
 5339SOL    HW127653   4.625   0.535   2.105  1.1200  0.5471  0.9370
 5339SOL    HW227654   4.532   0.657   2.116 -0.6136  0.6727 -1.7280
 5340SOL     OW27655   3.922   2.621   2.295  0.6156  0.4205  0.1846
 5340SOL    HW127656   3.884   2.692   2.347  0.5671  0.6572 -0.1737
 5340SOL    HW227657   3.844   2.597   2.245 -0.5863  0.5319  2.0100
 5341SOL     OW27658   1.377   1.311  15.340 -0.2734  0.1133  0.3588
 5341SOL    HW127659   1.424   1.256  15.278 -1.8281 -1.9340  0.9935
 5341SOL    HW227660   1.301   1.345  15.292 -1.4908 -2.3955  0.5141
 5342SOL     OW27661   0.753   3.064  12.524 -0.3768 -0.4973 -0.3569
 5342SOL    HW127662   0.836   3.111  12.527 -1.9344  2.2420  0.0351
 5342SOL    HW227663   0.785   2.977  12.500  1.3690  0.2529 -0.6905
 5343SOL     OW27664   0.364   2.572  16.813 -0.3826 -0.3896  0.4285
 5343SOL    HW127665   0.343   2.662  16.792  3.6358  0.1694 -1.1748
 5343SOL    HW227666   0.434   2.583  16.877  1.3097 -3.4051 -0.9155
 5344SOL     OW27667   2.855   1.740   8.015  0.2364 -0.5833  0.0965
 5344SOL    HW127668   2.817   1.755   8.102 -0.0341  1.4581 -0.3789
 5344SOL    HW227669   2.838   1.824   7.973 -1.9679 -0.3374  1.4219
 5345SOL     OW27670   1.451   1.082   2.748 -0.2420  0.5587  0.2393
 5345SOL    HW127671   1.535   1.040   2.729 -0.1180 -0.6220  3.3289
 5345SOL    HW227672   1.451   1.084   2.844  1.3307 -0.3202  0.2676
 5346SOL     OW27673   1.325   0.436   5.414  0.1663  0.3265 -0.2164
 5346SOL    HW127674   1.237   0.472   5.423 -0.4556 -0.9388 -1.2178
 5346SOL    HW227675   1.374   0.496   5.359  0.1336  1.2925  0.8132
 5347SOL     OW27676   0.363   1.682   5.643 -0.4704 -0.2907  0.3263
 5347SOL    HW127677   0.384   1.643   5.558 -1.3869 -2.5205  1.1346
 5347SOL    HW227678   0.395   1.613   5.702 -0.9343 -1.1527 -0.4302
 5348SOL     OW27679   0.879   2.325   1.558  0.1717 -0.1612 -0.1613
 5348SOL    HW127680   0.833   2.408   1.543  0.4740  0.1564  0.6428
 5348SOL    HW227681   0.817   2.283   1.617  0.8557  2.6041  2.5894
 5349SOL     OW27682   2.556   0.533   4.031 -0.5902  0.1093 -0.3500
 5349SOL    HW127683   2.634   0.481   4.015  1.3535  2.6948  0.6735
 5349SOL    HW227684   2.545   0.572   3.944 -2.5000 -0.5989 -0.4415
 5350SOL     OW27685   4.077   2.404   7.802 -0.2923  0.0343 -0.3334
 5350SOL    HW127686   4.132   2.467   7.754  2.6187 -1.5051  0.9860
 5350SOL    HW227687   4.050   2.466   7.870 -1.2918 -1.9591  1.0919
 5351SOL     OW27688   4.709   0.666  10.592 -0.3194 -0.0075 -0.0481
 5351SOL    HW127689   4.613   0.660  10.590 -0.2523 -1.2676  0.7063
 5351SOL    HW227690   0.002   0.630  10.676 -0.7607  2.2577  1.0695
 5352SOL     OW27691   1.984   0.995   7.330  0.4727 -0.4149 -0.2226
 5352SOL    HW127692   2.032   1.008   7.411 -0.0372  0.6910 -0.1036
 5352SOL    HW227693   1.909   0.940   7.353  0.6720 -0.7383 -0.3410
 5353SOL     OW27694   2.619   0.798  11.240  0.3069  0.5076  0.4749
 5353SOL    HW127695   2.531   0.822  11.268 -1.2368 -3.1639 -1.2190
 5353SOL    HW227696   2.623   0.703  11.251  0.2601  0.2264 -1.9215
 5354SOL     OW27697   2.919   3.976   2.067 -0.4610 -0.1433 -0.0802
 5354SOL    HW127698   2.945   3.893   2.026  2.5876  0.7029  0.1827
 5354SOL    HW227699   2.896   4.021   1.985  4.6619  1.2046 -0.7337
 5355SOL     OW27700   0.996   0.692  17.079 -0.0496  0.5416  0.3173
 5355SOL    HW127701   0.920   0.703  17.021  0.8176 -0.4296 -0.9891
 5355SOL    HW227702   0.955   0.716  17.162 -1.1332  0.6692 -0.2582
 5356SOL     OW27703   4.475   0.713  12.979  0.1925 -0.4578  0.5119
 5356SOL    HW127704   4.562   0.673  12.970 -0.2557 -0.8844 -1.9012
 5356SOL    HW227705   4.499   0.785  13.037  0.3899 -0.9723  1.0751
 5357SOL     OW27706   3.231   2.482   4.926 -0.1506 -0.1686  0.1807
 5357SOL    HW127707   3.254   2.395   4.960  0.6233 -0.4584 -1.0844
 5357SOL    HW227708   3.321   2.500   4.900  0.1346 -1.7071  0.0830
 5358SOL     OW27709   2.640   1.239   4.437  0.0229  0.8219 -0.1675
 5358SOL    HW127710   2.709   1.212   4.497  2.2970  1.9248 -2.2607
 5358SOL    HW227711   2.559   1.221   4.484 -0.3746  2.9923  0.0108
 5359SOL     OW27712   0.271   4.138  16.113  0.3559  0.4446 -0.1673
 5359SOL    HW127713   0.228   4.222  16.098 -0.8736 -0.1008  0.3128
 5359SOL    HW227714   0.300   4.110  16.026 -1.4810 -1.3783 -0.2000
 5360SOL     OW27715   0.237   3.851  13.764  0.2438 -0.0434 -0.4739
 5360SOL    HW127716   0.284   3.907  13.702 -1.9761 -0.2391 -2.3168
 5360SOL    HW227717   0.195   3.927  13.805 -0.3266  0.0586 -1.2409
 5361SOL     OW27718   4.061   0.324   4.948 -0.1498  0.5119  0.6080
 5361SOL    HW127719   4.125   0.312   4.878  0.5975  2.4028  0.9714
 5361SOL    HW227720   3.979   0.314   4.900  1.5545 -0.1205 -2.1693
 5362SOL     OW27721   4.666   4.571   4.707  0.2284  0.3695  0.8202
 5362SOL    HW127722   4.732   4.588   4.640  0.8426 -0.4635  1.2084
 5362SOL    HW227723   4.673   4.651   4.758  0.0089  0.4556  0.7134
 5363SOL     OW27724   3.867   0.793   2.882  0.3087 -0.5958 -0.3452
 5363SOL    HW127725   3.843   0.873   2.928  2.7513 -2.1861  3.6659
 5363SOL    HW227726   3.813   0.727   2.924 -0.8491  0.2639 -0.4848
 5364SOL     OW27727   4.683   4.608   3.185 -0.2907  0.4323 -0.3377
 5364SOL    HW127728   4.709   4.532   3.133  0.2103 -1.2159  2.2819
 5364SOL    HW227729   0.032   4.649   3.203  0.9633 -2.5930  0.7882
 5365SOL     OW27730   0.827   2.347  17.227 -0.0770 -0.2787  0.0236
 5365SOL    HW127731   0.764   2.282  17.258  2.1231 -2.3312  0.1780
 5365SOL    HW227732   0.771   2.389  17.163 -1.0485 -0.1336  0.9717
 5366SOL     OW27733   4.370   4.640  16.943  0.0991  0.2284 -0.1017
 5366SOL    HW127734   4.339   4.549  16.943 -0.6434  0.4776 -0.0159
 5366SOL    HW227735   4.407   4.642  17.031  1.1514  0.5063 -0.5559
 5367SOL     OW27736   1.692   0.742   3.754  0.1944  0.0854 -0.1577
 5367SOL    HW127737   1.752   0.742   3.829  0.3895 -0.0886 -0.3128
 5367SOL    HW227738   1.649   0.827   3.743  1.6285  1.1307  2.2270
 5368SOL     OW27739   1.994   3.855   7.920  0.6926  0.6521 -0.4607
 5368SOL    HW127740   2.033   3.904   7.993  0.2675 -1.3893  1.1429
 5368SOL    HW227741   2.055   3.782   7.912  1.0321  0.6559  1.9515
 5369SOL     OW27742   2.394   1.477   4.067 -0.5146  0.4881  0.1155
 5369SOL    HW127743   2.433   1.434   3.991 -0.9792 -2.0666  1.3123
 5369SOL    HW227744   2.440   1.561   4.071 -0.7076  0.5768  0.5707
 5370SOL     OW27745   3.841   1.842  11.346  0.5257  0.6166  0.0617
 5370SOL    HW127746   3.894   1.903  11.397  0.5667  0.3768  0.3065
 5370SOL    HW227747   3.894   1.763  11.344  2.8881  2.1383  2.0586
 5371SOL     OW27748   3.848   0.950   9.462 -0.2359  0.7579 -0.2282
 5371SOL    HW127749   3.807   0.953   9.549 -0.3004 -2.5728 -0.1777
 5371SOL    HW227750   3.923   0.893   9.478 -1.7889 -1.0830  0.3983
 5372SOL     OW27751   0.705   1.470   8.433 -0.3922 -0.4704 -0.1082
 5372SOL    HW127752   0.762   1.545   8.418 -1.7682  0.6092  0.1102
 5372SOL    HW227753   0.649   1.506   8.502 -0.6824 -1.4431  0.1673
 5373SOL     OW27754   1.182   1.332   7.870  0.1887  0.1015 -0.1027
 5373SOL    HW127755   1.195   1.377   7.954 -1.1899 -0.5956  0.5036
 5373SOL    HW227756   1.087   1.319   7.878  0.1040  2.2254  2.6329
 5374SOL     OW27757   0.323   0.601  17.141  0.5149  0.2692  0.4783
 5374SOL    HW127758   0.399   0.654  17.166 -0.5165  0.7879  2.5827
 5374SOL    HW227759   0.331   0.529  17.203  0.5957  0.4182  0.6436
 5375SOL     OW27760   0.274   2.964   3.205  0.8396  0.2534 -0.4788
 5375SOL    HW127761   0.362   2.932   3.224  1.1422  0.0341 -2.2085
 5375SOL    HW227762   0.281   2.943   3.112 -0.7422 -1.4303 -0.2054
 5376SOL     OW27763   3.415   2.198  16.676 -0.2224 -0.3834  0.1845
 5376SOL    HW127764   3.502   2.238  16.677 -0.7228  0.7300 -0.4532
 5376SOL    HW227765   3.441   2.114  16.640  0.6951  0.6075 -1.4852
 5377SOL     OW27766   1.710   0.705   9.067  0.5325  0.2503  0.1329
 5377SOL    HW127767   1.722   0.636   9.002 -2.1653 -1.5891  1.5769
 5377SOL    HW227768   1.799   0.736   9.082 -0.0157  1.4565  0.8757
 5378SOL     OW27769   2.438   1.416   7.813 -0.1421  0.1514 -0.6682
 5378SOL    HW127770   2.354   1.456   7.836  0.1345  0.1920  0.2679
 5378SOL    HW227771   2.427   1.330   7.853  3.3868  0.9795  2.0638
 5379SOL     OW27772   2.516   0.234   2.703  0.3813 -0.7762 -0.0943
 5379SOL    HW127773   2.584   0.167   2.694 -0.6202 -2.0101  1.5492
 5379SOL    HW227774   2.437   0.181   2.695  0.2280 -0.6464  0.6365
 5380SOL     OW27775   0.432   4.731   8.705 -0.1532 -0.3974 -0.1295
 5380SOL    HW127776   0.498   0.048   8.661 -0.3174 -0.9183 -1.0015
 5380SOL    HW227777   0.422   4.666   8.636  2.2081  0.3621 -1.1607
 5381SOL     OW27778   3.382   3.946   2.502  0.0026  0.2152 -0.4745
 5381SOL    HW127779   3.336   3.934   2.419 -0.2534  0.5743 -0.3797
 5381SOL    HW227780   3.444   3.873   2.491  0.3186  0.2902  0.8306
 5382SOL     OW27781   3.044   3.789   8.537 -0.6428  0.8419 -0.5057
 5382SOL    HW127782   3.015   3.871   8.498  0.7277  0.4782 -2.3139
 5382SOL    HW227783   3.139   3.802   8.535 -0.9221  3.0365  1.4689
 5383SOL     OW27784   0.949   1.042   5.536 -0.2921 -0.8155  0.1729
 5383SOL    HW127785   0.993   1.027   5.452 -0.6201 -0.5002 -0.0568
 5383SOL    HW227786   0.878   1.101   5.510 -0.2732 -0.5646  0.6871
 5384SOL     OW27787   2.817   0.894  17.651  0.4176  0.2349 -0.6883
 5384SOL    HW127788   2.780   0.918  17.565 -1.1740 -1.2357 -0.4078
 5384SOL    HW227789   2.796   0.801  17.646 -0.0828  0.2870  0.4841
 5385SOL     OW27790   1.680   3.054   6.475 -0.5109 -0.2392  0.2183
 5385SOL    HW127791   1.688   3.098   6.390 -3.7346 -0.0844  0.0204
 5385SOL    HW227792   1.605   2.996   6.463 -1.4270  0.7661  1.0773
 5386SOL     OW27793   3.658   0.013   3.562  0.3291  0.1609 -0.4370
 5386SOL    HW127794   3.688   0.046   3.477  0.6232 -1.4100 -0.9474
 5386SOL    HW227795   3.579   0.064   3.577 -1.0890 -1.9626 -0.6667
 5387SOL     OW27796   1.364   4.015   5.538  0.3840  0.0723 -0.3842
 5387SOL    HW127797   1.287   3.974   5.497 -0.0856  0.1248  0.4481
 5387SOL    HW227798   1.433   3.963   5.498 -1.8775 -1.9131 -1.7227
 5388SOL     OW27799   0.363   2.034  10.583 -0.4114 -0.6163  0.0243
 5388SOL    HW127800   0.274   2.027  10.617  0.2080  0.1531  1.8144
 5388SOL    HW227801   0.412   1.972  10.638 -2.1167 -2.4130 -0.4997
 5389SOL     OW27802   2.495   1.927   3.904  0.0451  0.0536  0.0552
 5389SOL    HW127803   2.529   1.884   3.825 -1.3082  0.7825 -0.9319
 5389SOL    HW227804   2.520   1.860   3.968  0.8131  0.5061  0.2234
 5390SOL     OW27805   4.701   3.825   9.063  0.1182 -0.0436 -0.0772
 5390SOL    HW127806   4.729   3.889   8.996 -0.0583 -1.0144 -1.0740
 5390SOL    HW227807   4.676   3.888   9.131  0.4074  0.1848 -0.1804
 5391SOL     OW27808   0.546   3.987  10.801  1.0673 -0.3294  0.5553
 5391SOL    HW127809   0.468   4.043  10.809  0.3599 -1.1187 -0.7502
 5391SOL    HW227810   0.501   3.905  10.781  0.1381  0.6853 -1.4882
 5392SOL     OW27811   2.321   0.644   1.399 -0.0046  0.6824 -0.0040
 5392SOL    HW127812   2.285   0.561   1.366  1.9748 -0.4784  0.7366
 5392SOL    HW227813   2.411   0.649   1.368  0.3752  0.3894  1.0534
 5393SOL     OW27814   1.944   0.750  16.034 -0.5406 -0.2716 -0.0200
 5393SOL    HW127815   2.010   0.703  16.084 -0.7198  0.1761  0.6429
 5393SOL    HW227816   1.976   0.728  15.947 -0.1041  1.4823 -0.3047
 5394SOL     OW27817   0.901   4.555   2.058 -0.6067  0.4281 -0.3131
 5394SOL    HW127818   0.970   4.549   1.992 -0.5830  2.0626 -0.4353
 5394SOL    HW227819   0.950   4.557   2.139 -0.6914 -2.1315 -0.2167
 5395SOL     OW27820   3.085   3.311   2.503 -0.3640  0.0219  0.2953
 5395SOL    HW127821   3.169   3.275   2.474 -2.0774 -1.2128 -3.0282
 5395SOL    HW227822   3.051   3.353   2.424 -1.1014 -0.2442  0.4694
 5396SOL     OW27823   4.669   3.411   1.956  0.1100 -0.7231 -0.3902
 5396SOL    HW127824   4.658   3.494   2.002  2.1889  0.2917 -1.7547
 5396SOL    HW227825   0.021   3.417   1.919  0.7000 -1.7484  0.8262
 5397SOL     OW27826   0.634   1.596   5.110 -0.1611 -0.0821  0.1131
 5397SOL    HW127827   0.699   1.532   5.141 -1.7909 -2.3930 -1.2209
 5397SOL    HW227828   0.560   1.542   5.080 -0.1043  1.8601 -3.5803
 5398SOL     OW27829   2.467   2.293   0.934  0.3221  0.1659  0.5399
 5398SOL    HW127830   2.506   2.206   0.925  0.3075  0.2257 -0.1151
 5398SOL    HW227831   2.457   2.321   0.843  0.8353 -0.3821  0.3183
 5399SOL     OW27832   1.653   3.802   5.745 -0.0431  0.6260  0.5335
 5399SOL    HW127833   1.748   3.810   5.737  0.0595 -1.5298 -0.4197
 5399SOL    HW227834   1.641   3.721   5.695  0.8109  0.0730  1.2148
 5400SOL     OW27835   4.705   0.148   8.838 -0.8405 -0.3852  0.0559
 5400SOL    HW127836   4.685   0.201   8.761  0.1165  0.9637  0.7468
 5400SOL    HW227837   0.055   0.177   8.869 -0.0695 -0.1163 -2.3797
 5401SOL     OW27838   3.238   2.573  16.786  0.1906 -0.0708 -0.0704
 5401SOL    HW127839   3.274   2.508  16.847 -0.9092 -1.0111 -0.4271
 5401SOL    HW227840   3.297   2.554  16.713 -2.6535  0.2348 -2.4560
 5402SOL     OW27841   3.310   0.333   3.004  0.3275 -0.9743  0.0063
 5402SOL    HW127842   3.277   0.339   2.914  3.1349 -0.3396 -0.9812
 5402SOL    HW227843   3.361   0.253   2.996  0.2306 -0.9818 -0.5589
 5403SOL     OW27844   0.313   0.862   1.266 -0.1810  0.1699  0.2419
 5403SOL    HW127845   0.274   0.924   1.328 -2.1311 -0.7221 -0.0954
 5403SOL    HW227846   0.359   0.919   1.204  2.4703 -1.7859  0.3981
 5404SOL     OW27847   1.165   4.226   6.895  0.0463 -0.6511 -0.4910
 5404SOL    HW127848   1.104   4.257   6.962 -2.4656 -2.0801 -2.1303
 5404SOL    HW227849   1.144   4.286   6.823 -1.9012  1.0431  1.4892
 5405SOL     OW27850   4.099   0.297   8.942  0.5449 -0.3033  0.0366
 5405SOL    HW127851   4.044   0.219   8.928 -1.9249  1.2469  1.2580
 5405SOL    HW227852   4.175   0.269   8.891  0.2229 -1.7893  0.3698
 5406SOL     OW27853   4.645   4.035  13.872 -0.2405 -0.6364 -0.4889
 5406SOL    HW127854   4.651   3.945  13.840 -0.2313 -1.3243  1.4700
 5406SOL    HW227855   4.694   4.080  13.804 -0.7667  1.2709  0.3953
 5407SOL     OW27856   3.097   0.274   9.477 -0.3043  0.1287 -0.6751
 5407SOL    HW127857   3.014   0.228   9.489  1.5666 -2.9694  0.3079
 5407SOL    HW227858   3.112   0.284   9.383 -1.9159 -0.5124 -0.9978
 5408SOL     OW27859   2.759   0.328  10.536 -0.5208 -0.1445  0.0630
 5408SOL    HW127860   2.797   0.383  10.468 -0.0955  0.5007  0.8323
 5408SOL    HW227861   2.838   0.276  10.551  0.1528  0.7926 -0.2524
 5409SOL     OW27862   4.611   0.403   9.677  0.6740  0.0319 -0.0556
 5409SOL    HW127863   4.601   0.400   9.582  1.1175 -0.8966 -0.0790
 5409SOL    HW227864   4.704   0.422   9.692 -0.3293  3.3354  1.8070
 5410SOL     OW27865   1.114   3.634   9.080  0.3325  0.4727 -0.2046
 5410SOL    HW127866   1.049   3.661   9.144  0.1080 -0.3170 -0.1054
 5410SOL    HW227867   1.188   3.602   9.132 -2.5090 -3.9917  1.0023
 5411SOL     OW27868   3.699   4.662   0.151  0.0996  0.4860 -0.2256
 5411SOL    HW127869   3.672   4.724   0.219 -0.2881  0.0458  0.0155
 5411SOL    HW227870   3.622   4.670   0.094  0.2954  0.5932 -0.4773
 5412SOL     OW27871   4.195   3.799  13.520  0.5539 -0.2574  0.7552
 5412SOL    HW127872   4.242   3.802  13.438 -0.9846  1.2901 -0.0599
 5412SOL    HW227873   4.267   3.780  13.580  0.3099 -1.3353  0.7051
 5413SOL     OW27874   2.673   1.164   7.001 -0.3392 -0.2080 -0.0772
 5413SOL    HW127875   2.672   1.130   6.911  0.1409  1.7669 -0.8183
 5413SOL    HW227876   2.764   1.195   7.005 -0.5082  0.3141 -0.3391
 5414SOL     OW27877   2.241   0.645   1.897  0.3522  0.3520 -0.0875
 5414SOL    HW127878   2.213   0.564   1.940 -1.4511  0.7822 -0.4729
 5414SOL    HW227879   2.221   0.636   1.804  0.8243 -0.2059 -0.1343
 5415SOL     OW27880   1.203   2.425   5.559 -0.0514  0.9217 -0.2656
 5415SOL    HW127881   1.279   2.389   5.605 -0.7564  0.6443  0.6732
 5415SOL    HW227882   1.128   2.435   5.617 -0.0656 -0.8218  0.0184
 5416SOL     OW27883   4.414   4.253   9.846  0.0644 -0.4278 -0.1720
 5416SOL    HW127884   4.465   4.234   9.768 -1.2674  1.4526 -1.5022
 5416SOL    HW227885   4.340   4.304   9.813  0.4300 -0.2181 -0.6591
 5417SOL     OW27886   0.532   0.180   1.478 -0.6558  0.3949 -0.5884
 5417SOL    HW127887   0.612   0.175   1.427 -0.6386  0.7707 -0.6008
 5417SOL    HW227888   0.535   0.101   1.531  0.1089 -0.1676 -1.4977
 5418SOL     OW27889   3.245   0.124   9.909 -0.2399  0.2067 -0.2806
 5418SOL    HW127890   3.339   0.115   9.890 -0.3315 -1.2759 -0.0441
 5418SOL    HW227891   3.245   0.180   9.986 -2.0637  0.2795 -0.3342
 5419SOL     OW27892   3.681   0.342   9.771  0.3667 -0.2208 -0.5474
 5419SOL    HW127893   3.716   0.344   9.682  3.2297  0.6132  0.6061
 5419SOL    HW227894   3.591   0.370   9.752  0.2171  0.4090  1.0696
 5420SOL     OW27895   4.678   3.413   6.536  0.0039 -0.0067  0.0905
 5420SOL    HW127896   4.660   3.488   6.592  2.5664 -1.1497  2.4793
 5420SOL    HW227897   4.723   3.462   6.468  0.0866 -0.7923 -0.4178
 5421SOL     OW27898   3.086   4.339   4.841 -0.0700 -0.1894  0.1509
 5421SOL    HW127899   3.148   4.362   4.910  0.4935 -0.4492 -0.2679
 5421SOL    HW227900   3.147   4.317   4.771 -0.3220 -1.9378  0.4704
 5422SOL     OW27901   1.917   1.072  16.401  0.5382  0.9337  0.1345
 5422SOL    HW127902   1.975   1.040  16.470  0.5837  1.5452  0.3805
 5422SOL    HW227903   1.943   1.046  16.313  2.6541 -0.0467  1.0405
 5423SOL     OW27904   1.787   3.199   7.806  0.1885 -0.2788 -1.1143
 5423SOL    HW127905   1.787   3.193   7.901  2.5834  1.2479 -1.0186
 5423SOL    HW227906   1.881   3.212   7.789 -0.2268  1.6532 -1.9767
 5424SOL     OW27907   4.000   2.770  11.813  0.2179  0.3811 -0.2892
 5424SOL    HW127908   4.040   2.711  11.750  1.0012  2.8433 -2.1134
 5424SOL    HW227909   4.060   2.742  11.882  0.7418  2.7439  0.2495
 5425SOL     OW27910   3.565   4.305   5.255  0.2422  0.0545 -0.3297
 5425SOL    HW127911   3.540   4.393   5.228 -1.5017 -0.7674 -1.3352
 5425SOL    HW227912   3.660   4.308   5.269  0.0754  2.9671  0.1684
 5426SOL     OW27913   1.077   2.588   6.438 -0.3852 -0.0268  0.0362
 5426SOL    HW127914   1.051   2.672   6.476  2.8491  0.9911  0.0407
 5426SOL    HW227915   1.164   2.611   6.404  0.9684 -2.0839  2.1372
 5427SOL     OW27916   2.008   1.635   7.967 -0.2004  0.5006 -0.2122
 5427SOL    HW127917   1.999   1.721   7.925 -0.3142  1.1225  1.0871
 5427SOL    HW227918   1.919   1.600   7.964 -0.1788  0.5791 -1.7727
 5428SOL     OW27919   1.286   2.701   4.681 -0.3979 -0.5295  0.4228
 5428SOL    HW127920   1.239   2.777   4.646 -0.8391  0.0720  2.3135
 5428SOL    HW227921   1.341   2.681   4.606 -2.3081  0.3240 -1.2164
 5429SOL     OW27922   2.415   1.768   3.157 -0.0651  0.0562 -0.0608
 5429SOL    HW127923   2.425   1.688   3.208 -1.4236 -0.3256 -0.3807
 5429SOL    HW227924   2.437   1.822   3.233 -0.7590  0.4422 -0.1267
 5430SOL     OW27925   0.789   0.756  16.927  0.0456 -0.3351 -0.0826
 5430SOL    HW127926   0.746   0.719  16.851 -1.9412  1.3382  0.2194
 5430SOL    HW227927   0.718   0.808  16.965 -1.0502  0.0498 -2.6686
 5431SOL     OW27928   3.548   2.542   7.074 -0.7243 -0.1375  0.0827
 5431SOL    HW127929   3.556   2.448   7.058 -2.0575  0.2052 -2.5227
 5431SOL    HW227930   3.638   2.564   7.099 -0.6604 -0.7007  0.3483
 5432SOL     OW27931   0.117   1.348   8.543  0.1702  0.3787  0.1914
 5432SOL    HW127932   0.129   1.435   8.581  0.7649  0.5157 -0.3064
 5432SOL    HW227933   0.038   1.366   8.492  0.5097 -1.0827 -0.8380
 5433SOL     OW27934   4.664   0.774   8.903 -0.2948  0.4205 -0.4463
 5433SOL    HW127935   4.595   0.730   8.953  0.1286  0.9301  0.5757
 5433SOL    HW227936   4.634   0.864   8.915 -1.6434  0.4581 -4.0188
 5434SOL     OW27937   2.205   2.427  17.657 -0.0348 -0.5634 -0.1624
 5434SOL    HW127938   2.228   2.475  17.577  2.5144 -1.8318 -0.1730
 5434SOL    HW227939   2.119   2.387  17.642  0.0535 -0.5794 -0.6221
 5435SOL     OW27940   2.590   1.631   8.625  0.0343 -0.5357  0.2508
 5435SOL    HW127941   2.619   1.721   8.610 -1.1881 -0.0864  0.5512
 5435SOL    HW227942   2.516   1.632   8.565  0.1880 -1.9491  0.0357
 5436SOL     OW27943   4.234   2.733   4.665  0.0608  0.0768  0.2867
 5436SOL    HW127944   4.257   2.774   4.748  1.3717  0.2448 -0.1707
 5436SOL    HW227945   4.301   2.664   4.663  0.9851  0.9637  0.7981
 5437SOL     OW27946   3.479   1.788   5.622  0.3230  0.5405 -0.6852
 5437SOL    HW127947   3.540   1.859   5.641 -0.3835  0.5019  1.6593
 5437SOL    HW227948   3.483   1.731   5.698 -1.4632 -2.8927 -3.1589
 5438SOL     OW27949   1.010   1.869   8.534  0.3844 -0.4021 -0.3048
 5438SOL    HW127950   0.991   1.935   8.467 -0.7474 -0.0384  0.3779
 5438SOL    HW227951   0.951   1.903   8.601  0.3239 -1.6164  0.2633
 5439SOL     OW27952   0.498   0.404   2.949  0.0646  0.4716 -0.0579
 5439SOL    HW127953   0.491   0.434   2.858 -2.4536 -0.8861 -0.3204
 5439SOL    HW227954   0.438   0.467   2.989 -2.3117 -3.2576  2.1171
 5440SOL     OW27955   4.380   2.021   4.225 -0.6635 -0.1934  0.0269
 5440SOL    HW127956   4.373   2.066   4.141 -1.7543  1.0032  0.7516
 5440SOL    HW227957   4.329   2.083   4.277 -0.2995  2.0770 -2.3297
 5441SOL     OW27958   0.158   3.360  16.536 -0.9093  0.5380  0.5370
 5441SOL    HW127959   0.200   3.303  16.600  1.4636 -0.1881 -1.6762
 5441SOL    HW227960   0.210   3.335  16.460 -2.3309  0.9383 -0.5649
 5442SOL     OW27961   1.548   0.608   8.271  0.2971 -0.1825  0.7303
 5442SOL    HW127962   1.566   0.516   8.290  1.5872 -0.5051 -2.1270
 5442SOL    HW227963   1.636   0.639   8.249 -0.4609  0.3055 -1.6022
 5443SOL     OW27964   2.714   0.058   6.372  0.4658 -0.4577 -1.0645
 5443SOL    HW127965   2.684   4.717   6.420  0.8426  0.5603  0.7946
 5443SOL    HW227966   2.705   0.031   6.281 -1.3999 -0.8156 -0.7760
 5444SOL     OW27967   3.973   0.905   3.804  0.0570 -0.7118 -0.1482
 5444SOL    HW127968   4.048   0.847   3.790  1.1159  0.3471  1.0570
 5444SOL    HW227969   3.997   0.929   3.894 -0.0792  2.9110 -1.0915
 5445SOL     OW27970   3.351   2.223  11.116  0.1544  0.5467 -0.3603
 5445SOL    HW127971   3.275   2.217  11.174 -1.1643  3.6361 -1.7512
 5445SOL    HW227972   3.418   2.199  11.180  0.0806  1.4429  0.0576
 5446SOL     OW27973   2.824   0.043   4.115  0.4570  0.1308  0.6896
 5446SOL    HW127974   2.821   4.691   4.152 -0.0159  0.3662  1.2073
 5446SOL    HW227975   2.731   0.064   4.118 -0.0526 -2.4315  2.4386
 5447SOL     OW27976   3.971   3.919   4.025  0.6438  0.1179 -0.6304
 5447SOL    HW127977   3.929   4.001   4.050 -0.8257 -0.3893 -1.4093
 5447SOL    HW227978   4.050   3.916   4.078 -0.3692 -2.3290  0.7439
 5448SOL     OW27979   0.550   2.632   8.699  0.3453 -0.0256 -0.3200
 5448SOL    HW127980   0.610   2.636   8.773  1.6282  2.8666 -1.5088
 5448SOL    HW227981   0.544   2.537   8.690  0.8627 -0.0570 -0.3095
 5449SOL     OW27982   0.495   2.366   3.116  0.2891 -0.4754  0.0040
 5449SOL    HW127983   0.495   2.462   3.127 -2.1396 -0.7094  1.9360
 5449SOL    HW227984   0.532   2.358   3.028 -0.8826  0.1705 -0.5514
 5450SOL     OW27985   2.063   4.483   8.600  0.1670 -0.2180 -0.4600
 5450SOL    HW127986   2.116   4.403   8.590 -1.5890 -1.5395  0.7866
 5450SOL    HW227987   2.120   4.546   8.556  0.4803 -1.5379 -1.9681
 5451SOL     OW27988   3.955   3.742   6.121  0.2390  0.0414  0.3882
 5451SOL    HW127989   3.912   3.758   6.037  2.0561  5.8957  0.5814
 5451SOL    HW227990   4.045   3.747   6.087 -0.0207  1.2273 -0.1272
 5452SOL     OW27991   0.022   2.352  15.904  0.1764 -0.2603 -0.1996
 5452SOL    HW127992   0.083   2.357  15.831  1.0997 -0.2203  0.5803
 5452SOL    HW227993   0.074   2.305  15.968 -0.6798 -2.1805 -0.9011
 5453SOL     OW27994   2.460   0.358  15.229 -0.2373  0.5503 -0.2472
 5453SOL    HW127995   2.405   0.295  15.184 -1.3773  1.2371  0.1950
 5453SOL    HW227996   2.450   0.329  15.320 -1.9895 -1.2538 -1.0261
 5454SOL     OW27997   4.621   0.939   7.824 -0.2286  0.6067  0.1708
 5454SOL    HW127998   4.532   0.972   7.813 -0.8143 -0.5388  1.5262
 5454SOL    HW227999   4.611   0.845   7.832 -3.3044  0.9326  0.2994
 5455SOL     OW28000   3.982   4.014  14.768  0.1059  0.1202 -0.3959
 5455SOL    HW128001   3.900   4.034  14.723  0.5490  0.5257 -1.0311
 5455SOL    HW228002   3.986   3.923  14.799  0.7304  1.5468  3.6440
 5456SOL     OW28003   1.356   1.987   8.428 -0.1070 -0.1494 -0.2104
 5456SOL    HW128004   1.436   2.034   8.453  1.0816 -2.2309 -0.0980
 5456SOL    HW228005   1.303   1.989   8.507  1.0971 -0.4822  0.5951
 5457SOL     OW28006   2.008   4.591   6.636  0.5372 -0.7472 -0.7701
 5457SOL    HW128007   2.011   4.548   6.721  0.8484  0.6884 -0.0485
 5457SOL    HW228008   2.038   4.679   6.660  0.3783 -0.7206 -0.6698
 5458SOL     OW28009   3.958   4.228  10.573 -0.3838  0.0592  0.0697
 5458SOL    HW128010   4.013   4.305  10.562  1.4924 -1.1442  1.0971
 5458SOL    HW228011   4.006   4.179  10.639  1.8986  1.8075 -0.3106
 5459SOL     OW28012   1.785   2.723   8.401 -0.2190  0.7817  0.1552
 5459SOL    HW128013   1.862   2.679   8.437 -1.9624 -2.5363 -0.1219
 5459SOL    HW228014   1.709   2.693   8.451  0.3652 -0.4767  0.2909
 5460SOL     OW28015   0.194   3.488   3.342 -0.0636 -0.0744  0.0788
 5460SOL    HW128016   0.162   3.577   3.354  2.1930  0.9180 -1.2467
 5460SOL    HW228017   0.135   3.440   3.399 -1.0242 -1.9222 -2.4647
 5461SOL     OW28018   3.815   3.601   6.813  0.6522 -0.1473 -0.4054
 5461SOL    HW128019   3.778   3.522   6.851  0.0450 -0.0676 -0.8298
 5461SOL    HW228020   3.763   3.667   6.860 -0.7452 -1.5445 -0.0184
 5462SOL     OW28021   0.037   4.181   8.995 -0.7288  0.1739 -0.4580
 5462SOL    HW128022   0.018   4.272   8.973  0.7772  0.5168 -0.3410
 5462SOL    HW228023   4.706   4.123   8.958 -1.4761  0.2316  0.7952
 5463SOL     OW28024   3.284   1.661   3.394  0.0105 -0.1728 -0.8104
 5463SOL    HW128025   3.231   1.659   3.474  1.3063  2.1859  0.1294
 5463SOL    HW228026   3.354   1.719   3.425  0.9124 -1.6623 -0.0421
 5464SOL     OW28027   3.062   4.498   2.673  0.5034  0.0914  0.2514
 5464SOL    HW128028   3.128   4.466   2.610 -0.5712  0.0444 -0.8531
 5464SOL    HW228029   2.993   4.432   2.660 -0.2342  0.7622  0.7518
 5465SOL     OW28030   2.204   1.452   6.863  0.0908  0.6361 -0.1419
 5465SOL    HW128031   2.260   1.390   6.817 -0.5099 -0.4585  0.5874
 5465SOL    HW228032   2.255   1.532   6.851  1.0585  0.0603  0.0776
 5466SOL     OW28033   2.829   3.678   6.063 -0.6959  0.5369  0.0694
 5466SOL    HW128034   2.904   3.678   6.123 -0.4537 -1.7561 -0.2156
 5466SOL    HW228035   2.836   3.587   6.031  0.7706  0.9601 -0.8248
 5467SOL     OW28036   2.997   3.415   1.106 -0.1980  0.1786  0.2961
 5467SOL    HW128037   2.950   3.447   1.029 -0.0354  0.6184  0.3783
 5467SOL    HW228038   3.085   3.386   1.081 -0.3438  0.1526 -0.1937
 5468SOL     OW28039   2.024   3.035   5.365  0.3378 -0.3801 -0.1855
 5468SOL    HW128040   1.974   2.991   5.434  1.2000  1.3051  1.5173
 5468SOL    HW228041   1.964   3.099   5.328  3.1658  2.5663  0.3206
 5469SOL     OW28042   4.422   4.408  13.834  0.4365 -0.3440 -0.3281
 5469SOL    HW128043   4.386   4.479  13.781 -3.4204 -1.9866  0.1082
 5469SOL    HW228044   4.515   4.430  13.846  0.6280 -1.6739  0.5973
 5470SOL     OW28045   3.772   1.865  11.664  0.1837  0.0256 -0.5151
 5470SOL    HW128046   3.735   1.896  11.746 -0.9709 -0.0546 -1.0120
 5470SOL    HW228047   3.765   1.947  11.615  0.7280  0.8649  0.8226
 5471SOL     OW28048   3.437   2.412   8.273  0.0090  0.2299 -0.4941
 5471SOL    HW128049   3.525   2.450   8.270  0.1211  0.0671  0.6322
 5471SOL    HW228050   3.387   2.478   8.322 -1.5350 -1.5928  0.3445
 5472SOL     OW28051   0.932   2.434  11.018 -0.3186 -0.2394 -0.3267
 5472SOL    HW128052   1.004   2.455  11.078 -0.6558  0.1835 -0.0742
 5472SOL    HW228053   0.964   2.475  10.937 -1.8547  0.9524 -0.3238
 5473SOL     OW28054   4.215   2.247   5.489 -0.5183  0.6029 -0.3307
 5473SOL    HW128055   4.289   2.215   5.541 -0.6753 -0.0927 -0.5259
 5473SOL    HW228056   4.204   2.173   5.429 -1.2421 -0.8412  1.5677
 5474SOL     OW28057   4.410   3.718   5.758  0.3397  0.1634 -0.0999
 5474SOL    HW128058   4.491   3.676   5.728  0.8555  0.6016  0.6704
 5474SOL    HW228059   4.433   3.810   5.772 -4.2505  0.9539  2.4437
 5475SOL     OW28060   3.231   3.951   6.831  0.6410  0.0065  0.1269
 5475SOL    HW128061   3.165   4.020   6.838  0.7261 -0.0086  0.9971
 5475SOL    HW228062   3.260   3.954   6.922 -0.0933 -2.1451  0.4516
 5476SOL     OW28063   0.168   0.990   5.844 -0.5315  0.6589  0.3621
 5476SOL    HW128064   0.125   0.987   5.929 -2.4580  0.0912 -0.6051
 5476SOL    HW228065   0.146   1.079   5.813 -0.3495  0.9084  0.9592
 5477SOL     OW28066   4.363   2.845  12.908 -0.0673 -0.1461  0.1156
 5477SOL    HW128067   4.437   2.899  12.937 -0.3717  0.3253 -0.0010
 5477SOL    HW228068   4.372   2.848  12.813 -1.6592 -1.4768 -0.0806
 5478SOL     OW28069   2.585   2.218   8.060 -0.1831 -0.2786  0.1589
 5478SOL    HW128070   2.623   2.264   8.135 -1.5977  1.4967 -0.2273
 5478SOL    HW228071   2.506   2.178   8.096 -0.1725 -2.2695 -1.9819
 5479SOL     OW28072   2.708   1.381   8.694 -0.7950  0.0164  0.1677
 5479SOL    HW128073   2.668   1.458   8.654 -0.6143  0.0367  0.0233
 5479SOL    HW228074   2.759   1.409   8.769 -0.7228  0.2317  0.0382
 5480SOL     OW28075   2.412   0.967  10.781 -0.1469  0.2756  0.0190
 5480SOL    HW128076   2.333   0.978  10.834 -1.0297  0.2445 -1.2945
 5480SOL    HW228077   2.409   0.875  10.755 -1.1107  0.3977 -0.2729
 5481SOL     OW28078   2.015   0.208   7.813  0.2075 -0.2315  0.1544
 5481SOL    HW128079   2.043   0.149   7.743 -0.4615  0.2262 -0.4818
 5481SOL    HW228080   1.929   0.174   7.837 -0.3414  1.4447  0.5170
 5482SOL     OW28081   2.026   3.688  17.654 -0.2243 -0.1926  0.0727
 5482SOL    HW128082   2.067   3.605  17.680 -4.5413 -2.0945  0.6902
 5482SOL    HW228083   1.959   3.660  17.593 -1.5899  0.6848  1.1625
 5483SOL     OW28084   2.721   1.479   9.506  0.2668  0.3519 -0.5218
 5483SOL    HW128085   2.667   1.530   9.567  1.3316  1.3006 -0.3579
 5483SOL    HW228086   2.776   1.435   9.571  0.4042 -1.8781 -2.1553
 5484SOL     OW28087   0.935   2.638  16.159 -0.3307 -0.2601  0.0238
 5484SOL    HW128088   1.013   2.680  16.124 -0.7151  1.1330  0.8411
 5484SOL    HW228089   0.865   2.691  16.120 -0.7615 -0.2510  0.8057
 5485SOL     OW28090   2.421   3.589  17.217 -0.2913 -0.0749 -0.1810
 5485SOL    HW128091   2.511   3.617  17.206 -0.9051  1.7624 -0.5396
 5485SOL    HW228092   2.375   3.653  17.163 -0.3331  1.2495  1.4277
 5486SOL     OW28093   4.310   4.391   7.717  0.2844  0.4667  0.3784
 5486SOL    HW128094   4.329   4.485   7.726  2.1105  0.0109  1.1435
 5486SOL    HW228095   4.215   4.389   7.733 -0.2096  2.3885 -2.1720
 5487SOL     OW28096   2.729   3.508  14.467  0.2806  0.4639  0.4007
 5487SOL    HW128097   2.725   3.490  14.373 -0.9900 -2.6952  1.0791
 5487SOL    HW228098   2.793   3.447  14.502  1.6019  1.1355 -0.8693
 5488SOL     OW28099   1.052   2.251   4.109  0.0408  0.1257  0.0385
 5488SOL    HW128100   1.029   2.336   4.072  0.4406 -0.5559 -1.7774
 5488SOL    HW228101   1.023   2.265   4.199 -0.2178 -1.9723  0.2898
 5489SOL     OW28102   4.140   2.570   1.270 -0.1105  0.4479  0.1681
 5489SOL    HW128103   4.127   2.598   1.179  0.8055  1.9977  0.5235
 5489SOL    HW228104   4.094   2.643   1.311  0.2354 -0.6831  2.5228
 5490SOL     OW28105   4.239   3.202   7.595 -0.3442  0.0991 -0.3575
 5490SOL    HW128106   4.265   3.294   7.601  0.1098 -0.0447 -0.0472
 5490SOL    HW228107   4.322   3.155   7.607 -1.0307 -1.2166 -0.7626
 5491SOL     OW28108   1.734   0.551   3.240  0.5532  0.2020  0.1613
 5491SOL    HW128109   1.767   0.632   3.201  1.1738  0.4250  1.1444
 5491SOL    HW228110   1.701   0.579   3.326 -0.1800  1.8131 -0.6640
 5492SOL     OW28111   1.081   1.605  15.557  0.2540  0.4331  0.4771
 5492SOL    HW128112   1.113   1.650  15.479 -1.5296 -2.1503 -1.7674
 5492SOL    HW228113   1.078   1.516  15.521 -0.5359  0.2017  1.1051
 5493SOL     OW28114   1.497   0.420   6.340 -0.3053 -0.1148 -0.0386
 5493SOL    HW128115   1.582   0.384   6.367  0.9811  1.3098 -2.1702
 5493SOL    HW228116   1.444   0.399   6.416  0.5250  2.8770  1.3824
 5494SOL     OW28117   2.277   3.217   5.972  0.2925  0.0505 -0.4264
 5494SOL    HW128118   2.246   3.194   6.060 -1.5053 -1.3049 -1.4220
 5494SOL    HW228119   2.239   3.161   5.904 -1.7192  1.9324 -0.8682
 5495SOL     OW28120   0.496   3.980   5.860  0.5799  0.4447  0.6622
 5495SOL    HW128121   0.464   3.985   5.770 -0.9885  2.4687  1.3489
 5495SOL    HW228122   0.533   3.892   5.853  0.2055  0.4428 -1.3240
 5496SOL     OW28123   4.455   4.536  12.180 -0.0297  0.3007 -0.3712
 5496SOL    HW128124   4.446   4.441  12.177 -1.2688  0.3959  0.1805
 5496SOL    HW228125   4.507   4.548  12.260 -1.2580  0.1411  0.4475
 5497SOL     OW28126   3.394   0.908  12.086 -0.0279  0.3233  0.7497
 5497SOL    HW128127   3.372   0.818  12.110 -1.1542  0.6955  1.0952
 5497SOL    HW228128   3.310   0.951  12.103  0.4081  1.8327 -0.9624
 5498SOL     OW28129   0.454   3.610   6.595 -0.1372 -0.0000 -0.3381
 5498SOL    HW128130   0.422   3.676   6.533  0.2537  2.3876  2.0024
 5498SOL    HW228131   0.475   3.544   6.529 -0.0444 -1.4376  1.1407
 5499SOL     OW28132   1.292   3.021   6.795 -0.2775 -0.1248 -0.2163
 5499SOL    HW128133   1.208   3.020   6.748 -1.1219  0.2433  1.2622
 5499SOL    HW228134   1.339   3.074   6.730 -1.0928  0.4682 -0.3264
 5500SOL     OW28135   0.060   1.389   5.541  0.4709 -0.7981  0.3603
 5500SOL    HW128136   0.068   1.484   5.527 -1.9635 -0.3929  1.8544
 5500SOL    HW228137   0.086   1.348   5.458  0.3892  1.2426 -0.6745
 5501SOL     OW28138   1.205   2.037   4.592 -0.2893  0.1813  0.3638
 5501SOL    HW128139   1.219   1.988   4.512  2.2076 -1.9586  2.1099
 5501SOL    HW228140   1.201   2.128   4.561  0.3450 -0.7086 -2.2769
 5502SOL     OW28141   4.326   3.712   4.389 -0.4509 -0.1816  0.0241
 5502SOL    HW128142   4.319   3.617   4.375 -0.6646 -0.1287 -0.2167
 5502SOL    HW228143   4.281   3.735   4.470  1.2480  0.5789  0.7490
 5503SOL     OW28144   1.013   0.014   9.257 -0.5152  0.2955  0.2253
 5503SOL    HW128145   1.032   0.035   9.165 -1.1105 -4.4127 -0.9791
 5503SOL    HW228146   1.002   4.655   9.261 -0.0150  0.2756  1.1725
 5504SOL     OW28147   1.897   4.565   7.521  0.1045 -0.0630  0.2289
 5504SOL    HW128148   1.905   4.511   7.599  0.3589  0.0151  0.2557
 5504SOL    HW228149   1.842   4.635   7.558  1.6737  1.6476 -0.6898
 5505SOL     OW28150   4.712   4.647   8.209  0.4241 -0.0408 -0.0565
 5505SOL    HW128151   4.620   4.639   8.235 -0.1674  0.7699 -1.8686
 5505SOL    HW228152   4.725   4.559   8.174 -0.2592 -0.6547  1.2353
 5506SOL     OW28153   3.339   2.282   5.552  0.0840 -0.1556  0.1929
 5506SOL    HW128154   3.318   2.299   5.460 -1.2794 -1.7633  0.2188
 5506SOL    HW228155   3.269   2.224   5.580 -1.4865  1.6147 -0.0798
 5507SOL     OW28156   1.138   3.071   6.577 -0.8407 -0.1606  0.0015
 5507SOL    HW128157   1.156   3.034   6.491 -0.1145  0.9210 -0.2991
 5507SOL    HW228158   1.116   3.160   6.551 -0.1140 -0.2097 -0.7511
 5508SOL     OW28159   1.351   4.154   7.190  0.2411 -0.0511 -0.4109
 5508SOL    HW128160   1.262   4.186   7.176  0.2432 -0.2325 -0.8599
 5508SOL    HW228161   1.381   4.205   7.265 -0.7669  0.2294 -0.2002
 5509SOL     OW28162   3.459   4.575  17.152  0.0533  0.4920  0.2479
 5509SOL    HW128163   3.380   4.565  17.099  1.4214 -4.4441 -0.9510
 5509SOL    HW228164   3.457   4.490  17.198 -0.7779  0.2712 -0.1992
 5510SOL     OW28165   0.426   2.289   3.522  0.1594  0.1360 -0.4197
 5510SOL    HW128166   0.456   2.211   3.570 -0.2897  0.0377 -0.2946
 5510SOL    HW228167   0.405   2.258   3.434  0.2776 -0.3261 -0.2878
 5511SOL     OW28168   3.129   1.746   5.819 -0.1139  0.1654 -0.3344
 5511SOL    HW128169   3.101   1.738   5.910 -2.9440  0.6898 -1.1559
 5511SOL    HW228170   3.161   1.660   5.793 -0.8113  0.1700 -1.2200
 5512SOL     OW28171   0.831   4.218   4.724  0.3643  0.2837 -0.5664
 5512SOL    HW128172   0.809   4.292   4.780  2.9051 -0.5247  1.5248
 5512SOL    HW228173   0.745   4.185   4.699  0.3048 -0.2256  0.3084
 5513SOL     OW28174   0.058   3.203   6.707 -0.0246 -0.2911 -0.8111
 5513SOL    HW128175   0.021   3.260   6.639  0.7215 -1.7419 -2.4200
 5513SOL    HW228176   0.148   3.235   6.714  0.3090 -1.4491  0.0755
 5514SOL     OW28177   2.613   4.253  13.594 -0.0550  0.0283  0.5293
 5514SOL    HW128178   2.590   4.307  13.518 -0.7253  1.3181  1.6458
 5514SOL    HW228179   2.704   4.228  13.577 -0.2661 -0.4630  0.1264
 5515SOL     OW28180   0.251   2.506  15.016 -0.1837 -0.0275  0.2699
 5515SOL    HW128181   0.308   2.569  14.971  1.2893 -0.8742  0.9445
 5515SOL    HW228182   0.283   2.422  14.985  0.2708 -0.3317  1.5419
 5516SOL     OW28183   0.399   2.330  17.113 -0.6559  0.3018 -0.1756
 5516SOL    HW128184   0.318   2.313  17.161  1.9804 -0.6575  3.9735
 5516SOL    HW228185   0.434   2.382  17.185  0.6600  1.9229 -1.9709
 5517SOL     OW28186   3.684   1.482   7.671  0.5370  0.1812  0.1640
 5517SOL    HW128187   3.652   1.466   7.583  0.4918 -0.3408  0.2763
 5517SOL    HW228188   3.614   1.532   7.713 -0.4869 -0.7839 -0.4109
 5518SOL     OW28189   4.468   2.484   6.055 -0.3506  0.4235  0.4360
 5518SOL    HW128190   4.548   2.461   6.101 -0.5143 -2.1131 -0.5752
 5518SOL    HW228191   4.468   2.580   6.057  1.4050  0.3938  1.4397
 5519SOL     OW28192   2.302   1.171  15.593 -0.0629  0.3158  0.2025
 5519SOL    HW128193   2.258   1.209  15.517 -1.2056  0.7493  1.0951
 5519SOL    HW228194   2.313   1.250  15.645 -0.7520  2.1075 -2.3347
 5520SOL     OW28195   0.798   1.782  11.726 -0.4470  0.1518  0.3713
 5520SOL    HW128196   0.840   1.795  11.641 -0.3887  0.5404  0.4607
 5520SOL    HW228197   0.807   1.871  11.760  2.3115  0.6704 -1.7814
 5521SOL     OW28198   0.846   3.844   4.635  0.7211 -0.3205 -0.4086
 5521SOL    HW128199   0.769   3.868   4.687  0.7354  3.0147 -1.8847
 5521SOL    HW228200   0.792   3.798   4.571  0.9458  2.3474 -2.5462
 5522SOL     OW28201   2.778   2.484   9.091 -0.0290 -0.2370 -0.1904
 5522SOL    HW128202   2.774   2.411   9.029 -0.4237  1.0282 -1.6554
 5522SOL    HW228203   2.759   2.436   9.172 -1.8280 -2.7350 -2.0754
 5523SOL     OW28204   3.706   0.472   5.678  0.1200  0.2098 -0.3751
 5523SOL    HW128205   3.713   0.425   5.761  0.9920 -1.0578 -1.1662
 5523SOL    HW228206   3.787   0.523   5.673  0.8062 -0.7484  0.7857
 5524SOL     OW28207   4.636   3.560   5.756 -0.0324 -0.4399 -0.1412
 5524SOL    HW128208   4.611   3.500   5.686  1.5253 -1.4829  0.1944
 5524SOL    HW228209   4.732   3.562   5.751 -0.0399 -1.4697 -0.7113
 5525SOL     OW28210   3.499   4.275   2.500  0.3764 -0.6057  0.0063
 5525SOL    HW128211   3.533   4.238   2.419 -2.3672  0.4209 -1.6421
 5525SOL    HW228212   3.543   4.227   2.570  1.4203 -0.0350 -0.2591
 5526SOL     OW28213   3.195   1.237   6.184  0.2785 -0.3161  0.0262
 5526SOL    HW128214   3.187   1.330   6.205  0.2807 -0.2325 -0.3518
 5526SOL    HW228215   3.126   1.203   6.241  0.7350  1.7616  1.8437
 5527SOL     OW28216   4.601   1.878   9.066  1.2447 -0.5742  0.2706
 5527SOL    HW128217   4.669   1.844   9.124 -0.4543 -0.7116  2.1779
 5527SOL    HW228218   4.623   1.850   8.977 -0.4616  1.7963 -0.8898
 5528SOL     OW28219   0.677   1.577  16.454  0.2888 -0.5031  0.3012
 5528SOL    HW128220   0.606   1.636  16.482 -0.6163 -0.1476 -2.6811
 5528SOL    HW228221   0.751   1.638  16.447  0.6618 -1.1524 -1.3533
 5529SOL     OW28222   4.132   1.049   7.619 -0.0374  0.0875 -0.2443
 5529SOL    HW128223   4.102   1.055   7.709  0.0270 -2.3215 -0.0516
 5529SOL    HW228224   4.145   1.142   7.605 -3.6153  0.5698 -0.3920
 5530SOL     OW28225   2.731   4.297   6.507  0.2803  0.4419 -0.2534
 5530SOL    HW128226   2.652   4.302   6.453 -1.5767  0.8949  2.5196
 5530SOL    HW228227   2.732   4.201   6.512  1.2254  0.5075  0.9288
 5531SOL     OW28228   1.903   3.378   3.621 -0.2616  0.0021 -0.0873
 5531SOL    HW128229   1.837   3.341   3.680  1.0038 -1.6146  0.3204
 5531SOL    HW228230   1.935   3.452   3.673 -0.4266 -0.3757  0.5601
 5532SOL     OW28231   3.680   4.016   4.552 -0.3554 -0.7594  0.3274
 5532SOL    HW128232   3.646   4.104   4.536 -0.4673 -0.7470  0.6210
 5532SOL    HW228233   3.775   4.027   4.551 -0.5964  1.4741  2.0321
 5533SOL     OW28234   0.242   3.238  14.341  0.1958  0.6567  0.3085
 5533SOL    HW128235   0.147   3.227  14.338  0.2201  0.8475 -1.0629
 5533SOL    HW228236   0.250   3.289  14.260  1.5384 -0.2755 -0.1322
 5534SOL     OW28237   2.602   2.420   3.689 -0.4899 -0.4024 -0.1200
 5534SOL    HW128238   2.572   2.416   3.598  0.1113  0.5957 -0.3663
 5534SOL    HW228239   2.558   2.344   3.727 -1.1475 -0.0832 -0.2492
 5535SOL     OW28240   2.589   1.636  14.582  0.2902 -0.3292  0.4191
 5535SOL    HW128241   2.541   1.555  14.596  0.1707 -0.4543 -0.7652
 5535SOL    HW228242   2.652   1.638  14.654 -2.1048 -0.8534  2.5268
 5536SOL     OW28243   2.074   1.587   2.759  0.3684  0.6284  0.2883
 5536SOL    HW128244   2.145   1.523   2.765 -0.1683  0.0632  0.5798
 5536SOL    HW228245   2.042   1.564   2.672  0.7335  0.1848  0.2687
 5537SOL     OW28246   4.285   4.061   7.826 -0.4303 -0.7636 -0.5916
 5537SOL    HW128247   4.336   4.131   7.785  1.6459 -2.0371 -0.1667
 5537SOL    HW228248   4.195   4.091   7.813 -0.9926 -2.3259 -0.2707
 5538SOL     OW28249   3.662   1.359   8.314 -0.2801  0.4548  0.2681
 5538SOL    HW128250   3.747   1.363   8.358  0.4261  1.0989 -1.1184
 5538SOL    HW228251   3.692   1.404   8.235  0.8299 -1.9365 -0.6866
 5539SOL     OW28252   3.306   2.358  16.931  0.2053  0.3651  0.3525
 5539SOL    HW128253   3.307   2.304  16.852  1.7378  1.7078 -0.5568
 5539SOL    HW228254   3.379   2.316  16.974 -1.5962 -0.1828  2.8576
 5540SOL     OW28255   0.706   0.630  11.573 -0.1698  1.4682  0.0014
 5540SOL    HW128256   0.800   0.648  11.581  0.2536 -1.0428  0.7569
 5540SOL    HW228257   0.668   0.642  11.660  0.1716 -0.4925  0.4241
 5541SOL     OW28258   3.798   4.600   2.557 -0.5135 -0.0519  0.1634
 5541SOL    HW128259   3.706   4.603   2.584 -0.8509 -0.9501 -0.8549
 5541SOL    HW228260   3.821   4.518   2.601 -1.2800  0.7289  2.0173
 5542SOL     OW28261   2.594   3.142   6.824  0.1630  0.0608 -0.1811
 5542SOL    HW128262   2.532   3.204   6.787  1.2541  0.4082 -1.4275
 5542SOL    HW228263   2.611   3.183   6.909  1.6126 -0.2259 -0.3195
 5543SOL     OW28264   0.729   2.135   3.799  0.0036  0.3972  0.2130
 5543SOL    HW128265   0.777   2.186   3.733  0.7999 -0.9272 -0.2407
 5543SOL    HW228266   0.800   2.079   3.831 -1.3798 -0.1619  2.2622
 5544SOL     OW28267   0.459   2.200  13.236  0.4316 -0.2387  0.5182
 5544SOL    HW128268   0.487   2.279  13.283  3.6835 -0.0515 -1.7807
 5544SOL    HW228269   0.376   2.183  13.280  0.8179 -0.3329  1.2185
 5545SOL     OW28270   3.187   3.290   7.008 -0.3068 -0.2115  0.1995
 5545SOL    HW128271   3.142   3.274   6.925  0.7621  0.1939 -0.4607
 5545SOL    HW228272   3.201   3.384   7.008  0.0622 -0.2646  2.4715
 5546SOL     OW28273   3.085   2.279  10.937  0.3217 -0.0413 -0.3255
 5546SOL    HW128274   2.995   2.249  10.944  0.9852 -2.6408 -2.6481
 5546SOL    HW228275   3.118   2.284  11.026 -0.6854 -2.7198  0.1949
 5547SOL     OW28276   4.687   1.844   8.523 -0.4986 -0.3378 -0.3836
 5547SOL    HW128277   4.671   1.836   8.429 -0.5735 -0.4699 -0.3603
 5547SOL    HW228278   4.680   1.939   8.526  0.4875 -0.3278  1.4855
 5548SOL     OW28279   2.691   0.119   7.741 -0.1840 -0.1272 -0.4442
 5548SOL    HW128280   2.625   0.186   7.724  0.2075 -0.1095 -1.9027
 5548SOL    HW228281   2.729   0.152   7.822 -0.5080 -0.6377 -0.0875
 5549SOL     OW28282   2.797   4.257   4.608 -0.5651  0.2095 -0.0495
 5549SOL    HW128283   2.855   4.323   4.645 -0.7547  0.9565 -1.0781
 5549SOL    HW228284   2.734   4.311   4.560  0.0168  0.5671 -0.4124
 5550SOL     OW28285   2.658   4.612  10.083  0.7270 -0.3495 -0.0963
 5550SOL    HW128286   2.619   4.525  10.083  0.1825 -0.1047  2.0812
 5550SOL    HW228287   2.726   4.593  10.019 -0.2348 -2.2512 -0.5266
 5551SOL     OW28288   3.483   1.506   6.144 -0.1655 -0.7867 -0.0548
 5551SOL    HW128289   3.536   1.565   6.198 -0.6022 -1.1568  0.7673
 5551SOL    HW228290   3.551   1.456   6.098  1.2684  0.1634  1.0302
 5552SOL     OW28291   3.000   3.693   3.613  0.2215 -0.5466  0.2720
 5552SOL    HW128292   2.964   3.605   3.615  0.7864 -0.7451  1.7704
 5552SOL    HW228293   2.984   3.716   3.704 -0.6353  0.5637 -0.1613
 5553SOL     OW28294   1.323   2.996   4.460  0.0305  0.2295  0.7380
 5553SOL    HW128295   1.298   3.009   4.369 -0.3751 -2.0136  0.5494
 5553SOL    HW228296   1.409   2.953   4.462 -0.4954 -0.8911 -1.3104
 5554SOL     OW28297   2.577   3.437   6.905 -0.0647 -0.4989  0.1412
 5554SOL    HW128298   2.622   3.430   6.989 -0.9533  0.7621  0.7291
 5554SOL    HW228299   2.584   3.528   6.876  0.6012 -1.7308 -3.5321
 5555SOL     OW28300   4.730   3.653   0.395 -0.4916  0.4647  0.4598
 5555SOL    HW128301   4.671   3.706   0.341  0.9886  1.4489 -0.1963
 5555SOL    HW228302   0.069   3.686   0.344 -0.2205 -0.3540  0.3252
 5556SOL     OW28303   4.135   0.844   8.647 -0.0087  0.6599 -0.4619
 5556SOL    HW128304   4.159   0.932   8.619 -2.7851  1.7612  0.6671
 5556SOL    HW228305   4.170   0.846   8.736 -1.2288  2.5737 -0.0374
 5557SOL     OW28306   3.605   1.028   9.961  0.5383  0.2085  0.1746
 5557SOL    HW128307   3.510   1.037   9.948  0.3510 -0.0831  1.3640
 5557SOL    HW228308   3.621   1.120   9.983 -3.8754  0.8069  0.9085
 5558SOL     OW28309   3.260   2.615  13.414 -0.5348 -0.5806 -0.2434
 5558SOL    HW128310   3.286   2.623  13.322  1.3347 -1.6999  0.1801
 5558SOL    HW228311   3.331   2.658  13.462 -0.5832  0.1618 -0.8183
 5559SOL     OW28312   1.599   2.848   4.208  0.7299 -0.1120  0.3408
 5559SOL    HW128313   1.546   2.920   4.174 -1.5993 -0.3564  3.4883
 5559SOL    HW228314   1.530   2.783   4.223  0.5457 -0.1890 -0.8566
 5560SOL     OW28315   4.460   0.197  16.961 -0.1450 -0.1689 -0.4198
 5560SOL    HW128316   4.470   0.128  17.026  0.8064  0.9432  0.6028
 5560SOL    HW228317   4.429   0.153  16.882 -0.9093 -0.3854 -0.0070
 5561SOL     OW28318   2.826   2.606  16.725  0.7775  0.2078  0.0370
 5561SOL    HW128319   2.736   2.623  16.753  0.4891 -0.5779 -0.4066
 5561SOL    HW228320   2.794   2.544  16.659  0.0915 -0.2827  0.8299
 5562SOL     OW28321   1.241   0.127   6.576 -1.1587  0.1738 -0.1948
 5562SOL    HW128322   1.221   0.173   6.495  1.5515  0.7140 -0.5518
 5562SOL    HW228323   1.230   0.036   6.546 -0.8164 -0.3955  1.4264
 5563SOL     OW28324   2.042   0.649   2.935 -0.5872  0.8475 -0.2059
 5563SOL    HW128325   2.041   0.565   2.982  0.7242  1.4680  0.9168
 5563SOL    HW228326   2.090   0.705   2.995 -2.1414  0.9190  0.9818
 5564SOL     OW28327   3.855   1.265   6.476  0.7060  0.5310 -0.4399
 5564SOL    HW128328   3.869   1.173   6.496  0.2143  0.7171  0.7305
 5564SOL    HW228329   3.896   1.279   6.390  2.3019  0.4932  0.3135
 5565SOL     OW28330   3.773   0.916   6.813  0.3312  0.2960 -0.0327
 5565SOL    HW128331   3.701   0.967   6.775  1.0946  1.3182 -0.0958
 5565SOL    HW228332   3.779   0.847   6.747 -1.8288 -0.4708  0.5694
 5566SOL     OW28333   2.856   4.516   3.929 -0.2678 -0.1829 -0.0802
 5566SOL    HW128334   2.794   4.455   3.968 -2.3066  0.2824 -2.6111
 5566SOL    HW228335   2.813   4.554   3.853  0.1872  0.9124  0.2072
 5567SOL     OW28336   2.376   3.596  15.092 -0.0813 -0.0494 -0.3155
 5567SOL    HW128337   2.425   3.622  15.014 -0.0615 -0.4002 -0.4163
 5567SOL    HW228338   2.406   3.506  15.096 -0.1283 -0.0965 -1.0932
 5568SOL     OW28339   3.757   2.700   2.869 -0.2049  0.2271 -0.0290
 5568SOL    HW128340   3.758   2.611   2.906 -2.2805  0.3610  0.3336
 5568SOL    HW228341   3.809   2.750   2.932  0.8715  0.4699 -1.1198
 5569SOL     OW28342   3.608   3.083   0.097  0.5361  0.1200 -0.6100
 5569SOL    HW128343   3.571   3.171   0.101 -1.5291 -0.7334 -0.9385
 5569SOL    HW228344   3.671   3.093   0.026  3.0165  0.3258  1.6322
 5570SOL     OW28345   3.271   4.393   2.512  0.0940  0.0533 -0.4131
 5570SOL    HW128346   3.301   4.463   2.453  1.0762  1.1079  1.3551
 5570SOL    HW228347   3.346   4.333   2.518 -2.0104 -2.5040  0.3203
 5571SOL     OW28348   0.629   3.878   3.997 -0.0972  0.2273  0.2548
 5571SOL    HW128349   0.536   3.862   3.982  0.4562 -0.3055 -2.5811
 5571SOL    HW228350   0.620   3.928   4.078 -0.7077  0.3714  0.0981
 5572SOL     OW28351   0.482   3.908  16.157 -0.0908 -0.0347 -0.0681
 5572SOL    HW128352   0.522   3.985  16.117  0.3384 -0.6500 -0.8053
 5572SOL    HW228353   0.445   3.862  16.082  0.6192 -1.8039  0.6825
 5573SOL     OW28354   3.975   0.019  13.411  0.1228  0.1755  0.1572
 5573SOL    HW128355   3.946   0.108  13.395  0.5654  0.3897  0.5580
 5573SOL    HW228356   3.951   4.726  13.323 -0.7089 -2.3062  1.1864
 5574SOL     OW28357   3.916   2.216   8.189 -0.4434  0.4521 -0.1656
 5574SOL    HW128358   3.897   2.174   8.272 -1.1728  0.8039 -0.1519
 5574SOL    HW228359   3.835   2.186   8.146 -0.4202  0.4181 -0.1854
 5575SOL     OW28360   1.221   3.072   2.445  0.3710 -0.1596 -0.2050
 5575SOL    HW128361   1.231   2.987   2.489 -0.8001  0.8064  1.9366
 5575SOL    HW228362   1.234   3.131   2.519 -3.1042 -0.0517  0.3450
 5576SOL     OW28363   2.262   1.750   0.009  0.5048  0.2946 -0.8432
 5576SOL    HW128364   2.267   1.816  17.683 -0.2088  2.4855  1.2242
 5576SOL    HW228365   2.172   1.721  17.734  0.3062 -0.3922  1.3410
 5577SOL     OW28366   3.522   2.677  13.473 -0.0976  0.2355 -0.0795
 5577SOL    HW128367   3.590   2.710  13.414  1.5860  1.3204  2.4583
 5577SOL    HW228368   3.551   2.709  13.559  2.0192 -0.8875 -0.3633
 5578SOL     OW28369   0.094   2.806  15.451 -0.0553 -0.3343  0.1916
 5578SOL    HW128370   0.170   2.833  15.398 -0.2038  1.6838  1.0218
 5578SOL    HW228371   0.084   2.883  15.506  0.1386 -0.1225 -0.0682
 5579SOL     OW28372   2.392   0.518   7.199  0.1407 -0.2223  0.3939
 5579SOL    HW128373   2.419   0.443   7.148  1.0701 -0.0995  0.7105
 5579SOL    HW228374   2.323   0.552   7.141  0.5053 -0.1033  0.0332
 5580SOL     OW28375   1.230   3.014   8.397  0.7437 -0.2972  0.2332
 5580SOL    HW128376   1.229   2.927   8.358  0.3557  0.5052 -1.5745
 5580SOL    HW228377   1.220   3.065   8.316 -1.8319  0.9094  1.3460
 5581SOL     OW28378   3.500   2.255   5.224  0.5918  0.1066  0.3005
 5581SOL    HW128379   3.521   2.231   5.134  1.2287  1.6316  0.0372
 5581SOL    HW228380   3.586   2.249   5.265 -0.4231 -0.4460  2.3161
 5582SOL     OW28381   3.290   2.356   6.899 -0.6793  0.4330  0.0320
 5582SOL    HW128382   3.242   2.389   6.975  0.4982  2.1191  0.0478
 5582SOL    HW228383   3.220   2.312   6.852  0.8067 -1.7816 -0.0824
 5583SOL     OW28384   4.093   4.025   4.954 -0.4597  0.3062 -0.1193
 5583SOL    HW128385   3.998   4.034   4.955 -0.4380  0.6213 -1.0250
 5583SOL    HW228386   4.116   4.081   4.880  0.7668  0.5131  0.4152
 5584SOL     OW28387   1.826   0.247  17.122 -0.2515  0.4583 -0.1504
 5584SOL    HW128388   1.802   0.169  17.071  0.8089 -0.8887  1.3767
 5584SOL    HW228389   1.794   0.319  17.068 -1.0631 -0.2987 -0.6925
 5585SOL     OW28390   4.192   2.193   6.859  0.5225 -0.3188  0.4692
 5585SOL    HW128391   4.273   2.147   6.836  0.7872  0.0397  0.6875
 5585SOL    HW228392   4.158   2.208   6.771  1.7436  0.8106  0.1846
 5586SOL     OW28393   0.775   0.061   5.935  0.0010 -0.4204  0.2270
 5586SOL    HW128394   0.684   0.089   5.943  0.0751 -0.6254  1.8079
 5586SOL    HW228395   0.794   0.047   6.028  0.0777 -3.6100 -0.2819
 5587SOL     OW28396   1.496   1.598   3.861 -0.4336 -0.0214  0.1153
 5587SOL    HW128397   1.459   1.587   3.948 -1.9962 -0.9852 -0.6711
 5587SOL    HW228398   1.576   1.650   3.867 -0.0711 -0.7633  1.5885
 5588SOL     OW28399   0.953   0.197   5.030  0.7112 -0.4050  0.2069
 5588SOL    HW128400   1.007   0.170   5.104  1.1392 -0.6238 -0.1845
 5588SOL    HW228401   0.964   0.118   4.977  0.0386  0.3551 -1.0785
 5589SOL     OW28402   2.194   3.528  14.732  0.5092  0.1401 -0.0267
 5589SOL    HW128403   2.139   3.570  14.798  2.3429  2.3213  0.1168
 5589SOL    HW228404   2.285   3.528  14.760  0.5171 -0.2978 -0.0548
 5590SOL     OW28405   2.977   0.815  12.292 -0.2298 -0.7534 -0.0732
 5590SOL    HW128406   2.908   0.882  12.295  2.2982  1.7173  2.7907
 5590SOL    HW228407   3.043   0.871  12.251 -1.0893  0.0807 -0.3325
 5591SOL     OW28408   2.056   4.512   3.537 -0.6293 -0.5618 -0.1467
 5591SOL    HW128409   2.080   4.420   3.539 -0.5991 -0.5658 -0.6517
 5591SOL    HW228410   2.139   4.547   3.570 -0.3014  0.1181 -1.6489
 5592SOL     OW28411   2.879   4.185  13.616 -1.2446  0.2123  0.2316
 5592SOL    HW128412   2.968   4.215  13.634 -0.0881 -3.4492  0.7017
 5592SOL    HW228413   2.897   4.163  13.525  0.7588  0.9219  0.4600
 5593SOL     OW28414   2.646   2.159   5.338  0.1599  0.1153 -0.3107
 5593SOL    HW128415   2.586   2.221   5.296 -1.3729 -1.0430  0.1964
 5593SOL    HW228416   2.605   2.137   5.421  1.7698 -1.0017  0.1745
 5594SOL     OW28417   4.277   3.951   8.451  0.4255  0.5438 -0.0746
 5594SOL    HW128418   4.249   3.952   8.359  2.9470 -0.1851 -0.8566
 5594SOL    HW228419   4.233   3.876   8.490  1.5722  0.4864  1.1388
 5595SOL     OW28420   3.580   2.318   5.687 -0.0869 -0.1812 -0.1079
 5595SOL    HW128421   3.560   2.239   5.737  2.0533  0.3199  1.5633
 5595SOL    HW228422   3.515   2.304   5.618  2.0948 -1.7996 -1.8595
 5596SOL     OW28423   3.373   3.945   9.072  0.6693 -0.4373 -0.0331
 5596SOL    HW128424   3.443   3.974   9.130 -1.0462  1.3090  1.1472
 5596SOL    HW228425   3.327   4.028   9.064 -1.3239 -1.4149  1.3923
 5597SOL     OW28426   1.938   3.056   3.538 -0.1467 -0.0056 -0.0462
 5597SOL    HW128427   1.855   3.087   3.576 -0.8485 -2.4072  0.3506
 5597SOL    HW228428   1.966   3.127   3.480  0.9088 -1.1459 -0.9236
 5598SOL     OW28429   2.339   4.574   4.262  0.0860  0.4076  0.1002
 5598SOL    HW128430   2.273   4.512   4.294  1.3893 -1.2228 -0.3296
 5598SOL    HW228431   2.348   4.633   4.336  0.3880  1.2437 -0.5979
 5599SOL     OW28432   0.472   3.998   5.550  0.4800 -0.2562 -0.2363
 5599SOL    HW128433   0.386   4.037   5.541  0.5580 -0.4662 -1.9657
 5599SOL    HW228434   0.453   3.908   5.522 -0.3135  0.0350 -0.6281
 5600SOL     OW28435   1.074   3.544   0.866  0.2466 -0.4724  0.2276
 5600SOL    HW128436   1.102   3.635   0.881  0.5806 -0.5834  0.2791
 5600SOL    HW228437   1.070   3.519   0.774  1.0905 -1.4128  0.4426
 5601SOL     OW28438   3.622   0.259   0.872 -0.1911 -0.3545 -0.0328
 5601SOL    HW128439   3.612   0.353   0.857  0.1440 -0.1500  1.0338
 5601SOL    HW228440   3.669   0.233   0.793 -1.2214  2.3538 -1.5324
 5602SOL     OW28441   3.330   1.059  10.679 -0.8357 -0.6872 -0.4337
 5602SOL    HW128442   3.407   1.063  10.621 -0.8568  0.3849 -0.4005
 5602SOL    HW228443   3.265   1.020  10.621 -1.5985  0.9826 -0.7213
 5603SOL     OW28444   0.784   1.760   4.169  0.1564  0.2913 -0.0390
 5603SOL    HW128445   0.762   1.697   4.101 -0.5374 -1.8902  2.2360
 5603SOL    HW228446   0.732   1.836   4.145 -1.3175 -0.5897  0.4268
 5604SOL     OW28447   3.343   1.082   1.897  0.2338 -0.1572 -0.2616
 5604SOL    HW128448   3.325   1.169   1.931  0.5293  0.9784 -3.0147
 5604SOL    HW228449   3.280   1.068   1.826 -0.0590 -2.8861  0.5219
 5605SOL     OW28450   4.000   3.655   4.256 -0.2424 -0.3843 -0.3558
 5605SOL    HW128451   3.947   3.583   4.224 -2.5118  1.2883 -0.3590
 5605SOL    HW228452   4.086   3.626   4.225 -0.2951 -1.9122  0.9379
 5606SOL     OW28453   1.704   0.802   5.020 -0.0671  0.0647 -0.4016
 5606SOL    HW128454   1.691   0.896   5.012  0.4298  0.2610  1.0724
 5606SOL    HW228455   1.649   0.774   4.946  0.7054 -1.6052 -0.3420
 5607SOL     OW28456   1.155   0.469   8.601 -0.4760  0.5273 -0.1197
 5607SOL    HW128457   1.163   0.390   8.654  0.7118  0.6324 -0.1460
 5607SOL    HW228458   1.107   0.539   8.645 -0.8431  0.5252 -0.5192
 5608SOL     OW28459   2.940   1.453  11.032 -0.0622  0.0888  0.3709
 5608SOL    HW128460   2.944   1.359  11.016 -1.2037 -0.2994  2.3025
 5608SOL    HW228461   2.885   1.464  11.110  3.0206  1.1028  2.4122
 5609SOL     OW28462   3.811   4.576   8.866  0.1013  0.1762 -0.7021
 5609SOL    HW128463   3.886   4.517   8.873  0.7567  0.9773 -0.9275
 5609SOL    HW228464   3.731   4.528   8.844 -0.3024  1.6685 -2.5346
 5610SOL     OW28465   0.105   4.162  13.729 -0.2325 -0.3742  0.4554
 5610SOL    HW128466   0.115   4.167  13.634  1.9919  1.6937  0.7858
 5610SOL    HW228467   0.150   4.243  13.755 -1.9940  1.0319 -0.9445
 5611SOL     OW28468   1.271   2.319  16.287  0.2139 -0.0706 -0.1372
 5611SOL    HW128469   1.206   2.333  16.219  0.3347 -4.2330 -1.1184
 5611SOL    HW228470   1.266   2.226  16.311  1.0796  0.8988  3.7483
 5612SOL     OW28471   1.996   1.154   0.042  0.1480  0.3441  0.4485
 5612SOL    HW128472   1.995   1.239   0.086 -2.8653  1.4692 -1.7774
 5612SOL    HW228473   2.019   1.183  17.696 -1.0808  1.3166  0.4292
 5613SOL     OW28474   2.351   1.962  16.913  0.2753  0.5027  0.3401
 5613SOL    HW128475   2.293   2.028  16.950 -1.6727 -1.8338  1.4903
 5613SOL    HW228476   2.385   1.930  16.997  1.6449 -1.3640 -0.9227
 5614SOL     OW28477   0.472   4.408   2.478  0.1085 -0.2052  0.3395
 5614SOL    HW128478   0.548   4.351   2.487 -0.8315 -1.1419  2.3146
 5614SOL    HW228479   0.508   4.494   2.454  1.8161 -1.5923 -2.0464
 5615SOL     OW28480   0.560   1.128   5.650 -0.2401  0.4612  0.0904
 5615SOL    HW128481   0.563   1.045   5.696  1.1677  0.7028  0.4364
 5615SOL    HW228482   0.470   1.125   5.618  0.4607  0.9495 -1.9962
 5616SOL     OW28483   3.427   2.444  13.094 -0.2585 -0.1676  0.1273
 5616SOL    HW128484   3.367   2.517  13.111  0.1383 -0.3277  2.1553
 5616SOL    HW228485   3.386   2.379  13.036 -1.1863  1.6693 -1.2762
 5617SOL     OW28486   1.326   1.889  16.788 -0.3073 -0.2759  0.6440
 5617SOL    HW128487   1.331   1.865  16.881  0.8026  1.6463  1.0840
 5617SOL    HW228488   1.261   1.958  16.803  0.7726  1.4417 -2.5854
 5618SOL     OW28489   0.476   2.163   5.235  0.3250  0.0847  0.5084
 5618SOL    HW128490   0.488   2.163   5.330  1.2321 -0.6173  0.3930
 5618SOL    HW228491   0.533   2.094   5.202 -0.5121 -1.3000  1.9539
 5619SOL     OW28492   0.453   1.379   5.174  0.1288 -0.1089 -0.6364
 5619SOL    HW128493   0.368   1.352   5.140 -0.2496 -0.1687  0.3518
 5619SOL    HW228494   0.503   1.299   5.167  1.4070  0.4555  1.8248
 5620SOL     OW28495   2.214   2.037  10.185  0.5000 -0.1768  0.8496
 5620SOL    HW128496   2.249   1.949  10.193  0.3134 -0.3147  0.1954
 5620SOL    HW228497   2.132   2.033  10.234  0.1348 -1.1593  0.1518
 5621SOL     OW28498   3.778   4.322   7.174 -0.2061  0.3233 -0.1104
 5621SOL    HW128499   3.867   4.329   7.142  0.2758  1.8424  1.5501
 5621SOL    HW228500   3.741   4.264   7.107 -2.0386  2.0342 -0.6153
 5622SOL     OW28501   2.282   0.614   6.688  0.3600  0.2953 -0.2925
 5622SOL    HW128502   2.303   0.636   6.778  0.8447 -1.8775  0.1327
 5622SOL    HW228503   2.366   0.591   6.649  2.2887  2.4169  2.6568
 5623SOL     OW28504   4.544   0.326   8.380 -0.2038 -0.0691  0.2085
 5623SOL    HW128505   4.548   0.364   8.292 -0.4382  0.4100  0.4052
 5623SOL    HW228506   4.467   0.270   8.373 -0.9634  1.0684 -0.6211
 5624SOL     OW28507   0.184   1.206   7.508 -0.0389  0.1562 -0.1705
 5624SOL    HW128508   0.276   1.181   7.522 -0.1281 -0.9826 -1.6295
 5624SOL    HW228509   0.195   1.273   7.441  1.3104  1.3793  1.2854
 5625SOL     OW28510   3.845   4.392   2.264  0.2328 -0.2740  0.3801
 5625SOL    HW128511   3.859   4.440   2.346 -1.6285 -0.3277  0.7417
 5625SOL    HW228512   3.921   4.416   2.211 -0.8225  1.4260 -0.3550
 5626SOL     OW28513   3.287   0.247   7.782  0.3636 -0.1163  0.4240
 5626SOL    HW128514   3.324   0.260   7.869 -0.2703 -0.5531  0.7517
 5626SOL    HW228515   3.272   0.153   7.790  0.2720 -0.1537 -0.1601
 5627SOL     OW28516   0.979   3.334   7.204 -0.3438 -0.4556 -0.3550
 5627SOL    HW128517   1.055   3.275   7.196  0.4543  0.6984 -1.2714
 5627SOL    HW228518   0.914   3.270   7.233  0.6004 -0.6559  1.3755
 5628SOL     OW28519   1.743   3.755  14.617 -0.1863 -0.2930  0.0393
 5628SOL    HW128520   1.794   3.688  14.663 -1.3072 -1.4955 -0.4726
 5628SOL    HW228521   1.791   3.768  14.535 -0.4282  0.3602  0.0003
 5629SOL     OW28522   2.200   2.162   9.038 -0.1864  0.1001 -0.0506
 5629SOL    HW128523   2.206   2.075   9.077  0.3773 -0.3026 -1.0116
 5629SOL    HW228524   2.107   2.164   9.015  0.0496  0.3836 -0.9767
 5630SOL     OW28525   4.112   3.017  11.824  0.4597  0.3370  0.3894
 5630SOL    HW128526   4.077   2.934  11.793  0.4735  0.5510 -0.1979
 5630SOL    HW228527   4.195   2.989  11.863  1.7738  2.3804 -0.9179
 5631SOL     OW28528   2.641   3.317   9.393 -0.2604 -0.0602 -0.1182
 5631SOL    HW128529   2.653   3.224   9.410  1.4149 -0.0924 -1.5454
 5631SOL    HW228530   2.563   3.312   9.338 -1.7484 -3.5757  2.3071
 5632SOL     OW28531   2.065   2.275   2.176 -0.0408 -0.7979 -0.3102
 5632SOL    HW128532   2.130   2.345   2.176 -0.5310 -0.3320 -2.7081
 5632SOL    HW228533   1.983   2.324   2.179 -0.0875 -0.8000 -1.7863
 5633SOL     OW28534   2.333   4.616  11.831  0.5757  0.3149  0.0057
 5633SOL    HW128535   2.312   4.691  11.887 -0.9914  0.0108 -0.1618
 5633SOL    HW228536   2.259   4.557  11.845 -0.5532  1.4297 -1.3258
 5634SOL     OW28537   4.710   0.070   3.446  0.0261  0.5808  0.5567
 5634SOL    HW128538   0.037   0.019   3.396  0.0059 -0.0992  1.2284
 5634SOL    HW228539   0.017   0.116   3.518  2.0186 -0.7804  0.2249
 5635SOL     OW28540   3.510   3.707  16.744 -0.5987 -0.2487 -0.5458
 5635SOL    HW128541   3.565   3.655  16.685  1.9330  0.0690  1.5305
 5635SOL    HW228542   3.529   3.665  16.828 -0.8711 -0.1397 -0.4292
 5636SOL     OW28543   0.356   1.024   9.820  0.0416 -0.3634  0.1697
 5636SOL    HW128544   0.279   1.010   9.875  0.1160 -0.6609  0.1983
 5636SOL    HW228545   0.427   0.987   9.873  1.1625  0.6289 -0.6327
 5637SOL     OW28546   4.434   3.987   7.516 -0.7867  0.5333  0.2567
 5637SOL    HW128547   4.524   3.994   7.484 -0.7094  0.4070  0.4402
 5637SOL    HW228548   4.436   3.996   7.612 -0.1652 -0.0052  0.3030
 5638SOL     OW28549   3.168   3.295   6.349 -0.0139  0.1389 -0.2157
 5638SOL    HW128550   3.133   3.224   6.296  0.7104 -0.6137  0.3205
 5638SOL    HW228551   3.254   3.327   6.322 -0.6502  1.3223 -0.8393
 5639SOL     OW28552   0.731   1.675  15.794 -0.1831 -0.3705 -0.4635
 5639SOL    HW128553   0.637   1.672  15.778 -0.0450  0.5671 -1.4989
 5639SOL    HW228554   0.753   1.624  15.715  2.9206  0.4301 -0.1049
 5640SOL     OW28555   0.942   0.623   7.747 -0.1097  0.2714  0.4500
 5640SOL    HW128556   0.853   0.594   7.728 -0.0145 -0.1369  0.6327
 5640SOL    HW228557   0.938   0.621   7.843  2.0391 -0.0498  0.5388
 5641SOL     OW28558   0.321   2.482   9.686 -0.0403 -0.1007 -0.1818
 5641SOL    HW128559   0.365   2.418   9.741 -1.7735 -0.8067  0.3901
 5641SOL    HW228560   0.373   2.559   9.708  0.3857 -0.5259  0.2936
 5642SOL     OW28561   1.636   2.607   6.974 -0.3742  0.1286 -0.0632
 5642SOL    HW128562   1.655   2.662   6.898  1.2165  0.8262  0.8096
 5642SOL    HW228563   1.718   2.608   7.025 -0.5466  1.3388  0.2070
 5643SOL     OW28564   0.000   0.141  10.047  0.0576 -0.2998  0.1294
 5643SOL    HW128565   4.659   0.151   9.992 -1.4689  0.1994  2.3399
 5643SOL    HW228566   0.070   0.165   9.985 -0.6499  2.1348  0.2782
 5644SOL     OW28567   0.373   3.340   2.260  0.1622  0.7745 -0.4627
 5644SOL    HW128568   0.380   3.363   2.353  3.2424 -0.4138 -0.3822
 5644SOL    HW228569   0.290   3.381   2.238 -1.5429 -1.6069  1.4765
 5645SOL     OW28570   2.534   3.352   1.771 -0.2868 -0.2256  0.3472
 5645SOL    HW128571   2.594   3.282   1.798 -1.0571 -1.1928 -0.4555
 5645SOL    HW228572   2.584   3.433   1.783  0.5620 -0.8748  1.1674
 5646SOL     OW28573   2.575   0.050   5.862  0.0025  0.0830  0.6703
 5646SOL    HW128574   2.519   0.025   5.788 -1.1407 -2.8958  2.5435
 5646SOL    HW228575   2.500   0.072   5.916  0.4091 -0.6127  1.5135
 5647SOL     OW28576   3.531   1.967   6.302  0.0213 -0.0441 -0.2036
 5647SOL    HW128577   3.624   1.974   6.326 -0.3872 -0.1379  1.4610
 5647SOL    HW228578   3.530   2.001   6.213 -0.3032  0.9009  0.1663
 5648SOL     OW28579   1.824   3.006   4.243  0.0444  0.3372 -0.6445
 5648SOL    HW128580   1.770   3.083   4.262 -0.3781 -0.2966  0.7125
 5648SOL    HW228581   1.753   2.944   4.223  0.6998 -0.9082  0.8560
 5649SOL     OW28582   2.722   0.597  12.329  0.3006  0.2048  0.5671
 5649SOL    HW128583   2.634   0.631  12.311 -0.1986  0.3970  3.4063
 5649SOL    HW228584   2.714   0.560  12.417 -0.9911  0.2427  0.4678
 5650SOL     OW28585   3.106   3.081   9.030 -0.0660 -0.6175  0.4365
 5650SOL    HW128586   3.165   3.112   9.098 -0.6672  0.5583  0.4062
 5650SOL    HW228587   3.151   2.997   9.013 -0.8032 -0.8572 -0.3385
 5651SOL     OW28588   4.378   4.496   7.356  0.1518  0.1344  0.4346
 5651SOL    HW128589   4.442   4.531   7.419  1.5020 -0.8431 -0.3891
 5651SOL    HW228590   4.327   4.574   7.334 -0.7361 -1.1895 -2.1138
 5652SOL     OW28591   3.741   0.573   7.333  1.2910 -0.2821  0.4472
 5652SOL    HW128592   3.693   0.511   7.388  1.0634 -0.9815 -0.5459
 5652SOL    HW228593   3.712   0.660   7.363  0.5302 -0.3096 -0.2363
 5653SOL     OW28594   1.079   1.890   6.649  0.2536  0.4679 -0.2092
 5653SOL    HW128595   0.985   1.876   6.663  0.4261 -0.4639  0.0136
 5653SOL    HW228596   1.077   1.983   6.625  2.3054  0.7686  0.7929
 5654SOL     OW28597   1.151   4.517   0.087  0.8520  0.2184 -0.4098
 5654SOL    HW128598   1.175   4.606   0.061  1.3882  0.4451  0.8673
 5654SOL    HW228599   1.205   4.503   0.165 -0.2941 -1.7333  0.0303
 5655SOL     OW28600   3.215   0.863   0.523 -0.2743  0.6040 -0.0046
 5655SOL    HW128601   3.191   0.900   0.438 -0.9311  0.6421  0.1997
 5655SOL    HW228602   3.226   0.944   0.573  0.2903 -0.6578  1.9138
 5656SOL     OW28603   1.103   0.092  12.926 -0.2170 -0.4357  0.5331
 5656SOL    HW128604   1.053   0.011  12.914  1.2564 -1.5548  1.8305
 5656SOL    HW228605   1.098   0.122  12.836  0.8501 -0.3538  0.4958
 5657SOL     OW28606   0.218   0.023   8.129  0.1784  0.3208 -0.3548
 5657SOL    HW128607   0.190   0.096   8.184 -3.2599 -0.7708 -0.6894
 5657SOL    HW228608   0.140   4.704   8.128  0.2327  0.2085  1.2559
 5658SOL     OW28609   0.190   4.698  11.589 -0.4937  0.0752  0.7429
 5658SOL    HW128610   0.129   4.671  11.658  1.5800 -0.2391  2.4733
 5658SOL    HW228611   0.200   0.051  11.624 -0.3297 -0.4943  2.1513
 5659SOL     OW28612   1.787   0.914  15.743  0.4047 -0.4381  0.7822
 5659SOL    HW128613   1.842   0.991  15.733 -1.3854  0.6964 -0.4177
 5659SOL    HW228614   1.727   0.910  15.668 -1.2155  1.5687  1.9771
 5660SOL     OW28615   3.478   0.292   4.527 -0.1993 -0.0165 -0.4907
 5660SOL    HW128616   3.410   0.258   4.468  1.0978 -0.1012 -1.9452
 5660SOL    HW228617   3.459   0.249   4.610 -2.7205 -0.0604 -1.0712
 5661SOL     OW28618   3.436   2.406   7.322 -0.1488  0.4165 -0.1509
 5661SOL    HW128619   3.439   2.472   7.253 -0.2043 -3.0986 -3.4716
 5661SOL    HW228620   3.495   2.443   7.388 -0.3016  0.6751 -0.1588
 5662SOL     OW28621   0.946   0.706   2.261  0.1639 -0.6235 -0.3380
 5662SOL    HW128622   0.890   0.754   2.200  0.5758  0.0878 -0.1456
 5662SOL    HW228623   0.885   0.634   2.280 -2.3533  1.2988 -1.0241
 5663SOL     OW28624   0.448   2.971   4.813  0.1543  0.2254 -0.3349
 5663SOL    HW128625   0.454   3.049   4.758 -0.6707  0.3380 -0.2629
 5663SOL    HW228626   0.438   3.012   4.899 -0.5958 -2.4902  0.8667
 5664SOL     OW28627   0.921   3.366   2.139 -0.5081 -0.0070  0.1077
 5664SOL    HW128628   0.921   3.450   2.185  1.4575  1.0066 -1.7652
 5664SOL    HW228629   0.952   3.304   2.205  0.1923  0.8339  0.5590
 5665SOL     OW28630   0.114   2.792   3.670 -0.3765  0.0295  0.9876
 5665SOL    HW128631   0.120   2.706   3.628 -0.2028  1.1712 -1.3362
 5665SOL    HW228632   0.205   2.821   3.668 -0.6262  0.6847 -1.1210
 5666SOL     OW28633   3.062   1.793   0.125 -0.5475 -0.3436 -0.3172
 5666SOL    HW128634   3.078   1.887   0.128 -0.1190 -0.3886 -1.2768
 5666SOL    HW228635   3.092   1.777   0.215 -1.2411  1.7921  0.2996
 5667SOL     OW28636   3.365   1.950  11.286 -0.1223  0.5592 -0.0470
 5667SOL    HW128637   3.424   1.882  11.319 -0.9616  0.3806  1.1189
 5667SOL    HW228638   3.346   1.912  11.200  0.2099  1.2863 -0.4383
 5668SOL     OW28639   0.920   2.186   5.785 -0.0169  0.2680 -0.0673
 5668SOL    HW128640   0.894   2.144   5.703 -1.7900  0.7761  0.2428
 5668SOL    HW228641   0.958   2.107   5.822  1.2761  1.0462  0.2505
 5669SOL     OW28642   3.908   2.697   0.628  0.4681  0.4730  0.0724
 5669SOL    HW128643   3.865   2.776   0.595 -2.7437 -1.0888  0.5106
 5669SOL    HW228644   3.854   2.681   0.705  0.4378  0.4750  0.0517
 5670SOL     OW28645   2.019   1.366   8.192  0.0563  0.0294  0.3765
 5670SOL    HW128646   2.011   1.327   8.105 -2.5211 -0.1769  0.6991
 5670SOL    HW228647   2.064   1.298   8.243  0.3798  1.5831  2.1926
 5671SOL     OW28648   1.304   4.515   6.845  0.1588 -0.4509 -0.7790
 5671SOL    HW128649   1.298   4.580   6.915  1.9127  0.8283 -1.8390
 5671SOL    HW228650   1.214   4.484   6.834 -0.5595  1.8371 -1.2717
 5672SOL     OW28651   1.629   2.041  16.541  0.0816  0.1352 -0.5332
 5672SOL    HW128652   1.582   2.057  16.623 -1.8206 -1.3887 -1.3316
 5672SOL    HW228653   1.564   2.001  16.483  1.0773 -1.6888 -0.3790
 5673SOL     OW28654   4.493   3.863   2.382  0.0331 -0.5158  0.0951
 5673SOL    HW128655   4.494   3.914   2.463 -0.8779  1.1883 -0.9659
 5673SOL    HW228656   4.583   3.880   2.351  0.9386  1.2783  3.7177
 5674SOL     OW28657   1.166   3.230   4.843  0.3020  0.2732 -0.0854
 5674SOL    HW128658   1.206   3.304   4.888  1.2389  0.0158 -0.4898
 5674SOL    HW228659   1.222   3.216   4.766  0.5371 -2.1813  0.5162
 5675SOL     OW28660   0.104   3.273   7.920  0.8395  0.7001 -0.4719
 5675SOL    HW128661   0.019   3.313   7.935 -0.1617 -1.6079 -0.0215
 5675SOL    HW228662   0.082   3.191   7.877  0.4904  1.5149 -1.8416
 5676SOL     OW28663   0.033   3.352   4.347  0.4837  0.1752  0.1202
 5676SOL    HW128664   0.076   3.312   4.422 -1.8958 -2.2580  0.1642
 5676SOL    HW228665   0.022   3.279   4.286 -1.4838 -2.2103  3.3630
 5677SOL     OW28666   2.486   3.945   1.687  0.0423 -0.2903  0.6658
 5677SOL    HW128667   2.508   3.957   1.595 -1.1379 -1.0835  0.2799
 5677SOL    HW228668   2.399   3.906   1.679 -0.5948  0.9676  1.4468
 5678SOL     OW28669   2.689   3.849   3.708 -0.0991  0.2356  0.1142
 5678SOL    HW128670   2.756   3.789   3.743 -3.5378 -0.7437  4.8508
 5678SOL    HW228671   2.673   3.920   3.769  0.3134 -0.2290  0.7697
 5679SOL     OW28672   0.211   0.617   1.911 -0.1104  0.0681  0.4226
 5679SOL    HW128673   0.193   0.652   1.824 -1.0614 -2.3944 -0.3982
 5679SOL    HW228674   0.293   0.663   1.928 -2.0901  4.0733 -0.9460
 5680SOL     OW28675   3.988   0.203   0.265  0.4299 -0.0828 -0.8685
 5680SOL    HW128676   4.001   0.158   0.349 -2.0322  1.3136  0.2654
 5680SOL    HW228677   4.025   0.288   0.289 -2.9264  1.2195 -0.2084
 5681SOL     OW28678   0.135   0.958  12.005 -0.5197 -0.1083  0.0921
 5681SOL    HW128679   0.192   0.979  11.931 -0.5080 -0.2241  0.0686
 5681SOL    HW228680   0.163   0.868  12.019 -0.5565 -0.8616 -4.7339
 5682SOL     OW28681   1.936   3.143   6.250  0.5145 -0.2228 -0.1440
 5682SOL    HW128682   1.842   3.152   6.234  0.8492 -0.8740 -2.4312
 5682SOL    HW228683   1.942   3.070   6.311 -0.3739  0.0020  0.2211
 5683SOL     OW28684   4.021   0.156   2.311 -0.7402  0.2697 -1.5845
 5683SOL    HW128685   4.023   0.184   2.220  0.6818  3.2108 -0.6394
 5683SOL    HW228686   3.956   0.218   2.343 -0.4208 -0.5318  0.6379
 5684SOL     OW28687   3.173   2.330   8.880 -0.1773 -0.5930  0.3471
 5684SOL    HW128688   3.150   2.328   8.973 -0.0986 -0.1078  0.3759
 5684SOL    HW228689   3.249   2.387   8.891 -0.8230 -0.3475  3.4189
 5685SOL     OW28690   0.130   1.897   1.565  0.1033  0.5691  0.2292
 5685SOL    HW128691   0.061   1.949   1.604 -1.0926 -0.1391 -0.9570
 5685SOL    HW228692   0.199   1.963   1.551 -0.1825  0.6211 -0.9548
 5686SOL     OW28693   2.184   3.911  17.704 -0.1639  0.3111 -0.5657
 5686SOL    HW128694   2.251   3.864  17.655 -0.8484 -3.0296  1.6795
 5686SOL    HW228695   2.117   3.843  17.706  0.4339 -0.3019 -1.5032
 5687SOL     OW28696   2.558   3.808   8.550 -0.1190 -0.1329  0.3066
 5687SOL    HW128697   2.578   3.782   8.461 -0.2722  0.9437 -0.0396
 5687SOL    HW228698   2.631   3.784   8.606 -1.6666  0.5448  2.6469
 5688SOL     OW28699   2.340   1.332   6.044 -0.0399  0.2728 -0.4638
 5688SOL    HW128700   2.383   1.415   6.063  1.1810  0.0137 -2.1470
 5688SOL    HW228701   2.258   1.339   6.093 -0.7133 -0.0318 -1.5522
 5689SOL     OW28702   0.289   3.163   8.782  0.1076 -0.0208 -0.1650
 5689SOL    HW128703   0.291   3.070   8.759  0.0436  0.0959 -0.6344
 5689SOL    HW228704   0.287   3.168   8.877  0.0846  0.6793 -0.2065
 5690SOL     OW28705   2.935   3.153  12.268  0.0832  0.1871 -0.2962
 5690SOL    HW128706   2.991   3.217  12.226  0.5189  0.4797  0.7218
 5690SOL    HW228707   2.994   3.081  12.292 -1.3178 -0.0977  2.3064
 5691SOL     OW28708   1.307   3.603   2.734 -0.0989  0.3151  0.0411
 5691SOL    HW128709   1.305   3.636   2.644  1.8916 -0.1421 -0.1691
 5691SOL    HW228710   1.216   3.574   2.740  0.6765 -2.1537 -0.0780
 5692SOL     OW28711   0.299   4.695   1.524 -0.3618 -0.1538  0.5401
 5692SOL    HW128712   0.298   0.030   1.459 -2.7200 -0.0208  0.7317
 5692SOL    HW228713   0.305   0.001   1.610  1.5016 -0.5475  0.6076
 5693SOL     OW28714   2.599   3.297   2.382  0.1340  0.3573  0.0696
 5693SOL    HW128715   2.548   3.221   2.352 -1.5860  0.8570  1.7281
 5693SOL    HW228716   2.624   3.342   2.301 -2.4891  0.5759 -0.6427
 5694SOL     OW28717   2.697   0.262   2.162 -0.3338 -0.3336  0.2829
 5694SOL    HW128718   2.676   0.175   2.198 -0.0638  0.2595  1.8559
 5694SOL    HW228719   2.792   0.264   2.174 -0.0981 -0.9231 -1.4916
 5695SOL     OW28720   1.022   1.920   7.757  0.1207 -0.8798  0.8645
 5695SOL    HW128721   1.007   1.962   7.842  1.6895  1.2740  0.0581
 5695SOL    HW228722   0.949   1.954   7.705  0.2781 -1.3011  0.3721
 5696SOL     OW28723   1.135   4.304   1.240  0.1291  0.1598 -0.0165
 5696SOL    HW128724   1.071   4.314   1.310 -0.2725 -0.0964 -0.3392
 5696SOL    HW228725   1.156   4.211   1.249 -3.6815 -0.7197 -0.3032
 5697SOL     OW28726   4.594   1.857  11.495 -0.7610 -0.2557  0.4333
 5697SOL    HW128727   4.676   1.888  11.458 -0.2995 -0.1705  1.5220
 5697SOL    HW228728   4.529   1.886  11.431  0.1279  1.8626  0.5107
 5698SOL     OW28729   4.242   4.157  16.566 -0.0621  0.1281 -0.4240
 5698SOL    HW128730   4.299   4.110  16.626  0.1676  1.0482  0.0843
 5698SOL    HW228731   4.170   4.188  16.621 -0.2698 -2.0846  0.5437
 5699SOL     OW28732   1.537   4.622   3.052  0.4439 -0.2897 -0.2920
 5699SOL    HW128733   1.609   4.685   3.050 -0.3973  0.6141 -2.6238
 5699SOL    HW228734   1.586   4.556   3.100 -0.2607 -0.0653  0.7459
 5700SOL     OW28735   2.418   2.213   4.947 -0.5138 -0.2994  0.1174
 5700SOL    HW128736   2.460   2.211   5.033  0.3093 -1.0155 -0.3014
 5700SOL    HW228737   2.352   2.281   4.952  0.0627  0.2796 -0.1506
 5701SOL     OW28738   1.143   1.316  11.362 -0.3366  0.5852  0.5399
 5701SOL    HW128739   1.121   1.401  11.400  0.9412  0.7624  0.8863
 5701SOL    HW228740   1.089   1.264  11.421 -0.1326  1.0431  1.1335
 5702SOL     OW28741   1.209   2.153   1.221  0.0404 -0.3220  0.4134
 5702SOL    HW128742   1.175   2.235   1.256 -0.0989 -1.7469  3.6376
 5702SOL    HW228743   1.209   2.169   1.127  0.0156 -0.4650  0.3892
 5703SOL     OW28744   0.880   1.654   5.328  0.3985 -0.5862 -0.2896
 5703SOL    HW128745   0.895   1.612   5.244 -0.9439  1.1708 -1.4091
 5703SOL    HW228746   0.931   1.593   5.381  0.3007  0.2499  0.7680
 5704SOL     OW28747   3.710   1.582   5.886 -0.6125 -0.3001 -0.1645
 5704SOL    HW128748   3.743   1.560   5.799  1.0197  1.7255 -0.0665
 5704SOL    HW228749   3.732   1.504   5.938 -2.2205 -1.6131 -1.4524
 5705SOL     OW28750   1.480   2.310   2.201  0.4651 -0.2652  0.4790
 5705SOL    HW128751   1.527   2.393   2.209 -1.8033  1.1515 -0.7848
 5705SOL    HW228752   1.520   2.275   2.122 -0.4582 -2.4679  0.9785
 5706SOL     OW28753   0.558   2.152   1.378  0.1698 -0.1234 -1.0752
 5706SOL    HW128754   0.539   2.169   1.471  3.1917 -1.2460 -0.2447
 5706SOL    HW228755   0.584   2.238   1.344  3.5665 -0.0185  1.6845
 5707SOL     OW28756   3.099   0.093   5.319 -0.3543 -0.0174  0.4959
 5707SOL    HW128757   3.118   0.186   5.310 -0.6661  0.0854  0.9258
 5707SOL    HW228758   3.006   0.092   5.340 -1.2571  1.4052 -3.5446
 5708SOL     OW28759   3.001   4.041  15.686 -0.2954  0.1212 -0.1263
 5708SOL    HW128760   3.036   4.011  15.602 -0.5286 -0.4732 -0.0077
 5708SOL    HW228761   3.087   4.057  15.723 -0.2778 -0.4509  0.0694
 5709SOL     OW28762   1.359   4.722   2.870 -0.2575 -0.0906 -0.3656
 5709SOL    HW128763   1.382   0.076   2.895 -0.7486  0.1636 -0.8109
 5709SOL    HW228764   1.411   4.668   2.928 -3.2312 -0.9731  1.4899
 5710SOL     OW28765   3.122   4.098   6.424 -0.2241 -0.0463 -0.5478
 5710SOL    HW128766   3.075   4.169   6.381 -1.9253 -1.8517 -1.6682
 5710SOL    HW228767   3.188   4.089   6.355 -1.7087 -0.7961 -1.8777
 5711SOL     OW28768   3.636   4.702  12.922  0.4114 -0.0068  0.5503
 5711SOL    HW128769   3.698   4.685  12.851  0.1158  1.1564  0.0072
 5711SOL    HW228770   3.694   4.676  12.994 -0.8427  0.9848  1.9182
 5712SOL     OW28771   1.633   2.749  17.319  0.4692 -0.9226 -0.1972
 5712SOL    HW128772   1.604   2.680  17.259  0.5541  0.8926 -2.3436
 5712SOL    HW228773   1.681   2.693  17.380 -1.2305 -2.1502 -0.0058
 5713SOL     OW28774   3.824   2.228   3.173  0.0094 -0.1501  0.7997
 5713SOL    HW128775   3.881   2.179   3.232 -1.2919 -3.2140 -0.5336
 5713SOL    HW228776   3.843   2.205   3.083 -0.5239 -2.2294  1.2314
 5714SOL     OW28777   2.744   1.166   8.311 -0.2360 -1.0147  0.2680
 5714SOL    HW128778   2.733   1.167   8.216 -0.0755 -0.5329  0.2549
 5714SOL    HW228779   2.730   1.074   8.336 -3.1587 -0.4121  0.8144
 5715SOL     OW28780   2.943   3.232   8.601  0.3918 -0.2319 -0.0725
 5715SOL    HW128781   2.893   3.286   8.540  1.1356  1.7684  1.0933
 5715SOL    HW228782   3.002   3.186   8.543  0.6400 -2.1197  1.6795
 5716SOL     OW28783   2.606   0.197   8.428  0.2000  0.0119  0.3874
 5716SOL    HW128784   2.515   0.226   8.423  0.4190  0.5570 -0.6279
 5716SOL    HW228785   2.616   0.147   8.347 -1.9645  0.2823 -0.0457
 5717SOL     OW28786   3.566   4.445   5.734 -0.2015 -0.5658  0.2106
 5717SOL    HW128787   3.591   4.353   5.728 -1.3500 -1.0852  3.5010
 5717SOL    HW228788   3.486   4.441   5.681  1.0522  0.6947 -1.7892
 5718SOL     OW28789   1.003   2.636   4.649 -0.2630 -0.1329 -0.1232
 5718SOL    HW128790   1.087   2.680   4.661  0.1023 -1.0726  0.7058
 5718SOL    HW228791   0.951   2.672   4.720  1.7281  1.8112  0.3344
 5719SOL     OW28792   3.354   2.529   8.840  0.4504  0.4320  0.2062
 5719SOL    HW128793   3.424   2.507   8.901 -1.6702 -3.4408  1.2923
 5719SOL    HW228794   3.408   2.526   8.761  1.2052  1.5508  0.6857
 5720SOL     OW28795   0.342   0.370   1.045  0.2255  0.0730 -0.1702
 5720SOL    HW128796   0.348   0.449   1.100  0.9212 -0.5324  0.6279
 5720SOL    HW228797   0.329   0.398   0.955  0.7664  0.9018  0.0055
 5721SOL     OW28798   3.200   1.621   2.718  0.3924 -0.8201 -0.0821
 5721SOL    HW128799   3.210   1.527   2.736  1.7088 -0.0352  3.1569
 5721SOL    HW228800   3.141   1.618   2.642  1.8915 -1.0863 -1.2493
 5722SOL     OW28801   3.676   1.654   3.355  0.1098 -0.3864 -0.0048
 5722SOL    HW128802   3.592   1.662   3.311 -0.3663 -0.7822  0.8310
 5722SOL    HW228803   3.693   1.747   3.371 -1.4996  0.2778 -2.2228
 5723SOL     OW28804   4.727   0.062   2.925 -0.1658 -0.3863 -0.1889
 5723SOL    HW128805   4.672   0.023   2.993  1.3147 -1.2651  0.4914
 5723SOL    HW228806   4.664   0.064   2.853 -1.0129 -1.6546  0.5314
 5724SOL     OW28807   1.546   1.632  12.205  0.8116  0.2747 -0.1631
 5724SOL    HW128808   1.517   1.548  12.240  0.2933  0.9049  0.8982
 5724SOL    HW228809   1.461   1.670  12.185  0.0779 -0.2163  2.0355
 5725SOL     OW28810   2.600   0.291  11.387  0.0908 -0.4236 -0.5110
 5725SOL    HW128811   2.665   0.226  11.363  0.4097 -1.0442  1.9734
 5725SOL    HW228812   2.563   0.254  11.467 -1.7053  0.4313 -0.9511
 5726SOL     OW28813   0.518   3.546   0.687  0.5409  0.2544  0.5104
 5726SOL    HW128814   0.489   3.536   0.596  1.2263 -0.8665  0.4137
 5726SOL    HW228815   0.466   3.620   0.717 -1.4191 -0.8089 -0.2633
 5727SOL     OW28816   4.350   3.234   2.208 -0.0609  0.0101 -0.0225
 5727SOL    HW128817   4.355   3.191   2.294 -1.2019  1.4394  0.7602
 5727SOL    HW228818   4.444   3.237   2.190  0.0478  0.8299  0.6773
 5728SOL     OW28819   2.850   4.104  12.312  0.0387 -0.2610  0.6347
 5728SOL    HW128820   2.826   4.038  12.376 -0.8811  0.7031  1.2882
 5728SOL    HW228821   2.771   4.159  12.312 -0.3511 -0.8040 -1.1612
 5729SOL     OW28822   2.568   3.326   3.741 -0.1825  0.4668  0.3170
 5729SOL    HW128823   2.516   3.327   3.821 -3.0328  0.0697 -1.5186
 5729SOL    HW228824   2.617   3.244   3.743  1.2176  1.3091  0.3066
 5730SOL     OW28825   1.111   0.214   8.748 -0.2427  0.8069 -0.8700
 5730SOL    HW128826   1.145   0.158   8.678  0.0805  0.2036 -0.2356
 5730SOL    HW228827   1.187   0.262   8.780 -0.3860  1.0180 -0.8469
 5731SOL     OW28828   0.704   2.804   5.705  0.5910  0.7789  0.2157
 5731SOL    HW128829   0.630   2.769   5.656  0.1275 -1.6054  2.6243
 5731SOL    HW228830   0.708   2.747   5.782  1.7397  0.7449  0.1402
 5732SOL     OW28831   0.550   4.450   6.007 -0.2664 -0.5958  0.1519
 5732SOL    HW128832   0.495   4.528   6.007  1.4707  0.6295  2.5031
 5732SOL    HW228833   0.625   4.475   5.953 -1.0742  0.0417 -0.6909
 5733SOL     OW28834   1.928   0.711   3.499 -0.4922 -0.1127 -0.2262
 5733SOL    HW128835   2.003   0.741   3.447  0.3665 -0.2874  0.9237
 5733SOL    HW228836   1.927   0.780   3.565  1.9336 -1.1102  0.8551
 5734SOL     OW28837   0.066   1.389  12.314 -0.2234 -0.4222  0.6441
 5734SOL    HW128838   0.050   1.307  12.266 -0.1921 -0.0243 -0.0366
 5734SOL    HW228839   4.723   1.432  12.281  0.1096 -1.5375 -1.6519
 5735SOL     OW28840   3.016   1.669  10.863 -0.2676 -0.1063 -0.4493
 5735SOL    HW128841   3.007   1.574  10.857 -0.2339 -0.1268 -0.1591
 5735SOL    HW228842   2.932   1.704  10.891 -0.6993 -1.4201 -0.1011
 5736SOL     OW28843   2.232   3.603   0.532  0.1178  0.0402 -0.0628
 5736SOL    HW128844   2.160   3.632   0.587 -0.2508  1.0755 -1.0845
 5736SOL    HW228845   2.303   3.660   0.562 -1.3807  0.6324  2.3280
 5737SOL     OW28846   1.585   0.113   8.177 -0.0349  0.6954  0.5085
 5737SOL    HW128847   1.587   0.040   8.115 -0.0552  1.3449 -0.2686
 5737SOL    HW228848   1.564   0.075   8.262  2.7914 -1.7899  0.0746
 5738SOL     OW28849   3.540   3.012   8.076 -0.2038  0.1785 -0.3931
 5738SOL    HW128850   3.581   2.952   8.138  0.5740  0.0651 -1.0090
 5738SOL    HW228851   3.559   3.093   8.123 -2.9802 -1.4971  3.5670
 5739SOL     OW28852   4.263   1.164   7.956  0.1097  0.1859 -0.0409
 5739SOL    HW128853   4.264   1.229   7.885 -1.5042 -0.4234 -0.6274
 5739SOL    HW228854   4.186   1.108   7.948  1.6633 -1.7771 -1.3586
 5740SOL     OW28855   3.166   2.412  14.819 -0.3232 -0.1800 -0.4684
 5740SOL    HW128856   3.107   2.338  14.807  0.8681 -1.3019  0.5844
 5740SOL    HW228857   3.236   2.378  14.875  0.4820  0.3381 -1.1379
 5741SOL     OW28858   3.131   1.463   6.336  0.2569  0.5063 -0.3191
 5741SOL    HW128859   3.197   1.421   6.392 -1.0077 -0.6744  0.2748
 5741SOL    HW228860   3.125   1.539   6.394 -0.4877 -1.1306  1.7287
 5742SOL     OW28861   1.396   1.784   7.030  0.0706 -0.2745 -0.0735
 5742SOL    HW128862   1.316   1.752   6.986  0.6436 -1.9482  0.1097
 5742SOL    HW228863   1.394   1.723   7.104 -1.8784 -0.6226 -0.4018
 5743SOL     OW28864   1.570   2.976   5.114  0.0826  0.6843 -0.8233
 5743SOL    HW128865   1.560   3.021   5.030 -0.1455  2.8377  0.3520
 5743SOL    HW228866   1.487   2.990   5.160  0.2557  0.2456 -0.3841
 5744SOL     OW28867   0.852   4.681   3.053  0.2357 -0.0846  0.3359
 5744SOL    HW128868   0.937   4.716   3.029  1.0258 -2.1684  0.1235
 5744SOL    HW228869   0.794   4.693   2.977  0.3743 -0.3446  0.1903
 5745SOL     OW28870   1.657   3.562   2.645  0.3402 -0.1369 -0.0537
 5745SOL    HW128871   1.751   3.561   2.664  0.3307  0.4021  0.0322
 5745SOL    HW228872   1.622   3.633   2.699  0.6786  1.6103 -2.1194
 5746SOL     OW28873   4.577   0.142  15.459  0.5877 -0.1015 -0.1469
 5746SOL    HW128874   4.606   0.106  15.543 -2.6479 -1.1200  0.5297
 5746SOL    HW228875   4.642   0.212  15.450  0.0225  0.2727 -1.3552
 5747SOL     OW28876   1.386   3.411   8.957 -0.0111  0.4870  0.1474
 5747SOL    HW128877   1.305   3.413   8.907  0.4908  2.0275 -0.5853
 5747SOL    HW228878   1.427   3.331   8.922 -1.0345 -0.2432  0.6294
 5748SOL     OW28879   2.481   0.808   4.378  0.1485 -0.1172  0.3617
 5748SOL    HW128880   2.451   0.835   4.465 -2.0636  1.1476 -0.8019
 5748SOL    HW228881   2.458   0.883   4.324  0.2769  0.9629  1.8250
 5749SOL     OW28882   0.179   1.466   9.348 -0.0574  0.2621  0.4795
 5749SOL    HW128883   0.203   1.430   9.263 -1.5096 -0.3958  0.3381
 5749SOL    HW228884   0.190   1.558   9.324 -0.0092  0.1431  0.0547
 5750SOL     OW28885   0.041   1.154  12.169 -0.0021 -0.1041  0.1482
 5750SOL    HW128886   4.726   1.093  12.223  0.7731 -0.3107  0.6370
 5750SOL    HW228887   0.091   1.084  12.127 -0.4277 -1.1570  1.3978
 5751SOL     OW28888   2.661   0.321   4.466  0.1340 -0.2034 -0.1698
 5751SOL    HW128889   2.747   0.349   4.498 -1.7159  1.7563  3.1018
 5751SOL    HW228890   2.639   0.390   4.403 -0.5290 -1.8883 -1.7677
 5752SOL     OW28891   1.426   2.815  11.768 -0.1235 -0.2845 -0.5784
 5752SOL    HW128892   1.394   2.743  11.822 -0.0964  0.0917 -0.0523
 5752SOL    HW228893   1.513   2.835  11.802 -0.0718 -1.2671 -0.1248
 5753SOL     OW28894   4.300   3.046   8.380  0.2146  0.3864  0.0951
 5753SOL    HW128895   4.347   3.078   8.457  0.2725  1.4312 -0.3742
 5753SOL    HW228896   4.291   3.115   8.315  1.0749 -1.2511 -1.7742
 5754SOL     OW28897   0.997   0.540  10.710 -0.3207  0.0051 -0.0467
 5754SOL    HW128898   1.013   0.557  10.802 -1.5282  0.5063  0.0679
 5754SOL    HW228899   1.012   0.446  10.711 -3.2042 -0.4699 -2.0249
 5755SOL     OW28900   3.665   4.265   3.011 -0.4988  0.5713  0.2225
 5755SOL    HW128901   3.744   4.264   2.956  0.0559 -1.0082  1.0341
 5755SOL    HW228902   3.658   4.173   3.038  2.7987  0.4865  0.7756
 5756SOL     OW28903   4.066   4.136   0.125 -0.0078  0.0883  0.2446
 5756SOL    HW128904   4.099   4.084   0.198 -1.2107 -2.1529 -0.7934
 5756SOL    HW228905   3.988   4.087   0.099  1.1300  0.6107 -4.1997
 5757SOL     OW28906   2.573   3.133   5.548 -0.4834  0.5945  0.2032
 5757SOL    HW128907   2.550   3.063   5.609 -1.6404  1.2084  0.4709
 5757SOL    HW228908   2.488   3.171   5.525 -0.1916  2.4572  2.1871
 5758SOL     OW28909   4.734   0.763   5.623  0.4715  0.0076 -0.1768
 5758SOL    HW128910   0.006   0.858   5.617  1.6366 -0.1593 -1.1627
 5758SOL    HW228911   4.682   0.749   5.702  1.9924  1.6905  1.1093
 5759SOL     OW28912   2.266   0.344   3.707 -0.0814  0.1714 -0.3653
 5759SOL    HW128913   2.188   0.308   3.665 -0.7350 -1.5991  2.3615
 5759SOL    HW228914   2.325   0.272   3.686  0.4741  0.2399  0.9306
 5760SOL     OW28915   0.737   4.700   7.655  0.6684 -0.2793 -0.4100
 5760SOL    HW128916   0.644   4.713   7.639  0.5111  1.1346  1.6177
 5760SOL    HW228917   0.772   0.011   7.580  0.1659 -2.7115 -2.1670
 5761SOL     OW28918   3.998   0.782   8.161 -0.9313 -0.0862  0.4543
 5761SOL    HW128919   3.924   0.837   8.185 -0.5503  0.2991  0.7607
 5761SOL    HW228920   4.071   0.836   8.193  0.3345 -1.4017 -0.1926
 5762SOL     OW28921   1.154   2.801   8.919  0.1438  0.4818 -0.0761
 5762SOL    HW128922   1.190   2.885   8.945 -0.2467  0.4382  0.6155
 5762SOL    HW228923   1.155   2.819   8.825  0.6580  0.4128 -0.0796
 5763SOL     OW28924   0.260   0.253   5.124  0.0465  0.2513 -0.1526
 5763SOL    HW128925   0.198   0.295   5.183  0.8187  0.9440  0.1711
 5763SOL    HW228926   0.206   0.227   5.050  0.3998 -2.1257  0.4309
 5764SOL     OW28927   2.610   3.692   1.536 -0.2048  0.4190 -0.2492
 5764SOL    HW128928   2.630   3.620   1.476 -0.9011  0.9203 -1.0947
 5764SOL    HW228929   2.627   3.775   1.492  2.5506  1.0669  1.9974
 5765SOL     OW28930   3.278   2.008   0.562  0.3726  0.1574 -0.2089
 5765SOL    HW128931   3.238   2.087   0.525  0.5589  0.4287  0.1643
 5765SOL    HW228932   3.208   1.977   0.620 -0.8371  1.9736 -0.6696
 5766SOL     OW28933   2.082   3.377  12.690  0.6288 -0.2167  0.5711
 5766SOL    HW128934   2.152   3.328  12.732  1.3466 -0.1045 -0.5021
 5766SOL    HW228935   2.036   3.399  12.772 -0.1161 -0.6872  0.2750
 5767SOL     OW28936   0.956   1.478  17.322  0.0255  0.3386  0.5631
 5767SOL    HW128937   1.050   1.482  17.341 -0.2025  3.4186  1.0465
 5767SOL    HW228938   0.941   1.572  17.327  0.2154  0.5001 -1.9551
 5768SOL     OW28939   3.454   3.163   3.577  0.1710  0.0703 -0.6879
 5768SOL    HW128940   3.538   3.196   3.608  0.9869 -2.6313 -0.0643
 5768SOL    HW228941   3.475   3.070   3.564 -1.0919 -0.2050 -0.8026
 5769SOL     OW28942   2.612   1.900   5.711 -0.2977  0.2778 -0.1489
 5769SOL    HW128943   2.577   1.964   5.649 -0.1310  0.8640  0.3620
 5769SOL    HW228944   2.645   1.950   5.785  2.3740 -0.9382 -0.5421
 5770SOL     OW28945   3.015   4.438   5.784  0.3757 -0.4698 -0.6835
 5770SOL    HW128946   3.041   4.410   5.697 -0.3885 -0.3248 -0.9540
 5770SOL    HW228947   2.965   4.366   5.821 -0.1639 -1.4957 -3.4089
 5771SOL     OW28948   3.913   0.246  10.501  0.4060  0.1390 -1.0440
 5771SOL    HW128949   3.945   0.311  10.564 -1.4316  0.4572 -0.4443
 5771SOL    HW228950   3.824   0.252  10.534  1.2667 -0.6188  1.4110
 5772SOL     OW28951   2.103   2.573   4.711 -0.2587  0.2011 -0.4393
 5772SOL    HW128952   2.125   2.641   4.774  1.6302 -1.4678  0.7224
 5772SOL    HW228953   2.060   2.511   4.770  1.4729  0.1762  0.8190
 5773SOL     OW28954   3.472   1.717   2.837 -0.2793 -0.1355  0.3306
 5773SOL    HW128955   3.402   1.705   2.773 -1.5083  1.6360  1.3444
 5773SOL    HW228956   3.452   1.641   2.892 -1.5225  0.5705  0.8423
 5774SOL     OW28957   0.710   4.473  17.216  0.2409  0.7932 -0.3034
 5774SOL    HW128958   0.678   4.564  17.218 -2.4580 -0.1823  1.5774
 5774SOL    HW228959   0.636   4.424  17.179  0.0553  0.0661  1.0570
 5775SOL     OW28960   3.989   4.400   8.091  0.4844  0.4573 -0.2680
 5775SOL    HW128961   3.932   4.329   8.063  0.4575  1.7238 -3.3884
 5775SOL    HW228962   3.921   4.449   8.138  1.0114  0.7301  0.2216
 5776SOL     OW28963   2.853   1.788   4.164  0.2056 -0.5229 -0.5668
 5776SOL    HW128964   2.880   1.794   4.072  2.8704  0.9655  0.3279
 5776SOL    HW228965   2.798   1.866   4.162 -1.0330 -1.4127 -1.0941
 5777SOL     OW28966   2.334   3.654   4.435 -0.2048 -0.3800 -0.3541
 5777SOL    HW128967   2.283   3.728   4.402 -1.5584 -1.1438  0.0066
 5777SOL    HW228968   2.349   3.662   4.529  1.3406 -1.8130 -0.4632
 5778SOL     OW28969   3.783   0.151  12.176 -0.0320 -0.2820 -0.0858
 5778SOL    HW128970   3.704   0.177  12.129 -1.8121  0.4164  3.2845
 5778SOL    HW228971   3.841   0.122  12.106  0.1889 -0.3823  0.1380
 5779SOL     OW28972   0.904   4.659   0.640 -0.0466 -0.1835  0.4544
 5779SOL    HW128973   0.964   4.733   0.651 -0.5717  0.6000 -1.9694
 5779SOL    HW228974   0.905   4.669   0.545  0.3294  2.1253  0.6845
 5780SOL     OW28975   1.706   2.635   2.471 -0.2135  0.8510 -0.4385
 5780SOL    HW128976   1.732   2.717   2.514  0.1727  0.5328 -0.0641
 5780SOL    HW228977   1.720   2.574   2.543  1.1578 -0.3054 -1.6829
 5781SOL     OW28978   2.721   0.429   8.028  0.4328 -0.5655  0.3630
 5781SOL    HW128979   2.676   0.448   8.111  0.0291  0.1721 -0.0260
 5781SOL    HW228980   2.658   0.368   7.988  0.4525 -1.1185  1.1708
 5782SOL     OW28981   2.991   4.426   8.722  0.4091 -0.0416  0.5939
 5782SOL    HW128982   2.911   4.447   8.770 -1.4062  2.7655 -3.6525
 5782SOL    HW228983   3.055   4.480   8.769  0.6872 -1.7040  2.0960
 5783SOL     OW28984   0.415   0.535   2.443 -0.7075  1.0205  0.2484
 5783SOL    HW128985   0.450   0.508   2.358  0.3625  3.0201  0.0602
 5783SOL    HW228986   0.346   0.591   2.407 -0.8227  2.2758  2.3930
 5784SOL     OW28987   1.245   1.422  15.876  0.4265 -0.6050  0.4109
 5784SOL    HW128988   1.335   1.395  15.893  1.6202  1.2766 -2.8444
 5784SOL    HW228989   1.229   1.384  15.790  1.6924 -1.2583  0.4602
 5785SOL     OW28990   3.303   2.838  11.838  0.3537  0.1111  0.0639
 5785SOL    HW128991   3.382   2.870  11.883  1.0680 -1.2082 -0.2707
 5785SOL    HW228992   3.270   2.916  11.794 -0.4932 -1.2130 -1.6129
 5786SOL     OW28993   3.669   4.430   4.231  0.7251 -0.1323 -0.2783
 5786SOL    HW128994   3.622   4.507   4.200 -1.1202 -0.7178  1.0548
 5786SOL    HW228995   3.665   4.387   4.145  0.2336  0.0417 -0.3427
 5787SOL     OW28996   2.299   0.256   3.126 -0.4199  0.4599 -0.5426
 5787SOL    HW128997   2.353   0.180   3.104 -0.8971 -0.1214  0.3189
 5787SOL    HW228998   2.311   0.310   3.047  0.8187  3.5583  1.7387
 5788SOL     OW28999   3.110   0.705  17.615  0.0096 -0.1170  0.2856
 5788SOL    HW129000   3.110   0.620  17.660 -1.3742 -1.8425 -2.9941
 5788SOL    HW229001   3.168   0.762  17.666  0.0362 -0.7234  0.9279
 5789SOL     OW29002   1.774   1.557  10.137 -0.2875 -0.3428 -0.8640
 5789SOL    HW129003   1.713   1.611  10.187  0.8940  0.6284 -0.4648
 5789SOL    HW229004   1.784   1.473  10.182  0.3377  0.4925  0.5487
 5790SOL     OW29005   1.171   1.091   8.148 -0.1051 -0.0139 -0.0259
 5790SOL    HW129006   1.203   1.141   8.224  0.4507  0.3182 -0.4763
 5790SOL    HW229007   1.255   1.048   8.129  0.1087 -0.6575  2.3380
 5791SOL     OW29008   1.505   1.587   8.212  0.1593 -0.3804 -0.3003
 5791SOL    HW129009   1.472   1.634   8.135  3.3425 -1.4466 -2.3209
 5791SOL    HW229010   1.585   1.638   8.224 -0.4430  0.1839  1.3322
 5792SOL     OW29011   3.821   1.491   8.549  0.4285 -0.6580 -0.1201
 5792SOL    HW129012   3.877   1.552   8.500 -0.4345  0.1727 -0.0638
 5792SOL    HW229013   3.734   1.529   8.535 -0.0146 -2.2721 -1.7572
 5793SOL     OW29014   3.735   1.334   4.085  0.0102  0.0177 -0.0173
 5793SOL    HW129015   3.821   1.294   4.076  0.0730  0.3307 -0.8257
 5793SOL    HW229016   3.723   1.342   4.180  1.0303 -0.3255  0.1376
 5794SOL     OW29017   0.065   4.117   5.190  0.5489  0.1473  0.4164
 5794SOL    HW129018   0.139   4.068   5.156  0.2284 -0.7304  0.9952
 5794SOL    HW229019   4.724   4.069   5.158 -0.3269  1.5019  0.4741
 5795SOL     OW29020   0.149   1.447   2.061  0.4125  0.0173  0.2778
 5795SOL    HW129021   0.058   1.446   2.030  0.7598  0.2239 -0.7253
 5795SOL    HW229022   0.199   1.384   2.011  1.0911  0.2324  0.6824
 5796SOL     OW29023   4.341   3.188   9.095  0.0612 -0.0542  0.3488
 5796SOL    HW129024   4.365   3.151   9.010 -2.1471  0.6768 -0.5983
 5796SOL    HW229025   4.398   3.154   9.164  0.6826  0.6738  0.1918
 5797SOL     OW29026   0.584   1.600  15.403  0.1511  0.2237 -0.2606
 5797SOL    HW129027   0.647   1.662  15.439  0.9739 -0.4459 -0.5599
 5797SOL    HW229028   0.535   1.581  15.483 -0.9825 -1.7510 -1.4008
 5798SOL     OW29029   0.485   2.896   8.751  0.2119  0.8690 -0.0191
 5798SOL    HW129030   0.501   2.803   8.736 -0.0841  0.4240  2.4361
 5798SOL    HW229031   0.563   2.933   8.793  0.1334 -2.4280  3.0152
 5799SOL     OW29032   0.751   4.558   4.281 -0.2445  0.4095 -0.1858
 5799SOL    HW129033   0.757   4.637   4.336 -0.2620 -0.6771  1.3953
 5799SOL    HW229034   0.656   4.547   4.284 -0.0392 -1.4163 -1.1350
 5800SOL     OW29035   1.035   2.337  15.945 -0.4184 -0.4233  0.0207
 5800SOL    HW129036   1.050   2.249  15.980 -2.4982 -0.3046  1.2498
 5800SOL    HW229037   0.946   2.365  15.967 -0.4037 -1.5000  1.4588
 5801SOL     OW29038   4.486   3.754   2.851 -0.0664  0.0899  0.4354
 5801SOL    HW129039   4.429   3.692   2.896 -0.9501 -1.0046 -2.2339
 5801SOL    HW229040   4.488   3.823   2.918  0.9312  2.3246 -1.8965
 5802SOL     OW29041   2.331   3.740   4.701 -0.9728 -0.4543 -0.0790
 5802SOL    HW129042   2.306   3.683   4.773 -1.2212  1.2826  1.2195
 5802SOL    HW229043   2.361   3.817   4.750  0.2920 -0.3402 -1.0539
 5803SOL     OW29044   1.415   1.055  10.239  0.4497 -0.1200 -0.2843
 5803SOL    HW129045   1.368   1.025  10.162 -1.3676 -0.0451  0.8173
 5803SOL    HW229046   1.399   0.985  10.301 -1.9142  0.5261 -0.1803
 5804SOL     OW29047   2.256   2.833   5.142  0.3211  0.3133 -0.3376
 5804SOL    HW129048   2.166   2.863   5.134 -0.1606 -1.2508 -0.6902
 5804SOL    HW229049   2.250   2.791   5.228  1.7084 -0.6394 -0.6910
 5805SOL     OW29050   3.206   1.391   3.681  0.5131  0.2598 -0.8320
 5805SOL    HW129051   3.241   1.312   3.723  2.0590  1.0949 -0.5807
 5805SOL    HW229052   3.233   1.466   3.733 -0.3223  1.6042 -2.3466
 5806SOL     OW29053   0.765   0.676   8.664 -0.3858 -0.1858 -0.1000
 5806SOL    HW129054   0.743   0.767   8.641 -2.0070  0.0633  2.4815
 5806SOL    HW229055   0.763   0.643   8.574 -0.5264 -1.3727  0.3425
 5807SOL     OW29056   2.435   4.199   8.424  0.5775 -0.6699 -0.0361
 5807SOL    HW129057   2.391   4.260   8.484  2.1056 -0.3803  0.7948
 5807SOL    HW229058   2.460   4.129   8.485  1.4989 -0.5244 -0.2523
 5808SOL     OW29059   3.122   2.161   6.821  0.6361 -0.5602 -0.1236
 5808SOL    HW129060   3.028   2.143   6.830  0.0522  1.3812 -2.1389
 5808SOL    HW229061   3.167   2.100   6.878 -0.4834  0.8586  2.2913
 5809SOL     OW29062   4.486   4.287  12.225  0.0552 -0.2942 -0.8045
 5809SOL    HW129063   4.568   4.256  12.264  0.5741  1.6115 -0.3898
 5809SOL    HW229064   4.421   4.243  12.279  0.4653  0.5567  0.3909
 5810SOL     OW29065   2.979   0.655   2.616  1.1184  0.0028 -0.5591
 5810SOL    HW129066   3.037   0.628   2.686 -2.1831 -0.0451  2.1531
 5810SOL    HW229067   2.897   0.672   2.662  1.7193 -2.0971  1.2523
 5811SOL     OW29068   0.441   1.125   4.488 -0.2073  0.7782 -0.1562
 5811SOL    HW129069   0.450   1.031   4.507  0.1591  1.4031  2.6630
 5811SOL    HW229070   0.496   1.127   4.409 -1.1195 -0.1780 -0.8164
 5812SOL     OW29071   3.012   2.078  13.043 -0.0296 -0.0666  0.2132
 5812SOL    HW129072   3.075   2.022  13.089  0.1090 -0.4898 -0.4799
 5812SOL    HW229073   3.038   2.163  13.079 -0.9265  1.1433 -2.0497
 5813SOL     OW29074   0.216   0.166   6.491  0.3622 -0.0852  0.5644
 5813SOL    HW129075   0.155   0.104   6.452 -0.0162  0.0554  0.9278
 5813SOL    HW229076   0.223   0.135   6.581  1.5564  0.8985  0.8059
 5814SOL     OW29077   0.327   3.436  15.487  0.2596  0.6456 -0.4005
 5814SOL    HW129078   0.405   3.492  15.492 -0.5827  1.6095  1.8317
 5814SOL    HW229079   0.309   3.460  15.396 -0.0360 -0.6576 -0.6946
 5815SOL     OW29080   2.294   1.336   9.435  0.2999 -0.2790 -1.0052
 5815SOL    HW129081   2.319   1.350   9.526 -0.6213 -0.1135 -0.7791
 5815SOL    HW229082   2.318   1.421   9.397  0.7329  0.8833  1.8926
 5816SOL     OW29083   1.960   2.473   7.642 -0.1926  0.1294  0.4172
 5816SOL    HW129084   2.040   2.421   7.641  0.7015  1.5220 -0.4816
 5816SOL    HW229085   1.950   2.488   7.736 -0.5594 -0.9684  0.5553
 5817SOL     OW29086   4.479   1.037   6.008 -0.1010  0.1741 -0.0038
 5817SOL    HW129087   4.388   1.035   5.978  0.3815  0.2550 -1.4676
 5817SOL    HW229088   4.474   1.051   6.102 -1.6904 -1.4962  0.1588
 5818SOL     OW29089   2.883   1.186  15.130 -0.6011  0.0021  0.3512
 5818SOL    HW129090   2.833   1.127  15.187  1.8451 -1.7867  0.6366
 5818SOL    HW229091   2.911   1.127  15.061 -2.8036 -0.4580 -0.1428
 5819SOL     OW29092   1.183   2.631  15.785  0.2235  0.4732 -0.0960
 5819SOL    HW129093   1.257   2.573  15.804 -1.6070 -0.9168  2.7445
 5819SOL    HW229094   1.225   2.717  15.789  3.4506 -1.0431 -1.2095
 5820SOL     OW29095   0.335   2.400  13.036  0.0989 -0.3710  0.1197
 5820SOL    HW129096   0.368   2.318  13.073 -0.9296  0.3494  2.6282
 5820SOL    HW229097   0.344   2.466  13.105 -1.3156 -0.0428 -0.0309
 5821SOL     OW29098   0.987   4.415   2.538 -0.2142  0.0623 -0.0722
 5821SOL    HW129099   0.971   4.338   2.593  1.3480  0.5780  1.1052
 5821SOL    HW229100   1.014   4.474   2.609  0.5756 -0.7326  0.2888
 5822SOL     OW29101   0.781   0.503   2.307  0.2598  0.3401  0.0356
 5822SOL    HW129102   0.686   0.505   2.298  0.3532  1.5821 -0.6132
 5822SOL    HW229103   0.802   0.427   2.252 -2.1570 -0.6839  0.5168
 5823SOL     OW29104   0.309   3.636   9.496  0.1875  0.5495 -0.0243
 5823SOL    HW129105   0.352   3.703   9.444  0.6377  1.9262  2.1273
 5823SOL    HW229106   0.367   3.633   9.572  1.1591  0.6162 -0.7695
 5824SOL     OW29107   4.571   4.037  15.904  0.4578 -0.4958  0.1254
 5824SOL    HW129108   4.655   4.003  15.934  1.7901  3.7915  1.2615
 5824SOL    HW229109   4.512   4.035  15.980 -1.5056 -0.5987 -1.3910
 5825SOL     OW29110   1.149   4.307   4.464  0.3189 -0.3742  0.1673
 5825SOL    HW129111   1.134   4.212   4.464 -1.0441 -0.1553 -1.3400
 5825SOL    HW229112   1.073   4.337   4.415  0.0074  1.7140  1.9037
 5826SOL     OW29113   0.257   2.329   5.612  0.0115 -0.2541  0.1775
 5826SOL    HW129114   0.219   2.409   5.576  0.5096  0.7135  1.8375
 5826SOL    HW229115   0.334   2.366   5.656 -0.6594  2.3650 -0.8726
 5827SOL     OW29116   1.188   1.774  17.392 -0.0862 -0.1645 -0.4544
 5827SOL    HW129117   1.221   1.862  17.374 -1.6764  0.9166  1.9085
 5827SOL    HW229118   1.243   1.750  17.467 -0.9266  0.3792  0.3436
 5828SOL     OW29119   2.216   4.141   5.875 -0.0698 -0.1868  1.0618
 5828SOL    HW129120   2.155   4.087   5.824  0.4880  1.2016 -1.0817
 5828SOL    HW229121   2.161   4.219   5.876  0.8008  0.4485 -1.5823
 5829SOL     OW29122   2.000   0.008   9.263  0.0404  0.2078  0.1096
 5829SOL    HW129123   1.928   0.001   9.200  0.1445 -1.1704  0.1441
 5829SOL    HW229124   2.024   0.100   9.256 -1.5437  0.4061 -2.6735
 5830SOL     OW29125   3.977   0.610   1.666 -0.0396  0.0119  0.1195
 5830SOL    HW129126   3.975   0.527   1.714  3.4289 -1.3265 -2.0230
 5830SOL    HW229127   4.042   0.579   1.602  0.2536  1.1225 -0.1198
 5831SOL     OW29128   1.848   2.760   7.182 -0.4124  0.1393 -0.6353
 5831SOL    HW129129   1.796   2.833   7.148 -1.6627  0.3883  1.8051
 5831SOL    HW229130   1.813   2.750   7.271  0.4802 -0.2998 -0.3326
 5832SOL     OW29131   3.601   4.369   6.178  0.1854  0.2545 -0.0409
 5832SOL    HW129132   3.508   4.372   6.201  0.3515  0.7750  0.5814
 5832SOL    HW229133   3.598   4.418   6.096 -1.5676 -0.4873 -0.4172
 5833SOL     OW29134   2.899   0.836   4.369  0.4057 -0.2641 -0.7636
 5833SOL    HW129135   2.823   0.878   4.409  1.9057 -1.3211  3.1819
 5833SOL    HW229136   2.974   0.848   4.426 -0.4027 -0.1945  0.2830
 5834SOL     OW29137   2.531   3.145  17.462 -0.3592  0.3820  0.4485
 5834SOL    HW129138   2.519   3.158  17.368  1.1425  1.0253  0.3378
 5834SOL    HW229139   2.595   3.074  17.472 -2.4867 -1.3615  1.6237
 5835SOL     OW29140   0.826   0.644  17.310 -0.2386  0.1698  0.4698
 5835SOL    HW129141   0.855   0.625  17.399  0.7958 -0.0902  0.0787
 5835SOL    HW229142   0.749   0.696  17.332  1.3048  2.5173  0.2216
 5836SOL     OW29143   2.531   3.085   5.984  0.0474 -0.1092  0.1912
 5836SOL    HW129144   2.571   3.143   6.048 -1.5308 -1.7736  2.7045
 5836SOL    HW229145   2.447   3.130   5.974  1.3881  2.7066  1.8104
 5837SOL     OW29146   0.145   3.564   4.844  0.5423 -0.2379 -0.0062
 5837SOL    HW129147   0.072   3.542   4.785  0.0778  1.1781  0.0440
 5837SOL    HW229148   0.114   3.554   4.934  3.7024  0.3532  1.1415
 5838SOL     OW29149   1.499   2.444  10.530  0.9426 -0.0707 -0.2177
 5838SOL    HW129150   1.423   2.393  10.503  0.1865  0.8194  0.2004
 5838SOL    HW229151   1.451   2.521  10.562  1.5618  0.3403 -0.2833
 5839SOL     OW29152   3.824   2.457   3.320 -0.9007 -0.2724  0.3828
 5839SOL    HW129153   3.763   2.406   3.374 -1.7880  0.4688  0.0820
 5839SOL    HW229154   3.809   2.403   3.242 -0.2038 -1.0434  0.7855
 5840SOL     OW29155   3.588   3.919   4.266 -0.0669  0.1817 -0.3906
 5840SOL    HW129156   3.659   3.960   4.316 -0.8571  0.6439  0.3584
 5840SOL    HW229157   3.628   3.835   4.243  1.0848  0.3834  0.8971
 5841SOL     OW29158   1.876   0.343   5.869  0.7530 -0.1572 -0.5658
 5841SOL    HW129159   1.897   0.253   5.844 -0.0867 -0.6488  0.4713
 5841SOL    HW229160   1.815   0.319   5.938  0.9572  0.3860 -0.1935
 5842SOL     OW29161   0.407   4.232   4.187 -0.0013 -0.0707 -0.4459
 5842SOL    HW129162   0.502   4.221   4.191  0.0258  0.2608 -0.1567
 5842SOL    HW229163   0.393   4.137   4.191  0.1323  0.0145  1.9833
 5843SOL     OW29164   0.086   4.690   6.367  0.1687 -0.2779  0.0871
 5843SOL    HW129165   0.121   4.602   6.356 -0.3776 -0.7059  1.8592
 5843SOL    HW229166   0.001   4.677   6.325 -1.1561  0.1626  2.6596
 5844SOL     OW29167   0.747   2.361   8.075  0.2165 -0.6111  0.8198
 5844SOL    HW129168   0.818   2.297   8.080 -1.3694 -2.3842  0.4735
 5844SOL    HW229169   0.754   2.402   8.161 -1.1812 -2.4264  1.7869
 5845SOL     OW29170   2.786   4.334   0.455  0.3750  0.2420  0.1073
 5845SOL    HW129171   2.765   4.286   0.535 -0.5036  1.8628  0.8469
 5845SOL    HW229172   2.702   4.363   0.418  1.1248 -0.1320 -1.8831
 5846SOL     OW29173   1.840   2.202   7.215 -0.2615  0.1525 -0.1444
 5846SOL    HW129174   1.824   2.213   7.309 -0.0384 -0.5168 -0.0298
 5846SOL    HW229175   1.936   2.210   7.215 -0.2128 -0.4593  0.1517
 5847SOL     OW29176   3.652   2.654   9.576 -0.0168  0.4041  0.5830
 5847SOL    HW129177   3.609   2.592   9.635  0.9206 -1.0414 -0.2693
 5847SOL    HW229178   3.579   2.706   9.541 -1.4190 -3.1984 -1.8084
 5848SOL     OW29179   3.544   1.809   4.777 -0.4044  0.0313 -0.4918
 5848SOL    HW129180   3.502   1.743   4.832 -0.3686 -0.2519 -0.8029
 5848SOL    HW229181   3.636   1.810   4.804 -0.9921 -0.0570  1.4970
 5849SOL     OW29182   0.276   3.166  14.916  0.3402  0.3349  0.0593
 5849SOL    HW129183   0.306   3.082  14.948 -2.6415 -0.9351 -0.4640
 5849SOL    HW229184   0.293   3.162  14.822 -1.3256  1.8372 -0.3242
 5850SOL     OW29185   3.884   0.932   3.545 -0.5264 -0.1726 -0.0131
 5850SOL    HW129186   3.961   0.919   3.489  0.1905 -2.4809  1.5060
 5850SOL    HW229187   3.915   0.913   3.633 -2.6437  0.6216  0.9052
 5851SOL     OW29188   2.003   2.916  12.031  0.3080  0.3951 -0.3977
 5851SOL    HW129189   2.017   3.003  12.068  0.3690  0.3704 -0.3635
 5851SOL    HW229190   1.908   2.902  12.033  0.8017 -2.3105  2.6081
 5852SOL     OW29191   4.722   2.328   7.297 -0.2030 -0.5220  0.5268
 5852SOL    HW129192   4.649   2.353   7.242  1.0377 -0.5355 -1.1122
 5852SOL    HW229193   0.031   2.271   7.235 -0.3620 -0.3756  0.2812
 5853SOL     OW29194   0.208   3.293   2.650 -0.2210  0.0941 -0.5602
 5853SOL    HW129195   0.180   3.293   2.741  0.6234 -2.2235 -0.3150
 5853SOL    HW229196   0.164   3.213   2.623  0.4905 -0.3771 -0.3135
 5854SOL     OW29197   4.070   3.810  16.599  0.0491  0.1183  0.1478
 5854SOL    HW129198   4.003   3.772  16.542  0.8355 -0.5901 -0.2960
 5854SOL    HW229199   4.123   3.860  16.537  1.0434 -0.4159  0.5713
 5855SOL     OW29200   1.399   0.056   4.060  0.2068  0.5547  0.0092
 5855SOL    HW129201   1.306   0.080   4.057 -0.2557 -1.3204 -0.7163
 5855SOL    HW229202   1.385   4.708   4.017  3.4340 -0.6219  1.2557
 5856SOL     OW29203   1.954   0.053   2.509  0.0211  0.6232  0.1545
 5856SOL    HW129204   1.913   0.140   2.515 -0.3467  0.6201 -2.3278
 5856SOL    HW229205   1.894   4.726   2.548 -0.9942  1.0431 -0.7389
 5857SOL     OW29206   3.448   4.734   4.352 -0.8005 -0.0960  0.1493
 5857SOL    HW129207   3.445   4.639   4.351 -0.7580 -0.0876 -0.5904
 5857SOL    HW229208   3.354   0.018   4.359 -0.8078 -0.1948  0.3281
 5858SOL     OW29209   2.462   0.861   9.225 -0.1363 -0.3504 -0.0209
 5858SOL    HW129210   2.537   0.916   9.204 -0.6670  1.0649  1.8324
 5858SOL    HW229211   2.394   0.927   9.239  0.1999  0.0957 -0.4593
 5859SOL     OW29212   4.123   0.441   4.671 -0.0956  0.1214  0.4256
 5859SOL    HW129213   4.089   0.528   4.650 -1.2723 -0.4249  0.1046
 5859SOL    HW229214   4.218   0.454   4.678 -0.2729  1.2775  0.6367
 5860SOL     OW29215   4.005   1.916  13.591 -0.0310 -0.1862  0.0215
 5860SOL    HW129216   3.911   1.897  13.587 -0.3094  0.9083  1.2502
 5860SOL    HW229217   4.005   2.001  13.547  2.4324 -0.7206 -0.9560
 5861SOL     OW29218   1.199   2.994   5.739 -0.4664 -0.4831 -0.1658
 5861SOL    HW129219   1.131   3.021   5.677  1.0532 -0.5168 -1.8547
 5861SOL    HW229220   1.239   2.917   5.699  1.3867  1.3909 -1.9129
 5862SOL     OW29221   3.915   2.093  13.378 -0.0210 -0.1020 -0.4614
 5862SOL    HW129222   4.000   2.075  13.337 -0.5148 -0.4115 -1.3618
 5862SOL    HW229223   3.884   2.166  13.324 -0.3099 -0.1691 -0.3865
 5863SOL     OW29224   1.683   2.976   1.962  0.1252  0.0187  0.1589
 5863SOL    HW129225   1.722   2.902   1.916 -3.4940 -0.0809 -2.7763
 5863SOL    HW229226   1.673   3.049   1.901 -0.4509  0.5745  0.9118
 5864SOL     OW29227   3.993   0.729   2.392  0.5642 -0.1457  0.4597
 5864SOL    HW129228   3.900   0.706   2.390  0.1127  1.6623  0.6183
 5864SOL    HW229229   3.993   0.737   2.488  2.6576 -2.1899  0.6125
 5865SOL     OW29230   4.727   0.864   2.034  0.5161 -0.3849 -0.2133
 5865SOL    HW129231   4.683   0.779   2.035  0.8689 -0.5552  0.4120
 5865SOL    HW229232   0.081   0.842   2.057  0.4480  1.9474  2.2202
 5866SOL     OW29233   1.528   4.197  13.636 -0.6391 -0.7152 -0.1082
 5866SOL    HW129234   1.532   4.236  13.723 -1.0627 -0.5352 -0.1661
 5866SOL    HW229235   1.444   4.230  13.603 -0.6834  1.6895  2.3899
 5867SOL     OW29236   1.215   3.443   3.171 -0.7378 -0.3466  0.4113
 5867SOL    HW129237   1.146   3.398   3.219 -1.9478  0.6835 -0.3278
 5867SOL    HW229238   1.229   3.378   3.102  0.5204  0.6240 -0.2470
 5868SOL     OW29239   4.561   0.235   3.258  0.3662  0.4689 -0.2489
 5868SOL    HW129240   4.487   0.176   3.241  0.0604  0.7657  0.0325
 5868SOL    HW229241   4.619   0.172   3.300  0.6617  0.6379 -0.4010
 5869SOL     OW29242   1.601   1.834   9.295  0.1194 -0.4559 -0.4830
 5869SOL    HW129243   1.529   1.861   9.237  0.7053 -1.2641 -1.5810
 5869SOL    HW229244   1.549   1.773   9.347  2.2601 -1.2643  0.6833
 5870SOL     OW29245   2.611   1.073  13.878  0.4305 -0.3987  0.1348
 5870SOL    HW129246   2.516   1.078  13.863  0.5857  2.7721  0.2263
 5870SOL    HW229247   2.634   1.165  13.886 -2.4317  0.1872  1.6474
 5871SOL     OW29248   1.043   0.534   8.363  0.3230 -0.4998 -0.4510
 5871SOL    HW129249   1.121   0.587   8.345  0.5640 -0.2288  1.3459
 5871SOL    HW229250   1.077   0.487   8.439  1.1484 -2.1990 -1.8662
 5872SOL     OW29251   2.189   3.680   7.902 -0.8384  0.3032 -0.1779
 5872SOL    HW129252   2.142   3.597   7.914  0.0050 -0.4422 -2.0504
 5872SOL    HW229253   2.240   3.646   7.828 -0.1575 -1.9100  1.2993
 5873SOL     OW29254   3.903   3.052   4.014 -0.0881 -0.0105  0.4394
 5873SOL    HW129255   3.852   2.975   3.991  1.9510 -0.6458 -1.9695
 5873SOL    HW229256   3.990   3.014   4.029 -0.5735 -1.0537  0.6626
 5874SOL     OW29257   4.230   1.798   1.327  0.0398  0.5659 -0.0209
 5874SOL    HW129258   4.160   1.817   1.264 -0.0196 -1.2902 -0.5151
 5874SOL    HW229259   4.226   1.877   1.380  1.2678  0.3565  0.3811
 5875SOL     OW29260   0.093   2.085   0.900 -0.3725 -0.7401 -0.0075
 5875SOL    HW129261   0.144   2.044   0.829 -0.2228  1.3560 -1.0994
 5875SOL    HW229262   0.017   2.026   0.910 -2.2958  1.7598  0.0643
 5876SOL     OW29263   1.123   4.520   7.226  0.2394 -0.3814 -0.3503
 5876SOL    HW129264   1.219   4.518   7.228  0.2504 -1.5323 -2.3060
 5876SOL    HW229265   1.088   4.580   7.292 -1.3860  0.4809 -1.9765
 5877SOL     OW29266   4.003   4.494   7.795 -1.0100  0.1234  0.5179
 5877SOL    HW129267   4.001   4.399   7.782  1.0661 -0.0005  1.0956
 5877SOL    HW229268   4.016   4.495   7.890  0.0865  0.4433  0.3585
 5878SOL     OW29269   0.411   0.451   6.104  0.1734  0.1267  0.0187
 5878SOL    HW129270   0.435   0.372   6.151 -1.4712 -0.6083 -0.3745
 5878SOL    HW229271   0.502   0.481   6.096 -0.2629  1.9603  1.8303
 5879SOL     OW29272   3.338   1.063   9.942  0.1598  0.4048  0.2176
 5879SOL    HW129273   3.335   1.157   9.960  3.4699  0.3430  1.0012
 5879SOL    HW229274   3.303   1.029  10.024 -0.2559  1.5681  0.5310
 5880SOL     OW29275   2.451   2.456   6.987  0.2042  0.5039 -0.4326
 5880SOL    HW129276   2.375   2.490   7.035  0.2761 -1.3649  1.0072
 5880SOL    HW229277   2.522   2.518   7.003 -0.6171  1.2846  0.1556
 5881SOL     OW29278   0.799   3.083   3.287 -0.4145  0.0211 -0.4210
 5881SOL    HW129279   0.779   3.118   3.374  0.2151 -1.4891  0.3310
 5881SOL    HW229280   0.802   3.160   3.230 -1.7517 -0.7241 -1.5076
 5882SOL     OW29281   1.121   0.020  14.688  0.1479  0.0291 -0.5534
 5882SOL    HW129282   1.111   0.034  14.783 -1.0271  1.7262 -0.9216
 5882SOL    HW229283   1.165   0.097  14.651  1.3306 -0.4557 -0.1500
 5883SOL     OW29284   4.633   4.399   5.744 -0.6852 -0.0260 -0.4623
 5883SOL    HW129285   4.727   4.405   5.731 -0.8957 -1.8372 -2.8668
 5883SOL    HW229286   4.615   4.471   5.683 -1.7503 -0.0287 -0.1639
 5884SOL     OW29287   0.775   3.193   0.063 -0.4179  0.1623 -0.1824
 5884SOL    HW129288   0.837   3.252   0.106  2.0990 -3.7663  1.6536
 5884SOL    HW229289   0.698   3.196   0.120  0.5172  0.1388  1.1020
 5885SOL     OW29290   4.473   1.066   4.353  0.2951  0.1400  0.2024
 5885SOL    HW129291   4.450   0.978   4.322 -0.2484 -0.2324  1.6846
 5885SOL    HW229292   4.508   1.099   4.270  0.3512  0.8903  0.5246
 5886SOL     OW29293   2.886   0.088  12.656  0.5766 -0.7438  0.1075
 5886SOL    HW129294   2.849   0.079  12.568 -1.4724 -0.7377  0.9682
 5886SOL    HW229295   2.805   0.066  12.702 -0.4747  0.7243 -1.0229
 5887SOL     OW29296   0.120   1.435   0.757  0.9782  0.4715  0.1175
 5887SOL    HW129297   0.164   1.390   0.685  0.9455  2.1839 -0.9722
 5887SOL    HW229298   0.125   1.525   0.725 -0.3686  0.5727  0.1899
 5888SOL     OW29299   0.891   1.136   2.728  0.3039 -0.2412 -0.8403
 5888SOL    HW129300   0.933   1.131   2.642 -0.4781 -0.7969 -1.1833
 5888SOL    HW229301   0.877   1.042   2.742  0.6470  0.1489  2.0912
 5889SOL     OW29302   1.345   4.386   1.590  0.2051  0.1040 -0.0902
 5889SOL    HW129303   1.329   4.291   1.596 -1.0422  0.1967 -1.8969
 5889SOL    HW229304   1.291   4.403   1.513  2.0381  1.2214 -1.1364
 5890SOL     OW29305   1.205   1.395   6.137  0.3150  0.0662 -0.0421
 5890SOL    HW129306   1.234   1.340   6.064 -0.5954 -1.5160  0.7674
 5890SOL    HW229307   1.274   1.461   6.131  0.0060  0.2706 -1.4785
 5891SOL     OW29308   2.212   3.035   4.698  0.1175 -0.6758 -0.2431
 5891SOL    HW129309   2.159   2.968   4.743  1.8867 -1.8723  0.0776
 5891SOL    HW229310   2.236   3.007   4.609  0.0873  0.3584 -0.5702
 5892SOL     OW29311   4.598   1.312   4.204 -0.0359 -0.2311  0.0677
 5892SOL    HW129312   4.609   1.367   4.282 -0.0480 -0.3660  0.1648
 5892SOL    HW229313   4.679   1.325   4.156 -1.1666  0.0425 -1.7723
 5893SOL     OW29314   0.210   3.135   6.130 -0.0425 -0.0279  0.0794
 5893SOL    HW129315   0.256   3.063   6.087  0.0300 -0.1424  0.3429
 5893SOL    HW229316   0.153   3.162   6.059 -1.0740 -1.8352  0.2240
 5894SOL     OW29317   1.831   4.147   3.416  0.1140  0.1521 -0.0417
 5894SOL    HW129318   1.876   4.155   3.500 -2.2976 -1.3401  1.3878
 5894SOL    HW229319   1.774   4.224   3.422 -0.4000 -0.1866 -0.5917
 5895SOL     OW29320   2.345   2.725  16.884 -0.3497  0.4619  0.7575
 5895SOL    HW129321   2.253   2.740  16.862 -0.8650  0.8647  3.2074
 5895SOL    HW229322   2.361   2.783  16.958 -0.6971  0.1790  1.0544
 5896SOL     OW29323   4.535   0.494   3.658 -0.3912 -0.4021 -0.5212
 5896SOL    HW129324   4.453   0.455   3.628 -1.5275  1.3466  0.2718
 5896SOL    HW229325   4.601   0.455   3.600 -0.6353 -0.1861 -0.9500
 5897SOL     OW29326   4.699   1.871   3.570  0.4450  0.4682 -0.2364
 5897SOL    HW129327   4.729   1.780   3.564 -0.0956  0.1945  1.1395
 5897SOL    HW229328   0.015   1.893   3.648 -0.5556  3.7941 -0.5493
 5898SOL     OW29329   2.806   4.513  13.273 -0.4595 -0.2196 -0.3715
 5898SOL    HW129330   2.780   4.597  13.310  0.5845  0.5079 -1.2936
 5898SOL    HW229331   2.823   4.473  13.358  1.6441  0.8562 -0.2816
 5899SOL     OW29332   1.583   4.644   6.088  0.1885 -0.3821  0.3449
 5899SOL    HW129333   1.538   4.566   6.055  0.7189 -0.0723 -1.1285
 5899SOL    HW229334   1.581   4.631   6.183  0.8719 -1.9222  0.1579
 5900SOL     OW29335   1.331   3.942   2.476  0.5055  0.1351  0.0359
 5900SOL    HW129336   1.250   3.923   2.524  0.5774 -0.6102 -0.1476
 5900SOL    HW229337   1.332   3.872   2.412 -1.7131  0.6083 -0.5328
 5901SOL     OW29338   1.074   2.087   2.060 -0.3874 -0.4700 -0.5731
 5901SOL    HW129339   0.981   2.083   2.084  0.1087  2.3991  1.7945
 5901SOL    HW229340   1.059   2.109   1.968 -0.4575 -2.9235 -1.1422
 5902SOL     OW29341   2.719   3.021  15.205 -0.0606 -0.4108 -0.1954
 5902SOL    HW129342   2.748   2.937  15.242  0.2104 -1.8725 -3.7446
 5902SOL    HW229343   2.625   3.008  15.199 -0.0223  0.5080 -2.7882
 5903SOL     OW29344   0.739   3.420  11.760 -0.2373  0.0328 -0.2664
 5903SOL    HW129345   0.831   3.420  11.787  0.3463  1.0202 -2.2671
 5903SOL    HW229346   0.687   3.439  11.839 -0.4468  0.5377 -0.5247
 5904SOL     OW29347   1.299   0.395   9.628 -0.1513  0.4120  0.1440
 5904SOL    HW129348   1.362   0.337   9.586  0.0116  0.0830  0.8495
 5904SOL    HW229349   1.251   0.328   9.676 -2.1213  3.1851  2.0200
 5905SOL     OW29350   4.170   4.625   5.478  0.1066  0.6484  0.4698
 5905SOL    HW129351   4.204   4.659   5.561  1.5322  1.3745 -0.4308
 5905SOL    HW229352   4.250   4.609   5.429  1.0050  0.5300  1.9536
 5906SOL     OW29353   0.105   3.591   8.780  0.3235 -0.2467  0.5053
 5906SOL    HW129354   0.024   3.550   8.809  0.3744 -1.3650 -0.9335
 5906SOL    HW229355   0.126   3.529   8.710  1.3790  2.8081 -1.9308
 5907SOL     OW29356   3.549   3.728  12.201 -0.8673 -0.3846  0.2247
 5907SOL    HW129357   3.456   3.703  12.200 -0.8105 -0.6094  0.4289
 5907SOL    HW229358   3.592   3.643  12.213 -0.8987 -1.1517 -5.4545
 5908SOL     OW29359   3.813   2.917   2.080  0.5106  0.2012  0.7820
 5908SOL    HW129360   3.903   2.941   2.101  1.3771 -2.4966  0.1536
 5908SOL    HW229361   3.772   2.951   2.159  0.7526 -1.2855  1.5488
 5909SOL     OW29362   2.012   2.971   2.827 -0.1229  0.3291  0.3304
 5909SOL    HW129363   2.047   2.892   2.786 -0.4831  0.4705 -0.2560
 5909SOL    HW229364   1.998   3.033   2.755 -0.4624  0.5113  0.5508
 5910SOL     OW29365   3.151   3.230  10.362 -0.4810  0.2413  0.4661
 5910SOL    HW129366   3.092   3.264  10.429 -1.0963 -0.7136  0.4080
 5910SOL    HW229367   3.122   3.267  10.279 -2.2344 -1.3928  0.3510
 5911SOL     OW29368   3.725   0.088   3.037 -0.4176  0.3056  0.2617
 5911SOL    HW129369   3.796   0.028   3.012  0.1296  0.1213  2.2865
 5911SOL    HW229370   3.750   0.160   2.978  1.4761  1.0631  1.9504
 5912SOL     OW29371   4.449   4.115  15.319  0.3052  0.0567  0.0638
 5912SOL    HW129372   4.361   4.151  15.308  1.0933  1.4155 -1.9343
 5912SOL    HW229373   4.437   4.023  15.339 -0.6571  0.3327  0.7380
 5913SOL     OW29374   3.986   1.268   2.210 -0.1804 -0.2659  0.0520
 5913SOL    HW129375   3.951   1.218   2.283  1.2895 -1.9708 -0.4259
 5913SOL    HW229376   3.990   1.199   2.143 -0.0540  0.8089 -1.0548
 5914SOL     OW29377   1.277   0.473   7.398  0.0479  0.3820  0.8031
 5914SOL    HW129378   1.352   0.496   7.344 -0.6321  2.7198  0.8807
 5914SOL    HW229379   1.285   0.525   7.478  0.3285  0.0871  0.9650
 5915SOL     OW29380   3.308   3.035   9.241  0.4593 -0.4065 -0.0246
 5915SOL    HW129381   3.347   3.079   9.316  1.8181  1.3114 -1.7226
 5915SOL    HW229382   3.379   3.027   9.177  0.1946 -1.0644 -0.2405
 5916SOL     OW29383   3.741   3.819   3.316  0.2660 -0.2104  0.0309
 5916SOL    HW129384   3.709   3.879   3.383 -1.6814  0.4951 -1.5613
 5916SOL    HW229385   3.669   3.806   3.255 -0.2670  2.6565  0.0369
 5917SOL     OW29386   2.606   3.481   3.061  0.5211 -0.5043  0.3788
 5917SOL    HW129387   2.653   3.508   3.139  1.2984 -0.5248 -0.0823
 5917SOL    HW229388   2.567   3.399   3.092 -2.0670  0.1969 -0.9213
 5918SOL     OW29389   2.776   1.026   7.821 -0.0063  0.0363  0.3158
 5918SOL    HW129390   2.779   0.953   7.759 -0.5050 -0.3554  0.7593
 5918SOL    HW229391   2.744   0.995   7.905  0.1333  0.2941  0.4660
 5919SOL     OW29392   1.510   2.934   5.686 -0.2770 -0.7730  0.6022
 5919SOL    HW129393   1.572   2.905   5.620 -0.9363 -0.0131 -0.3481
 5919SOL    HW229394   1.443   2.866   5.676  1.1465 -2.0295 -0.4633
 5920SOL     OW29395   3.138   4.487  14.134  0.6486 -1.3502 -0.1178
 5920SOL    HW129396   3.082   4.564  14.143  2.1427 -0.1663 -0.9624
 5920SOL    HW229397   3.211   4.526  14.086  1.8724 -2.1553  1.0663
 5921SOL     OW29398   3.530   2.568   3.660  0.1591 -0.0537 -0.4181
 5921SOL    HW129399   3.498   2.486   3.697  0.5622  0.1013  0.2703
 5921SOL    HW229400   3.448   2.599   3.622 -0.4846  0.7168  1.5975
 5922SOL     OW29401   2.849   1.485   3.986 -0.2270  0.0195 -0.4866
 5922SOL    HW129402   2.834   1.453   4.075  1.4003  0.5933 -0.0178
 5922SOL    HW229403   2.786   1.431   3.938 -0.2761  0.8095 -1.3103
 5923SOL     OW29404   1.708   4.365   8.013 -0.2647 -0.0818 -0.7124
 5923SOL    HW129405   1.687   4.277   8.045  0.6072 -0.5186 -1.3156
 5923SOL    HW229406   1.692   4.355   7.919 -1.1636 -0.0134 -0.5679
 5924SOL     OW29407   0.296   2.985  14.242 -0.2793 -0.3165  0.1420
 5924SOL    HW129408   0.213   2.944  14.216 -0.3644  1.4308 -2.3196
 5924SOL    HW229409   0.277   3.077  14.227 -2.8130 -1.3422 -2.8490
 5925SOL     OW29410   0.219   0.784  12.560  0.0204 -0.3905  0.2107
 5925SOL    HW129411   0.291   0.731  12.597  0.2265  0.1515  0.5833
 5925SOL    HW229412   0.143   0.742  12.602  2.0595 -3.1222  1.2345
 5926SOL     OW29413   1.650   0.110  14.107 -0.5377  0.1080  0.1233
 5926SOL    HW129414   1.617   0.200  14.103  0.2297  0.4489  1.8075
 5926SOL    HW229415   1.582   0.053  14.143 -0.7366 -0.1610 -0.6801
 5927SOL     OW29416   2.783   4.174  17.577 -0.1516  0.4437 -0.0025
 5927SOL    HW129417   2.871   4.137  17.571 -0.6058 -0.0977 -3.1093
 5927SOL    HW229418   2.803   4.257  17.621  1.3265  0.0982 -0.0234
 5928SOL     OW29419   1.501   2.210   7.286 -0.8674  0.5120  0.7659
 5928SOL    HW129420   1.536   2.299   7.273 -0.7916  0.5071  0.9372
 5928SOL    HW229421   1.407   2.223   7.298 -1.1668  0.7946 -1.8563
 5929SOL     OW29422   3.490   3.398   2.184 -0.1929 -0.9014 -0.5883
 5929SOL    HW129423   3.488   3.390   2.279 -2.1940 -3.2463 -0.8328
 5929SOL    HW229424   3.557   3.330   2.170 -1.0649 -1.2236 -3.1705
 5930SOL     OW29425   4.090   0.683   6.830 -0.1230 -0.5305  0.2534
 5930SOL    HW129426   4.084   0.594   6.865 -2.2876  0.4756  2.4429
 5930SOL    HW229427   4.088   0.740   6.908  1.7750  1.6250 -1.2698
 5931SOL     OW29428   1.460   2.609  12.758  0.4352 -0.6850  0.1004
 5931SOL    HW129429   1.422   2.687  12.717  1.9666  0.6474  1.1751
 5931SOL    HW229430   1.461   2.547  12.685  0.7978 -1.0738  0.4322
 5932SOL     OW29431   1.053   0.237   5.599 -0.1261 -0.0487 -0.1183
 5932SOL    HW129432   1.048   0.299   5.671 -0.3744  0.3023 -0.4348
 5932SOL    HW229433   0.961   0.217   5.580  0.5788 -2.0006 -1.4278
 5933SOL     OW29434   4.226   4.570   3.195  0.0135 -0.1022  0.2420
 5933SOL    HW129435   4.221   4.490   3.142  1.0261 -0.9094  1.3618
 5933SOL    HW229436   4.144   4.551   3.240  0.4273  0.1711  1.1068
 5934SOL     OW29437   3.693   4.626   5.543 -0.4293  0.3724  0.0485
 5934SOL    HW129438   3.739   4.579   5.473  0.5734  0.9672  0.3162
 5934SOL    HW229439   3.670   4.560   5.609 -0.2618 -0.1857 -0.4504
 5935SOL     OW29440   1.723   4.461   5.282  0.3012 -0.1141  0.6902
 5935SOL    HW129441   1.773   4.500   5.354 -0.2925 -0.3951  1.2554
 5935SOL    HW229442   1.789   4.399   5.250 -0.8344 -0.2965 -1.2497
 5936SOL     OW29443   1.378   1.016   9.163  0.0853  0.4647  0.1798
 5936SOL    HW129444   1.327   0.970   9.230  1.0338 -0.4429  0.2693
 5936SOL    HW229445   1.419   1.084   9.216  1.0962  0.7119 -0.9414
 5937SOL     OW29446   2.529   0.638  12.965  0.5293  0.6344  0.3140
 5937SOL    HW129447   2.622   0.656  12.975  0.8809 -1.7108  1.2767
 5937SOL    HW229448   2.475   0.683  13.030  0.5986  1.6820 -0.3474
 5938SOL     OW29449   1.111   1.541  10.426 -0.1632  0.0184  0.1541
 5938SOL    HW129450   1.044   1.566  10.362  0.2079  2.0074  0.5378
 5938SOL    HW229451   1.117   1.622  10.477 -2.0343  1.1524 -1.4180
 5939SOL     OW29452   3.320   1.852   8.496  0.3901 -0.3727  0.5433
 5939SOL    HW129453   3.294   1.761   8.486 -2.0689  0.4894 -1.0086
 5939SOL    HW229454   3.268   1.870   8.574 -0.4209 -0.3821  0.0023
 5940SOL     OW29455   2.850   3.348   0.613  0.2154 -0.0130 -0.1331
 5940SOL    HW129456   2.899   3.269   0.590  0.6045 -0.0182  0.7119
 5940SOL    HW229457   2.764   3.309   0.599 -0.2732  1.0598 -0.1622
 5941SOL     OW29458   4.477   0.172   1.132 -0.4545  0.9289 -0.3985
 5941SOL    HW129459   4.570   0.170   1.110  0.2172  1.2345  2.3962
 5941SOL    HW229460   4.469   0.256   1.177 -0.6150  0.6400  0.1155
 5942SOL     OW29461   2.533   0.607   6.587 -0.1597 -0.0623  0.2227
 5942SOL    HW129462   2.473   0.568   6.524  1.4569 -1.6088 -0.3578
 5942SOL    HW229463   2.575   0.528   6.620 -0.1360  0.3274  1.1280
 5943SOL     OW29464   1.479   3.050   1.098  0.5423 -0.2210  0.0400
 5943SOL    HW129465   1.421   3.121   1.125 -0.6683 -0.1344 -2.8734
 5943SOL    HW229466   1.528   3.096   1.030  3.4698 -0.3533  2.0305
 5944SOL     OW29467   0.670   0.065   4.428 -0.4496 -0.1976  0.0330
 5944SOL    HW129468   0.623   0.119   4.492  1.0633 -0.8930  1.7560
 5944SOL    HW229469   0.760   0.078   4.458  0.1885 -1.0050 -1.5560
 5945SOL     OW29470   1.992   2.466   8.991  0.1126  0.0155  0.0912
 5945SOL    HW129471   2.055   2.468   9.063 -1.1822 -2.1716  1.2622
 5945SOL    HW229472   2.006   2.377   8.960 -1.1482  0.2482 -1.1485
 5946SOL     OW29473   1.134   4.506   1.919  0.6133 -0.3054  0.1326
 5946SOL    HW129474   1.122   4.478   1.828 -2.2309  0.4583  0.2789
 5946SOL    HW229475   1.129   4.425   1.969 -0.7214 -0.8807 -0.9209
 5947SOL     OW29476   3.237   2.639   0.698 -0.6722 -0.0849  0.0192
 5947SOL    HW129477   3.156   2.679   0.666  0.0951  0.7769 -0.8451
 5947SOL    HW229478   3.200   2.578   0.762  0.8966  1.9864  2.9605
 5948SOL     OW29479   4.141   0.588   5.039  0.2344  0.0389  0.1132
 5948SOL    HW129480   4.096   0.509   5.009  1.9338 -1.1716  0.7602
 5948SOL    HW229481   4.215   0.582   4.979  2.0580 -1.1105  2.4572
 5949SOL     OW29482   3.233   4.368   5.897 -0.6634 -0.0261 -0.2499
 5949SOL    HW129483   3.286   4.393   5.822 -0.4330 -3.1412 -1.1313
 5949SOL    HW229484   3.145   4.397   5.873 -1.2616 -0.9621  0.7610
 5950SOL     OW29485   3.359   2.302  10.869 -0.0899  0.7874 -0.0449
 5950SOL    HW129486   3.264   2.293  10.865  0.0815 -1.2744  0.1471
 5950SOL    HW229487   3.371   2.258  10.954 -0.8918  3.5369  1.4858
 5951SOL     OW29488   2.183   2.576  14.123  0.1631  0.1194  0.1744
 5951SOL    HW129489   2.162   2.627  14.202  0.0709  0.6734 -0.2111
 5951SOL    HW229490   2.275   2.564  14.143  0.6130 -1.5622 -2.9541
 5952SOL     OW29491   1.521   2.919   3.563  0.6498  0.1306 -0.1023
 5952SOL    HW129492   1.427   2.934   3.569  0.7710  0.1973  1.4980
 5952SOL    HW229493   1.529   2.921   3.467  0.9538 -3.6720 -0.1813
 5953SOL     OW29494   1.766   3.575   2.994  0.0331  0.3265 -0.2178
 5953SOL    HW129495   1.804   3.661   2.977 -1.7512  0.7403 -2.0945
 5953SOL    HW229496   1.822   3.539   3.063  0.3567 -1.4718 -1.4132
 5954SOL     OW29497   1.696   2.356   8.481 -0.4826  0.1900 -0.0583
 5954SOL    HW129498   1.784   2.359   8.519 -0.4754  1.4615 -0.1803
 5954SOL    HW229499   1.657   2.287   8.535  1.3699 -1.0069 -0.2507
 5955SOL     OW29500   0.649   4.040   1.882 -0.5993 -0.1018 -0.1665
 5955SOL    HW129501   0.594   4.060   1.806  0.2296  1.0146 -0.4671
 5955SOL    HW229502   0.594   3.972   1.921  0.1181 -2.1621 -2.6631
 5956SOL     OW29503   4.597   1.359   8.413  0.1597 -0.1908  0.1620
 5956SOL    HW129504   4.652   1.423   8.369  0.8993 -1.1444 -0.2959
 5956SOL    HW229505   4.526   1.412   8.449 -0.1135  0.1772 -0.9401
 5957SOL     OW29506   1.670   0.295   3.481  0.7400 -0.4755  0.1414
 5957SOL    HW129507   1.666   0.267   3.573 -1.2451 -1.0968 -0.1449
 5957SOL    HW229508   1.717   0.377   3.491 -2.0790  0.7650  2.9430
 5958SOL     OW29509   1.737   2.556  10.665  0.0213  0.6646  0.5666
 5958SOL    HW129510   1.674   2.521  10.602  0.1846 -1.3530  1.5184
 5958SOL    HW229511   1.818   2.558  10.614  0.9971 -1.3321  2.0618
 5959SOL     OW29512   2.779   4.193  10.299 -0.4384  0.9201  0.7384
 5959SOL    HW129513   2.784   4.098  10.292 -1.5824  1.1604 -3.1123
 5959SOL    HW229514   2.846   4.201  10.367  1.7169 -1.2286 -1.1307
 5960SOL     OW29515   3.036   4.606  10.886  0.5251 -0.5271 -0.2896
 5960SOL    HW129516   3.028   4.586  10.979 -2.9590 -0.3711 -0.5581
 5960SOL    HW229517   2.984   4.686  10.889  1.9557  0.4537 -1.9301
 5961SOL     OW29518   0.741   2.562   6.454 -0.4894  0.3456 -0.1856
 5961SOL    HW129519   0.753   2.628   6.385 -1.1900  0.2986 -0.3536
 5961SOL    HW229520   0.755   2.476   6.413 -0.2056 -0.2310  1.1350
 5962SOL     OW29521   0.774   3.556   5.058 -0.2506 -0.1541  0.1886
 5962SOL    HW129522   0.825   3.583   4.981 -1.1769  1.8483  0.2920
 5962SOL    HW229523   0.764   3.644   5.095  1.1509  0.1397 -0.1025
 5963SOL     OW29524   0.212   2.085   6.603 -0.2450  0.4892 -0.5843
 5963SOL    HW129525   0.229   2.099   6.510 -1.2736 -1.0620 -1.0280
 5963SOL    HW229526   0.236   1.993   6.619 -2.1851  0.3342  1.3185
 5964SOL     OW29527   2.038   2.578   5.113  0.0552  0.2432  0.2703
 5964SOL    HW129528   2.058   2.485   5.104 -0.5883 -0.0851  2.2041
 5964SOL    HW229529   1.980   2.586   5.038  0.1534  3.2083  0.4955
 5965SOL     OW29530   0.200   4.501   9.878  0.1269 -0.0832 -0.2219
 5965SOL    HW129531   0.192   4.575   9.938 -0.8680 -1.0004  0.7516
 5965SOL    HW229532   0.221   4.538   9.792  0.1691 -0.7415 -0.4973
 5966SOL     OW29533   3.777   0.237  13.483  0.0662  0.0805 -0.2827
 5966SOL    HW129534   3.843   0.306  13.479 -0.0243  0.2057  0.5129
 5966SOL    HW229535   3.772   0.204  13.393 -0.3221  2.5101 -1.1485
 5967SOL     OW29536   2.036   0.287   8.827 -0.2340  0.1415  0.0236
 5967SOL    HW129537   1.991   0.204   8.844 -0.4494  0.4864  1.1155
 5967SOL    HW229538   2.007   0.309   8.738  0.9101 -0.7807 -0.5731
 5968SOL     OW29539   4.668   0.213  16.508  0.4619 -0.2422 -0.0721
 5968SOL    HW129540   4.600   0.146  16.512 -0.8280  1.0014 -1.2528
 5968SOL    HW229541   4.688   0.215  16.602  3.3736  0.3010 -0.7007
 5969SOL     OW29542   2.016   2.042   6.102 -0.2120  0.2344  0.1452
 5969SOL    HW129543   2.036   1.951   6.083 -0.7085  0.1086  0.2185
 5969SOL    HW229544   2.101   2.073   6.132  0.6771  0.2005 -2.3408
 5970SOL     OW29545   2.228   2.757   4.855 -0.3850  0.0731  0.2015
 5970SOL    HW129546   2.313   2.795   4.832  0.6281 -0.8302  2.4925
 5970SOL    HW229547   2.219   2.782   4.947 -0.2676 -0.7034  0.4148
 5971SOL     OW29548   0.202   1.670   0.636 -0.3782 -0.2893 -0.3690
 5971SOL    HW129549   0.215   1.656   0.542 -0.3389 -0.4605 -0.3392
 5971SOL    HW229550   0.279   1.627   0.674  0.6640  2.5157  0.6787
 5972SOL     OW29551   2.321   0.369  14.841 -0.3172  0.5031 -0.7510
 5972SOL    HW129552   2.410   0.378  14.806  0.7411 -2.0810  1.2812
 5972SOL    HW229553   2.271   0.424  14.782 -0.3924  0.7841 -0.4215
 5973SOL     OW29554   1.046   3.491   2.873 -0.5549  0.0511  0.7457
 5973SOL    HW129555   0.957   3.515   2.846  0.3486  1.0258 -1.3312
 5973SOL    HW229556   1.047   3.399   2.846 -0.7057  0.3752 -0.3556
 5974SOL     OW29557   0.709   0.468   5.690  0.2571  0.1924 -0.0253
 5974SOL    HW129558   0.779   0.519   5.730  1.0227 -0.6948 -0.2464
 5974SOL    HW229559   0.754   0.409   5.630 -0.0430 -0.2542  0.1831
 5975SOL     OW29560   2.598   1.188   9.695 -0.5502  0.6164 -0.0378
 5975SOL    HW129561   2.586   1.203   9.789  1.4979  1.2655  0.1378
 5975SOL    HW229562   2.543   1.110   9.698 -1.3992  1.2162 -0.0641
 5976SOL     OW29563   1.187   3.777  11.788 -0.5455 -0.4156 -0.4004
 5976SOL    HW129564   1.186   3.720  11.711  0.3396 -0.3160 -0.4861
 5976SOL    HW229565   1.278   3.786  11.818 -1.1271  2.3219  0.5388
 5977SOL     OW29566   2.979   0.229  13.345  0.0503 -0.5059 -0.8726
 5977SOL    HW129567   3.043   0.167  13.312  3.1790  1.3712  1.7538
 5977SOL    HW229568   2.988   0.297  13.278 -0.5945  1.1555  0.7360
 5978SOL     OW29569   2.348   0.655   2.880  0.1930 -0.2125 -0.1703
 5978SOL    HW129570   2.342   0.737   2.831 -0.1220  0.9557  1.8297
 5978SOL    HW229571   2.282   0.669   2.949  1.0670 -0.8632  0.7944
 5979SOL     OW29572   0.032   0.978  13.427  0.3236 -0.8610  0.3133
 5979SOL    HW129573   0.014   0.909  13.490  0.1070 -1.1036 -0.0117
 5979SOL    HW229574   0.104   1.029  13.464 -1.4589  1.6122  0.3832
 5980SOL     OW29575   4.403   1.804   3.125 -0.0995 -0.5716  0.1062
 5980SOL    HW129576   4.405   1.811   3.221  2.0916  0.3201 -0.0113
 5980SOL    HW229577   4.497   1.810   3.114 -0.4149  1.1566 -1.5716
 5981SOL     OW29578   0.762   4.088   2.586  0.2005  0.2388 -0.6356
 5981SOL    HW129579   0.669   4.072   2.601  0.4096  0.5312  0.9863
 5981SOL    HW229580   0.751   4.154   2.517 -1.1003  0.1605 -0.4983
 5982SOL     OW29581   1.161   3.563   5.051  0.1271 -0.3750  0.1614
 5982SOL    HW129582   1.175   3.618   4.974 -0.7589 -2.6678 -1.6327
 5982SOL    HW229583   1.235   3.506   5.032 -2.0754 -2.1642 -2.8748
 5983SOL     OW29584   3.582   4.574   1.941  0.1367 -0.3533 -0.0229
 5983SOL    HW129585   3.488   4.584   1.932  0.4869  1.4868 -1.6656
 5983SOL    HW229586   3.601   4.583   1.847  3.1866  1.1821  0.7243
 5984SOL     OW29587   0.484   0.006   7.941 -0.4902  0.7187 -0.1385
 5984SOL    HW129588   0.515   0.090   7.909  0.8701  1.4041  2.9188
 5984SOL    HW229589   0.403   0.039   7.981 -0.5772  0.3625 -0.0215
 5985SOL     OW29590   1.579   1.590  12.771 -0.2299 -0.5577 -0.0652
 5985SOL    HW129591   1.631   1.536  12.711 -0.1527  0.2138 -0.6824
 5985SOL    HW229592   1.608   1.678  12.747  1.3706 -0.2855  2.9032
 5986SOL     OW29593   2.424   4.204   4.270 -0.4952  0.7046  0.2777
 5986SOL    HW129594   2.331   4.187   4.253 -0.2869 -0.4357  0.3152
 5986SOL    HW229595   2.468   4.124   4.241 -0.5566  1.6960 -2.6337
 5987SOL     OW29596   3.696   1.723   7.088 -0.3256  0.6006 -0.0422
 5987SOL    HW129597   3.735   1.810   7.079  0.0169  0.5921  1.4170
 5987SOL    HW229598   3.775   1.672   7.103  0.8914  1.8043 -2.3694
 5988SOL     OW29599   2.466   1.272   5.376 -0.6089  0.2756 -0.4512
 5988SOL    HW129600   2.473   1.364   5.402 -1.0115  0.2556 -0.2731
 5988SOL    HW229601   2.378   1.246   5.403 -0.0117 -0.4400  0.7884
 5989SOL     OW29602   2.777   2.074   1.397 -0.0309  0.4401  0.2935
 5989SOL    HW129603   2.811   2.122   1.322  1.6397 -0.5801  0.3957
 5989SOL    HW229604   2.732   2.000   1.357  1.4818 -0.2498 -0.1562
 5990SOL     OW29605   2.691   3.273   7.610 -0.7016  0.0596 -0.5157
 5990SOL    HW129606   2.675   3.211   7.682 -0.1190 -0.6096 -0.9635
 5990SOL    HW229607   2.644   3.233   7.537  0.0638 -0.9167 -0.4770
 5991SOL     OW29608   2.185   0.747   9.178 -0.2776  0.3597 -0.1869
 5991SOL    HW129609   2.173   0.717   9.268  0.0027  0.1751 -0.2093
 5991SOL    HW229610   2.267   0.706   9.148 -1.5337 -0.5390 -2.3698
 5992SOL     OW29611   2.188   0.816   3.083 -0.1242 -0.6410 -0.2385
 5992SOL    HW129612   2.242   0.893   3.067  2.1200 -2.4786 -1.3285
 5992SOL    HW229613   2.198   0.807   3.177  0.2762  1.5763 -0.0705
 5993SOL     OW29614   0.906   4.706  16.215  0.3057  0.2361  0.2965
 5993SOL    HW129615   0.980   4.701  16.155  0.9609  2.9155  0.8701
 5993SOL    HW229616   0.949   4.712  16.301  0.7573 -1.7575  0.2020
 5994SOL     OW29617   2.857   0.370   5.782 -0.0747 -0.7365 -0.2595
 5994SOL    HW129618   2.848   0.286   5.826  2.5277 -1.6010 -1.3965
 5994SOL    HW229619   2.803   0.425   5.839 -0.4303 -1.4160  0.0633
 5995SOL     OW29620   1.848   3.555   7.977 -0.1008 -0.7505 -0.3724
 5995SOL    HW129621   1.915   3.522   8.037 -0.9819 -1.0853  0.4386
 5995SOL    HW229622   1.881   3.541   7.888 -1.0822 -0.4345 -0.7795
 5996SOL     OW29623   0.802   1.533   2.324  0.4061 -0.0718 -0.1936
 5996SOL    HW129624   0.819   1.577   2.408  0.8069  1.0735 -0.8672
 5996SOL    HW229625   0.877   1.473   2.323 -0.9486 -1.7654  2.0747
 5997SOL     OW29626   1.238   3.740  11.507  0.6264 -0.2655 -0.3475
 5997SOL    HW129627   1.325   3.753  11.468  0.8973  2.6137  1.1908
 5997SOL    HW229628   1.177   3.743  11.433 -0.8536  0.0898  0.8900
 5998SOL     OW29629   2.851   3.802  16.570 -0.0110  0.3176 -0.8386
 5998SOL    HW129630   2.899   3.853  16.505 -0.1767  1.9326  0.2936
 5998SOL    HW229631   2.782   3.754  16.524 -0.9301  0.4905  0.3583
 5999SOL     OW29632   3.270   1.552   4.541  0.2699  0.0298 -0.2951
 5999SOL    HW129633   3.201   1.500   4.583 -0.2471 -0.1726 -1.4008
 5999SOL    HW229634   3.203   1.616   4.516 -0.3587 -0.0842  1.0726
 6000SOL     OW29635   1.686   4.019  14.642 -0.2594  1.2840  0.0241
 6000SOL    HW129636   1.647   3.932  14.644 -0.4476  1.2655 -4.3532
 6000SOL    HW229637   1.731   4.013  14.727 -0.5080  0.9400  0.1278
 6001SOL     OW29638   1.589   3.945   2.555 -0.0932 -0.4024  0.2759
 6001SOL    HW129639   1.498   3.965   2.536  0.2563 -1.0815 -2.1083
 6001SOL    HW229640   1.574   3.875   2.619 -0.7070 -0.6983 -0.1891
 6002SOL     OW29641   0.219   2.495   8.829 -0.1160  0.3814 -0.2357
 6002SOL    HW129642   0.235   2.455   8.914  1.0338  3.4339  1.0029
 6002SOL    HW229643   0.304   2.496   8.785  1.5418 -1.7472  2.9574
 6003SOL     OW29644   1.005   2.909   6.919 -0.0520 -0.1514  0.3033
 6003SOL    HW129645   0.931   2.851   6.939 -0.5175 -0.2524 -1.7716
 6003SOL    HW229646   0.984   2.999   6.897 -0.1576 -0.4134 -0.6396
 6004SOL     OW29647   2.498   3.237  14.768  0.1790  0.6369 -0.3164
 6004SOL    HW129648   2.549   3.156  14.759  1.6946  1.6456 -0.7657
 6004SOL    HW229649   2.466   3.247  14.678 -0.9270 -2.3313 -0.2669
 6005SOL     OW29650   3.838   1.765   2.873  0.4073  0.2670  0.0038
 6005SOL    HW129651   3.835   1.747   2.967 -0.3412  1.0547  0.1305
 6005SOL    HW229652   3.919   1.815   2.867  0.9378 -0.4885  0.7909
 6006SOL     OW29653   4.031   2.338  16.719  1.3234  0.4050  0.6693
 6006SOL    HW129654   4.011   2.252  16.682  0.4736  0.4878  0.9280
 6006SOL    HW229655   3.947   2.369  16.755  0.5390 -0.6399 -0.2708
 6007SOL     OW29656   0.007   3.782  16.444  0.2565  0.4439  0.3039
 6007SOL    HW129657   0.066   3.731  16.499 -0.7737 -0.7817  0.2842
 6007SOL    HW229658   4.661   3.758  16.487  1.1423 -3.0433  0.0898
 6008SOL     OW29659   0.802   0.410   4.527  0.1094  0.1529  0.6677
 6008SOL    HW129660   0.868   0.463   4.482  0.7240 -0.3418  0.9964
 6008SOL    HW229661   0.862   0.366   4.587  0.4269 -0.8528 -0.3945
 6009SOL     OW29662   4.397   4.229   3.650  0.0522 -0.4450  0.5213
 6009SOL    HW129663   4.426   4.250   3.739  0.8665 -3.2814  0.9069
 6009SOL    HW229664   4.360   4.142   3.639 -0.7082  0.1879 -1.9742
 6010SOL     OW29665   0.461   2.704   2.564  0.8816 -0.6676  0.1871
 6010SOL    HW129666   0.454   2.698   2.469 -2.8189  0.0847  0.4093
 6010SOL    HW229667   0.387   2.658   2.605  1.0372  1.2680  2.6472
 6011SOL     OW29668   2.020   3.064   5.984 -0.2428  0.3210  0.2659
 6011SOL    HW129669   2.003   3.073   6.078  5.1388  1.2438  1.1622
 6011SOL    HW229670   2.100   3.012   5.996 -1.2186 -1.4387 -0.8651
 6012SOL     OW29671   3.081   3.796   9.314 -0.2352  0.6741 -0.0367
 6012SOL    HW129672   3.161   3.827   9.356 -0.3991 -0.1545  0.8762
 6012SOL    HW229673   3.113   3.754   9.234  2.0098 -3.5302  3.1198
 6013SOL     OW29674   1.871   4.209   6.486 -0.1196 -0.5841  0.2732
 6013SOL    HW129675   1.778   4.233   6.481 -0.5375 -1.9898  1.5599
 6013SOL    HW229676   1.867   4.156   6.565  0.7693  0.1287  0.7918
 6014SOL     OW29677   3.082   4.366   9.465  0.1829  0.0725 -0.3316
 6014SOL    HW129678   3.022   4.370   9.540  0.9241  0.0919  0.2565
 6014SOL    HW229679   3.102   4.459   9.456  1.7149 -0.3475 -1.1888
 6015SOL     OW29680   2.699   2.632   2.145  0.5089 -0.1788  0.4427
 6015SOL    HW129681   2.664   2.548   2.174 -0.4387  0.0930  0.0911
 6015SOL    HW229682   2.722   2.674   2.228 -1.3319 -0.3289  1.0130
 6016SOL     OW29683   2.321   3.799   4.105 -0.2392 -0.3285  0.2079
 6016SOL    HW129684   2.379   3.772   4.034 -1.2432 -1.3406 -0.2291
 6016SOL    HW229685   2.377   3.860   4.152 -0.7490  0.2593  0.0436
 6017SOL     OW29686   2.096   4.334   9.007 -0.2160 -0.2665 -0.4744
 6017SOL    HW129687   2.162   4.330   8.937  1.0029 -0.2252  0.6846
 6017SOL    HW229688   2.127   4.413   9.051 -0.8193  0.4788 -1.3978
 6018SOL     OW29689   2.802   2.567   7.239  0.4400 -0.5249 -0.4604
 6018SOL    HW129690   2.790   2.583   7.145 -0.1750 -2.8659 -0.7902
 6018SOL    HW229691   2.861   2.638   7.262 -0.5929  0.4086 -0.7012
 6019SOL     OW29692   2.262   0.026   5.275 -0.3487  0.3122  0.4453
 6019SOL    HW129693   2.186   0.053   5.326  0.4096 -0.7340  2.1163
 6019SOL    HW229694   2.283   0.111   5.235 -0.8763  0.1505 -0.1721
 6020SOL     OW29695   3.029   4.143   3.134  0.3964 -0.7951  0.8488
 6020SOL    HW129696   3.099   4.083   3.162  1.7121  0.0067 -0.7682
 6020SOL    HW229697   2.977   4.065   3.111  2.0542 -0.8325 -2.7812
 6021SOL     OW29698   3.100   3.277   7.718 -0.3981  0.2646 -0.4074
 6021SOL    HW129699   3.067   3.191   7.741  1.3793  0.0199  1.2932
 6021SOL    HW229700   3.154   3.265   7.639  0.7888  1.8461  0.1548
 6022SOL     OW29701   2.041   1.851   3.089  0.0030  0.5390  0.3187
 6022SOL    HW129702   1.990   1.930   3.105  1.0738  1.3678 -0.3450
 6022SOL    HW229703   2.060   1.850   2.995 -0.4838  3.1175  0.1759
 6023SOL     OW29704   2.957   4.258  11.056 -0.4168 -0.3201 -0.1851
 6023SOL    HW129705   2.955   4.344  11.099  1.6070  0.0947 -0.9023
 6023SOL    HW229706   2.960   4.280  10.963 -1.3523 -0.6329 -0.2787
 6024SOL     OW29707   3.884   2.385  15.041 -0.2597 -0.0078 -0.3423
 6024SOL    HW129708   3.795   2.403  15.072  0.5269 -0.7359  2.2864
 6024SOL    HW229709   3.931   2.448  15.095  2.5440 -0.5819 -2.1132
 6025SOL     OW29710   3.801   2.156  16.487 -0.1097 -0.1300  0.2431
 6025SOL    HW129711   3.883   2.137  16.532  0.6089  0.6484 -0.7574
 6025SOL    HW229712   3.824   2.148  16.394  1.9201  0.4166  0.7038
 6026SOL     OW29713   4.335   0.719   6.702 -0.0283  0.2702  0.2012
 6026SOL    HW129714   4.383   0.793   6.741  0.8789  0.2873 -0.9529
 6026SOL    HW229715   4.258   0.724   6.759  0.1102  4.8171  0.0062
 6027SOL     OW29716   0.407   1.219   9.008  0.2363 -0.2852 -0.1276
 6027SOL    HW129717   0.332   1.266   9.045  1.4792  2.0626 -0.5684
 6027SOL    HW229718   0.380   1.128   9.021  0.1698 -0.0217  1.6264
 6028SOL     OW29719   1.691   2.995   7.663  0.0124 -0.1282  0.6322
 6028SOL    HW129720   1.714   3.064   7.725 -1.5318  0.6228  0.3532
 6028SOL    HW229721   1.607   2.965   7.697  0.9883 -1.1688  2.1529
 6029SOL     OW29722   3.673   1.792  16.592 -0.0495  0.2457 -0.2597
 6029SOL    HW129723   3.762   1.790  16.557  0.0514 -2.3120  0.1529
 6029SOL    HW229724   3.695   1.786  16.685  0.7733  2.0412 -0.3413
 6030SOL     OW29725   3.548   0.118   1.601  0.5839  0.0825  0.5357
 6030SOL    HW129726   3.522   0.170   1.678 -0.0076 -0.4226  0.6808
 6030SOL    HW229727   3.527   0.028   1.625 -1.6401  0.2101 -0.9074
 6031SOL     OW29728   3.504   2.282   3.721  0.0922  1.0230  0.3260
 6031SOL    HW129729   3.557   2.269   3.799  1.5848  2.6255 -0.4144
 6031SOL    HW229730   3.421   2.242   3.747 -0.5450  1.7856 -0.4907
 6032SOL     OW29731   0.844   1.004   3.640  0.0624 -0.7847 -0.1214
 6032SOL    HW129732   0.912   1.071   3.627  0.3929 -0.9694  0.6353
 6032SOL    HW229733   0.780   1.056   3.688  1.6599  1.2088 -0.1394
 6033SOL     OW29734   1.178   0.683   9.055  1.0179 -0.5468  0.0950
 6033SOL    HW129735   1.214   0.658   8.970  1.8157 -2.3637  0.9604
 6033SOL    HW229736   1.093   0.722   9.033  1.7419  1.2603  0.4703
 6034SOL     OW29737   1.707   2.609   6.425  0.1746  0.8706 -0.0261
 6034SOL    HW129738   1.645   2.672   6.460  0.3139 -0.0819  1.9348
 6034SOL    HW229739   1.778   2.616   6.489  0.6652  0.9710 -0.5711
 6035SOL     OW29740   1.706   4.125   8.139  0.3858  0.0993 -0.5226
 6035SOL    HW129741   1.713   4.060   8.069 -1.0433 -1.1056  0.4597
 6035SOL    HW229742   1.657   4.080   8.207 -0.0548 -1.2376 -1.7246
 6036SOL     OW29743   4.462   3.680   1.774  0.4117  0.1066 -0.0579
 6036SOL    HW129744   4.556   3.665   1.777  0.0547 -1.9937  0.7278
 6036SOL    HW229745   4.445   3.696   1.681  3.4427 -0.2959 -0.6913
 6037SOL     OW29746   3.973   2.448   9.039 -0.3483 -0.2064 -0.2945
 6037SOL    HW129747   3.910   2.397   9.090 -0.3603  0.3536  0.2500
 6037SOL    HW229748   4.025   2.375   9.005 -1.5117 -0.4472 -1.5651
 6038SOL     OW29749   0.791   4.152  13.513  0.0758 -0.3723 -0.1608
 6038SOL    HW129750   0.730   4.217  13.478  0.4656  0.4470  0.6694
 6038SOL    HW229751   0.815   4.194  13.596  0.4619 -0.2865 -0.3186
 6039SOL     OW29752   0.614   0.025   1.737 -0.8672  0.0362  0.8516
 6039SOL    HW129753   0.701   0.064   1.737 -0.9161  0.1672 -0.9842
 6039SOL    HW229754   0.630   4.671   1.766  0.4345  0.4775  1.4894
 6040SOL     OW29755   0.634   2.113  17.039 -0.1105 -0.0720 -0.4976
 6040SOL    HW129756   0.582   2.043  17.001  0.0885 -0.0079 -0.8832
 6040SOL    HW229757   0.569   2.183  17.047 -0.5482 -0.4266 -1.0357
 6041SOL     OW29758   0.680   3.433   4.162  0.1874 -0.5021 -0.0498
 6041SOL    HW129759   0.604   3.486   4.188 -0.2522 -1.9669  1.6155
 6041SOL    HW229760   0.717   3.502   4.107  0.4201 -0.6584 -0.0912
 6042SOL     OW29761   0.866   2.057   6.292  0.0369 -0.3481 -0.4445
 6042SOL    HW129762   0.839   1.966   6.308 -2.3803  0.5296  0.4222
 6042SOL    HW229763   0.943   2.069   6.348  0.8656 -0.9441 -1.4468
 6043SOL     OW29764   3.945   2.511   7.033  0.3813  1.1772 -0.1658
 6043SOL    HW129765   3.891   2.481   7.106  1.7447 -0.4114  0.1779
 6043SOL    HW229766   4.037   2.494   7.049 -0.3902 -1.7231  1.1386
 6044SOL     OW29767   4.239   1.086   2.302 -1.1633 -0.7581 -0.6225
 6044SOL    HW129768   4.334   1.080   2.310 -1.1609 -1.3325 -1.0450
 6044SOL    HW229769   4.218   1.002   2.341 -2.3965 -0.1836 -0.0502
 6045SOL     OW29770   4.411   3.772   4.780  0.1350 -0.4509 -0.0488
 6045SOL    HW129771   4.342   3.794   4.718 -0.4585  2.0285  1.5003
 6045SOL    HW229772   4.401   3.677   4.793 -0.7528 -0.1105  1.7216
 6046SOL     OW29773   2.789   0.018  13.374 -0.7484 -0.2198  0.3433
 6046SOL    HW129774   2.843   4.722  13.446 -0.0481  0.1054 -0.0374
 6046SOL    HW229775   2.822   0.101  13.341 -1.6547 -1.1269 -2.9377
 6047SOL     OW29776   0.954   0.293  17.519 -0.3521  0.2272  0.3072
 6047SOL    HW129777   0.988   0.343  17.445  0.9528  1.6604  1.8698
 6047SOL    HW229778   0.908   0.366  17.559 -0.7207  1.2271 -1.9699
 6048SOL     OW29779   3.961   2.242   2.921  0.5851 -0.4586  0.1862
 6048SOL    HW129780   4.047   2.211   2.893  0.6869  0.4139 -0.4835
 6048SOL    HW229781   3.937   2.298   2.847 -0.4760  0.6204  1.3408
 6049SOL     OW29782   2.034   1.539   7.386 -0.3844  0.6802  0.2808
 6049SOL    HW129783   2.022   1.445   7.400  1.8024  0.1664 -1.2084
 6049SOL    HW229784   2.124   1.548   7.355  0.1338 -2.3869  0.9113
 6050SOL     OW29785   4.424   3.156   4.205  0.5130  0.0032 -0.0568
 6050SOL    HW129786   4.452   3.070   4.174 -0.8046  0.2187 -1.8670
 6050SOL    HW229787   4.345   3.154   4.151  0.5817 -0.1645 -0.1518
 6051SOL     OW29788   2.143   0.167  14.807  0.6779 -0.5885 -0.5084
 6051SOL    HW129789   2.155   0.100  14.875  0.5485  0.1413  0.2383
 6051SOL    HW229790   2.213   0.228  14.831 -1.3445  1.6283 -0.1573
 6052SOL     OW29791   3.920   2.512  13.058 -0.0256 -0.4264  0.7163
 6052SOL    HW129792   3.973   2.585  13.026  0.1525 -0.0454  1.8558
 6052SOL    HW229793   3.832   2.550  13.061  0.2540  0.1164  2.2909
 6053SOL     OW29794   1.895   4.505   6.116  0.0237  0.4995  0.2448
 6053SOL    HW129795   1.971   4.454   6.144 -2.1479 -1.9961  1.5231
 6053SOL    HW229796   1.866   4.534   6.203  0.4573 -0.1986  0.6249
 6054SOL     OW29797   3.022   2.468   4.773  0.4348 -0.3666 -0.2006
 6054SOL    HW129798   3.097   2.479   4.832 -1.1739 -0.7586  1.9118
 6054SOL    HW229799   3.027   2.377   4.745  1.0375  0.2590 -2.1114
 6055SOL     OW29800   1.569   4.417  10.723  0.3892 -0.5515 -0.2546
 6055SOL    HW129801   1.554   4.445  10.813 -1.4708 -0.4805 -0.5880
 6055SOL    HW229802   1.535   4.488  10.669 -3.4968 -1.4380  1.0258
 6056SOL     OW29803   4.168   3.235   6.546 -0.1403  0.1352 -0.1283
 6056SOL    HW129804   4.109   3.188   6.486  0.9426  0.9698 -1.8502
 6056SOL    HW229805   4.103   3.294   6.584  1.0203  0.8964  0.6761
 6057SOL     OW29806   1.243   3.672   0.375 -0.0853  0.0955 -0.1501
 6057SOL    HW129807   1.297   3.717   0.310 -0.0202  1.3101  0.7473
 6057SOL    HW229808   1.291   3.590   0.385 -1.3365 -0.6634 -0.3031
 6058SOL     OW29809   1.533   4.118   2.829  0.1691  0.1814  0.3648
 6058SOL    HW129810   1.584   4.057   2.883 -1.1031 -0.7243  0.5622
 6058SOL    HW229811   1.444   4.133   2.861  0.8686  0.5205  2.1718
 6059SOL     OW29812   0.051   2.080  10.014  0.1043  0.6527 -0.0855
 6059SOL    HW129813   4.707   2.091   9.961  1.9814  1.4401 -2.7360
 6059SOL    HW229814   0.007   2.068  10.098  0.2592  0.5488 -0.0197
 6060SOL     OW29815   1.384   3.375  14.448 -0.3087 -0.2801 -0.0364
 6060SOL    HW129816   1.300   3.413  14.422 -0.9051 -2.2135 -0.9010
 6060SOL    HW229817   1.351   3.286  14.446 -2.6517  0.5640  1.0810
 6061SOL     OW29818   4.283   0.927  17.739 -0.6359 -0.4056 -0.5402
 6061SOL    HW129819   4.315   0.997  17.682  1.3426 -0.5298  0.4181
 6061SOL    HW229820   4.216   0.891  17.681 -0.3938 -2.1958  0.3198
 6062SOL     OW29821   0.297   1.434  15.222 -0.5020  0.0509  0.4496
 6062SOL    HW129822   0.386   1.458  15.196 -0.9457  1.4016  0.1406
 6062SOL    HW229823   0.266   1.525  15.224 -0.6490  0.0067  0.0119
 6063SOL     OW29824   1.448   0.113   7.785 -0.6840  0.3115  0.5033
 6063SOL    HW129825   1.408   0.027   7.797 -1.0545  0.1048 -2.2477
 6063SOL    HW229826   1.448   0.113   7.690  0.2467 -1.1686  0.4894
 6064SOL     OW29827   2.514   0.209  10.452 -0.1406  0.3853  0.3384
 6064SOL    HW129828   2.552   0.153  10.384 -1.5541 -0.5997  0.3508
 6064SOL    HW229829   2.592   0.259  10.477 -1.4253  0.4622  4.2515
 6065SOL     OW29830   0.876   0.643   5.790  0.8952 -0.8431 -0.0782
 6065SOL    HW129831   0.827   0.711   5.745  0.3928 -1.2523 -0.1535
 6065SOL    HW229832   0.940   0.700   5.833 -1.3311  1.2729  0.4023
 6066SOL     OW29833   2.311   2.692   8.532  0.2950 -0.6030 -0.2794
 6066SOL    HW129834   2.237   2.735   8.488  1.6843  2.4067  0.3699
 6066SOL    HW229835   2.370   2.764   8.554 -0.9179  0.3178 -0.0565
 6067SOL     OW29836   0.374   4.698   6.226 -0.1825 -0.9999  0.2329
 6067SOL    HW129837   0.282   4.682   6.248  0.2231  0.6851  3.2367
 6067SOL    HW229838   0.418   4.668   6.306 -1.4401 -3.2037  0.0791
 6068SOL     OW29839   3.384   3.434  17.481  0.4243 -0.5069 -0.6413
 6068SOL    HW129840   3.352   3.427  17.571  1.3819  0.1475 -0.2507
 6068SOL    HW229841   3.321   3.382  17.431  0.2840 -1.3821  0.4403
 6069SOL     OW29842   3.517   0.805   7.954 -0.3310 -0.0599 -0.0542
 6069SOL    HW129843   3.518   0.802   7.858  2.7123 -0.3285  0.0015
 6069SOL    HW229844   3.438   0.755   7.976 -0.0612 -0.8367 -0.8402
 6070SOL     OW29845   1.012   3.616   5.260  0.0128 -0.6990 -0.4899
 6070SOL    HW129846   0.945   3.681   5.238 -0.4673 -0.7666  0.7674
 6070SOL    HW229847   1.051   3.610   5.173  0.2158  1.0283 -0.5341
 6071SOL     OW29848   0.628   3.724   3.458  0.5032 -0.4578 -0.2580
 6071SOL    HW129849   0.563   3.786   3.423 -0.8991 -1.8953 -0.2201
 6071SOL    HW229850   0.599   3.645   3.414  0.4349  0.3316 -1.6359
 6072SOL     OW29851   2.601   3.197   0.501 -0.6422 -0.2013  0.2885
 6072SOL    HW129852   2.618   3.126   0.438  0.2913  0.4156 -0.1515
 6072SOL    HW229853   2.538   3.260   0.467  0.6717  0.5651 -0.7603
 6073SOL     OW29854   3.145   4.553  14.523  0.1054 -0.1746 -0.1375
 6073SOL    HW129855   3.091   4.485  14.483 -3.2109  2.3482  0.0877
 6073SOL    HW229856   3.232   4.524  14.496  0.0185 -0.2485 -0.3329
 6074SOL     OW29857   4.629   2.599   8.980  0.7222  0.2341  0.3308
 6074SOL    HW129858   4.560   2.641   9.033 -0.2320 -0.7698 -0.1216
 6074SOL    HW229859   4.575   2.539   8.930 -0.4090 -0.7314  2.6771
 6075SOL     OW29860   2.891   0.120  11.723  0.1349 -0.5152  0.2181
 6075SOL    HW129861   2.912   0.178  11.650 -0.2757  0.1324  0.6230
 6075SOL    HW229862   2.820   0.076  11.676  0.4522  0.8463 -1.5465
 6076SOL     OW29863   2.115   4.326   9.727 -0.2314  0.0123 -0.2109
 6076SOL    HW129864   2.178   4.374   9.781 -1.5082  0.8488  0.5268
 6076SOL    HW229865   2.169   4.281   9.661 -1.9082 -1.3508 -0.6584
 6077SOL     OW29866   0.588   3.492   9.670 -0.0056  0.1080 -0.4226
 6077SOL    HW129867   0.582   3.565   9.609 -1.6984  0.6941  0.4571
 6077SOL    HW229868   0.597   3.534   9.756  0.3794  1.3585 -1.0633
 6078SOL     OW29869   0.746   3.246   2.552 -0.1442  0.3099 -0.0139
 6078SOL    HW129870   0.675   3.272   2.611 -0.5207  0.2757 -0.4539
 6078SOL    HW229871   0.714   3.160   2.528 -2.1907  1.4404 -1.3555
 6079SOL     OW29872   2.377   2.864  11.610  0.0765 -0.2086 -0.7203
 6079SOL    HW129873   2.455   2.918  11.605  0.0970  0.0742  2.6582
 6079SOL    HW229874   2.391   2.783  11.659  0.6345  0.5989  0.4380
 6080SOL     OW29875   0.616   1.082   9.377  0.5734  0.3120 -0.1261
 6080SOL    HW129876   0.628   1.174   9.357  2.1129  0.2172  0.3874
 6080SOL    HW229877   0.603   1.095   9.471 -0.6037  2.0928 -0.5414
 6081SOL     OW29878   2.771   0.821   5.737  0.0596 -0.4151  0.4396
 6081SOL    HW129879   2.689   0.782   5.765 -1.0209  1.4578 -0.1474
 6081SOL    HW229880   2.788   0.749   5.676  0.7713 -0.4957  0.7270
 6082SOL     OW29881   0.634   1.890   9.606  0.2588 -0.5873  0.1159
 6082SOL    HW129882   0.591   1.900   9.521 -2.2134 -2.8013  1.1036
 6082SOL    HW229883   0.654   1.980   9.632  0.2111  0.1903 -2.5330
 6083SOL     OW29884   1.255   1.556   0.051 -0.2379  0.3508 -0.3502
 6083SOL    HW129885   1.193   1.609   0.101  0.0633 -0.0711  0.4807
 6083SOL    HW229886   1.269   1.478   0.106  0.1110  0.9495  0.4153
 6084SOL     OW29887   2.494   2.806   6.046  0.4232 -0.4485 -0.2107
 6084SOL    HW129888   2.530   2.769   6.127 -1.3806 -2.3009 -0.2417
 6084SOL    HW229889   2.542   2.889   6.041  0.1276 -0.3465 -1.3226
 6085SOL     OW29890   4.078   2.047  11.839  0.5608 -0.3091  0.2474
 6085SOL    HW129891   4.100   1.987  11.910  1.8546  0.9061  0.8803
 6085SOL    HW229892   3.991   2.011  11.822  0.9368 -2.6140  3.3114
 6086SOL     OW29893   2.581   4.699   8.798  0.2415  0.3812 -0.3217
 6086SOL    HW129894   2.625   4.616   8.820  0.0924  0.3487 -0.1497
 6086SOL    HW229895   2.592   4.703   8.703  1.5191 -0.7497 -0.2376
 6087SOL     OW29896   0.118   1.791   6.876 -0.1685  0.1239 -0.7441
 6087SOL    HW129897   0.166   1.708   6.879  1.0434  0.8671  0.4410
 6087SOL    HW229898   0.187   1.857   6.885  0.4535 -0.6240 -0.0315
 6088SOL     OW29899   3.203   1.150   8.951  0.2331  0.5777  0.0464
 6088SOL    HW129900   3.295   1.170   8.966  0.0775  0.8929  0.5954
 6088SOL    HW229901   3.198   1.093   8.874  2.1061 -0.8745  0.9975
 6089SOL     OW29902   1.657   0.945  12.508  0.0522 -0.4525 -0.0094
 6089SOL    HW129903   1.574   0.925  12.551  0.8322 -1.9918  0.7836
 6089SOL    HW229904   1.629   0.983  12.425 -0.1713  0.0087  0.2813
 6090SOL     OW29905   3.089   0.496  12.783  0.0279  0.0690  0.3013
 6090SOL    HW129906   3.133   0.551  12.848  0.2490  0.3822 -0.1107
 6090SOL    HW229907   3.161   0.436  12.765  2.1442  2.7033 -0.0973
 6091SOL     OW29908   1.577   4.355   8.541 -0.0843 -0.3552  0.6260
 6091SOL    HW129909   1.660   4.395   8.515 -0.5004 -0.8293 -1.4321
 6091SOL    HW229910   1.606   4.303   8.615 -0.3470 -0.6316  0.5346
 6092SOL     OW29911   3.177   2.780   4.909 -0.6777 -0.1150 -0.3861
 6092SOL    HW129912   3.179   2.686   4.929  2.1922  0.1434  0.6133
 6092SOL    HW229913   3.111   2.812   4.971 -0.6248  0.4045 -0.5998
 6093SOL     OW29914   3.632   3.985   6.102 -0.0640 -0.3114  0.2422
 6093SOL    HW129915   3.587   3.901   6.098 -0.8114  0.0688  0.5484
 6093SOL    HW229916   3.628   4.005   6.008  0.9121 -1.4307 -0.0366
 6094SOL     OW29917   4.190   3.508   1.868  0.2241  0.1634  0.7092
 6094SOL    HW129918   4.282   3.484   1.878  0.4822  1.9399  2.7313
 6094SOL    HW229919   4.184   3.525   1.774 -0.1133  0.9514  0.8714
 6095SOL     OW29920   2.341   0.970   3.282 -0.0403 -0.1005 -0.2082
 6095SOL    HW129921   2.320   1.061   3.261  0.5802  0.1173  0.1095
 6095SOL    HW229922   2.432   0.987   3.306 -0.3167 -1.5590  1.9507
 6096SOL     OW29923   2.237   2.456   3.000  0.3091  0.0504  0.1118
 6096SOL    HW129924   2.159   2.505   3.027  0.8030 -0.1650  1.9215
 6096SOL    HW229925   2.276   2.514   2.934  2.5686 -1.5392  0.0618
 6097SOL     OW29926   0.620   3.185   9.015  0.0658  0.2465  0.3434
 6097SOL    HW129927   0.585   3.262   8.970  1.8031 -0.0849 -1.6017
 6097SOL    HW229928   0.554   3.180   9.084  0.0927  0.6663  0.4027
 6098SOL     OW29929   3.542   3.466  11.321 -0.2486  0.1216  0.3292
 6098SOL    HW129930   3.581   3.422  11.245  0.8027  3.5936 -1.1393
 6098SOL    HW229931   3.585   3.413  11.388  0.8598 -2.0478 -2.0727
 6099SOL     OW29932   0.289   4.486  15.065  0.3533  0.1240  0.0305
 6099SOL    HW129933   0.274   4.565  15.013  4.6278  0.8190 -0.1983
 6099SOL    HW229934   0.335   4.429  15.003  2.0550  2.1012 -0.5328
 6100SOL     OW29935   4.328   0.249  12.998 -0.3461 -0.2980  0.0415
 6100SOL    HW129936   4.348   0.298  13.078  1.0862 -0.0797 -0.4479
 6100SOL    HW229937   4.378   0.298  12.933 -0.9982 -0.8256 -0.8555
 6101SOL     OW29938   1.630   2.200  12.954  0.1381  0.3147 -0.0352
 6101SOL    HW129939   1.571   2.275  12.961  0.8343  0.6164  2.4422
 6101SOL    HW229940   1.622   2.153  13.037 -0.2703 -1.1823 -0.9010
 6102SOL     OW29941   0.415   3.106   1.117  0.7367 -0.3689  0.1636
 6102SOL    HW129942   0.481   3.119   1.049 -0.5360  0.9062 -0.8572
 6102SOL    HW229943   0.463   3.151   1.185 -0.4691 -0.0026  0.7757
 6103SOL     OW29944   0.848   4.054   6.476 -0.5290  0.1940  0.1520
 6103SOL    HW129945   0.912   4.115   6.440 -1.5728  0.6029 -0.9911
 6103SOL    HW229946   0.876   4.038   6.566  0.1837  0.6602  0.0127
 6104SOL     OW29947   0.678   1.633  14.274 -0.4547 -0.4385 -0.6919
 6104SOL    HW129948   0.632   1.684  14.341 -0.3147 -1.2759  0.0506
 6104SOL    HW229949   0.758   1.617  14.325 -0.8051  0.5302  0.1669
 6105SOL     OW29950   3.517   1.372  16.204  0.1317 -0.2861 -0.2399
 6105SOL    HW129951   3.424   1.361  16.226  0.1990 -1.7501 -0.7000
 6105SOL    HW229952   3.533   1.297  16.148  2.1369  1.2891 -1.7700
 6106SOL     OW29953   2.762   4.370   2.115  0.6416  0.2433  0.1173
 6106SOL    HW129954   2.776   4.456   2.077  1.9775 -0.0712 -0.1092
 6106SOL    HW229955   2.847   4.326   2.124 -0.2101 -1.1739  1.2490
 6107SOL     OW29956   1.233   0.191  17.529  0.3388  0.7398 -0.3337
 6107SOL    HW129957   1.242   0.198  17.434 -3.5072 -1.1403 -0.8426
 6107SOL    HW229958   1.145   0.225  17.541  0.6294  1.0040  1.0295
 6108SOL     OW29959   0.107   1.663   5.491 -0.2275  0.3255  0.0574
 6108SOL    HW129960   0.185   1.672   5.546  0.5408 -0.8457 -0.8339
 6108SOL    HW229961   0.133   1.724   5.422 -0.4836  0.5787  0.1909
 6109SOL     OW29962   1.993   2.943  16.146  0.3331  0.4909  0.1201
 6109SOL    HW129963   2.028   2.854  16.138 -1.8616 -0.2642 -1.0768
 6109SOL    HW229964   1.906   2.938  16.107  0.6844 -2.6642 -0.2773
 6110SOL     OW29965   1.289   3.994   6.314  0.7367  0.4278  0.2170
 6110SOL    HW129966   1.369   4.022   6.269 -0.4824  0.1991 -2.1317
 6110SOL    HW229967   1.224   4.018   6.247 -0.7373 -2.9125  0.4483
 6111SOL     OW29968   1.258   1.865   3.498  0.3500  0.2854  0.2911
 6111SOL    HW129969   1.269   1.789   3.555  0.1274 -0.2799 -0.4313
 6111SOL    HW229970   1.217   1.818   3.426  1.0225  1.6012 -0.9671
 6112SOL     OW29971   1.256   2.766  10.769 -0.5535 -0.7676  0.0368
 6112SOL    HW129972   1.302   2.828  10.713  0.4800  0.0493  1.7853
 6112SOL    HW229973   1.305   2.770  10.852 -0.0097 -1.3598 -0.2550
 6113SOL     OW29974   3.991   3.331   9.315 -0.6320  0.2368  0.1605
 6113SOL    HW129975   4.071   3.381   9.300 -0.6977 -0.7099 -3.3571
 6113SOL    HW229976   4.026   3.243   9.300  0.4150  0.8879 -1.2619
 6114SOL     OW29977   1.836   0.780   3.978  0.0366  0.2181  0.2902
 6114SOL    HW129978   1.793   0.835   4.043 -0.7981  1.6429 -1.4765
 6114SOL    HW229979   1.929   0.800   3.981  0.2314 -0.4810 -1.1542
 6115SOL     OW29980   2.578   2.159  11.093  0.0226 -0.0711  0.1808
 6115SOL    HW129981   2.569   2.071  11.131 -1.2110 -0.2690 -0.5545
 6115SOL    HW229982   2.567   2.210  11.173  1.9394  1.1751 -0.3449
 6116SOL     OW29983   0.317   1.051   5.623 -0.0913 -0.3411  0.2069
 6116SOL    HW129984   0.283   1.133   5.659  0.4026 -1.1155  2.4064
 6116SOL    HW229985   0.277   0.988   5.683  1.1941 -1.3020  0.0460
 6117SOL     OW29986   4.263   0.837  13.986  0.0933  0.0351 -0.6286
 6117SOL    HW129987   4.359   0.831  13.990 -0.0074 -0.5661  1.0177
 6117SOL    HW229988   4.245   0.930  13.998  2.4804  0.3350  0.8598
 6118SOL     OW29989   1.287   2.841   9.679 -0.5489 -0.3717 -0.2864
 6118SOL    HW129990   1.209   2.788   9.662  0.0733 -0.3711 -3.2017
 6118SOL    HW229991   1.246   2.928   9.687 -0.6577 -0.5102  0.5773
 6119SOL     OW29992   0.777   0.178  16.067 -0.4918 -0.0181  0.2571
 6119SOL    HW129993   0.803   0.114  16.134 -2.9386 -0.4865  0.7685
 6119SOL    HW229994   0.856   0.163  16.015 -1.2414 -0.3170 -0.7947
 6120SOL     OW29995   0.511   0.555  13.982  0.1524 -0.0184 -0.2963
 6120SOL    HW129996   0.501   0.589  14.071  1.6134 -0.4593  0.0304
 6120SOL    HW229997   0.423   0.562  13.944 -0.1275  1.9827  0.7337
 6121SOL     OW29998   3.388   3.654   1.410 -0.3047  0.1527  0.0789
 6121SOL    HW129999   3.350   3.733   1.449 -2.0683 -2.7462  4.0938
 6121SOL    HW230000   3.472   3.684   1.374 -0.8331  0.6573 -0.7215
 6122SOL     OW30001   0.854   4.090   3.067  0.8298  0.1021 -0.4989
 6122SOL    HW130002   0.942   4.127   3.076  0.2178  1.1275  1.1910
 6122SOL    HW230003   0.842   4.050   3.153 -0.7417 -1.0509 -1.2688
 6123SOL     OW30004   0.190   0.489   1.458 -0.0137 -0.0748  0.3281
 6123SOL    HW130005   0.205   0.430   1.531 -3.7413 -0.5507  0.7192
 6123SOL    HW230006   0.146   0.563   1.501  0.0762 -0.5798  1.2860
 6124SOL     OW30007   4.342   2.636   8.497  0.4334 -0.5694  0.0446
 6124SOL    HW130008   4.402   2.567   8.524  4.0763  3.3578  2.0953
 6124SOL    HW230009   4.260   2.593   8.473 -0.8295  2.1322 -0.5229
 6125SOL     OW30010   4.513   0.953  13.988  0.2150 -0.2096  0.3149
 6125SOL    HW130011   4.586   0.948  14.050 -1.7298 -2.1751  2.4127
 6125SOL    HW230012   4.517   1.048  13.977  1.4490 -0.1305  1.5664
 6126SOL     OW30013   4.000   1.626   8.369 -0.6393  0.0064 -0.4183
 6126SOL    HW130014   4.045   1.542   8.368  0.4535  0.5836  0.8315
 6126SOL    HW230015   4.051   1.676   8.305  0.1585  0.4740  0.5798
 6127SOL     OW30016   3.659   0.558   4.842 -0.2390  0.3291 -0.6161
 6127SOL    HW130017   3.721   0.623   4.808  1.7223 -0.9637  0.4992
 6127SOL    HW230018   3.710   0.480   4.822 -3.1696 -2.3146  2.1008
 6128SOL     OW30019   1.784   1.702  12.322  0.2197 -0.4993 -0.1004
 6128SOL    HW130020   1.699   1.693  12.278  0.3609  0.0752 -0.4844
 6128SOL    HW230021   1.830   1.630  12.277 -1.1930 -1.7956  0.5326
 6129SOL     OW30022   1.788   3.499   4.408 -0.1277 -0.1165  0.1388
 6129SOL    HW130023   1.700   3.506   4.372 -0.7090 -3.1239  0.9386
 6129SOL    HW230024   1.831   3.458   4.333  0.7894 -0.4646  0.8547
 6130SOL     OW30025   4.090   2.951   8.831 -0.0348 -0.2667  0.3021
 6130SOL    HW130026   4.103   2.863   8.797 -0.4763 -0.1223 -0.2377
 6130SOL    HW230027   4.015   2.987   8.783 -0.1531 -0.0532  0.6408
 6131SOL     OW30028   3.369   0.662  12.254 -0.5511 -0.7541  0.5949
 6131SOL    HW130029   3.420   0.629  12.328 -0.5650 -1.1546  0.4249
 6131SOL    HW230030   3.287   0.692  12.295 -0.8529 -1.2756  0.3699
 6132SOL     OW30031   0.891   0.788   2.621 -0.0195 -0.7968  0.9140
 6132SOL    HW130032   0.984   0.768   2.630  0.2167  0.7454  1.9202
 6132SOL    HW230033   0.890   0.862   2.560  1.2647 -0.0765  1.7574
 6133SOL     OW30034   2.827   2.110   4.639  0.2703 -0.0655 -0.3449
 6133SOL    HW130035   2.918   2.138   4.637  0.3245 -0.4078 -2.6284
 6133SOL    HW230036   2.781   2.179   4.591 -0.8302 -0.6525 -0.1525
 6134SOL     OW30037   2.213   0.520  14.639 -0.7668 -0.5097 -0.3690
 6134SOL    HW130038   2.251   0.579  14.574  0.8996 -0.4959  0.6016
 6134SOL    HW230039   2.148   0.464  14.598 -2.2868  1.3384 -0.4992
 6135SOL     OW30040   3.766   2.995  13.390  0.3285  0.2817  0.6380
 6135SOL    HW130041   3.776   2.912  13.342  1.7297 -0.6926  2.5756
 6135SOL    HW230042   3.859   3.003  13.412 -0.0125  1.3504  1.6643
 6136SOL     OW30043   3.179   0.452   0.019  0.2352  0.1271 -0.3143
 6136SOL    HW130044   3.136   0.421   0.098  2.9701  3.3456  2.3990
 6136SOL    HW230045   3.262   0.405   0.022  0.9644  1.5625  1.9191
 6137SOL     OW30046   0.564   1.800   6.793  0.4556  0.2006  0.0783
 6137SOL    HW130047   0.558   1.721   6.846 -1.6273  1.3405  1.5321
 6137SOL    HW230048   0.490   1.844   6.835  0.3452  0.0396  0.0496
 6138SOL     OW30049   1.791   0.427   7.982  0.2202  0.0696 -0.5824
 6138SOL    HW130050   1.784   0.522   7.971 -0.2511  0.3964  2.6505
 6138SOL    HW230051   1.777   0.408   7.889 -1.2084  0.3469 -0.4243
 6139SOL     OW30052   0.138   0.959  10.010  0.0879  0.2831  0.0597
 6139SOL    HW130053   0.060   0.959  10.066  0.2426  0.4348  0.2805
 6139SOL    HW230054   0.192   1.012  10.069 -1.0470 -0.5471  1.8281
 6140SOL     OW30055   3.544   3.146  11.178  0.0374 -0.0215 -0.2082
 6140SOL    HW130056   3.627   3.160  11.224 -0.2084 -1.2281  0.6104
 6140SOL    HW230057   3.535   3.237  11.150  0.9039  0.7887  2.1276
 6141SOL     OW30058   2.208   2.458   5.330  0.0241 -0.0697 -0.3464
 6141SOL    HW130059   2.124   2.413   5.332  1.2769 -2.3805  0.9672
 6141SOL    HW230060   2.182   2.542   5.293  3.5895  1.9263  1.5922
 6142SOL     OW30061   2.434   4.167   5.678  0.0803  0.7072  0.1526
 6142SOL    HW130062   2.491   4.097   5.711 -0.0673 -0.5225 -2.2056
 6142SOL    HW230063   2.385   4.189   5.757  0.9941  0.2846  0.8420
 6143SOL     OW30064   0.723   3.212   3.579 -0.0823 -0.1983 -0.7078
 6143SOL    HW130065   0.674   3.156   3.639  2.3964 -3.5126 -1.7686
 6143SOL    HW230066   0.659   3.283   3.571 -1.0769 -0.9997  0.0090
 6144SOL     OW30067   2.530   4.090   8.652  0.7006 -0.9935 -0.2134
 6144SOL    HW130068   2.555   4.064   8.740 -3.6062 -0.2437  1.2138
 6144SOL    HW230069   2.519   4.001   8.617 -0.6503 -1.1583  0.6376
 6145SOL     OW30070   0.904   2.592   2.374 -0.7154  0.1074 -0.2717
 6145SOL    HW130071   0.940   2.514   2.330  1.1981 -0.5079  2.3881
 6145SOL    HW230072   0.979   2.651   2.364  0.8746 -1.9519 -0.6170
 6146SOL     OW30073   0.498   1.446  14.127  0.9977  0.4550 -0.1237
 6146SOL    HW130074   0.436   1.514  14.151  0.3744  0.4616 -1.7707
 6146SOL    HW230075   0.572   1.464  14.185  0.1391  0.8339  0.8539
 6147SOL     OW30076   3.939   2.525  10.965  0.3623  0.3326 -0.4761
 6147SOL    HW130077   3.974   2.477  10.890 -0.7647  2.2322 -2.2438
 6147SOL    HW230078   3.860   2.567  10.931 -2.1894 -0.8673  3.9773
 6148SOL     OW30079   3.144   0.332  12.452  0.4738  0.3104  0.2690
 6148SOL    HW130080   3.195   0.329  12.533 -2.1481 -2.2980  1.8178
 6148SOL    HW230081   3.178   0.253  12.409  1.9245  1.9021 -1.4961
 6149SOL     OW30082   2.983   0.815  13.965  0.3878 -0.6220  0.5196
 6149SOL    HW130083   3.007   0.823  13.872 -0.4732 -1.8821  0.1899
 6149SOL    HW230084   2.969   0.721  13.971 -0.1180 -0.7784 -2.6914
 6150SOL     OW30085   4.458   3.307   3.396 -0.1072  0.3489 -0.2931
 6150SOL    HW130086   4.526   3.373   3.380 -0.0752  0.3481 -0.1608
 6150SOL    HW230087   4.416   3.296   3.311 -1.0052 -1.7365  0.4354
 6151SOL     OW30088   0.443   3.548  14.969  0.3723 -0.2207  0.0018
 6151SOL    HW130089   0.403   3.634  14.964 -1.1548 -0.9015  0.4682
 6151SOL    HW230090   0.397   3.497  15.036  0.7461 -1.5638 -0.7438
 6152SOL     OW30091   2.383   2.581   7.761 -0.5433  0.0485 -0.3925
 6152SOL    HW130092   2.410   2.490   7.758  0.9470  0.3779  3.1274
 6152SOL    HW230093   2.392   2.601   7.854  0.5350  1.5154 -0.7977
 6153SOL     OW30094   0.061   4.163   3.662  0.8523  0.6743 -0.0870
 6153SOL    HW130095   0.099   4.247   3.686 -0.9645  1.7601 -0.9436
 6153SOL    HW230096   4.731   4.160   3.731  0.6154  2.5382 -0.2264
 6154SOL     OW30097   2.553   3.699   6.268 -0.6475 -0.2182  0.3107
 6154SOL    HW130098   2.611   3.635   6.310  2.0639  1.7058 -0.5391
 6154SOL    HW230099   2.532   3.742   6.351 -1.9635  1.5837 -0.9837
 6155SOL     OW30100   0.396   1.550   5.384  0.7581  0.7157  0.2617
 6155SOL    HW130101   0.429   1.485   5.322  0.3382  1.5992 -0.8866
 6155SOL    HW230102   0.314   1.561   5.337 -0.4233 -1.9671  1.7529
 6156SOL     OW30103   1.355   3.729  14.349 -0.1518 -0.3117  0.3214
 6156SOL    HW130104   1.397   3.753  14.431  2.5187  0.4446 -1.2711
 6156SOL    HW230105   1.400   3.780  14.282  0.7430 -0.3191  0.9310
 6157SOL     OW30106   4.453   4.396   4.514  0.3698 -0.1841  0.2669
 6157SOL    HW130107   4.456   4.485   4.549  0.3600  0.4793 -1.4182
 6157SOL    HW230108   4.429   4.405   4.422  0.2291 -0.4924  0.2745
 6158SOL     OW30109   3.696   2.629  10.796 -0.2407 -0.1229 -0.0302
 6158SOL    HW130110   3.619   2.686  10.801  0.0018  0.0134  2.1354
 6158SOL    HW230111   3.667   2.538  10.802  0.9291 -0.6602 -2.3645
 6159SOL     OW30112   4.683   1.206   8.724 -0.1848 -0.2527  0.1862
 6159SOL    HW130113   4.726   1.235   8.644  0.8020  0.0470  0.8336
 6159SOL    HW230114   4.731   1.261   8.786 -2.9490  1.2092  1.0571
 6160SOL     OW30115   3.420   3.236   7.432  0.0206 -0.2652  0.3660
 6160SOL    HW130116   3.345   3.288   7.462 -0.2870  0.3788 -1.5308
 6160SOL    HW230117   3.417   3.247   7.337 -0.5689  0.3946  0.4574
 6161SOL     OW30118   3.779   2.802  11.671  0.1909 -0.1006  0.2289
 6161SOL    HW130119   3.733   2.718  11.663 -0.6170  0.1591  2.1291
 6161SOL    HW230120   3.859   2.777  11.717  1.0323 -0.0300 -1.1716
 6162SOL     OW30121   2.946   4.528   0.529  0.1188  0.1459 -0.1418
 6162SOL    HW130122   2.891   4.460   0.489 -0.9773  0.4875  0.8004
 6162SOL    HW230123   2.900   4.605   0.496  1.1415  0.4224 -0.9481
 6163SOL     OW30124   3.672   2.579   8.226  0.4952  0.1481 -0.0416
 6163SOL    HW130125   3.730   2.532   8.286  0.4086 -0.3182 -0.3279
 6163SOL    HW230126   3.706   2.553   8.141  2.2125 -1.6357  1.1865
 6164SOL     OW30127   3.863   3.693   8.772  0.2032 -0.0555  0.1867
 6164SOL    HW130128   3.808   3.639   8.715  0.1675  0.7491 -0.5408
 6164SOL    HW230129   3.844   3.642   8.851 -0.9077  0.1809  0.0665
 6165SOL     OW30130   2.076   1.717  17.518  0.1690 -0.1740  0.8659
 6165SOL    HW130131   2.003   1.733  17.459  0.8502 -0.2955 -0.0097
 6165SOL    HW230132   2.118   1.801  17.537 -1.0758  0.5211  0.5286
 6166SOL     OW30133   4.147   0.117  14.320  0.1521 -0.4382 -0.3124
 6166SOL    HW130134   4.096   0.079  14.391  1.0951 -0.5200  0.3283
 6166SOL    HW230135   4.196   0.184  14.368  1.1450 -2.8577  2.0620
 6167SOL     OW30136   1.082   0.385   7.893  0.3652  0.0195 -0.4935
 6167SOL    HW130137   1.060   0.478   7.894 -1.5274 -0.4319 -0.8245
 6167SOL    HW230138   1.052   0.346   7.975  2.3332 -1.4254 -0.4554
 6168SOL     OW30139   0.448   4.473   4.388 -0.2769 -0.2431 -0.2606
 6168SOL    HW130140   0.365   4.425   4.383 -0.4950  0.3050 -1.9539
 6168SOL    HW230141   0.437   4.527   4.466  1.7749 -0.7320  0.3733
 6169SOL     OW30142   0.850   2.952   3.816 -0.6711 -0.3666  0.2360
 6169SOL    HW130143   0.896   3.023   3.772 -1.2565 -0.2505 -0.1836
 6169SOL    HW230144   0.882   2.879   3.763 -2.7440 -1.0474 -0.0518
 6170SOL     OW30145   2.702   2.381   8.534  0.7815  0.1036  0.1363
 6170SOL    HW130146   2.752   2.462   8.520  2.6769 -0.7686  1.9272
 6170SOL    HW230147   2.636   2.417   8.594 -0.5773 -0.5976 -0.9424
 6171SOL     OW30148   0.316   1.322   2.486  0.5249 -0.3171  0.3596
 6171SOL    HW130149   0.243   1.354   2.433 -0.3407 -1.6793  0.7251
 6171SOL    HW230150   0.377   1.386   2.447 -0.7271 -1.2722 -3.1930
 6172SOL     OW30151   2.107   0.812   3.995  0.0827  0.0829  0.0536
 6172SOL    HW130152   2.174   0.745   3.984  1.1139  1.0317  0.6343
 6172SOL    HW230153   2.151   0.879   3.944  1.2362 -0.7982 -0.0891
 6173SOL     OW30154   1.428   1.642   1.727  0.7024 -0.2301  0.0417
 6173SOL    HW130155   1.471   1.566   1.766  1.7059  0.9475  1.2443
 6173SOL    HW230156   1.350   1.653   1.782  1.0791  2.7966 -0.0028
 6174SOL     OW30157   2.481   0.096   4.422  0.2188 -0.3306  0.3105
 6174SOL    HW130158   2.546   0.164   4.435 -1.0601  0.7820  0.8898
 6174SOL    HW230159   2.423   0.116   4.496 -1.5665 -1.4419 -0.7997
 6175SOL     OW30160   0.597   3.718   5.824 -0.1261  0.1932 -0.2430
 6175SOL    HW130161   0.589   3.652   5.756 -0.4887 -0.3735  0.3471
 6175SOL    HW230162   0.680   3.705   5.870  1.9630  1.5944 -3.6515
 6176SOL     OW30163   1.242   2.576  10.571 -0.6072  0.6338  0.2282
 6176SOL    HW130164   1.189   2.640  10.524 -0.6949  1.2637  1.2076
 6176SOL    HW230165   1.288   2.631  10.634  3.9028 -0.7673 -1.8202
 6177SOL     OW30166   1.840   2.415   8.250  0.6869 -0.7530  0.4478
 6177SOL    HW130167   1.920   2.465   8.233  0.6104 -0.4740  0.9333
 6177SOL    HW230168   1.840   2.429   8.344 -1.6521  0.6944  0.2234
 6178SOL     OW30169   1.081   0.721   5.191 -0.4969 -0.4758  0.9342
 6178SOL    HW130170   1.127   0.803   5.173 -2.4011 -0.0527 -2.0432
 6178SOL    HW230171   0.999   0.743   5.146  0.1984  0.0037 -0.1041
 6179SOL     OW30172   3.845   4.416   1.779  0.0188 -0.2870  0.0919
 6179SOL    HW130173   3.918   4.366   1.815 -0.5131 -0.7907  0.4617
 6179SOL    HW230174   3.768   4.371   1.814  0.8887 -2.2202 -0.4752
 6180SOL     OW30175   3.189   4.194  11.239  0.2633 -0.4949  0.1742
 6180SOL    HW130176   3.105   4.207  11.195  1.5654  1.3318 -1.7859
 6180SOL    HW230177   3.234   4.273  11.209 -1.9723  0.0955 -1.6248
 6181SOL     OW30178   1.665   0.313   8.752 -0.0303 -0.2454 -0.4826
 6181SOL    HW130179   1.670   0.241   8.814 -1.1637  0.2847  0.2191
 6181SOL    HW230180   1.699   0.263   8.678  1.8590  0.1259  0.1445
 6182SOL     OW30181   3.804   3.927  16.022  0.0177 -0.1413 -0.2543
 6182SOL    HW130182   3.845   3.968  15.946 -1.3156  2.1349  0.2730
 6182SOL    HW230183   3.725   3.893  15.982 -0.3645 -0.6492  0.9392
 6183SOL     OW30184   1.635   2.326  13.947 -0.5912  0.0398 -0.1073
 6183SOL    HW130185   1.677   2.331  13.861 -0.6080  2.7572  0.0282
 6183SOL    HW230186   1.714   2.305  13.997 -0.9965  1.0063  0.9701
 6184SOL     OW30187   0.785   0.365   5.157 -0.1917  0.1857  0.4059
 6184SOL    HW130188   0.844   0.303   5.114  0.9154  0.0579  2.1468
 6184SOL    HW230189   0.779   0.328   5.245  0.6769 -0.3269  0.2447
 6185SOL     OW30190   1.440   1.475   8.713 -0.2260  0.1385  0.2112
 6185SOL    HW130191   1.376   1.405   8.701 -0.3354  0.4392 -0.9418
 6185SOL    HW230192   1.423   1.511   8.800  0.3935  1.0779 -0.0580
 6186SOL     OW30193   2.017   3.572  16.968 -0.4206  0.2242 -0.1398
 6186SOL    HW130194   2.090   3.635  16.970  0.2821 -0.5816 -0.3347
 6186SOL    HW230195   2.009   3.547  16.876 -0.2783 -2.2137  0.5138
 6187SOL     OW30196   0.998   2.868   4.303 -0.7085 -0.3664  0.1227
 6187SOL    HW130197   0.982   2.902   4.392 -0.2036  1.0327 -0.3318
 6187SOL    HW230198   0.966   2.937   4.245  0.7575 -0.5368 -0.8741
 6188SOL     OW30199   3.528   2.263   6.982 -0.0610 -0.2189 -0.1630
 6188SOL    HW130200   3.437   2.285   6.961 -0.0213  1.6442  1.6001
 6188SOL    HW230201   3.525   2.195   7.050 -1.3157 -1.1551 -1.1416
 6189SOL     OW30202   2.350   3.523   7.026 -0.2270  0.0799  0.2447
 6189SOL    HW130203   2.335   3.439   7.068 -0.4348  0.0689  0.1520
 6189SOL    HW230204   2.444   3.518   7.013 -0.2380 -0.4728  0.3868
 6190SOL     OW30205   1.988   4.510  12.901 -1.0623  0.1154 -0.0079
 6190SOL    HW130206   2.045   4.514  12.978 -1.4054 -0.1584  0.2661
 6190SOL    HW230207   2.045   4.476  12.833 -1.7119 -2.2530  0.6435
 6191SOL     OW30208   4.678   3.770   7.185  0.5279  0.9491 -0.5320
 6191SOL    HW130209   4.681   3.765   7.281 -0.3345  1.3880 -0.4794
 6191SOL    HW230210   4.585   3.751   7.169  0.7998 -1.1968  0.4821
 6192SOL     OW30211   3.666   0.645   2.661 -0.5607  0.1174  0.0246
 6192SOL    HW130212   3.639   0.555   2.644  2.2449 -0.9810  1.5514
 6192SOL    HW230213   3.614   0.661   2.740  1.6151  1.6718  1.1256
 6193SOL     OW30214   2.294   3.618   0.918 -0.5173  0.0019 -0.3006
 6193SOL    HW130215   2.296   3.690   0.854  1.0370  0.0416 -0.2163
 6193SOL    HW230216   2.340   3.559   0.858 -1.5477 -2.5088  1.3853
 6194SOL     OW30217   1.310   1.174   5.142 -0.1855 -0.6661  0.3059
 6194SOL    HW130218   1.286   1.232   5.070  0.7379 -0.3545  0.2494
 6194SOL    HW230219   1.338   1.234   5.212  1.5877 -2.3854  1.0874
 6195SOL     OW30220   1.741   1.433   1.691  0.1745  0.2931 -0.1640
 6195SOL    HW130221   1.811   1.486   1.729  0.4884 -1.4055  1.6168
 6195SOL    HW230222   1.745   1.472   1.604  0.5806 -0.4280 -0.4756
 6196SOL     OW30223   3.351   0.973  13.336  0.5642 -0.5610 -0.5397
 6196SOL    HW130224   3.318   1.054  13.376 -1.5343  0.2382 -3.8835
 6196SOL    HW230225   3.291   0.968  13.262 -0.6367  0.8124  0.3449
 6197SOL     OW30226   3.032   0.256   6.139 -0.1570 -0.2735 -0.1282
 6197SOL    HW130227   2.989   0.242   6.223 -2.7869  1.2477 -1.1898
 6197SOL    HW230228   3.048   0.162   6.128 -1.7994 -0.7594  1.5711
 6198SOL     OW30229   3.764   2.019   9.769 -0.3057  0.4549  0.2285
 6198SOL    HW130230   3.791   1.952   9.707  1.0899 -0.4002  1.7599
 6198SOL    HW230231   3.847   2.038   9.812 -0.1188  0.9288 -0.3367
 6199SOL     OW30232   4.180   3.983   2.681 -0.0280 -0.0583  0.4901
 6199SOL    HW130233   4.135   3.910   2.723 -2.1245 -0.0692 -1.7742
 6199SOL    HW230234   4.266   3.946   2.660 -0.2059  0.3180 -0.9336
 6200SOL     OW30235   4.233   1.927   3.440  0.2165 -0.1842 -0.4939
 6200SOL    HW130236   4.269   1.849   3.397  0.8888 -1.0696  1.6501
 6200SOL    HW230237   4.296   1.946   3.510 -0.9574 -0.0019  0.5098
 6201SOL     OW30238   4.328   1.778   7.749  0.5170  0.4780 -0.0907
 6201SOL    HW130239   4.334   1.820   7.664  1.4128  0.7536  0.1078
 6201SOL    HW230240   4.341   1.686   7.723 -0.2495  0.3481 -0.0015
 6202SOL     OW30241   1.882   3.300   8.164 -0.3887  0.5381  0.2049
 6202SOL    HW130242   1.837   3.339   8.238  1.1078  4.3296 -0.8626
 6202SOL    HW230243   1.819   3.230   8.145  1.0691 -0.5085 -0.8453
 6203SOL     OW30244   1.259   4.491   9.150  0.0900 -0.2722  0.5127
 6203SOL    HW130245   1.179   4.539   9.168 -0.7727 -1.7318  0.5650
 6203SOL    HW230246   1.309   4.554   9.098  0.0948  0.3901  1.3221
 6204SOL     OW30247   0.699   1.628   7.863 -0.0827 -0.5161 -0.2032
 6204SOL    HW130248   0.750   1.585   7.932 -1.0421 -1.2188  0.0663
 6204SOL    HW230249   0.625   1.669   7.909  1.5557  0.9304  1.1447
 6205SOL     OW30250   0.518   3.976  17.433 -0.6416  0.1322 -0.2507
 6205SOL    HW130251   0.556   3.976  17.521  0.9992  1.9170 -0.9474
 6205SOL    HW230252   0.458   3.902  17.439 -0.3135 -0.0560  0.8081
 6206SOL     OW30253   2.847   2.469  17.404 -0.3725  0.3264 -0.0927
 6206SOL    HW130254   2.804   2.435  17.326 -0.0623 -0.0468 -0.1006
 6206SOL    HW230255   2.817   2.407  17.470 -2.3918 -1.2209 -2.5177
 6207SOL     OW30256   2.485   1.910   8.386 -0.9395 -0.2600  0.0634
 6207SOL    HW130257   2.504   1.833   8.332  0.5861  0.3382 -0.2611
 6207SOL    HW230258   2.551   1.905   8.455 -0.0151 -1.7209 -0.9297
 6208SOL     OW30259   0.516   0.290   5.031  0.1661 -0.1786  0.1532
 6208SOL    HW130260   0.431   0.273   5.073  0.0920 -2.0835 -0.7574
 6208SOL    HW230261   0.566   0.342   5.094 -4.4294  2.8867  1.3178
 6209SOL     OW30262   3.040   4.071   1.172 -0.2658 -0.4231  0.3045
 6209SOL    HW130263   3.047   4.161   1.141 -1.6210 -1.2908 -2.4647
 6209SOL    HW230264   3.069   4.073   1.264 -0.3727 -0.7075  0.3443
 6210SOL     OW30265   0.010   3.836  12.328 -0.3908  0.2053  0.1622
 6210SOL    HW130266   4.733   3.798  12.415  2.3498  0.1043  0.5298
 6210SOL    HW230267   0.082   3.780  12.300 -0.4933  0.5625 -0.8288
 6211SOL     OW30268   0.908   2.789   9.096 -0.6079 -0.4545 -0.6343
 6211SOL    HW130269   0.980   2.792   9.033  0.7213 -2.2493  0.7827
 6211SOL    HW230270   0.962   2.763   9.171 -0.2205 -1.3231 -1.2064
 6212SOL     OW30271   3.589   1.280   5.117 -0.2570 -0.5857 -0.1851
 6212SOL    HW130272   3.513   1.333   5.093 -1.5840 -2.4270 -0.0319
 6212SOL    HW230273   3.664   1.335   5.093 -1.3318  1.0551  0.2551
 6213SOL     OW30274   0.486   0.345  12.541 -0.2591 -0.0495  0.2677
 6213SOL    HW130275   0.469   0.356  12.447 -1.7153 -0.7700  0.4505
 6213SOL    HW230276   0.578   0.369  12.548 -0.3215  0.9717 -2.1589
 6214SOL     OW30277   1.423   1.390   4.936  0.2728  0.8137 -0.3241
 6214SOL    HW130278   1.346   1.433   4.974  1.0006  0.3730  1.6344
 6214SOL    HW230279   1.489   1.459   4.934  0.5968  0.4567 -1.5675
 6215SOL     OW30280   1.548   2.133  13.596 -0.2235 -0.0769  0.1984
 6215SOL    HW130281   1.588   2.083  13.525 -0.0622 -2.3716  1.9273
 6215SOL    HW230282   1.614   2.199  13.617 -0.8866  0.7870 -0.4258
 6216SOL     OW30283   2.469   2.262  13.077 -0.7242 -0.1790 -0.4094
 6216SOL    HW130284   2.419   2.199  13.025 -2.1818 -1.3843  2.4449
 6216SOL    HW230285   2.529   2.302  13.015  1.2708 -0.7978  1.1393
 6217SOL     OW30286   0.481   1.499   2.113  0.4771  0.6896 -0.2444
 6217SOL    HW130287   0.426   1.476   2.037  1.7577 -0.1575 -0.9185
 6217SOL    HW230288   0.538   1.422   2.120 -2.4760 -1.4831  0.0431
 6218SOL     OW30289   3.434   3.416   1.908  0.4371 -0.0943 -0.5412
 6218SOL    HW130290   3.432   3.422   2.004  1.1792 -0.9095 -0.4769
 6218SOL    HW230291   3.513   3.363   1.897  0.4219  0.0020 -1.0944
 6219SOL     OW30292   3.436   0.237   6.831  0.4176 -0.1226 -0.3513
 6219SOL    HW130293   3.401   0.326   6.825  2.4877  0.5894 -1.9665
 6219SOL    HW230294   3.521   0.266   6.865 -1.6088 -0.4447  4.9887
 6220SOL     OW30295   2.253   4.194   7.229  0.3439 -0.0181 -0.4479
 6220SOL    HW130296   2.319   4.263   7.225 -0.2571  0.7583  2.4127
 6220SOL    HW230297   2.198   4.214   7.154  2.4713 -1.2475 -2.3057
 6221SOL     OW30298   2.117   4.371   6.157 -0.2937 -0.6542  0.6716
 6221SOL    HW130299   2.122   4.296   6.217  0.3593 -0.9304  0.2803
 6221SOL    HW230300   2.194   4.415   6.193 -0.3584 -0.5521  0.6855
 6222SOL     OW30301   1.609   2.135   2.404 -0.3504 -0.4737  0.4533
 6222SOL    HW130302   1.589   2.200   2.336  0.7496  2.5299  2.9520
 6222SOL    HW230303   1.535   2.144   2.465 -1.4165 -0.8618 -0.7887
 6223SOL     OW30304   4.531   1.270   4.540  0.5008 -0.1457  0.1006
 6223SOL    HW130305   4.546   1.239   4.629  1.3749  0.9918  0.3562
 6223SOL    HW230306   4.496   1.190   4.501 -1.7524  0.4038  0.9553
 6224SOL     OW30307   3.101   2.223  11.272  0.2926  0.1921  0.4496
 6224SOL    HW130308   3.006   2.221  11.287  0.4096  0.1503  1.1631
 6224SOL    HW230309   3.106   2.318  11.262 -1.2164  0.4615  2.1891
 6225SOL     OW30310   4.648   2.117  14.086  0.1556  0.3208  0.4077
 6225SOL    HW130311   4.556   2.130  14.109  0.5729 -1.0292  2.9151
 6225SOL    HW230312   4.681   2.182  14.148  1.3919  0.6635 -0.6263
 6226SOL     OW30313   3.984   3.483   4.590 -0.3186 -0.0696 -0.4716
 6226SOL    HW130314   4.036   3.553   4.549  1.8450 -0.6580  1.2202
 6226SOL    HW230315   3.928   3.538   4.645  0.2253  1.0931 -1.0772
 6227SOL     OW30316   1.671   1.104   5.082 -0.1650 -0.2271 -0.1910
 6227SOL    HW130317   1.706   1.124   4.996 -0.4460  0.8931 -0.0573
 6227SOL    HW230318   1.629   1.183   5.117  0.8380  0.4949 -0.6257
 6228SOL     OW30319   3.073   3.143  15.997 -0.1668  0.0805 -0.3182
 6228SOL    HW130320   3.096   3.180  16.082 -1.2698  1.9620 -0.8504
 6228SOL    HW230321   3.144   3.080  15.983  0.1382  0.1419  0.9283
 6229SOL     OW30322   0.911   4.364   7.927 -0.0701 -0.6409  0.2765
 6229SOL    HW130323   0.856   4.304   7.978 -2.0811  1.2682  0.3130
 6229SOL    HW230324   0.853   4.393   7.857  0.7604  1.8183  0.6049
 6230SOL     OW30325   3.176   0.607   2.849 -0.0949  0.2760 -0.5305
 6230SOL    HW130326   3.104   0.646   2.899 -0.9339 -0.1163 -1.4400
 6230SOL    HW230327   3.213   0.553   2.919 -0.9663  0.1629 -0.1593
 6231SOL     OW30328   1.193   0.806   4.875 -0.2974 -0.0694 -0.0173
 6231SOL    HW130329   1.278   0.844   4.900 -0.6766 -0.1295  1.3992
 6231SOL    HW230330   1.131   0.876   4.897  0.8557  1.3629 -1.3123
 6232SOL     OW30331   3.018   3.178  14.842  0.0311 -0.3137 -0.4701
 6232SOL    HW130332   3.041   3.086  14.831  0.4336 -0.3441  0.6460
 6232SOL    HW230333   2.947   3.182  14.906 -0.5391  0.6883 -1.1553
 6233SOL     OW30334   2.051   3.638   8.281 -0.0333 -0.1334 -0.5880
 6233SOL    HW130335   2.127   3.606   8.329  0.7803  2.0855 -0.3873
 6233SOL    HW230336   2.092   3.690   8.213 -0.5915 -0.3592 -1.1025
 6234SOL     OW30337   0.283   2.248   3.218 -0.0057  0.0991 -0.3493
 6234SOL    HW130338   0.357   2.294   3.179 -0.8818  1.7000 -0.1156
 6234SOL    HW230339   0.242   2.326   3.255 -1.7527 -0.5485 -0.9178
 6235SOL     OW30340   1.709   4.436   3.130 -0.1099 -0.6042 -0.5228
 6235SOL    HW130341   1.679   4.345   3.135 -0.0560 -0.6921 -1.9193
 6235SOL    HW230342   1.782   4.431   3.192  1.2126  0.6974 -1.9797
 6236SOL     OW30343   1.277   3.044   5.116  0.0677 -0.1851  1.0593
 6236SOL    HW130344   1.233   2.986   5.053  1.2045  1.9173 -1.7042
 6236SOL    HW230345   1.250   3.134   5.098  2.6425  0.5868  0.9820
 6237SOL     OW30346   3.011   2.046   0.276  0.0018 -0.3098 -0.5338
 6237SOL    HW130347   2.984   2.123   0.226  1.2366  0.1876 -0.4351
 6237SOL    HW230348   3.049   2.105   0.341 -1.3825  2.1534 -1.9680
 6238SOL     OW30349   3.725   0.080   4.246 -0.2809 -0.1108  0.1143
 6238SOL    HW130350   3.686   0.052   4.328 -1.3567  2.1339  0.3549
 6238SOL    HW230351   3.819   0.084   4.264 -0.2193 -0.9880  0.0229
 6239SOL     OW30352   1.769   1.743   2.709 -0.2951  0.0993 -0.2155
 6239SOL    HW130353   1.719   1.662   2.706  1.6054 -1.0244 -1.1374
 6239SOL    HW230354   1.861   1.718   2.700 -0.3824  0.0094 -0.8450
 6240SOL     OW30355   3.812   0.323   4.818  0.7298 -0.1675  0.4974
 6240SOL    HW130356   3.797   0.228   4.816  0.4436 -0.1455  2.0482
 6240SOL    HW230357   3.822   0.338   4.724  0.0373 -0.3034  0.4042
 6241SOL     OW30358   1.491   4.316   6.291 -0.2211 -0.8606  0.2039
 6241SOL    HW130359   1.464   4.344   6.203 -0.0271  1.3177  0.8262
 6241SOL    HW230360   1.541   4.240   6.262  1.2520  0.6025 -1.1263
 6242SOL     OW30361   1.878   3.682  10.313 -0.1825 -0.5012 -0.1959
 6242SOL    HW130362   1.800   3.704  10.364  0.4840 -1.3356  1.1860
 6242SOL    HW230363   1.941   3.730  10.367  0.2228 -0.7030 -0.4869
 6243SOL     OW30364   1.141   4.078  13.658  0.0146  0.9752  0.0577
 6243SOL    HW130365   1.092   4.158  13.676 -0.7644  0.4650  0.2492
 6243SOL    HW230366   1.121   4.026  13.736  1.2573 -1.3336 -1.1725
 6244SOL     OW30367   4.575   4.335   5.171  0.3903 -0.4696  0.3118
 6244SOL    HW130368   4.502   4.277   5.191 -0.0766  0.4250  1.1928
 6244SOL    HW230369   4.635   4.266   5.143 -0.8668 -1.9677  1.3630
 6245SOL     OW30370   3.276   0.097   7.026 -0.3089 -0.5296  0.0943
 6245SOL    HW130371   3.261   0.155   7.100 -0.6479 -0.9973  0.3920
 6245SOL    HW230372   3.327   0.148   6.963  0.6091  0.2243  1.4410
 6246SOL     OW30373   2.815   0.756   8.880 -0.1952  1.1246  0.2679
 6246SOL    HW130374   2.864   0.770   8.799  0.6618  1.5146  0.8500
 6246SOL    HW230375   2.787   0.844   8.906  2.9622  1.8474  1.2658
 6247SOL     OW30376   1.717   3.670  17.616 -0.3051  0.0764 -0.1996
 6247SOL    HW130377   1.696   3.616  17.692 -1.1140  0.6878  0.0165
 6247SOL    HW230378   1.635   3.676  17.566  1.0685 -1.3621 -2.6092
 6248SOL     OW30379   2.694   3.221   1.987 -0.2555  0.4705  0.2424
 6248SOL    HW130380   2.779   3.178   1.976 -0.0187  1.2154 -0.7597
 6248SOL    HW230381   2.626   3.160   1.958  1.5043 -1.0855 -0.6623
 6249SOL     OW30382   0.314   2.733   5.806  0.1513  0.3766 -0.1172
 6249SOL    HW130383   0.355   2.693   5.883  1.3635  1.0096 -0.4339
 6249SOL    HW230384   0.253   2.659   5.802  0.2163  0.2358  1.5122
 6250SOL     OW30385   4.356   4.454   1.886  0.1247 -0.5494  0.9451
 6250SOL    HW130386   4.357   4.428   1.978 -0.7224  1.2788  1.4761
 6250SOL    HW230387   4.286   4.519   1.883  2.3123  1.7918  0.5485
 6251SOL     OW30388   2.877   3.314  16.357  0.0142  0.1134 -0.2696
 6251SOL    HW130389   2.841   3.401  16.373  0.8471  0.2748  0.7554
 6251SOL    HW230390   2.875   3.319  16.261 -1.2491  1.5175 -0.1660
 6252SOL     OW30391   3.752   3.200   5.762  0.1854 -0.2132 -0.1118
 6252SOL    HW130392   3.731   3.152   5.682 -0.1013 -0.3624  0.0556
 6252SOL    HW230393   3.844   3.219   5.742 -0.0042 -0.1717 -0.9762
 6253SOL     OW30394   0.696   1.605  10.862  0.0534 -0.1474 -0.1812
 6253SOL    HW130395   0.616   1.605  10.915  0.4802  1.2042  0.4488
 6253SOL    HW230396   0.738   1.690  10.878 -0.5432  0.1655 -0.2835
 6254SOL     OW30397   3.926   1.549   7.542  0.2384 -0.3091  0.3325
 6254SOL    HW130398   3.876   1.623   7.506 -0.0796 -0.7809 -0.1981
 6254SOL    HW230399   3.858   1.515   7.600  0.5334 -0.2010  0.7390
 6255SOL     OW30400   2.536   0.034   4.926  0.0458 -0.2224 -0.6328
 6255SOL    HW130401   2.549   4.717   4.848 -1.7724  1.6204 -2.1941
 6255SOL    HW230402   2.521   4.694   4.983 -0.3259  1.4795  1.5543
 6256SOL     OW30403   0.142   4.638   8.696  0.3394 -0.4238 -0.2375
 6256SOL    HW130404   0.221   4.692   8.691 -0.2499  0.5275  0.6878
 6256SOL    HW230405   0.079   4.692   8.744  1.5102  0.1568  0.6492
 6257SOL     OW30406   1.484   2.513  13.335 -0.2766 -0.6684 -0.0396
 6257SOL    HW130407   1.415   2.540  13.274  0.8373 -1.2942 -1.5667
 6257SOL    HW230408   1.478   2.418  13.329  1.6530 -0.8634  0.9709
 6258SOL     OW30409   3.379   1.400   6.418 -0.5115 -0.9359  0.0450
 6258SOL    HW130410   3.398   1.414   6.325 -1.2513 -0.0459  0.0331
 6258SOL    HW230411   3.435   1.467   6.458 -1.0484 -0.5439  0.1331
 6259SOL     OW30412   2.311   4.601   4.628 -0.0801  0.5825 -0.5647
 6259SOL    HW130413   2.318   4.565   4.716 -0.4853 -1.6869 -1.4611
 6259SOL    HW230414   2.326   4.521   4.578  1.9339  1.8391 -2.0052
 6260SOL     OW30415   1.404   3.037   4.167  0.2953 -0.5124  0.4685
 6260SOL    HW130416   1.310   3.052   4.171  0.2253 -0.2640 -2.0796
 6260SOL    HW230417   1.427   3.113   4.114 -1.6439 -0.8887 -0.8787
 6261SOL     OW30418   3.638   3.765  10.802  1.1577 -0.2318 -0.0209
 6261SOL    HW130419   3.659   3.817  10.725  0.6487 -1.1781 -0.8024
 6261SOL    HW230420   3.658   3.827  10.872 -0.5863 -0.7054  0.9229
 6262SOL     OW30421   2.863   1.811  12.879  0.8353  0.2052 -0.5684
 6262SOL    HW130422   2.866   1.746  12.809  2.0478 -0.5839  0.2121
 6262SOL    HW230423   2.900   1.761  12.951  0.2028  0.3394 -0.1526
 6263SOL     OW30424   4.526   3.459   4.357  0.1644  0.1280  0.2428
 6263SOL    HW130425   4.540   3.533   4.417  0.7990  1.1489 -1.1613
 6263SOL    HW230426   4.615   3.429   4.340 -0.3054 -0.9240 -0.3260
 6264SOL     OW30427   4.168   1.878  16.674  0.1091 -0.1023 -0.5102
 6264SOL    HW130428   4.220   1.802  16.651 -1.4432 -1.2620 -0.1889
 6264SOL    HW230429   4.160   1.877  16.770  2.1821  0.2673 -0.3415
 6265SOL     OW30430   3.619   2.787  14.007 -0.2719  0.6243  0.4349
 6265SOL    HW130431   3.610   2.702  14.050 -1.1968  1.1173  1.2285
 6265SOL    HW230432   3.713   2.784  14.025 -0.0954 -1.8569 -0.9713
 6266SOL     OW30433   0.505   0.437   8.133 -0.5069 -0.1048 -0.6059
 6266SOL    HW130434   0.496   0.522   8.089  1.1734  0.0661 -0.6136
 6266SOL    HW230435   0.434   0.389   8.091  0.1426 -1.2106 -0.4588
 6267SOL     OW30436   3.711   3.736   6.565  0.6240  0.3542  0.1505
 6267SOL    HW130437   3.784   3.705   6.618  0.5977  1.8539  1.0737
 6267SOL    HW230438   3.715   3.829   6.588 -1.8022  0.4396  0.2474
 6268SOL     OW30439   0.190   1.937   0.695  0.0460 -0.4200  0.3973
 6268SOL    HW130440   0.104   1.951   0.655  1.8249  0.8965 -2.9104
 6268SOL    HW230441   0.194   1.841   0.688 -0.3284 -0.4984  1.1993
 6269SOL     OW30442   0.200   3.548  15.733 -0.2178 -0.2372 -0.1372
 6269SOL    HW130443   0.226   3.494  15.659  2.2314  0.1916  0.4125
 6269SOL    HW230444   0.230   3.635  15.706 -0.0510 -0.1537  0.3026
 6270SOL     OW30445   3.918   1.390  10.533 -0.4319 -0.1709  0.3418
 6270SOL    HW130446   3.997   1.340  10.515 -0.6369 -1.3277  2.7086
 6270SOL    HW230447   3.953   1.467  10.579  0.3773 -2.1049  2.9701
 6271SOL     OW30448   3.048   0.723  13.537 -0.0091 -0.0145 -0.2336
 6271SOL    HW130449   3.120   0.738  13.598  0.5124 -1.1408 -0.5784
 6271SOL    HW230450   3.091   0.720  13.451 -1.3645 -0.9027 -0.8874
 6272SOL     OW30451   0.629   3.169   0.966 -0.3444 -0.6363 -1.1555
 6272SOL    HW130452   0.669   3.251   0.939 -0.6851  0.1808  0.8338
 6272SOL    HW230453   0.644   3.117   0.887 -1.3681 -3.1327  0.2920
 6273SOL     OW30454   3.019   0.054  17.016 -0.1622  0.1665 -0.1502
 6273SOL    HW130455   2.965   0.120  17.061  0.4180  0.2370  0.4420
 6273SOL    HW230456   3.021   0.101  16.933  0.1034 -3.7067 -2.2989
 6274SOL     OW30457   0.135   0.643   3.771 -0.4130  0.4973  0.4679
 6274SOL    HW130458   0.101   0.585   3.703  1.5530 -0.8792  0.6337
 6274SOL    HW230459   0.160   0.716   3.715 -1.2014  2.6031  2.8633
 6275SOL     OW30460   1.819   3.943   5.203 -0.1446 -0.0089 -0.2130
 6275SOL    HW130461   1.835   4.036   5.218  0.6724 -0.4327  1.5195
 6275SOL    HW230462   1.897   3.922   5.153  0.4248  2.9052 -0.5498
 6276SOL     OW30463   0.425   2.969   9.481  0.0884 -0.0615 -0.4726
 6276SOL    HW130464   0.406   2.970   9.575 -0.6061 -0.6628 -0.6019
 6276SOL    HW230465   0.364   3.039   9.457 -0.5623 -0.9606 -1.4706
 6277SOL     OW30466   2.218   1.513   2.139 -0.2235 -0.2403  0.1984
 6277SOL    HW130467   2.146   1.525   2.200 -1.7901 -0.6782 -1.5694
 6277SOL    HW230468   2.170   1.504   2.057  1.7488  0.1966 -1.0011
 6278SOL     OW30469   2.082   1.438   3.891 -0.0737 -0.0656 -0.4587
 6278SOL    HW130470   2.071   1.481   3.976  3.6703  1.9905 -0.9884
 6278SOL    HW230471   2.059   1.350   3.918 -0.2952  0.4533  1.0519
 6279SOL     OW30472   4.700   0.102   4.253  0.3436  0.2312 -0.2709
 6279SOL    HW130473   4.647   0.179   4.234 -0.9319 -0.6565 -0.3021
 6279SOL    HW230474   0.038   0.131   4.308 -0.3736 -0.0544  0.8508
 6280SOL     OW30475   1.133   3.349   8.397  0.0484  0.5188  0.2883
 6280SOL    HW130476   1.224   3.364   8.425 -0.7152 -0.9126  3.5298
 6280SOL    HW230477   1.139   3.260   8.364  1.2175  0.2079  1.3177
 6281SOL     OW30478   0.013   3.122   6.965 -0.4823  0.1319 -0.0186
 6281SOL    HW130479   0.096   3.157   6.995  0.0890 -1.8220  0.6382
 6281SOL    HW230480   0.012   3.153   6.874  0.0103 -0.6329 -0.2833
 6282SOL     OW30481   4.187   2.318  11.770  0.1250 -0.1974  0.7271
 6282SOL    HW130482   4.279   2.294  11.785  0.4022  1.4346  1.5930
 6282SOL    HW230483   4.137   2.242  11.800 -1.8806  1.3099  1.1363
 6283SOL     OW30484   3.096   3.797   6.175 -0.0342 -0.0847 -0.2316
 6283SOL    HW130485   3.080   3.885   6.143  0.1529  1.5135  3.9845
 6283SOL    HW230486   3.179   3.788   6.222 -0.8682 -0.3893  1.1890
 6284SOL     OW30487   1.725   1.309  12.312  0.0111  0.0554 -0.4556
 6284SOL    HW130488   1.658   1.241  12.318  0.4335 -0.4105 -1.0816
 6284SOL    HW230489   1.803   1.275  12.355 -0.3946 -1.2436 -0.7651
 6285SOL     OW30490   3.491   4.117   5.422 -0.3242 -0.1853  0.2181
 6285SOL    HW130491   3.569   4.063   5.411  0.2199  0.4088  1.1370
 6285SOL    HW230492   3.509   4.184   5.356 -1.4415  0.6080  0.7106
 6286SOL     OW30493   3.525   2.933   9.506 -0.1388  0.2483 -0.4140
 6286SOL    HW130494   3.455   2.966   9.562 -0.5588  1.3632 -1.5994
 6286SOL    HW230495   3.604   2.955   9.556  0.2990 -0.1755 -0.9186
 6287SOL     OW30496   0.585   0.356   3.601  0.0319  0.4570 -0.3244
 6287SOL    HW130497   0.609   0.311   3.520  1.8616  1.7731 -0.5145
 6287SOL    HW230498   0.609   0.441   3.565  2.0881  1.2919  3.0025
 6288SOL     OW30499   4.574   3.173  12.801 -0.6558 -0.1320 -0.1623
 6288SOL    HW130500   4.596   3.101  12.741  1.5968 -0.4576  1.0306
 6288SOL    HW230501   4.576   3.130  12.887 -1.0883  0.9757  0.4022
 6289SOL     OW30502   0.322   2.189   9.144 -0.2942  0.3476  0.2999
 6289SOL    HW130503   0.407   2.212   9.107 -0.5149 -0.9871 -1.0409
 6289SOL    HW230504   0.292   2.146   9.064 -2.0050  1.6932  0.2215
 6290SOL     OW30505   2.300   1.271  10.308 -0.0044  0.5677 -0.1241
 6290SOL    HW130506   2.231   1.207  10.286  2.4573 -1.2537 -2.5445
 6290SOL    HW230507   2.369   1.213  10.341 -2.5170 -1.8959  0.9183
 6291SOL     OW30508   0.709   0.291   2.486 -0.4530  0.5894  0.2299
 6291SOL    HW130509   0.787   0.237   2.478  1.4367  3.7003 -2.2054
 6291SOL    HW230510   0.726   0.358   2.420 -0.4525 -0.5726 -0.9456
 6292SOL     OW30511   1.607   1.531   2.984  0.3053  0.0567  0.3216
 6292SOL    HW130512   1.578   1.443   3.007 -1.6610  0.0625 -2.0871
 6292SOL    HW230513   1.571   1.529   2.895  2.7410 -1.4442 -0.6239
 6293SOL     OW30514   2.048   4.488  10.837 -0.0618  0.4325 -0.5057
 6293SOL    HW130515   2.091   4.559  10.788 -1.2893 -0.6225 -3.0775
 6293SOL    HW230516   1.983   4.464  10.772  1.3318 -0.1041 -1.7026
 6294SOL     OW30517   1.490   4.643   1.128  0.3354  0.6697 -0.4176
 6294SOL    HW130518   1.440   4.723   1.144  0.7780  0.7713  0.4510
 6294SOL    HW230519   1.579   4.680   1.131  0.7168 -0.3828  0.8245
 6295SOL     OW30520   3.685   2.528   1.688  0.2576 -0.5070 -0.2739
 6295SOL    HW130521   3.687   2.485   1.602  3.2788 -1.4059  0.2385
 6295SOL    HW230522   3.631   2.605   1.670 -0.0341 -0.4332  0.9131
 6296SOL     OW30523   0.621   0.970   5.911  0.2775  0.3798 -0.0287
 6296SOL    HW130524   0.637   0.900   5.975  3.7239  1.5965  0.3918
 6296SOL    HW230525   0.643   1.052   5.955  0.9498  0.4386 -0.4839
 6297SOL     OW30526   0.946   1.811   4.368 -0.1012  0.6401 -0.1052
 6297SOL    HW130527   0.888   1.842   4.437 -0.5706 -1.5896  0.5047
 6297SOL    HW230528   0.889   1.830   4.294 -0.5518 -2.0544 -0.4803
 6298SOL     OW30529   0.455   1.457   9.988  0.3866  0.3359 -0.3981
 6298SOL    HW130530   0.447   1.464  10.083 -0.8195  0.0232 -0.4835
 6298SOL    HW230531   0.516   1.382   9.985  2.0883  1.6421  1.1371
 6299SOL     OW30532   4.357   0.918   4.891 -0.1747 -0.5170  0.4948
 6299SOL    HW130533   4.366   0.953   4.980 -1.5430  0.5040  0.2324
 6299SOL    HW230534   4.266   0.937   4.868 -0.3918 -0.8214  1.0893
 6300SOL     OW30535   0.052   3.856   1.576  0.4194  0.8600  0.0538
 6300SOL    HW130536   0.003   3.881   1.497  1.2773  1.6935 -0.2214
 6300SOL    HW230537   0.004   3.776   1.598 -0.7010  1.2473 -0.9335
 6301SOL     OW30538   0.312   1.041   4.777 -0.0555 -0.5446 -0.7946
 6301SOL    HW130539   0.362   0.967   4.743 -0.8197 -1.2108 -0.4582
 6301SOL    HW230540   0.378   1.104   4.807 -1.4809  0.6006 -0.0761
 6302SOL     OW30541   2.903   3.702  10.184 -0.2144  0.4008  0.3202
 6302SOL    HW130542   2.919   3.734  10.096 -2.5250  3.4500  1.0166
 6302SOL    HW230543   2.833   3.637  10.176  2.6656 -2.7535  0.6771
 6303SOL     OW30544   0.513   2.383   8.644  0.5135 -0.1634  0.0775
 6303SOL    HW130545   0.565   2.340   8.576  0.8891  0.9102 -0.3168
 6303SOL    HW230546   0.471   2.309   8.688  0.6022 -0.5308 -0.4614
 6304SOL     OW30547   0.856   4.052   6.748  0.1402  0.0673 -0.3647
 6304SOL    HW130548   0.795   4.122   6.772 -0.1241 -0.1639 -0.3580
 6304SOL    HW230549   0.820   3.991   6.814  0.2263  0.2978 -0.1052
 6305SOL     OW30550   4.507   0.766   2.506  0.3026 -0.4815  0.8765
 6305SOL    HW130551   4.418   0.740   2.526  0.1304  0.5471  1.4581
 6305SOL    HW230552   4.546   0.680   2.489 -1.3867 -0.9197 -0.7057
 6306SOL     OW30553   4.418   3.465   7.068 -0.5149  0.3951 -0.4203
 6306SOL    HW130554   4.419   3.436   6.977 -2.3261 -1.4280  0.1326
 6306SOL    HW230555   4.383   3.389   7.115 -1.7745  2.6329  2.2994
 6307SOL     OW30556   0.099   3.236   4.827 -0.3238 -0.3863  0.1378
 6307SOL    HW130557   0.007   3.209   4.828 -0.7610  1.2088  2.9416
 6307SOL    HW230558   0.109   3.222   4.733 -3.3054  1.1659 -0.4070
 6308SOL     OW30559   1.707   2.328   0.812 -0.3294  0.3280 -0.0348
 6308SOL    HW130560   1.696   2.398   0.747  0.8647 -0.2364 -0.8445
 6308SOL    HW230561   1.799   2.341   0.832 -0.1554 -0.7486 -0.0982
 6309SOL     OW30562   1.126   3.812  15.006  0.4309 -0.6817 -0.0430
 6309SOL    HW130563   1.076   3.730  15.010 -1.4570  0.5237  0.9582
 6309SOL    HW230564   1.188   3.806  14.934  0.0364  1.5209 -0.5404
 6310SOL     OW30565   2.450   0.383  12.869  0.3499  0.3517  0.5339
 6310SOL    HW130566   2.354   0.383  12.860  0.3023  0.5180  1.0394
 6310SOL    HW230567   2.464   0.475  12.894  0.4223  0.2612  0.8145
 6311SOL     OW30568   2.567   0.851  16.623 -0.1200 -0.3404  0.3551
 6311SOL    HW130569   2.473   0.842  16.608  0.0483  0.0453 -0.9551
 6311SOL    HW230570   2.567   0.884  16.713 -2.1399 -0.8483  0.5316
 6312SOL     OW30571   1.100   4.130   5.112 -1.0632  0.1128 -0.0192
 6312SOL    HW130572   1.039   4.172   5.173 -0.3028 -0.1292  0.8954
 6312SOL    HW230573   1.112   4.191   5.038 -1.4206  0.8194  0.5001
 6313SOL     OW30574   0.324   0.927   7.776 -0.0289 -0.1871 -0.0197
 6313SOL    HW130575   0.245   0.971   7.807  1.6371  2.3733  0.5996
 6313SOL    HW230576   0.392   0.947   7.840  0.4647  1.1903 -0.9642
 6314SOL     OW30577   3.885   4.348   2.650  0.6751 -0.2490  0.4989
 6314SOL    HW130578   3.978   4.342   2.672  1.0462  1.8904 -0.5169
 6314SOL    HW230579   3.864   4.261   2.617 -3.1484  0.2986  1.4422
 6315SOL     OW30580   0.947   1.833   1.774  0.1858  0.3819 -0.3641
 6315SOL    HW130581   0.867   1.885   1.774 -0.5990 -0.8241  0.0439
 6315SOL    HW230582   0.907   1.746   1.771  1.2629 -0.1555  1.0934
 6316SOL     OW30583   3.194   4.160   9.993 -0.2591 -0.3913 -0.3277
 6316SOL    HW130584   3.238   4.167  10.077  0.4792 -0.4346 -0.7148
 6316SOL    HW230585   3.101   4.151  10.016  0.0558 -1.5930  0.4215
 6317SOL     OW30586   2.339   4.588   1.901 -0.5407 -0.2439 -0.0380
 6317SOL    HW130587   2.277   4.531   1.855 -0.1130 -1.3139  0.6871
 6317SOL    HW230588   2.296   4.572   1.985 -0.9204  1.3315  0.0675
 6318SOL     OW30589   3.584   0.719  17.193  0.5031  0.0188  0.4292
 6318SOL    HW130590   3.600   0.677  17.108 -0.8985  2.8521 -1.2456
 6318SOL    HW230591   3.617   0.661  17.262  2.9597  2.0078  0.9539
 6319SOL     OW30592   2.821   0.637   4.996 -0.6353  0.4401 -0.2044
 6319SOL    HW130593   2.872   0.629   4.915  2.0164 -2.6109  1.7833
 6319SOL    HW230594   2.734   0.618   4.962 -1.1112  0.5479  0.9486
 6320SOL     OW30595   0.830   0.195   7.445 -0.2846  0.4344  0.3070
 6320SOL    HW130596   0.847   0.241   7.527  1.7394 -0.5088  0.4038
 6320SOL    HW230597   0.750   0.246   7.427 -0.9023 -0.5252  0.3131
 6321SOL     OW30598   3.937   2.232   4.170  0.3608 -0.1787 -0.2991
 6321SOL    HW130599   3.903   2.282   4.244  0.6849 -1.0566  0.4455
 6321SOL    HW230600   3.961   2.312   4.122 -0.2425 -0.5867 -1.2831
 6322SOL     OW30601   0.561   2.602   7.572 -0.2805  0.6171 -0.0078
 6322SOL    HW130602   0.502   2.642   7.637 -0.7480 -0.1689  0.0576
 6322SOL    HW230603   0.636   2.661   7.574  1.5659 -1.8048  2.8148
 6323SOL     OW30604   1.200   4.601  10.778 -0.0756 -0.3690  0.1964
 6323SOL    HW130605   1.106   4.608  10.762 -0.2554 -1.8492  0.6188
 6323SOL    HW230606   1.235   4.689  10.763 -1.6806  0.3566  0.7368
 6324SOL     OW30607   1.917   2.522  11.148 -0.4372 -0.5895 -0.3882
 6324SOL    HW130608   2.000   2.490  11.115 -0.3146 -1.2702  0.5915
 6324SOL    HW230609   1.950   2.579  11.218 -1.0693 -0.5345 -0.1304
 6325SOL     OW30610   0.495   4.359   9.326  0.1318 -0.0572 -0.2114
 6325SOL    HW130611   0.567   4.417   9.303  0.1216 -0.2957 -0.8487
 6325SOL    HW230612   0.454   4.345   9.240 -0.3283  0.5927 -0.0991
 6326SOL     OW30613   3.043   3.156   0.564 -0.1660 -0.6585  0.0788
 6326SOL    HW130614   3.103   3.224   0.530 -0.9307  0.6145  1.2941
 6326SOL    HW230615   3.065   3.168   0.656  2.6565  0.4136 -0.7013
 6327SOL     OW30616   3.501   0.831  10.852 -0.3810 -0.3766  0.2078
 6327SOL    HW130617   3.476   0.920  10.828 -0.9838 -0.2004  1.4719
 6327SOL    HW230618   3.461   0.790  10.776 -1.8770  0.2309  0.6685
 6328SOL     OW30619   4.150   0.534   2.072  0.0709  0.3858  0.5852
 6328SOL    HW130620   4.069   0.583   2.062  1.8941  3.1916 -0.6384
 6328SOL    HW230621   4.216   0.592   2.032  1.7909 -0.0953  2.7337
 6329SOL     OW30622   0.626   4.614  13.768 -0.4520  0.0953 -0.5946
 6329SOL    HW130623   0.701   4.588  13.822  0.3737 -0.1342 -1.8448
 6329SOL    HW230624   0.561   4.643  13.831 -0.6593 -2.9423  0.5820
 6330SOL     OW30625   0.105   1.247  16.043 -0.0093 -0.5174  0.1805
 6330SOL    HW130626   0.058   1.326  16.016  0.9530 -0.9561 -2.7564
 6330SOL    HW230627   0.047   1.174  16.022  1.4447 -1.4598 -0.5577
 6331SOL     OW30628   2.890   3.922   3.057  0.2047  0.4474 -1.0086
 6331SOL    HW130629   2.914   3.838   3.097  1.6004  2.0898  1.6357
 6331SOL    HW230630   2.850   3.874   2.984 -0.2204  0.8905 -1.0593
 6332SOL     OW30631   1.007   0.218   3.832  0.1271  0.5482 -0.5426
 6332SOL    HW130632   1.026   0.298   3.784 -0.8422  2.3181  2.0117
 6332SOL    HW230633   0.927   0.182   3.795 -1.7652  2.7633  1.3829
 6333SOL     OW30634   0.694   2.578   5.881  0.1024  0.0421  0.7592
 6333SOL    HW130635   0.689   2.617   5.968  3.7977 -0.9746  1.3982
 6333SOL    HW230636   0.787   2.557   5.878 -0.3730 -1.4766 -2.5095
 6334SOL     OW30637   2.601   3.412   0.925  0.1490 -0.3388  0.4895
 6334SOL    HW130638   2.659   3.337   0.939  0.1107 -0.4905 -0.1685
 6334SOL    HW230639   2.539   3.395   0.854 -0.5856 -1.6352  1.4502
 6335SOL     OW30640   2.373   1.867  17.167  0.0540 -0.0962  0.0077
 6335SOL    HW130641   2.311   1.815  17.218  0.0467  1.5626  1.6652
 6335SOL    HW230642   2.378   1.942  17.225  0.9367 -0.3366  0.2357
 6336SOL     OW30643   1.164   3.785   7.669 -0.1577 -0.4732  0.0129
 6336SOL    HW130644   1.235   3.758   7.727  0.0448  1.2462  0.5547
 6336SOL    HW230645   1.211   3.811   7.590 -1.6282 -0.1073 -0.7538
 6337SOL     OW30646   0.290   4.310   9.491 -0.2332 -0.6446  0.5053
 6337SOL    HW130647   0.357   4.320   9.424 -1.6385 -1.3495 -1.0135
 6337SOL    HW230648   0.345   4.316   9.569  2.4937  0.2298 -1.4687
 6338SOL     OW30649   4.436   4.255  16.798 -0.1257 -0.3699  0.3506
 6338SOL    HW130650   4.491   4.311  16.854  1.1122 -0.7028 -0.5231
 6338SOL    HW230651   4.492   4.249  16.720 -1.1528  0.4209 -0.4510
 6339SOL     OW30652   0.124   4.084   6.072 -0.0289 -0.5970 -0.0324
 6339SOL    HW130653   0.193   4.078   6.139  0.3999 -1.2191 -0.5285
 6339SOL    HW230654   0.093   3.994   6.073  2.7205 -1.5543  1.5311
 6340SOL     OW30655   3.562   3.295  11.782 -0.4649  0.2669  0.0843
 6340SOL    HW130656   3.554   3.200  11.783  0.7583  0.1921  2.1352
 6340SOL    HW230657   3.586   3.313  11.873 -1.0831 -0.6661  0.4284
 6341SOL     OW30658   0.009   2.462  11.865 -0.0408  0.2568 -0.7707
 6341SOL    HW130659   4.656   2.430  11.850  0.3871 -0.6884 -1.2346
 6341SOL    HW230660   0.033   2.417  11.946 -0.1882 -1.1900 -1.5486
 6342SOL     OW30661   0.827   1.135   4.744 -0.0188 -0.0845 -0.2531
 6342SOL    HW130662   0.825   1.172   4.656  0.8492 -2.5681 -1.3028
 6342SOL    HW230663   0.778   1.205   4.787 -0.2696 -0.1959 -0.3591
 6343SOL     OW30664   0.026   3.660   2.807 -0.3034  0.2569 -0.3914
 6343SOL    HW130665   4.678   3.661   2.853  0.8302  3.2566  1.5958
 6343SOL    HW230666   0.016   3.715   2.729 -0.1475  1.7439  0.6204
 6344SOL     OW30667   2.557   3.183   7.109  0.2779  0.1106  0.6767
 6344SOL    HW130668   2.604   3.100   7.118 -0.7664 -0.4620  0.9070
 6344SOL    HW230669   2.571   3.231   7.191 -0.4399  0.4832  0.5773
 6345SOL     OW30670   2.285   1.376   5.743  0.3953  0.2245 -0.6154
 6345SOL    HW130671   2.359   1.379   5.803  0.5732  2.9323 -0.9562
 6345SOL    HW230672   2.222   1.439   5.780  1.5501  1.4220 -0.6988
 6346SOL     OW30673   0.239   2.024   7.425  0.1056  0.7472 -0.3347
 6346SOL    HW130674   0.284   2.079   7.489  0.2732 -1.1984  1.1983
 6346SOL    HW230675   0.214   2.093   7.363  0.8540  0.4249 -1.0033
 6347SOL     OW30676   1.629   1.646   5.705  0.2612 -0.1767 -0.0667
 6347SOL    HW130677   1.672   1.728   5.729  1.3876 -0.9510  0.5620
 6347SOL    HW230678   1.703   1.592   5.675  0.4243  1.1173 -2.0446
 6348SOL     OW30679   4.526   3.018  13.061 -0.1439  1.0233  0.2591
 6348SOL    HW130680   4.466   3.058  13.125  0.9558  0.6771  1.5086
 6348SOL    HW230681   4.611   3.033  13.102 -1.0245  0.2832  2.3575
 6349SOL     OW30682   1.357   0.312   8.825  0.2275 -0.4374  0.5626
 6349SOL    HW130683   1.439   0.359   8.809 -0.2802  0.3144  0.1218
 6349SOL    HW230684   1.350   0.330   8.919  0.4529 -2.9997  1.0560
 6350SOL     OW30685   3.713   1.205  13.437 -0.1453  0.0028  0.2980
 6350SOL    HW130686   3.675   1.275  13.384  0.1746 -1.4057 -1.7989
 6350SOL    HW230687   3.675   1.129  13.393  0.2928 -0.8685  1.4181
 6351SOL     OW30688   2.464   3.097   1.032  0.3594  0.2694  0.5383
 6351SOL    HW130689   2.515   3.083   0.953  0.6194  0.6944  0.6328
 6351SOL    HW230690   2.421   3.014   1.054 -0.0499  0.5292  0.7254
 6352SOL     OW30691   0.699   1.713   9.273  0.8496 -0.2072  0.2297
 6352SOL    HW130692   0.661   1.637   9.228 -0.5109 -0.1180  1.2281
 6352SOL    HW230693   0.639   1.780   9.239 -0.8152 -1.6128  0.3621
 6353SOL     OW30694   1.885   0.023   8.638  0.3789 -0.3391  0.1043
 6353SOL    HW130695   1.816   4.693   8.643 -1.2170  1.3636  0.2058
 6353SOL    HW230696   1.907   0.017   8.731  2.4612  3.1177 -0.1593
 6354SOL     OW30697   1.944   4.107   6.791  0.2884 -0.1071 -0.0624
 6354SOL    HW130698   1.919   4.028   6.840  1.6292 -0.8434 -0.5774
 6354SOL    HW230699   1.856   4.114   6.754 -1.2406 -0.2762  3.4947
 6355SOL     OW30700   1.488   3.204   2.432  0.2635 -0.1080  0.1280
 6355SOL    HW130701   1.406   3.168   2.399 -0.9575  2.4008  0.3961
 6355SOL    HW230702   1.552   3.166   2.372 -0.9466 -1.4296 -0.3110
 6356SOL     OW30703   0.597   0.828   8.316  0.0247  0.0983  0.2481
 6356SOL    HW130704   0.649   0.752   8.290 -1.1542 -1.1501  1.5359
 6356SOL    HW230705   0.628   0.885   8.245  3.0089 -0.9390  0.7255
 6357SOL     OW30706   3.084   1.847  16.621 -0.3033  0.2951 -0.9614
 6357SOL    HW130707   2.991   1.838  16.602 -0.2674 -4.6571  1.1123
 6357SOL    HW230708   3.087   1.941  16.643  1.5290 -0.3981  1.8017
 6358SOL     OW30709   0.264   0.837   2.147  0.0436 -0.3854 -0.4362
 6358SOL    HW130710   0.249   0.931   2.159 -2.2161 -0.7763 -0.1544
 6358SOL    HW230711   0.355   0.830   2.174  0.1492 -1.1854 -1.0045
 6359SOL     OW30712   3.572   4.643   7.725 -0.7316 -0.6440  0.7920
 6359SOL    HW130713   3.653   4.693   7.736 -0.0081 -1.8799  1.1336
 6359SOL    HW230714   3.563   4.613   7.816  0.5969 -1.8959  0.5064
 6360SOL     OW30715   2.554   2.999   9.457  0.1636 -0.4424 -1.0155
 6360SOL    HW130716   2.506   3.025   9.535 -0.3730 -2.6268 -0.6376
 6360SOL    HW230717   2.491   2.998   9.384 -0.8319 -0.1369 -0.1583
 6361SOL     OW30718   0.504   0.933   5.374  0.5466 -0.2638  0.1165
 6361SOL    HW130719   0.579   0.890   5.333 -0.2177 -1.3840 -0.0809
 6361SOL    HW230720   0.538   0.969   5.457  1.7308 -3.0497  0.8338
 6362SOL     OW30721   3.468   1.859   2.219  0.0492 -0.4969  0.4644
 6362SOL    HW130722   3.477   1.947   2.184 -1.5472 -0.5099  0.0420
 6362SOL    HW230723   3.453   1.820   2.133  1.1074 -2.0710  0.9845
 6363SOL     OW30724   0.385   2.602   6.045 -0.2104  0.3311 -0.0587
 6363SOL    HW130725   0.369   2.617   6.138 -0.3850 -1.7035  0.2374
 6363SOL    HW230726   0.392   2.507   6.053 -3.9590 -0.2878 -3.4632
 6364SOL     OW30727   2.579   1.549   2.639  0.0772  0.4680  0.4710
 6364SOL    HW130728   2.626   1.573   2.719  1.7499 -0.3464 -0.2651
 6364SOL    HW230729   2.536   1.468   2.667  1.4026 -0.3163  0.2456
 6365SOL     OW30730   4.427   2.949   8.934  0.1940 -0.0014 -0.1468
 6365SOL    HW130731   4.386   3.020   8.884  0.4301 -2.3478 -3.6612
 6365SOL    HW230732   4.493   2.938   8.866 -0.7633 -1.6071 -0.7895
 6366SOL     OW30733   4.548   4.398  13.571 -0.4065  0.2335  0.5638
 6366SOL    HW130734   4.580   4.312  13.595  0.3823  0.3823  0.0374
 6366SOL    HW230735   4.472   4.418  13.626 -0.1851  0.5512  0.7544
 6367SOL     OW30736   4.260   4.025   3.562 -0.3123  0.1975  0.3526
 6367SOL    HW130737   4.290   3.941   3.527  2.9841  1.1761  0.8282
 6367SOL    HW230738   4.210   3.992   3.636  0.6416  1.6992  1.6690
 6368SOL     OW30739   0.153   0.224   4.390  0.3975 -0.1090  0.6629
 6368SOL    HW130740   0.241   0.246   4.360 -0.0579  0.9965  0.1242
 6368SOL    HW230741   0.175   0.162   4.459  1.6395 -0.7586 -0.3341
 6369SOL     OW30742   1.935   0.883  15.016 -0.2715 -0.0229  0.4012
 6369SOL    HW130743   2.015   0.840  14.989  0.5928  0.6611  1.8665
 6369SOL    HW230744   1.866   0.825  14.983  0.5144  0.1826 -1.5936
 6370SOL     OW30745   1.962   4.438   6.845 -0.3715 -0.3582  0.0367
 6370SOL    HW130746   1.913   4.386   6.908 -0.0732 -0.9708 -0.2425
 6370SOL    HW230747   2.041   4.445   6.899 -0.6908 -1.0092  0.5930
 6371SOL     OW30748   1.574   4.731   8.415 -0.3285  0.4891 -0.0119
 6371SOL    HW130749   1.547   0.040   8.495  0.6693 -1.8321  1.6063
 6371SOL    HW230750   1.667   4.713   8.429 -0.2618  1.9177  1.3992
 6372SOL     OW30751   0.343   2.626   1.606 -0.1688 -0.1521 -0.0358
 6372SOL    HW130752   0.398   2.704   1.599 -1.8598  1.1707  1.4440
 6372SOL    HW230753   0.322   2.607   1.514  0.5588  0.0510 -0.2391
 6373SOL     OW30754   2.016   4.695   4.360  0.0525 -0.2628 -0.4664
 6373SOL    HW130755   1.924   4.699   4.336 -0.6541 -1.6409  2.0406
 6373SOL    HW230756   2.046   0.044   4.328  0.6574 -0.1203  0.4887
 6374SOL     OW30757   0.896   2.578   1.884 -0.7612 -0.1754  0.5069
 6374SOL    HW130758   0.930   2.639   1.951  1.5636 -0.4864 -0.3826
 6374SOL    HW230759   0.911   2.495   1.929 -0.1633 -1.0204 -1.2615
 6375SOL     OW30760   2.377   2.480   8.953  0.8570  0.5187 -0.1300
 6375SOL    HW130761   2.318   2.544   8.914  0.5014 -0.2096 -0.7815
 6375SOL    HW230762   2.333   2.447   9.031  1.9083 -0.8405 -0.1006
 6376SOL     OW30763   2.548   0.475   5.716  0.4110 -0.3401 -0.1529
 6376SOL    HW130764   2.497   0.556   5.722 -1.2772 -1.4462  0.5583
 6376SOL    HW230765   2.560   0.459   5.810 -1.7199  0.5539  0.2752
 6377SOL     OW30766   1.335   2.588  16.166  0.1073  0.0394  0.1429
 6377SOL    HW130767   1.363   2.670  16.207 -0.2199 -0.6457  1.7166
 6377SOL    HW230768   1.329   2.517  16.230  0.2385 -1.5183 -1.5597
 6378SOL     OW30769   4.041   2.080  16.567 -0.3458 -0.3437  0.2315
 6378SOL    HW130770   4.089   2.098  16.486 -2.5090  2.7208 -0.3516
 6378SOL    HW230771   4.090   2.008  16.607 -0.2414  0.3903  1.4247
 6379SOL     OW30772   3.669   4.473   3.543 -0.1478  0.3960  0.4818
 6379SOL    HW130773   3.646   4.564   3.562  1.4634  0.6660  1.1600
 6379SOL    HW230774   3.652   4.463   3.450  1.5485 -0.9561  0.3330
 6380SOL     OW30775   3.948   4.653  13.680 -0.1309  0.3955  0.2001
 6380SOL    HW130776   3.922   4.651  13.588 -1.9689  1.7255  0.6906
 6380SOL    HW230777   4.007   4.578  13.686  0.2845  0.8475  1.7062
 6381SOL     OW30778   3.621   3.524   2.632 -0.3940 -0.4008 -0.7384
 6381SOL    HW130779   3.699   3.540   2.685  0.1222 -0.9486 -1.3432
 6381SOL    HW230780   3.628   3.430   2.612 -0.4134 -0.7997  1.1037
 6382SOL     OW30781   3.200   2.416   0.849  0.3776  0.0816 -0.3755
 6382SOL    HW130782   3.208   2.446   0.939  0.1712  0.8282 -0.6080
 6382SOL    HW230783   3.165   2.329   0.867  1.7371 -0.8521 -2.1692
 6383SOL     OW30784   2.497   2.367   2.710  0.0029 -0.4888  0.4648
 6383SOL    HW130785   2.478   2.352   2.802  1.2491  1.1098  0.9842
 6383SOL    HW230786   2.583   2.336   2.683  0.0232 -0.4217  0.4522
 6384SOL     OW30787   3.994   3.605   2.002 -0.1670  0.2099  0.0415
 6384SOL    HW130788   4.015   3.693   1.972 -0.0063 -0.7672 -2.7484
 6384SOL    HW230789   4.059   3.559   1.949  1.8393  0.1335  2.5234
 6385SOL     OW30790   3.038   3.877  17.313  0.0171  0.8015  0.6305
 6385SOL    HW130791   3.014   3.791  17.348 -1.2439  0.3244 -1.4011
 6385SOL    HW230792   3.032   3.925  17.396  2.8809  0.2788  1.1490
 6386SOL     OW30793   3.738   2.747   3.705 -0.2406 -0.1324  0.0019
 6386SOL    HW130794   3.721   2.824   3.651  1.0932 -0.8170 -1.3967
 6386SOL    HW230795   3.660   2.697   3.685 -0.1798 -0.3665  0.3543
 6387SOL     OW30796   2.264   3.486   3.775  0.0241 -0.0980 -0.8665
 6387SOL    HW130797   2.249   3.467   3.682  2.7154 -0.1822 -1.2841
 6387SOL    HW230798   2.290   3.398   3.804  0.8400  0.6985  0.8556
 6388SOL     OW30799   4.515   3.113   4.451  0.2238 -0.2831  0.2527
 6388SOL    HW130800   4.478   3.157   4.374 -1.6365 -0.8994  0.7948
 6388SOL    HW230801   4.474   3.027   4.447  2.1063 -1.2161  1.0703
 6389SOL     OW30802   0.245   0.861   9.341  0.5503 -0.2703  0.2450
 6389SOL    HW130803   0.280   0.891   9.425  0.1798 -1.9546  0.9907
 6389SOL    HW230804   0.189   0.793   9.378 -0.5949  0.2984 -0.4384
 6390SOL     OW30805   2.390   3.390   1.550 -0.0157 -0.1826 -0.4685
 6390SOL    HW130806   2.437   3.360   1.628 -1.7475  0.9333  0.9994
 6390SOL    HW230807   2.310   3.350   1.581 -0.0458  0.0872 -0.2001
 6391SOL     OW30808   1.822   2.398   4.555 -0.3107 -0.0564  0.2769
 6391SOL    HW130809   1.729   2.376   4.565 -0.1164 -0.5101  1.0670
 6391SOL    HW230810   1.852   2.406   4.645  2.2916  3.2248 -0.8870
 6392SOL     OW30811   4.392   2.700   3.037  0.5848 -0.0426 -0.4193
 6392SOL    HW130812   4.392   2.607   3.016  2.9822  0.0528 -0.8671
 6392SOL    HW230813   4.301   2.720   3.059  0.0743 -0.8657 -1.7673
 6393SOL     OW30814   4.503   3.030   9.681 -0.2850 -0.4737  0.1658
 6393SOL    HW130815   4.446   3.102   9.706  0.6440 -0.4597  2.2580
 6393SOL    HW230816   4.462   2.956   9.726 -0.3421 -0.2625  0.4619
 6394SOL     OW30817   2.584   4.554   8.575  0.2076  0.2170 -0.3297
 6394SOL    HW130818   2.517   4.520   8.634 -0.6284 -0.5554 -1.7092
 6394SOL    HW230819   2.532   4.553   8.494  0.8287  1.1896 -0.7354
 6395SOL     OW30820   0.432   1.162   6.023  0.0007  0.9464 -0.0458
 6395SOL    HW130821   0.389   1.191   5.943 -1.6977  3.7425  1.8457
 6395SOL    HW230822   0.506   1.220   6.037  0.2996  0.3211  1.0043
 6396SOL     OW30823   4.687   4.499  16.325  0.3501 -0.3386 -0.4115
 6396SOL    HW130824   4.638   4.575  16.295  1.1425  0.8483  1.3403
 6396SOL    HW230825   4.625   4.452  16.381  0.5661  2.1921  1.9813
 6397SOL     OW30826   2.352   0.035   5.622 -0.0533  0.5780  0.0846
 6397SOL    HW130827   2.265   4.732   5.615  0.3777 -0.4485  0.3885
 6397SOL    HW230828   2.344   0.097   5.550 -2.1240  0.7724  0.4799
 6398SOL     OW30829   1.095   0.344   9.098 -0.1304 -0.0983  0.4008
 6398SOL    HW130830   1.102   0.252   9.076 -1.9668  0.0780 -0.8453
 6398SOL    HW230831   1.017   0.370   9.050  0.3338 -1.2055 -0.9427
 6399SOL     OW30832   4.611   1.528   7.441  0.3231  0.2747  0.1266
 6399SOL    HW130833   4.600   1.544   7.347 -0.5723  1.7422  0.4799
 6399SOL    HW230834   4.621   1.433   7.438 -1.7828  0.0600 -0.3424
 6400SOL     OW30835   2.496   1.775   8.157  0.1774  0.3361 -1.0696
 6400SOL    HW130836   2.404   1.801   8.160 -0.5421 -2.2089 -1.0365
 6400SOL    HW230837   2.539   1.861   8.155 -1.2934  1.0722 -0.1206
 6401SOL     OW30838   4.642   2.079   4.480  0.2596  0.0213  0.2761
 6401SOL    HW130839   4.727   2.076   4.524  0.6301  0.6452 -0.4044
 6401SOL    HW230840   4.615   2.164   4.514  1.1196 -0.4639  2.1734
 6402SOL     OW30841   4.105   0.298   6.012 -0.4988  0.5286 -0.1348
 6402SOL    HW130842   4.113   0.363   5.942 -0.6588  0.5390 -0.1450
 6402SOL    HW230843   4.071   0.349   6.086 -0.6643  0.5080 -0.1970
 6403SOL     OW30844   3.248   3.900   4.360 -0.4199 -0.0889  0.1021
 6403SOL    HW130845   3.158   3.868   4.349 -0.5264  1.6816 -4.0977
 6403SOL    HW230846   3.297   3.854   4.293 -0.1819 -0.5365  0.5857
 6404SOL     OW30847   4.418   3.058   2.400 -0.2792  0.1939 -0.7660
 6404SOL    HW130848   4.465   2.986   2.359  0.9195 -0.4366  1.6860
 6404SOL    HW230849   4.329   3.029   2.424  0.3643 -1.4635 -0.3541
 6405SOL     OW30850   3.625   1.676   5.059 -0.3658  0.1720  0.2691
 6405SOL    HW130851   3.680   1.746   5.022 -0.0741 -1.0184 -1.5378
 6405SOL    HW230852   3.685   1.602   5.048  2.4285  2.5540 -0.5986
 6406SOL     OW30853   4.436   0.151   0.539  0.0116 -0.5079 -0.0977
 6406SOL    HW130854   4.528   0.144   0.515  0.6932 -0.6498  2.5095
 6406SOL    HW230855   4.418   0.244   0.549 -1.0515 -0.7208  0.0564
 6407SOL     OW30856   1.269   4.384   7.506  0.4205 -0.2283  0.3572
 6407SOL    HW130857   1.245   4.393   7.414  0.1084  1.0545  0.5690
 6407SOL    HW230858   1.209   4.452   7.538  1.3088 -0.0881  1.6803
 6408SOL     OW30859   3.290   1.024   2.169 -0.5638 -0.5008  0.4417
 6408SOL    HW130860   3.244   1.104   2.147  2.0826  0.9106  0.0825
 6408SOL    HW230861   3.291   0.981   2.084  1.3495  2.8725 -1.2232
 6409SOL     OW30862   2.442   4.548  14.820  0.2308 -0.0390 -0.2380
 6409SOL    HW130863   2.498   4.471  14.815  0.6805  0.3316 -0.8178
 6409SOL    HW230864   2.359   4.503  14.803 -0.9833  1.3543  1.9049
 6410SOL     OW30865   2.398   1.938  12.173  0.4062 -0.2013  0.2893
 6410SOL    HW130866   2.390   1.873  12.103 -1.5373  0.6628 -0.2896
 6410SOL    HW230867   2.471   1.912  12.230  1.4074  3.1903  0.5693
 6411SOL     OW30868   3.298   4.224  12.492 -0.3944 -0.4316 -0.4037
 6411SOL    HW130869   3.306   4.185  12.405  0.9441  1.7418 -1.2455
 6411SOL    HW230870   3.393   4.226  12.507 -0.4333  0.6335 -0.3242
 6412SOL     OW30871   3.730   4.624   4.026  0.2454 -0.7956 -0.1328
 6412SOL    HW130872   3.817   4.647   4.057  0.6717 -0.0839 -1.8834
 6412SOL    HW230873   3.751   4.632   3.933 -0.4339  1.9700 -0.0605
 6413SOL     OW30874   1.227   4.207   4.059  0.1332  0.0321  0.1703
 6413SOL    HW130875   1.158   4.273   4.063  0.3590  0.3389 -0.9677
 6413SOL    HW230876   1.185   4.137   4.009 -1.4777  1.7568 -0.9121
 6414SOL     OW30877   1.473   0.676  16.154 -0.5650  0.3281 -0.4721
 6414SOL    HW130878   1.480   0.760  16.199 -1.7666 -0.0163  0.3574
 6414SOL    HW230879   1.420   0.701  16.079 -0.8173 -0.4722 -0.5616
 6415SOL     OW30880   2.338   3.067   2.512  0.0845 -0.1780  0.1150
 6415SOL    HW130881   2.398   3.063   2.438  0.2644  0.0101  0.2491
 6415SOL    HW230882   2.348   3.157   2.543  0.4490  0.0461 -0.6537
 6416SOL     OW30883   0.032   2.600   2.237 -0.2214 -0.0646  0.0919
 6416SOL    HW130884   0.022   2.529   2.300  0.2936 -0.1724  0.0496
 6416SOL    HW230885   4.676   2.625   2.230 -0.1092  0.4038  0.2707
 6417SOL     OW30886   3.954   3.403   2.157 -0.4092 -0.3118 -0.1798
 6417SOL    HW130887   4.023   3.419   2.221  0.4281  0.3401 -1.2398
 6417SOL    HW230888   3.971   3.473   2.094 -1.2776 -0.6415 -0.7997
 6418SOL     OW30889   2.669   1.110   8.656  0.2148  0.1877 -0.6148
 6418SOL    HW130890   2.693   1.202   8.665 -5.7202  1.7048  0.3027
 6418SOL    HW230891   2.582   1.119   8.617 -0.3542 -2.6962 -0.0236
 6419SOL     OW30892   2.700   3.070  15.718  0.1531  0.3972 -1.0351
 6419SOL    HW130893   2.749   3.004  15.670 -1.5938  1.0932 -3.7582
 6419SOL    HW230894   2.690   3.138  15.652  1.5645  1.6779  0.0715
 6420SOL     OW30895   3.218   3.361   9.967 -0.8316 -0.6534 -0.1537
 6420SOL    HW130896   3.211   3.389  10.058 -0.7832 -1.1345 -0.0022
 6420SOL    HW230897   3.204   3.448   9.929 -0.6409  0.2883  1.9638
 6421SOL     OW30898   0.882   0.460   8.936  0.1980  0.2856  0.2045
 6421SOL    HW130899   0.834   0.530   8.979 -2.1069 -1.5941  0.7374
 6421SOL    HW230900   0.822   0.388   8.956 -0.2213  0.7836  0.7287
 6422SOL     OW30901   2.451   0.305  15.508  0.0728  0.3226 -0.5031
 6422SOL    HW130902   2.447   0.362  15.585  0.3777 -0.8692  0.3830
 6422SOL    HW230903   2.365   0.265  15.509  1.1393 -1.8393  2.2256
 6423SOL     OW30904   0.699   1.316  11.743 -0.2859  0.2259 -0.1706
 6423SOL    HW130905   0.724   1.270  11.823  0.6036  0.2569 -0.4253
 6423SOL    HW230906   0.618   1.352  11.778  0.0527 -0.4070  1.2896
 6424SOL     OW30907   0.796   3.325   1.397 -0.3738  0.1212  0.5427
 6424SOL    HW130908   0.870   3.274   1.431 -0.9214 -0.8706  0.2229
 6424SOL    HW230909   0.747   3.328   1.479  1.1952  1.0968  1.4533
 6425SOL     OW30910   3.889   1.205   7.533  0.6987 -0.3089 -0.4990
 6425SOL    HW130911   3.880   1.136   7.467  1.2080 -0.3208 -0.5560
 6425SOL    HW230912   3.968   1.242   7.494  0.8565 -1.6082 -1.4239
 6426SOL     OW30913   4.342   1.011   2.823  0.1039  0.6324  0.6933
 6426SOL    HW130914   4.260   0.974   2.853  1.5554 -0.9675  2.6694
 6426SOL    HW230915   4.373   0.928   2.785  2.1992  0.8488  1.9198
 6427SOL     OW30916   2.491   2.272   1.624 -0.1926 -0.3876 -0.0527
 6427SOL    HW130917   2.431   2.301   1.693  0.1302  0.9575 -0.3572
 6427SOL    HW230918   2.516   2.354   1.584 -1.1266  0.0153  0.1899
 6428SOL     OW30919   0.530   1.928   3.142  0.1891 -0.6252  0.0919
 6428SOL    HW130920   0.596   1.979   3.189 -0.4956 -0.2697  0.6792
 6428SOL    HW230921   0.516   1.984   3.066  0.5926 -2.4204 -1.3033
 6429SOL     OW30922   0.663   4.735   5.512 -0.1092  0.2092  0.2839
 6429SOL    HW130923   0.668   4.674   5.439 -0.6829 -1.1901  1.4159
 6429SOL    HW230924   0.572   4.716   5.536  0.2267 -1.0889  0.5285
 6430SOL     OW30925   1.815   0.517   7.118  0.2358  0.0714 -0.1866
 6430SOL    HW130926   1.883   0.533   7.184 -2.2129  1.4135  2.0074
 6430SOL    HW230927   1.855   0.550   7.037  1.4575  0.0867  0.4156
 6431SOL     OW30928   2.072   1.647  13.347 -0.0388  0.5122 -0.1143
 6431SOL    HW130929   2.111   1.586  13.410  0.6950  2.0294  0.8773
 6431SOL    HW230930   2.003   1.684  13.401 -0.1820  0.6916 -0.4205
 6432SOL     OW30931   0.797   4.619   7.224 -0.3452  0.0363  0.5824
 6432SOL    HW130932   0.762   4.563   7.293  0.8682  1.2071  2.1639
 6432SOL    HW230933   0.888   4.636   7.252  0.0207 -1.9828  0.5792
 6433SOL     OW30934   2.310   4.090   2.460  0.1077 -0.9135  0.1114
 6433SOL    HW130935   2.268   4.093   2.374 -1.6427 -0.9238  0.9687
 6433SOL    HW230936   2.249   4.036   2.511 -1.1024 -0.2032 -0.6087
 6434SOL     OW30937   1.053   4.013   2.880  0.0642 -0.6186 -0.5950
 6434SOL    HW130938   0.967   3.999   2.918  0.3806  0.5230  0.5416
 6434SOL    HW230939   1.112   3.969   2.941 -0.4268 -1.9279 -1.0588
 6435SOL     OW30940   0.015   3.899   2.271  0.1451  0.0499  0.6606
 6435SOL    HW130941   0.100   3.912   2.313 -0.6920  2.6124  1.6185
 6435SOL    HW230942   0.031   3.814   2.230 -0.3769  1.3043 -2.1181
 6436SOL     OW30943   1.432   4.352   1.859 -0.1705 -0.4585 -0.0869
 6436SOL    HW130944   1.428   4.369   1.765 -1.9631  1.6842  0.3687
 6436SOL    HW230945   1.444   4.439   1.897  1.3880 -1.0187  0.6930
 6437SOL     OW30946   1.524   1.056   7.256 -0.4657 -0.0517  0.0224
 6437SOL    HW130947   1.537   1.101   7.340 -0.8183  0.9563 -0.4662
 6437SOL    HW230948   1.498   0.970   7.288 -3.2457 -0.7210 -3.9917
 6438SOL     OW30949   2.323   1.612   9.353  0.0414  0.1373 -0.5825
 6438SOL    HW130950   2.335   1.698   9.393 -1.9329 -0.1960  0.7266
 6438SOL    HW230951   2.315   1.639   9.262  4.0188  1.4040 -0.5667
 6439SOL     OW30952   1.300   3.674  14.042 -0.4323 -0.5224  0.0961
 6439SOL    HW130953   1.277   3.710  14.128 -0.3977 -0.7123  0.1862
 6439SOL    HW230954   1.395   3.677  14.052 -0.4925  0.0293  0.4751
 6440SOL     OW30955   2.818   0.298   7.282  0.3266 -0.5089  0.3497
 6440SOL    HW130956   2.852   0.354   7.212  0.7669 -1.5210 -0.2587
 6440SOL    HW230957   2.808   0.364   7.350  0.9949 -0.6049  0.5421
 6441SOL     OW30958   3.171   4.186   4.158  0.5097 -0.5224 -0.8323
 6441SOL    HW130959   3.266   4.181   4.149  0.5266 -2.2817  0.4131
 6441SOL    HW230960   3.144   4.262   4.106  0.8454  0.1250 -0.0501
 6442SOL     OW30961   2.795   1.500   8.955  0.6475  0.0727 -0.0743
 6442SOL    HW130962   2.802   1.480   9.048 -0.9931 -1.6942 -0.3168
 6442SOL    HW230963   2.711   1.547   8.961  0.9918  0.5260  1.1578
 6443SOL     OW30964   3.476   4.282   9.713  0.1081  0.5026  0.2237
 6443SOL    HW130965   3.439   4.369   9.728 -2.2578 -0.3380 -0.7811
 6443SOL    HW230966   3.503   4.291   9.621 -1.8556  1.6408 -0.2251
 6444SOL     OW30967   4.221   1.804   6.520  0.1631  0.6377 -0.3920
 6444SOL    HW130968   4.273   1.753   6.457  1.3831 -0.3902  1.4363
 6444SOL    HW230969   4.130   1.800   6.492 -0.0528 -1.7148  0.6961
 6445SOL     OW30970   1.456   0.912   4.891 -0.2647  0.2945  0.5580
 6445SOL    HW130971   1.498   0.994   4.868 -1.3816  0.2021 -1.8209
 6445SOL    HW230972   1.519   0.850   4.854 -1.5881 -0.9769  0.3968
 6446SOL     OW30973   3.577   1.593   3.681  0.4875  0.0509  0.2248
 6446SOL    HW130974   3.608   1.673   3.724 -0.9719  1.1680 -0.7747
 6446SOL    HW230975   3.635   1.526   3.717  0.0001 -0.8366 -0.6563
 6447SOL     OW30976   1.838   1.848   9.143  0.5964 -0.1599 -0.0525
 6447SOL    HW130977   1.851   1.754   9.152  1.8836 -0.0710 -0.8652
 6447SOL    HW230978   1.749   1.857   9.176 -0.2714  0.6394 -2.6718
 6448SOL     OW30979   4.713   2.823  13.333  0.6835 -0.0064  0.1758
 6448SOL    HW130980   4.622   2.852  13.332  0.2244 -1.3816  1.6679
 6448SOL    HW230981   4.702   2.729  13.349  0.6397  0.1309  0.9813
 6449SOL     OW30982   0.275   1.347   0.509  0.5340  0.0524  0.2004
 6449SOL    HW130983   0.240   1.415   0.451 -0.0374 -0.2724  0.1686
 6449SOL    HW230984   0.360   1.382   0.537  0.2527  0.6742  0.2918
 6450SOL     OW30985   1.675   1.861   8.093 -0.3459  0.1001 -0.2436
 6450SOL    HW130986   1.679   1.774   8.054  0.5227 -1.2454  2.7802
 6450SOL    HW230987   1.707   1.915   8.021 -2.6969  1.6878 -0.0931
 6451SOL     OW30988   2.048   1.154   5.760 -0.6388 -0.5597 -0.7852
 6451SOL    HW130989   2.125   1.208   5.745  0.3827 -1.2256  1.9712
 6451SOL    HW230990   1.972   1.212   5.753  0.4757  1.3068  2.8077
 6452SOL     OW30991   0.854   0.974   2.423 -0.5072  0.3441  0.6246
 6452SOL    HW130992   0.938   0.976   2.378 -0.5077 -2.5294  0.4968
 6452SOL    HW230993   0.829   1.065   2.407  2.5519  0.9755 -0.4913
 6453SOL     OW30994   2.914   2.117   4.072  0.1815 -0.1104  0.3924
 6453SOL    HW130995   2.834   2.110   4.125  0.3639  0.4812  0.7477
 6453SOL    HW230996   2.972   2.056   4.118 -1.2169 -0.5449  1.5813
 6454SOL     OW30997   1.870   4.667   4.717  0.3588 -0.0070 -0.3921
 6454SOL    HW130998   1.911   4.601   4.773  0.0524  1.1558  1.2206
 6454SOL    HW230999   1.852   0.000   4.780 -1.9581 -0.0193 -1.0462
 6455SOL     OW31000   1.244   2.231   7.345  0.6280 -0.6193  0.1826
 6455SOL    HW131001   1.191   2.177   7.287 -0.9566  0.8425  0.2752
 6455SOL    HW231002   1.208   2.217   7.432  2.7819 -2.0266  0.8550
 6456SOL     OW31003   3.691   1.108   3.616 -0.6708 -0.5022 -0.0955
 6456SOL    HW131004   3.696   1.058   3.697 -3.7270 -1.8280 -0.7373
 6456SOL    HW231005   3.744   1.054   3.557  1.4322  1.5387 -0.0677
 6457SOL     OW31006   1.138   0.752   1.693 -0.2278  0.5549 -0.0076
 6457SOL    HW131007   1.076   0.742   1.620 -0.4891  0.0570  0.2850
 6457SOL    HW231008   1.125   0.841   1.726  0.8068  0.0803  1.6644
 6458SOL     OW31009   0.465   0.236   6.273  0.0835 -0.2326  0.6448
 6458SOL    HW131010   0.448   0.281   6.356  1.5089 -0.8205  1.2559
 6458SOL    HW231011   0.429   0.149   6.287 -0.5494  0.0174  0.5428
 6459SOL     OW31012   0.409   0.157   0.023  0.0013  0.3961 -0.8136
 6459SOL    HW131013   0.448   0.106   0.094  0.9957  0.7721 -1.0878
 6459SOL    HW231014   0.464   0.121  17.695  1.1704  1.2551 -0.3490
 6460SOL     OW31015   0.793   0.246   5.530  0.1429  0.2057  0.5646
 6460SOL    HW131016   0.731   0.275   5.462 -1.2234  2.4881  2.7870
 6460SOL    HW231017   0.766   0.157   5.551  0.9814 -0.3474 -0.7062
 6461SOL     OW31018   0.862   0.590   1.673  0.4571  0.1760  0.1116
 6461SOL    HW131019   0.896   0.632   1.594 -3.5115  1.2057 -1.0203
 6461SOL    HW231020   0.893   0.500   1.663  2.3497  0.9420 -0.9569
 6462SOL     OW31021   1.992   0.176   7.317  0.5404  0.4486 -0.4078
 6462SOL    HW131022   1.935   0.197   7.242 -1.5215  0.7212  1.2376
 6462SOL    HW231023   1.995   0.081   7.312 -1.0435  0.3205  1.1209
 6463SOL     OW31024   4.046   1.503   6.375 -0.6679  0.1196  0.3033
 6463SOL    HW131025   3.953   1.525   6.383 -0.5156  0.1658  1.9596
 6463SOL    HW231026   4.069   1.550   6.295 -1.4089 -1.9337 -1.1085
 6464SOL     OW31027   4.002   3.883  16.266 -0.6982  0.1523  0.5535
 6464SOL    HW131028   3.985   3.896  16.173 -0.8645 -2.1360  0.2674
 6464SOL    HW231029   4.040   3.966  16.295  2.3879 -1.0889 -0.0578
 6465SOL     OW31030   0.941   4.034   3.679 -0.6753  0.4537  0.1627
 6465SOL    HW131031   0.999   4.108   3.660  0.8617 -0.5998  0.7625
 6465SOL    HW231032   0.854   4.067   3.658  0.2165  1.7515 -1.4968
 6466SOL     OW31033   1.860   2.637   8.820 -0.0800 -0.1749 -0.6703
 6466SOL    HW131034   1.906   2.617   8.738  0.6379 -1.5800  0.0924
 6466SOL    HW231035   1.902   2.572   8.876  2.3529  0.2532 -1.9655
 6467SOL     OW31036   2.367   0.331   7.407 -0.3363  0.0374 -0.8476
 6467SOL    HW131037   2.359   0.398   7.339 -0.3330  1.6307  0.7136
 6467SOL    HW231038   2.322   0.257   7.367  1.3027  0.5858 -3.7295
 6468SOL     OW31039   1.933   3.417  13.214 -0.0405 -0.3258 -0.7225
 6468SOL    HW131040   1.992   3.451  13.280  0.2939 -0.4542 -0.9575
 6468SOL    HW231041   1.943   3.323  13.228  1.6454 -0.3506 -2.1094
 6469SOL     OW31042   0.395   1.916   0.511  0.1193 -0.4152  0.0909
 6469SOL    HW131043   0.420   2.007   0.528 -0.4908 -0.2280 -0.0205
 6469SOL    HW231044   0.344   1.894   0.589 -0.3597 -0.9541 -0.3751
 6470SOL     OW31045   3.575   3.827  15.878 -0.2221  0.2599  0.5212
 6470SOL    HW131046   3.520   3.899  15.848  0.6101  0.0548 -1.4989
 6470SOL    HW231047   3.532   3.750  15.842  1.8353 -0.2579 -0.8794
 6471SOL     OW31048   2.368   1.195   7.082 -0.1638  0.2663 -0.1951
 6471SOL    HW131049   2.462   1.185   7.067  0.2968 -0.2694  3.0029
 6471SOL    HW231050   2.381   1.228   7.171  3.8907 -0.4540 -0.4802
 6472SOL     OW31051   0.623   0.837   6.147  0.0693  0.0933  0.0120
 6472SOL    HW131052   0.689   0.862   6.211  0.7296 -1.0865 -0.1950
 6472SOL    HW231053   0.639   0.743   6.139  2.5048  0.4340  1.0970
 6473SOL     OW31054   4.056   1.345   8.319  0.5332  0.0134  0.4467
 6473SOL    HW131055   4.021   1.373   8.235  0.9024  0.2036  0.3562
 6473SOL    HW231056   3.989   1.281   8.343  1.9299 -1.8070 -0.5234
 6474SOL     OW31057   3.546   0.141  12.728  0.1812 -0.9384 -0.6208
 6474SOL    HW131058   3.568   0.091  12.807 -0.9534 -0.0043  0.2828
 6474SOL    HW231059   3.581   0.078  12.665  0.6949 -0.4896 -0.7862
 6475SOL     OW31060   4.688   2.439   1.203  0.0623 -0.2054 -0.3586
 6475SOL    HW131061   0.025   2.388   1.166 -1.3251 -0.7765 -2.2631
 6475SOL    HW231062   4.661   2.376   1.271  0.8119 -1.4950 -1.2476
 6476SOL     OW31063   0.720   1.033   1.991  0.5883 -0.0181 -0.4778
 6476SOL    HW131064   0.718   0.983   2.072 -0.3397  0.8106  0.0029
 6476SOL    HW231065   0.779   0.982   1.935  1.5189 -0.6265  1.0679
 6477SOL     OW31066   0.462   3.307   7.782 -0.5263  0.4581  0.4094
 6477SOL    HW131067   0.510   3.388   7.802 -1.9940  1.1129  1.2424
 6477SOL    HW231068   0.443   3.280   7.872 -0.4905 -0.0207  0.2748
 6478SOL     OW31069   1.222   3.464   8.139  0.6345 -0.0791  0.5563
 6478SOL    HW131070   1.309   3.429   8.120  0.1741  0.1128 -1.8873
 6478SOL    HW231071   1.218   3.428   8.228  1.7054 -0.6217  0.3888
 6479SOL     OW31072   2.377   2.930   3.665 -0.3549  0.4094 -0.0920
 6479SOL    HW131073   2.428   2.903   3.741  1.5614  0.7036 -1.2619
 6479SOL    HW231074   2.380   2.856   3.604 -1.9456 -0.9026  1.4187
 6480SOL     OW31075   4.292   4.091   2.323 -0.2604 -0.0773 -0.0617
 6480SOL    HW131076   4.343   4.069   2.401  1.3127 -1.5807 -1.5262
 6480SOL    HW231077   4.352   4.155   2.286 -2.5123  1.1259 -1.6612
 6481SOL     OW31078   3.197   0.916  10.476 -0.2730  0.1460  0.0294
 6481SOL    HW131079   3.109   0.910  10.514 -0.1992  2.3303  0.5487
 6481SOL    HW231080   3.181   0.873  10.392  0.2911 -0.3124  0.1555
 6482SOL     OW31081   3.684   0.182  13.078  0.5879  0.2076  1.0733
 6482SOL    HW131082   3.625   0.152  13.147 -2.1770 -0.2476 -1.4519
 6482SOL    HW231083   3.662   0.124  13.005  0.1526  1.8867 -0.1548
 6483SOL     OW31084   2.271   0.025   6.346 -0.1770  0.9539 -0.3241
 6483SOL    HW131085   2.200   0.088   6.352  0.3121  1.4423  0.3106
 6483SOL    HW231086   2.345   0.080   6.371 -0.7008  1.8994 -0.8789
 6484SOL     OW31087   2.025   1.558   2.316 -0.0163 -0.1960 -0.1499
 6484SOL    HW131088   1.961   1.535   2.384 -0.6047  1.2293 -0.2180
 6484SOL    HW231089   1.982   1.640   2.292  0.8082  0.6321  1.2159
 6485SOL     OW31090   4.280   1.059   0.256  0.3436  0.0837 -0.1878
 6485SOL    HW131091   4.206   1.104   0.298  1.3650  1.4220  0.1703
 6485SOL    HW231092   4.247   1.054   0.167 -0.8636 -1.5659  0.3409
 6486SOL     OW31093   2.734   2.117   1.649 -0.3253 -0.2451  0.0771
 6486SOL    HW131094   2.763   2.099   1.560 -0.7478  1.7445 -0.4675
 6486SOL    HW231095   2.656   2.170   1.631  1.5780  3.0286  1.4168
 6487SOL     OW31096   2.880   0.746   3.796 -0.0356 -0.5589 -0.2625
 6487SOL    HW131097   2.836   0.822   3.758  1.7823  0.9167  0.6081
 6487SOL    HW231098   2.847   0.746   3.886  0.4043  2.2592 -0.0881
 6488SOL     OW31099   4.567   4.193   3.100 -0.2006 -0.3300 -0.0354
 6488SOL    HW131100   4.568   4.206   3.195 -1.5127 -1.6699  0.1686
 6488SOL    HW231101   4.614   4.270   3.069 -0.8213  0.9438  2.1366
 6489SOL     OW31102   1.290   0.570   9.399  0.4562 -0.1545 -0.2038
 6489SOL    HW131103   1.382   0.552   9.378  0.6548 -0.6109  1.0022
 6489SOL    HW231104   1.289   0.528   9.486 -1.2922  3.0321  1.3281
 6490SOL     OW31105   3.789   4.461   6.870 -0.0125  0.4679  0.1111
 6490SOL    HW131106   3.864   4.423   6.916  0.4533  1.1879 -0.0501
 6490SOL    HW231107   3.801   4.556   6.874  0.5744  0.5031 -2.2525
 6491SOL     OW31108   1.925   3.329  15.052  0.0746  0.1599 -0.7530
 6491SOL    HW131109   1.977   3.249  15.056 -1.5666 -0.9050 -0.7141
 6491SOL    HW231110   1.861   3.307  14.984 -2.1746 -2.6491  2.2942
 6492SOL     OW31111   1.139   1.708   3.288 -0.1100  0.2841  0.9976
 6492SOL    HW131112   1.177   1.715   3.201 -0.3283  0.3042  0.9037
 6492SOL    HW231113   1.055   1.751   3.274 -0.3478 -0.9088 -1.2544
 6493SOL     OW31114   4.632   3.381  16.519 -0.0311 -0.3082 -0.1693
 6493SOL    HW131115   4.713   3.351  16.561  1.3605  0.1519 -2.5189
 6493SOL    HW231116   4.581   3.301  16.510 -1.3716  0.2341  2.6349
 6494SOL     OW31117   4.424   3.384  12.660 -0.1377  0.0752 -0.1904
 6494SOL    HW131118   4.451   3.304  12.705  0.9417 -0.3847 -1.6628
 6494SOL    HW231119   4.478   3.390  12.581  1.6093 -2.6337  0.8250
 6495SOL     OW31120   3.119   2.230   0.453  0.3317  0.3420  0.6154
 6495SOL    HW131121   3.065   2.299   0.493 -0.3409  0.3415 -0.3105
 6495SOL    HW231122   3.187   2.292   0.426 -0.5546  0.4711 -1.2962
 6496SOL     OW31123   2.006   3.422  17.219  0.4662 -0.1257 -0.1812
 6496SOL    HW131124   1.943   3.350  17.223  1.2910 -0.7823  1.0992
 6496SOL    HW231125   1.992   3.465  17.135  2.2899  1.0736  0.1478
 6497SOL     OW31126   3.394   0.948   5.268 -0.0826 -0.3106 -0.3123
 6497SOL    HW131127   3.432   0.944   5.355 -2.2837 -3.1061  0.5216
 6497SOL    HW231128   3.462   0.904   5.217 -0.5138  1.1523 -2.1652
 6498SOL     OW31129   1.475   0.218   3.294 -0.8616 -0.2004  0.7619
 6498SOL    HW131130   1.561   0.256   3.312  0.1615 -1.3694 -1.7376
 6498SOL    HW231131   1.437   0.272   3.364 -1.2323  0.1917  0.2558
 6499SOL     OW31132   4.404   3.647   8.896  0.2848 -0.3306  0.1190
 6499SOL    HW131133   4.433   3.734   8.866 -0.6479  0.6011  1.9275
 6499SOL    HW231134   4.321   3.646   8.849  0.5683 -2.8864 -0.2929
 6500SOL     OW31135   1.949   0.970   7.607 -0.4577  0.3412 -0.0615
 6500SOL    HW131136   2.012   1.031   7.647  0.3391 -0.1077 -0.6455
 6500SOL    HW231137   1.952   0.915   7.685 -0.3899  0.6670  0.1683
 6501SOL     OW31138   0.598   0.197  11.592 -0.1315  0.5366 -0.3292
 6501SOL    HW131139   0.674   0.220  11.538  0.2190 -4.2605 -1.8850
 6501SOL    HW231140   0.628   0.114  11.630 -0.3341 -0.6678 -2.7827
 6502SOL     OW31141   0.378   1.367  16.453  0.4979  0.2499 -0.7401
 6502SOL    HW131142   0.441   1.365  16.525 -1.1055  0.6693  0.6551
 6502SOL    HW231143   0.433   1.331  16.383  0.2562 -0.9897 -0.2961
 6503SOL     OW31144   3.628   0.869   4.245 -0.4918 -0.3713 -0.1642
 6503SOL    HW131145   3.547   0.918   4.259 -1.0552 -1.0705 -0.9870
 6503SOL    HW231146   3.679   0.914   4.178 -0.7710 -1.9977 -1.4648
 6504SOL     OW31147   4.657   1.945   0.627 -0.0222  0.3937  0.2492
 6504SOL    HW131148   4.608   1.913   0.552 -1.8099  1.0166  1.1539
 6504SOL    HW231149   4.586   1.986   0.675  0.5879  2.8049 -0.9202
 6505SOL     OW31150   2.254   1.639  17.332  0.8135  0.1366  0.6684
 6505SOL    HW131151   2.231   1.553  17.366 -2.6057  1.2678  1.2540
 6505SOL    HW231152   2.197   1.685  17.394  3.2029  1.0391  2.1762
 6506SOL     OW31153   1.118   1.293   1.321 -0.0696  0.5153  0.1466
 6506SOL    HW131154   1.069   1.259   1.247 -0.2622  0.2802  0.3826
 6506SOL    HW231155   1.195   1.327   1.275 -0.1278  0.3232 -0.0921
 6507SOL     OW31156   3.976   1.070  17.055  0.2377 -0.2840 -0.3195
 6507SOL    HW131157   4.051   1.119  17.089 -1.1636  1.9541 -0.4871
 6507SOL    HW231158   4.014   1.017  16.985  0.1924  0.7619 -1.1275
 6508SOL     OW31159   2.486   3.615  14.822  0.3381  0.1182  0.3752
 6508SOL    HW131160   2.468   3.562  14.744 -0.1905  0.1822  0.4548
 6508SOL    HW231161   2.567   3.576  14.855  1.3182  0.8045 -1.2066
 6509SOL     OW31162   2.843   1.468   4.571 -0.5727  0.5399  0.3751
 6509SOL    HW131163   2.772   1.462   4.636  2.3430  0.6186  3.5570
 6509SOL    HW231164   2.786   1.481   4.495 -0.1529 -0.3956 -0.0931
 6510SOL     OW31165   1.490   3.477   5.340  0.3992 -0.0212 -0.2453
 6510SOL    HW131166   1.496   3.431   5.256 -1.1391  0.8467 -0.8461
 6510SOL    HW231167   1.426   3.544   5.314 -0.6450 -0.5235  1.0734
 6511SOL     OW31168   1.155   1.249  12.139  0.6267  0.1140  0.5835
 6511SOL    HW131169   1.118   1.173  12.183 -0.3797 -0.0932 -0.6063
 6511SOL    HW231170   1.112   1.236  12.054 -0.3062 -0.9151  1.2135
 6512SOL     OW31171   4.369   2.558  13.050  0.1027  0.6888 -0.4418
 6512SOL    HW131172   4.362   2.517  12.964 -1.1205  0.5299 -0.2726
 6512SOL    HW231173   4.289   2.610  13.047  0.6796  1.5197 -1.1032
 6513SOL     OW31174   1.684   0.203   1.955  0.0769 -0.0067 -0.4481
 6513SOL    HW131175   1.711   0.228   2.043  0.0006 -1.1848 -0.0942
 6513SOL    HW231176   1.596   0.239   1.950  0.0689  0.0965  0.4226
 6514SOL     OW31177   1.066   0.908   3.837 -0.2842 -0.3368 -0.5644
 6514SOL    HW131178   1.039   0.999   3.847 -1.5840 -1.0417  2.2539
 6514SOL    HW231179   1.112   0.919   3.754 -1.3898  2.0994 -0.8654
 6515SOL     OW31180   3.663   2.303   2.686 -0.4704 -0.3878  0.1923
 6515SOL    HW131181   3.589   2.243   2.675  1.0287 -1.5184 -3.9405
 6515SOL    HW231182   3.708   2.282   2.604 -1.6103 -2.0120 -0.0130
 6516SOL     OW31183   3.101   3.448  17.645 -0.2899 -0.6683 -0.1188
 6516SOL    HW131184   3.097   3.356  17.619  1.3305 -0.7255 -0.1850
 6516SOL    HW231185   3.168   3.436  17.713  0.5427 -2.0996 -1.2031
 6517SOL     OW31186   1.398   4.251   3.409  0.1371 -0.2381 -0.1497
 6517SOL    HW131187   1.437   4.248   3.321 -1.3002  0.1555 -0.8137
 6517SOL    HW231188   1.469   4.238   3.471  2.7369  0.6322 -2.9159
 6518SOL     OW31189   1.888   1.351   5.715 -0.7510  0.5268  0.5668
 6518SOL    HW131190   1.806   1.360   5.763  0.4234  0.1735  2.6697
 6518SOL    HW231191   1.860   1.378   5.628  1.2945  1.7974  0.3149
 6519SOL     OW31192   3.663   4.294   1.934 -0.2529  0.1357 -0.1988
 6519SOL    HW131193   3.653   4.388   1.953  2.8183  0.4007  0.0912
 6519SOL    HW231194   3.608   4.250   1.999  0.2720  1.0177  0.8487
 6520SOL     OW31195   0.016   2.388   6.862  0.3175 -0.0012 -0.1323
 6520SOL    HW131196   4.683   2.455   6.865  0.7047  0.3885  0.1014
 6520SOL    HW231197   0.027   2.386   6.767  0.5680 -0.9103 -0.0770
 6521SOL     OW31198   0.988   1.114   9.267  0.0628 -0.5491 -0.6167
 6521SOL    HW131199   0.933   1.188   9.293 -0.0196 -1.2485  1.2142
 6521SOL    HW231200   0.922   1.048   9.248  0.1931 -1.2428  1.3776
 6522SOL     OW31201   2.314   0.885  13.609 -0.0949 -0.0075 -0.3234
 6522SOL    HW131202   2.330   0.917  13.698  0.0669  0.3768 -0.4899
 6522SOL    HW231203   2.255   0.957  13.587 -1.7624 -0.4482  2.6876
 6523SOL     OW31204   4.089   1.434   8.644 -0.0356 -0.6367  0.2318
 6523SOL    HW131205   4.046   1.350   8.658 -0.8391 -0.3569 -0.5584
 6523SOL    HW231206   4.013   1.488   8.622 -0.4272 -1.9529 -1.6746
 6524SOL     OW31207   0.631   3.485   7.579  0.3609 -0.4849 -0.1647
 6524SOL    HW131208   0.597   3.517   7.663  1.1229 -1.8102  0.6511
 6524SOL    HW231209   0.720   3.464   7.608  1.0315 -1.0229 -2.6065
 6525SOL     OW31210   3.416   1.763   7.103  0.5929  0.4131 -0.3659
 6525SOL    HW131211   3.509   1.739   7.105  0.6438  0.8153  2.4246
 6525SOL    HW231212   3.424   1.856   7.124 -3.3800  0.6856 -0.1469
 6526SOL     OW31213   2.479   2.223   6.838 -0.2180 -0.2033  0.3892
 6526SOL    HW131214   2.456   2.313   6.861 -2.9440 -0.5783 -0.9022
 6526SOL    HW231215   2.535   2.205   6.914  1.8774 -0.4271 -1.2157
 6527SOL     OW31216   0.303   3.710  12.868 -0.2532  0.6067  0.4307
 6527SOL    HW131217   0.315   3.675  12.956  1.2823 -2.0867 -0.8543
 6527SOL    HW231218   0.250   3.639  12.832 -2.1928  1.6083  1.3095
 6528SOL     OW31219   4.143   4.440   2.949 -0.1537  0.0251  0.0742
 6528SOL    HW131220   4.151   4.348   2.923  0.6905  0.0922  0.1030
 6528SOL    HW231221   4.220   4.481   2.911  1.5305  0.1929  3.7239
 6529SOL     OW31222   4.385   1.211   2.650 -0.3380  0.1988 -0.0029
 6529SOL    HW131223   4.472   1.178   2.626  0.2733  2.9840 -1.6718
 6529SOL    HW231224   4.359   1.154   2.722  1.0770  0.5428  0.7808
 6530SOL     OW31225   0.022   0.686   2.779  0.5906 -0.1138 -0.5547
 6530SOL    HW131226   0.061   0.629   2.712 -1.8127 -1.5626 -0.6930
 6530SOL    HW231227   0.087   0.673   2.848  0.3555  2.2543  0.0924
 6531SOL     OW31228   0.155   3.953   7.526  0.5380 -0.1975 -0.4234
 6531SOL    HW131229   0.090   4.017   7.497  0.7787  0.5371  0.6303
 6531SOL    HW231230   0.107   3.887   7.575  0.4489  0.3365  0.2126
 6532SOL     OW31231   0.232   1.573   6.096 -0.4153  0.2384 -0.3621
 6532SOL    HW131232   0.147   1.542   6.065  0.1690  0.6334 -2.3232
 6532SOL    HW231233   0.208   1.585   6.188 -0.1254  0.3902 -0.3068
 6533SOL     OW31234   1.891   0.501   8.408 -0.0036  0.2764  0.0963
 6533SOL    HW131235   1.835   0.451   8.348 -2.1155 -0.0608  2.3446
 6533SOL    HW231236   1.827   0.529   8.474 -1.7946 -1.0046 -1.0844
 6534SOL     OW31237   1.325   1.979  13.628 -0.3141  0.6890 -0.3845
 6534SOL    HW131238   1.404   2.025  13.601  1.4287 -1.1034  1.6346
 6534SOL    HW231239   1.352   1.945  13.713  1.0325 -0.6271 -1.3432
 6535SOL     OW31240   4.099   2.496   3.283 -0.1337 -0.2360  0.1016
 6535SOL    HW131241   4.003   2.500   3.281 -0.1382  0.1861  1.8663
 6535SOL    HW231242   4.113   2.461   3.371 -2.0352 -2.8396 -0.6234
 6536SOL     OW31243   1.666   1.178   1.751 -0.3199  0.1764 -0.4087
 6536SOL    HW131244   1.701   1.241   1.687 -0.2683  1.1161  0.5458
 6536SOL    HW231245   1.747   1.162   1.800  0.2218  2.9268 -0.4115
 6537SOL     OW31246   0.641   1.152   5.225  0.4715 -0.1769  0.4346
 6537SOL    HW131247   0.682   1.185   5.305  0.3402  1.4434 -0.1653
 6537SOL    HW231248   0.569   1.098   5.256  1.6521 -0.7172  2.2113
 6538SOL     OW31249   3.782   0.518   3.731 -0.5016 -0.5094 -0.2944
 6538SOL    HW131250   3.687   0.522   3.730 -0.4911  0.8032  3.0225
 6538SOL    HW231251   3.796   0.442   3.674 -1.4328  0.1490 -1.3942
 6539SOL     OW31252   0.337   0.405   4.644  0.1275  0.2510 -0.2451
 6539SOL    HW131253   0.417   0.425   4.596  0.1590 -1.0597 -0.7561
 6539SOL    HW231254   0.293   0.487   4.664 -0.9053 -0.9253  2.2312
 6540SOL     OW31255   0.962   1.620   6.815 -0.5013  0.4006 -0.2833
 6540SOL    HW131256   0.926   1.599   6.901  3.0452 -0.0789  1.0777
 6540SOL    HW231257   0.947   1.537   6.769 -0.4320  1.0891 -1.5498
 6541SOL     OW31258   3.606   3.486  17.318 -0.4732  0.3086 -0.2255
 6541SOL    HW131259   3.635   3.574  17.344 -1.9582  0.2989  1.4596
 6541SOL    HW231260   3.546   3.465  17.389 -0.7112 -0.8041 -0.7649
 6542SOL     OW31261   3.979   3.871   4.444  0.3429  0.2145  0.3103
 6542SOL    HW131262   3.912   3.930   4.410  1.2735  0.4440 -1.1286
 6542SOL    HW231263   3.984   3.805   4.374 -1.6575  0.6378 -0.2387
 6543SOL     OW31264   0.759   3.231  17.128  0.1002 -0.2398 -0.9808
 6543SOL    HW131265   0.747   3.167  17.198 -2.4803 -0.2852 -1.4393
 6543SOL    HW231266   0.836   3.278  17.160 -0.9878  0.6208  0.3950
 6544SOL     OW31267   2.589   3.066   7.743 -0.2034  0.4422  0.0773
 6544SOL    HW131268   2.577   3.113   7.825 -0.0846 -1.4987  1.2068
 6544SOL    HW231269   2.586   2.980   7.785  1.8364  0.9442  1.2529
 6545SOL     OW31270   3.171   1.680  11.085  0.4114  0.0568  0.2013
 6545SOL    HW131271   3.099   1.663  11.025 -0.5372  1.0477  1.0637
 6545SOL    HW231272   3.181   1.774  11.077  0.2786  0.4089  3.9470
 6546SOL     OW31273   1.865   1.301   2.032  0.3576 -0.4068 -0.2859
 6546SOL    HW131274   1.802   1.365   2.063  0.4889  0.2510 -1.3767
 6546SOL    HW231275   1.927   1.359   1.988  1.5876 -2.6702 -1.5347
 6547SOL     OW31276   2.644   1.204   5.594  0.5517 -0.0778  0.1286
 6547SOL    HW131277   2.586   1.236   5.524  0.4832 -2.3310 -0.8349
 6547SOL    HW231278   2.686   1.284   5.626 -1.2225 -0.0723  2.5073
 6548SOL     OW31279   0.766   1.400   7.419 -0.5385  0.0352  0.6838
 6548SOL    HW131280   0.695   1.417   7.356 -1.6826 -1.2096  1.6337
 6548SOL    HW231281   0.738   1.313   7.445  0.9735 -0.5414  0.3509
 6549SOL     OW31282   0.600   3.104   6.522  0.2672 -0.0522  0.6075
 6549SOL    HW131283   0.576   3.061   6.604 -2.4537 -3.1762 -1.8177
 6549SOL    HW231284   0.591   3.197   6.544 -2.0868 -0.0947 -0.1021
 6550SOL     OW31285   0.092   4.619  14.622 -0.0542  0.2703  0.8195
 6550SOL    HW131286   0.130   4.698  14.661  1.2939  0.4776 -0.8859
 6550SOL    HW231287   0.168   4.562  14.610  1.0774  2.3209 -1.8461
 6551SOL     OW31288   1.177   0.822   5.632 -0.3088  0.3540 -1.0080
 6551SOL    HW131289   1.152   0.767   5.558  0.1060  1.3163 -1.8499
 6551SOL    HW231290   1.259   0.777   5.651 -0.9236 -1.1103 -1.7506
 6552SOL     OW31291   3.328   3.238   4.933 -0.0326 -0.4927 -0.3822
 6552SOL    HW131292   3.336   3.170   4.866  1.8836 -1.1282  0.4925
 6552SOL    HW231293   3.390   3.198   4.995  1.7099  0.6152 -1.4194
 6553SOL     OW31294   3.690   3.023   3.098  0.4858  0.7106  0.7385
 6553SOL    HW131295   3.624   2.956   3.083  0.1125  1.0234  0.9666
 6553SOL    HW231296   3.643   3.088   3.152  0.5643  1.0364  0.4154
 6554SOL     OW31297   0.570   1.988  14.705 -0.6986 -0.1916 -0.1242
 6554SOL    HW131298   0.604   2.045  14.636  1.1379 -0.2268  0.7367
 6554SOL    HW231299   0.599   1.905  14.668  0.7538 -0.8336  2.4562
 6555SOL     OW31300   2.761   4.101   6.251  0.6957  0.0080 -0.0712
 6555SOL    HW131301   2.719   4.031   6.200  3.0640  1.4375 -3.9999
 6555SOL    HW231302   2.759   4.064   6.339 -1.6676 -3.8629 -1.7215
 6556SOL     OW31303   0.141   1.287  15.405 -0.2034 -0.0089 -0.2855
 6556SOL    HW131304   0.191   1.315  15.328 -0.9427 -1.5361 -1.3067
 6556SOL    HW231305   0.189   1.342  15.468 -1.2327  1.2976 -0.6427
 6557SOL     OW31306   3.763   1.408   1.789 -0.3422 -0.1162  0.1541
 6557SOL    HW131307   3.709   1.487   1.797 -1.3202 -0.7551 -0.1343
 6557SOL    HW231308   3.708   1.354   1.845  0.4669  0.1849  1.2419
 6558SOL     OW31309   0.224   4.001   0.719 -0.4474 -0.2826 -0.3159
 6558SOL    HW131310   0.173   4.023   0.641 -0.1286  0.7674 -0.2318
 6558SOL    HW231311   0.248   3.914   0.689 -1.0625  0.0101 -1.6771
 6559SOL     OW31312   4.049   2.705  10.396 -0.1273 -0.2376 -0.4444
 6559SOL    HW131313   4.114   2.637  10.414 -0.2231 -0.0037  0.7323
 6559SOL    HW231314   3.995   2.701  10.475  0.4274  2.3395  0.0734
 6560SOL     OW31315   1.967   1.621   3.373  0.2092 -0.0889  0.8340
 6560SOL    HW131316   1.934   1.558   3.438 -0.8949  1.6414  1.9597
 6560SOL    HW231317   1.910   1.599   3.300  0.6117  1.5516  0.0410
 6561SOL     OW31318   0.395   1.852   4.456  0.1288  0.3154 -0.1363
 6561SOL    HW131319   0.432   1.939   4.451  1.0412 -0.1320 -1.1292
 6561SOL    HW231320   0.452   1.800   4.400 -0.1099  0.3636 -0.4221
 6562SOL     OW31321   1.147   1.044   9.037 -0.4454 -0.1435 -0.2186
 6562SOL    HW131322   1.236   1.066   9.064 -1.9820  1.7890  3.2273
 6562SOL    HW231323   1.097   1.093   9.102 -0.4492 -1.3405  0.6867
 6563SOL     OW31324   0.782   2.783   6.124  0.3425  0.2182 -0.7719
 6563SOL    HW131325   0.760   2.872   6.096 -0.6269 -0.5593 -2.4897
 6563SOL    HW231326   0.731   2.789   6.204  0.4492 -2.1583 -0.5232
 6564SOL     OW31327   1.495   0.389   6.663 -0.1554 -0.1437 -0.0831
 6564SOL    HW131328   1.527   0.404   6.752  0.2876 -1.4091 -0.0421
 6564SOL    HW231329   1.460   0.303   6.684  0.1062  0.0792  1.3016
 6565SOL     OW31330   0.828   3.154   6.760 -0.3379 -0.6204 -0.4853
 6565SOL    HW131331   0.834   3.204   6.679 -0.1730 -2.3810 -1.5496
 6565SOL    HW231332   0.905   3.184   6.809 -1.3282  1.7710 -0.3962
 6566SOL     OW31333   0.819   2.284   7.811  0.0428 -0.0270 -0.0554
 6566SOL    HW131334   0.831   2.375   7.786  2.7523 -0.0508  1.1373
 6566SOL    HW231335   0.783   2.296   7.899 -0.9138 -0.6002 -0.3627
 6567SOL     OW31336   0.937   0.319   7.684  0.3590  0.5119 -0.3198
 6567SOL    HW131337   1.007   0.316   7.749  0.1122  0.3779 -0.0609
 6567SOL    HW231338   0.858   0.337   7.734  0.8089  1.3826  0.0902
 6568SOL     OW31339   3.972   4.734   5.308 -0.0343 -0.2001 -0.3476
 6568SOL    HW131340   4.018   4.706   5.387  0.6613  1.4817 -0.1459
 6568SOL    HW231341   3.965   0.092   5.326  0.1805 -0.3270  0.4001
 6569SOL     OW31342   3.406   1.719  13.204  0.0982  0.0114 -0.3455
 6569SOL    HW131343   3.473   1.772  13.161  1.3483 -2.1881 -1.0712
 6569SOL    HW231344   3.456   1.671  13.271  0.5449 -0.5673 -1.1027
 6570SOL     OW31345   4.449   4.200   6.289 -0.4795 -0.4148  0.4420
 6570SOL    HW131346   4.372   4.236   6.245 -1.2061  0.1462  2.1776
 6570SOL    HW231347   4.447   4.241   6.376  1.9672  0.0808  0.2688
 6571SOL     OW31348   3.593   3.882  13.911 -0.1800  0.2853  0.3826
 6571SOL    HW131349   3.567   3.949  13.973 -1.4479 -0.9670  1.2187
 6571SOL    HW231350   3.517   3.895  13.853 -1.1200 -1.1718  1.2782
 6572SOL     OW31351   2.537   1.668  17.188 -0.3451 -0.7135  0.0813
 6572SOL    HW131352   2.542   1.643  17.096  0.4152 -1.9032  0.4411
 6572SOL    HW231353   2.476   1.742  17.183  1.7736  0.9670 -0.5724
 6573SOL     OW31354   1.818   4.325   4.280 -0.0618  0.2821  0.0091
 6573SOL    HW131355   1.728   4.297   4.298  1.0455 -2.6919  0.9516
 6573SOL    HW231356   1.818   4.412   4.320 -0.7259  0.1316  0.3387
 6574SOL     OW31357   4.016   2.938   6.611  0.2152  0.2012  0.3763
 6574SOL    HW131358   4.008   2.869   6.677 -0.5840  1.5939  1.7532
 6574SOL    HW231359   3.956   3.003   6.649 -0.3242 -0.5707  0.8446
 6575SOL     OW31360   0.525   1.871   9.099 -0.5519  0.0063  0.0178
 6575SOL    HW131361   0.565   1.804   9.042 -1.1686 -1.9215  1.8354
 6575SOL    HW231362   0.444   1.891   9.053 -1.4778 -1.5220  0.9870
 6576SOL     OW31363   3.335   1.605   3.797 -0.6414  0.6923 -0.9124
 6576SOL    HW131364   3.409   1.575   3.745 -0.7313  1.7407 -1.6629
 6576SOL    HW231365   3.370   1.627   3.884 -0.6732 -0.0657 -0.7106
 6577SOL     OW31366   1.811   1.729  17.425 -0.4555  0.4611  0.3321
 6577SOL    HW131367   1.780   1.703  17.512 -0.3740  0.2521  0.2990
 6577SOL    HW231368   1.745   1.793  17.401 -0.0783  0.7735  0.1384
 6578SOL     OW31369   2.919   0.911   9.768  0.1980  0.8282  0.2137
 6578SOL    HW131370   3.013   0.907   9.781  0.6338  0.6721 -3.0287
 6578SOL    HW231371   2.907   0.915   9.673 -2.3124  1.4954  0.5543
 6579SOL     OW31372   1.037   0.852   7.558 -0.0812 -0.2968 -0.0103
 6579SOL    HW131373   0.971   0.793   7.593 -0.9463 -0.0323 -1.1846
 6579SOL    HW231374   0.986   0.933   7.554  2.9786  1.7935  3.0726
 6580SOL     OW31375   1.749   0.318   8.233  0.5179  0.3590 -0.1563
 6580SOL    HW131376   1.701   0.241   8.201  0.5822  0.4943 -0.5854
 6580SOL    HW231377   1.763   0.355   8.145  0.9817  0.1273 -0.1769
 6581SOL     OW31378   2.470   3.474  14.582  0.2240  0.0845  0.4025
 6581SOL    HW131379   2.556   3.481  14.541  0.0180 -2.3761 -0.4846
 6581SOL    HW231380   2.447   3.391  14.540 -1.9792  1.0651 -0.3461
 6582SOL     OW31381   1.778   2.033   5.122 -0.7955  0.1440  0.1260
 6582SOL    HW131382   1.696   2.015   5.168 -0.3986  3.6657  2.1757
 6582SOL    HW231383   1.809   1.949   5.087 -1.1581 -0.7267  1.8954
 6583SOL     OW31384   4.429   2.332  12.035 -0.1498 -0.1131 -0.5560
 6583SOL    HW131385   4.384   2.248  12.046  1.1452 -0.7922 -0.4461
 6583SOL    HW231386   4.454   2.334  11.942 -0.3760  0.8802 -0.5915
 6584SOL     OW31387   2.041   1.013   8.577  0.2025 -0.5107  0.0972
 6584SOL    HW131388   2.015   1.085   8.635 -0.5027  0.9100 -1.9924
 6584SOL    HW231389   2.050   1.072   8.502  2.4363  0.2732  0.9859
 6585SOL     OW31390   3.055   4.083  17.473  0.4877  0.8489  0.1295
 6585SOL    HW131391   3.018   4.113  17.390  1.4765  0.2847 -0.5099
 6585SOL    HW231392   3.128   4.143  17.488  0.6139  0.6543  0.3001
 6586SOL     OW31393   0.902   3.777   5.960 -0.1489  0.2560 -0.4666
 6586SOL    HW131394   0.857   3.858   5.986  1.1970  0.8424  0.0833
 6586SOL    HW231395   0.907   3.739   6.048  0.0738 -1.3472 -1.1762
 6587SOL     OW31396   1.192   3.624   3.426  0.2301  0.0292 -0.2803
 6587SOL    HW131397   1.101   3.654   3.435 -0.5555 -2.6257  0.7834
 6587SOL    HW231398   1.218   3.602   3.337  1.1652  1.2446 -0.2991
 6588SOL     OW31399   0.444   0.950   0.344  0.0554  0.6435  0.3369
 6588SOL    HW131400   0.382   1.022   0.331 -1.1215 -1.0316 -3.2551
 6588SOL    HW231401   0.438   0.890   0.269  0.1501  0.0530  0.7990
 6589SOL     OW31402   0.371   0.823   5.883  0.4221  0.3115 -0.1503
 6589SOL    HW131403   0.440   0.881   5.915  1.4650 -1.5460  0.9767
 6589SOL    HW231404   0.292   0.876   5.892  0.1710  0.0402 -0.7783
 6590SOL     OW31405   2.556   3.521   0.529 -0.1981 -0.4972 -0.2446
 6590SOL    HW131406   2.637   3.507   0.480 -1.1624 -2.9068 -1.1300
 6590SOL    HW231407   2.491   3.481   0.471 -0.4290  0.2372 -0.4891
 6591SOL     OW31408   2.222   0.923   1.706 -0.2627 -0.7310 -0.5768
 6591SOL    HW131409   2.219   0.975   1.626 -0.9670 -1.5256 -1.0658
 6591SOL    HW231410   2.176   0.848   1.668  0.4234 -0.5078 -1.8409
 6592SOL     OW31411   2.059   2.612   9.439  0.7118  0.0585 -0.3255
 6592SOL    HW131412   1.967   2.617   9.412  0.1394  1.4278  1.8332
 6592SOL    HW231413   2.048   2.634   9.532  0.1764  0.0403 -0.3817
 6593SOL     OW31414   2.366   1.587   2.486 -0.3645  0.2129  0.5431
 6593SOL    HW131415   2.369   1.683   2.489 -0.8596  0.2960 -1.9368
 6593SOL    HW231416   2.403   1.576   2.574  0.5619  1.3148  0.2929
 6594SOL     OW31417   3.998   0.128   5.700 -0.5687  0.3953 -0.6005
 6594SOL    HW131418   4.016   0.204   5.645  0.8416  0.2714 -0.2942
 6594SOL    HW231419   4.082   0.086   5.718  0.7329  2.9988 -0.5895
 6595SOL     OW31420   4.699   0.238  16.820  0.2959 -0.3497 -0.1196
 6595SOL    HW131421   4.698   0.334  16.815 -0.4218 -0.2910  1.3991
 6595SOL    HW231422   4.620   0.237  16.873  0.6923  1.9076  0.5083
 6596SOL     OW31423   3.024   0.131   7.547  0.3185 -0.7505 -0.2301
 6596SOL    HW131424   3.094   0.196   7.540  0.6259 -1.0546  0.0094
 6596SOL    HW231425   2.972   0.166   7.619  1.0685 -2.0546  0.9477
 6597SOL     OW31426   1.106   2.872  11.196  0.2197 -0.2697 -0.3685
 6597SOL    HW131427   1.192   2.900  11.225 -0.2113 -1.0072  1.5901
 6597SOL    HW231428   1.058   2.889  11.277  1.4576 -1.7096  0.6498
 6598SOL     OW31429   2.911   0.147   2.856 -0.3790 -0.7712 -0.5854
 6598SOL    HW131430   2.863   0.212   2.805  0.6966  0.2922 -0.2374
 6598SOL    HW231431   2.937   0.195   2.935  2.0565 -2.1726 -0.5560
 6599SOL     OW31432   4.554   1.709   1.814  0.7369 -0.1978 -0.6962
 6599SOL    HW131433   4.603   1.781   1.854 -0.9123  0.8067 -0.4532
 6599SOL    HW231434   4.595   1.711   1.727  0.2762 -1.5677 -0.9343
 6600SOL     OW31435   4.515   3.920   6.284 -0.0523 -0.0111  0.3239
 6600SOL    HW131436   4.442   3.876   6.328  0.9418 -0.8528  1.1382
 6600SOL    HW231437   4.495   4.010   6.308 -1.3415  0.8146 -3.8396
 6601SOL     OW31438   2.122   3.442   8.000 -0.0661  0.0256  0.6762
 6601SOL    HW131439   2.203   3.391   7.992 -0.4657 -0.5416  0.3090
 6601SOL    HW231440   2.090   3.411   8.085 -0.4965 -1.1850  0.0685
 6602SOL     OW31441   4.367   2.867   4.458  0.1226 -0.1843 -0.1534
 6602SOL    HW131442   4.333   2.810   4.528  0.0911 -0.4218 -0.3638
 6602SOL    HW231443   4.343   2.822   4.378  2.0962  2.4880 -2.2499
 6603SOL     OW31444   1.473   1.794   4.906 -0.2848  0.4023  0.7826
 6603SOL    HW131445   1.477   1.790   4.810  3.0055  0.1573  0.9408
 6603SOL    HW231446   1.527   1.719   4.930 -1.8943 -1.7213 -2.1509
 6604SOL     OW31447   2.389   3.362   9.286 -0.2769 -0.3379  0.2492
 6604SOL    HW131448   2.359   3.322   9.367  1.2882  1.7833  1.8538
 6604SOL    HW231449   2.307   3.369   9.236  0.2859 -0.2394 -0.6575
 6605SOL     OW31450   0.189   3.203  14.075  0.1495  0.4548 -0.2708
 6605SOL    HW131451   0.150   3.149  14.007 -1.7495 -0.2867  1.3988
 6605SOL    HW231452   0.223   3.269  14.015  2.1068  1.0769  1.5153
 6606SOL     OW31453   2.723   4.583   3.011 -0.5828 -1.1316  0.3955
 6606SOL    HW131454   2.737   4.574   3.105  0.2777  0.7402  0.4579
 6606SOL    HW231455   2.639   4.539   3.000 -0.9138 -1.4326  4.2421
 6607SOL     OW31456   1.415   1.496   3.414  0.2477  0.7160  0.2086
 6607SOL    HW131457   1.385   1.452   3.334 -0.9575  0.4516  0.7958
 6607SOL    HW231458   1.479   1.433   3.448 -0.0705  0.4336  0.2873
 6608SOL     OW31459   4.330   1.639   5.709 -0.2101  0.7436  0.2881
 6608SOL    HW131460   4.349   1.645   5.616 -5.5197  0.3536 -0.7906
 6608SOL    HW231461   4.260   1.574   5.707  1.1182 -0.7266  1.1953
 6609SOL     OW31462   4.243   0.822   8.337  0.3663  0.1288  0.5133
 6609SOL    HW131463   4.299   0.859   8.405  0.1633  0.5164  0.4667
 6609SOL    HW231464   4.199   0.750   8.382 -0.4967  0.3705  0.0407
 6610SOL     OW31465   1.663   3.693   2.380 -0.0089  0.1060  0.3246
 6610SOL    HW131466   1.600   3.761   2.403  0.3420  1.0686 -1.5595
 6610SOL    HW231467   1.607   3.615   2.386 -1.3384  1.2082  1.9145
 6611SOL     OW31468   4.095   0.508   8.255  0.1611 -0.3198  0.0807
 6611SOL    HW131469   4.053   0.591   8.233 -1.1864 -1.0755 -0.2069
 6611SOL    HW231470   4.116   0.535   8.345  1.6291  2.1369 -1.0137
 6612SOL     OW31471   2.978   3.898   7.167  0.1414  0.4440 -0.9525
 6612SOL    HW131472   2.904   3.889   7.105  0.0268 -1.1991 -0.5646
 6612SOL    HW231473   2.953   3.988   7.188  1.3464  0.1087  1.8584
 6613SOL     OW31474   1.219   0.849   7.109  0.2063 -0.1387  0.2888
 6613SOL    HW131475   1.294   0.800   7.075 -1.0657 -1.0919 -1.1482
 6613SOL    HW231476   1.212   0.809   7.196 -0.6513 -1.7945 -0.5217
 6614SOL     OW31477   1.089   4.442  11.144 -0.3197 -0.4140 -1.1057
 6614SOL    HW131478   1.103   4.372  11.208 -2.7181 -0.4143 -0.6142
 6614SOL    HW231479   1.170   4.493  11.155 -0.8667  0.3104 -0.4302
 6615SOL     OW31480   3.695   3.227   2.107  0.0962  0.5195  0.3040
 6615SOL    HW131481   3.711   3.263   2.020 -1.4540  0.8332  0.1598
 6615SOL    HW231482   3.783   3.230   2.145  0.7976 -0.4176 -1.2305
 6616SOL     OW31483   2.119   1.123  10.532 -0.7045  0.1024 -0.6127
 6616SOL    HW131484   2.198   1.169  10.559 -0.0017 -0.2238 -2.0815
 6616SOL    HW231485   2.147   1.079  10.451  0.2205 -1.0870  0.3715
 6617SOL     OW31486   4.048   2.611   4.942  0.3546  0.5249 -0.0876
 6617SOL    HW131487   4.100   2.536   4.967 -0.0631  0.5317  0.8081
 6617SOL    HW231488   4.100   2.684   4.977  0.1028  0.3572  0.6414
 6618SOL     OW31489   0.705   0.925   8.559 -0.2072 -0.2347  0.2307
 6618SOL    HW131490   0.723   0.874   8.480  1.9420  0.0597  0.5134
 6618SOL    HW231491   0.670   1.009   8.530 -0.0688 -0.6882 -1.2468
 6619SOL     OW31492   4.408   3.964   3.040 -0.2309  0.5419 -0.1303
 6619SOL    HW131493   4.322   3.988   3.074 -0.5090 -1.8572  0.8176
 6619SOL    HW231494   4.464   4.038   3.065  1.9296 -1.1760  0.1334
 6620SOL     OW31495   1.650   1.116  16.108  0.2599  0.5224  0.5776
 6620SOL    HW131496   1.629   1.032  16.068  0.7063 -0.1246  1.6965
 6620SOL    HW231497   1.744   1.102  16.118  0.2955 -0.2857 -1.0212
 6621SOL     OW31498   0.790   4.702  12.803 -0.0612 -0.2254  0.8125
 6621SOL    HW131499   0.735   4.698  12.881 -0.9577 -1.3569  0.1166
 6621SOL    HW231500   0.851   4.631  12.825  2.1260  0.9234 -1.5572
 6622SOL     OW31501   4.398   0.565   6.012 -0.4225  0.4265  0.4384
 6622SOL    HW131502   4.368   0.593   6.099  0.2991 -0.1079  0.8513
 6622SOL    HW231503   4.493   0.554   6.014 -0.7795 -2.2568  1.5058
 6623SOL     OW31504   3.693   3.328   3.600  0.0322 -0.1276 -0.4477
 6623SOL    HW131505   3.737   3.324   3.516  1.0940  1.1745  0.0448
 6623SOL    HW231506   3.758   3.312   3.668 -0.0220  0.1187 -0.3358
 6624SOL     OW31507   3.110   3.021   1.300 -0.1244  0.2498  0.1019
 6624SOL    HW131508   3.126   3.075   1.377 -4.1267  1.1333  0.3204
 6624SOL    HW231509   3.193   3.024   1.253  1.3480 -1.1358  2.6898
 6625SOL     OW31510   0.405   1.758   7.867  0.0589 -0.3010  0.8377
 6625SOL    HW131511   0.436   1.688   7.810 -0.2161  0.1120  0.1774
 6625SOL    HW231512   0.388   1.832   7.809  0.6641  1.0612  2.3826
 6626SOL     OW31513   2.925   2.482   2.733  0.2867 -0.2245 -0.1270
 6626SOL    HW131514   2.985   2.549   2.700 -1.0408  0.7161 -0.6354
 6626SOL    HW231515   2.981   2.407   2.752  1.2615  0.4183 -0.5043
 6627SOL     OW31516   1.065   0.058   8.980  0.2700  0.1326  0.3687
 6627SOL    HW131517   1.094   0.094   8.896  0.3550  0.8598  0.7076
 6627SOL    HW231518   0.999   4.733   8.946  0.2209 -0.7576  2.0259
 6628SOL     OW31519   0.830   3.478   7.784 -0.1583  0.1688  0.1501
 6628SOL    HW131520   0.760   3.491   7.848 -0.0727  1.3654  0.0123
 6628SOL    HW231521   0.905   3.448   7.835 -0.7125  0.7659  1.3071
 6629SOL     OW31522   0.168   2.179   9.388  0.0577  0.3292  0.2314
 6629SOL    HW131523   0.221   2.167   9.309 -0.8316  1.2983 -0.5249
 6629SOL    HW231524   0.214   2.117   9.444  0.9489 -2.3574 -3.4918
 6630SOL     OW31525   4.394   2.754   3.809  0.1575 -0.0452 -0.2438
 6630SOL    HW131526   4.396   2.721   3.898  0.5687  1.6411  0.3793
 6630SOL    HW231527   4.305   2.738   3.776  0.0709 -1.9671  0.9323
 6631SOL     OW31528   2.058   3.377  16.780 -0.0818  0.2120 -0.1217
 6631SOL    HW131529   2.080   3.284  16.779  0.1413  0.2585  0.3743
 6631SOL    HW231530   2.140   3.419  16.754  0.2047 -0.2913 -0.0326
 6632SOL     OW31531   3.090   2.579   4.506  0.1091  0.2134  0.2230
 6632SOL    HW131532   3.035   2.568   4.583  0.2158 -0.5717  0.1855
 6632SOL    HW231533   3.170   2.624   4.533 -0.9229  1.6303  0.9645
 6633SOL     OW31534   2.437   2.708   4.437  0.0197 -0.2434 -0.3803
 6633SOL    HW131535   2.496   2.667   4.501  0.2904  0.2366 -0.3238
 6633SOL    HW231536   2.351   2.702   4.478 -1.2418  1.4642 -2.7719
 6634SOL     OW31537   4.512   2.916   4.118 -0.3073 -0.1293 -0.1487
 6634SOL    HW131538   4.502   2.821   4.124 -0.6283 -0.0294  0.8509
 6634SOL    HW231539   4.606   2.917   4.099 -0.1006  0.0842  0.8839
 6635SOL     OW31540   2.577   2.611   4.649 -0.0302 -0.3444 -0.0082
 6635SOL    HW131541   2.522   2.535   4.632 -0.6624 -0.2484  1.7259
 6635SOL    HW231542   2.653   2.575   4.694  0.5572 -0.8147 -1.3462
 6636SOL     OW31543   3.379   3.639  17.024  0.1132  0.0695  0.0031
 6636SOL    HW131544   3.361   3.680  17.108 -1.7727 -1.4612  0.3314
 6636SOL    HW231545   3.294   3.652  16.981 -1.1647  1.4454  2.9524
 6637SOL     OW31546   2.733   0.365   8.883  0.0693 -0.1833 -0.1703
 6637SOL    HW131547   2.817   0.321   8.872  0.4377  0.4323  0.1456
 6637SOL    HW231548   2.705   0.355   8.792 -0.3954  0.3736 -0.0916
 6638SOL     OW31549   1.927   4.704   0.599 -0.2821 -0.2432 -0.3645
 6638SOL    HW131550   1.834   4.725   0.614 -0.7384 -1.0931 -1.9733
 6638SOL    HW231551   1.956   4.670   0.684 -0.1016  1.6573  0.3200
 6639SOL     OW31552   2.928   2.790  17.634 -0.0595 -0.2545 -0.2863
 6639SOL    HW131553   2.966   2.770  17.548  2.0041  0.5083  0.4472
 6639SOL    HW231554   2.970   2.873  17.656  0.1359 -0.7632  1.2508
 6640SOL     OW31555   3.350   2.005   6.635 -0.2192  0.0069  0.4650
 6640SOL    HW131556   3.361   1.933   6.696  0.9342 -1.1487 -1.0888
 6640SOL    HW231557   3.301   2.071   6.683 -0.5196  0.1162  0.0110
 6641SOL     OW31558   0.878   4.475   0.218  0.2234  0.2127 -0.2020
 6641SOL    HW131559   0.941   4.480   0.147 -1.4036  3.8500 -1.3618
 6641SOL    HW231560   0.919   4.403   0.267  2.6032 -0.4647 -3.2231
 6642SOL     OW31561   1.988   3.629   9.162  0.1901  0.0593  0.3768
 6642SOL    HW131562   1.931   3.555   9.181 -0.5319 -0.1278 -2.4291
 6642SOL    HW231563   1.948   3.654   9.078  0.8324  1.4566  0.4913
 6643SOL     OW31564   1.719   1.785   3.895 -0.2946 -0.1174 -0.6001
 6643SOL    HW131565   1.694   1.832   3.815 -0.5409  0.9530  0.1075
 6643SOL    HW231566   1.711   1.863   3.949  1.1476 -0.6540  0.4082
 6644SOL     OW31567   4.085   3.317  15.044  0.0347  0.3293  0.0874
 6644SOL    HW131568   4.109   3.239  14.995 -1.2758 -1.2471  1.9776
 6644SOL    HW231569   4.060   3.279  15.128  0.0527 -2.8433 -1.3575
 6645SOL     OW31570   0.247   4.349   4.579  0.4202  0.8382 -0.1183
 6645SOL    HW131571   0.169   4.307   4.543  0.5270 -0.8916  1.7090
 6645SOL    HW231572   0.208   4.398   4.652 -1.9897  0.8789 -1.4073
 6646SOL     OW31573   1.007   1.456   3.103  0.8292  0.3276 -0.1655
 6646SOL    HW131574   0.943   1.528   3.099 -1.1138 -1.4009 -0.3362
 6646SOL    HW231575   0.991   1.414   3.018  0.0346 -0.6407  0.4678
 6647SOL     OW31576   4.220   0.600   7.354  0.2742  0.1074  0.1861
 6647SOL    HW131577   4.181   0.675   7.400 -0.4688  0.7888 -1.5276
 6647SOL    HW231578   4.153   0.534   7.371  0.3206  0.2417  0.8740
 6648SOL     OW31579   4.524   2.430   4.905  0.1599  0.1168 -0.2912
 6648SOL    HW131580   4.521   2.338   4.881  0.3858  0.6597 -2.3634
 6648SOL    HW231581   4.443   2.449   4.953  0.1332  0.3465 -0.4243
 6649SOL     OW31582   3.559   2.427  13.317  0.1884  0.1275 -0.3053
 6649SOL    HW131583   3.511   2.419  13.234  1.5706 -1.1038 -0.9819
 6649SOL    HW231584   3.537   2.516  13.345 -2.2891 -1.0407  1.5584
 6650SOL     OW31585   3.837   3.802   7.433 -0.2075  0.0398  0.3381
 6650SOL    HW131586   3.922   3.828   7.468 -0.0973 -1.1612  0.9703
 6650SOL    HW231587   3.818   3.880   7.381 -3.6415 -1.5431 -0.7856
 6651SOL     OW31588   2.971   0.175   7.813  0.5217  0.0726 -0.9817
 6651SOL    HW131589   3.013   0.259   7.794 -0.3429  0.8504  0.5002
 6651SOL    HW231590   2.975   0.181   7.909  0.6558  1.7030 -1.0866
 6652SOL     OW31591   2.693   4.202   9.612  0.2217  0.1499 -0.3013
 6652SOL    HW131592   2.690   4.262   9.537  1.3206  0.9483  0.2906
 6652SOL    HW231593   2.731   4.122   9.577  1.3191 -0.0793  1.4124
 6653SOL     OW31594   4.723   3.481  13.459 -0.0649 -0.1623 -0.2375
 6653SOL    HW131595   4.652   3.460  13.398  0.2076  0.6507 -0.8334
 6653SOL    HW231596   0.016   3.397  13.495  3.0200  1.2937  0.6442
 6654SOL     OW31597   0.698   2.859   4.180  0.6311  0.4795  0.2862
 6654SOL    HW131598   0.650   2.914   4.242  0.7082  0.0131  0.7629
 6654SOL    HW231599   0.620   2.805   4.163  2.5881 -2.5849  0.9500
 6655SOL     OW31600   3.775   2.549   6.822 -0.4182  0.4093  0.7314
 6655SOL    HW131601   3.827   2.521   6.898 -0.4059 -2.6823 -0.4446
 6655SOL    HW231602   3.841   2.514   6.763  0.3917 -1.0555  2.5045
 6656SOL     OW31603   2.618   2.014   1.902  0.1068 -0.0343  0.3034
 6656SOL    HW131604   2.532   2.034   1.866  0.5362  1.2424  0.0006
 6656SOL    HW231605   2.662   2.047   1.824  1.6621 -0.2804  1.0721
 6657SOL     OW31606   3.811   0.543   3.354  0.6450  0.0366 -0.5222
 6657SOL    HW131607   3.780   0.633   3.363  1.5914  0.2762  0.4231
 6657SOL    HW231608   3.844   0.533   3.265  0.8822  0.7753 -0.5168
 6658SOL     OW31609   1.740   0.308   5.491  0.2149 -0.2797 -0.0475
 6658SOL    HW131610   1.731   0.218   5.521 -1.2700  0.6483  2.3698
 6658SOL    HW231611   1.834   0.325   5.502 -0.0727  1.2785  0.0945
 6659SOL     OW31612   3.537   3.563   3.563 -0.1274  0.0259 -0.4507
 6659SOL    HW131613   3.574   3.481   3.596 -0.7867 -0.9227 -2.0788
 6659SOL    HW231614   3.606   3.627   3.581  1.3315 -0.9378 -2.6387
 6660SOL     OW31615   4.691   0.626  13.193  0.0654 -0.3011  0.7449
 6660SOL    HW131616   4.623   0.636  13.259 -0.7221 -0.2821 -0.0627
 6660SOL    HW231617   4.727   0.715  13.202 -2.7732  0.8758  0.5885
 6661SOL     OW31618   0.386   2.967   5.980 -0.7609 -0.0332  0.1817
 6661SOL    HW131619   0.396   3.017   5.899  1.7502  1.4032  1.3743
 6661SOL    HW231620   0.352   2.885   5.945 -1.8133 -0.7894  2.9460
 6662SOL     OW31621   3.080   2.049   1.536  0.1804 -0.3010  0.2666
 6662SOL    HW131622   3.005   2.055   1.477  1.0445  1.7327 -0.6353
 6662SOL    HW231623   3.142   2.118   1.512  1.1453 -1.4983 -0.6536
 6663SOL     OW31624   1.335   2.947   7.243 -0.4886  0.5204 -0.1630
 6663SOL    HW131625   1.384   2.967   7.323 -1.0532  1.0907  0.0473
 6663SOL    HW231626   1.243   2.941   7.269 -0.6538 -0.5305 -1.0034
 6664SOL     OW31627   4.527   1.225   7.598  0.3804  0.7751 -0.0137
 6664SOL    HW131628   4.539   1.231   7.503  0.6246 -0.8035 -0.0837
 6664SOL    HW231629   4.601   1.169   7.623  1.8004  3.0124  0.8624
 6665SOL     OW31630   0.010   0.701   6.105  0.6761 -0.5406  0.5673
 6665SOL    HW131631   0.101   0.682   6.131  0.5864 -1.1231  0.4588
 6665SOL    HW231632   4.720   0.613   6.076  0.0328 -0.0676 -0.2855
 6666SOL     OW31633   3.815   3.074  11.588  0.0118 -0.4003 -0.6248
 6666SOL    HW131634   3.901   3.082  11.547  0.1641 -0.6468 -0.3547
 6666SOL    HW231635   3.812   2.978  11.591 -1.3520 -0.3060  0.9180
 6667SOL     OW31636   1.023   3.870  13.113 -0.2183 -0.1507 -0.3920
 6667SOL    HW131637   1.107   3.826  13.130 -0.2461  0.6940  1.9298
 6667SOL    HW231638   1.045   3.910  13.029  0.9116  1.3090  0.5973
 6668SOL     OW31639   2.021   1.729  11.654 -0.4845  0.1183 -0.4891
 6668SOL    HW131640   2.046   1.640  11.626  0.1829 -0.4948  2.0608
 6668SOL    HW231641   1.992   1.698  11.740  0.8120  1.5576  0.4520
 6669SOL     OW31642   4.713   2.631   2.562  0.1669 -0.0493 -0.1718
 6669SOL    HW131643   4.687   2.616   2.471  0.4016 -0.8591 -0.1017
 6669SOL    HW231644   4.655   2.570   2.607  0.0614  1.0846  1.2569
 6670SOL     OW31645   1.383   2.453   6.892 -1.0181  0.5084 -0.2945
 6670SOL    HW131646   1.469   2.483   6.921 -1.5533  2.8398 -1.1666
 6670SOL    HW231647   1.347   2.540   6.875  2.3647  1.7773 -0.9610
 6671SOL     OW31648   4.089   1.681   7.932 -0.2574  0.3069 -0.5417
 6671SOL    HW131649   4.010   1.666   7.983  0.7087 -0.5623  0.7283
 6671SOL    HW231650   4.110   1.592   7.903  3.8438  1.0584  0.0834
 6672SOL     OW31651   3.181   2.910   0.819 -0.5070 -0.0437  0.0540
 6672SOL    HW131652   3.221   2.823   0.822 -0.1561  0.1052 -0.5094
 6672SOL    HW231653   3.131   2.907   0.901 -1.9103  1.4941 -0.7505
 6673SOL     OW31654   1.798   4.426   7.119 -0.0715  0.3261 -0.3360
 6673SOL    HW131655   1.842   4.344   7.144  0.0753  0.2254 -0.9246
 6673SOL    HW231656   1.735   4.388   7.059  0.5327  0.3297 -0.9749
 6674SOL     OW31657   3.841   0.785  15.685 -0.4841  0.0594  0.1700
 6674SOL    HW131658   3.915   0.727  15.668 -0.1427  0.6959 -0.5239
 6674SOL    HW231659   3.833   0.757  15.776  0.2487 -1.2671 -0.1705
 6675SOL     OW31660   2.680   4.147   5.935  0.0796  1.2088  0.7081
 6675SOL    HW131661   2.669   4.101   5.851  0.1940 -0.3888  1.5775
 6675SOL    HW231662   2.639   4.083   5.993 -1.2061  0.8026 -0.6540
 6676SOL     OW31663   4.532   1.620   5.938  0.6568 -0.0692 -0.0046
 6676SOL    HW131664   4.600   1.686   5.929  1.0941 -0.7588 -1.7799
 6676SOL    HW231665   4.494   1.634   5.851  1.2423 -0.4738 -0.3258
 6677SOL     OW31666   0.135   2.809  12.326  0.0505 -1.0233 -0.5238
 6677SOL    HW131667   0.060   2.825  12.269  0.0391  1.4982  0.1993
 6677SOL    HW231668   0.202   2.777  12.265  3.7425 -0.3242  3.2185
 6678SOL     OW31669   2.736   1.495   5.075 -0.2348  0.1683  0.2455
 6678SOL    HW131670   2.790   1.456   5.143  0.2853 -1.0445 -0.8719
 6678SOL    HW231671   2.738   1.589   5.097 -2.7481  0.6744 -1.6948
 6679SOL     OW31672   1.112   2.166   6.666 -0.1856 -0.2655  0.0972
 6679SOL    HW131673   1.032   2.218   6.660  0.2587  0.3993  0.0297
 6679SOL    HW231674   1.147   2.190   6.752  0.4282 -1.9770  0.3271
 6680SOL     OW31675   3.075   1.927   6.185  0.3376  0.1755 -0.4964
 6680SOL    HW131676   3.143   1.925   6.253 -0.7042  0.1274  0.5445
 6680SOL    HW231677   3.093   2.011   6.143 -0.3886  1.1274  1.0598
 6681SOL     OW31678   1.604   2.403  16.456 -0.0034 -0.4656  0.1481
 6681SOL    HW131679   1.620   2.435  16.545  0.3755 -1.4131  0.4167
 6681SOL    HW231680   1.559   2.320  16.468 -2.1573  0.6575 -0.1083
 6682SOL     OW31681   0.119   2.487  16.726  0.2318 -0.4920  0.3256
 6682SOL    HW131682   0.197   2.510  16.777  0.2023 -0.9651  0.5907
 6682SOL    HW231683   0.092   2.563  16.676  0.0466 -0.4687  0.4588
 6683SOL     OW31684   2.797   3.373  13.742  0.4233 -0.2278 -0.0961
 6683SOL    HW131685   2.854   3.306  13.779 -1.2397 -0.8112  1.4025
 6683SOL    HW231686   2.857   3.447  13.732 -2.5710  2.5228  2.3658
 6684SOL     OW31687   2.303   3.930   7.611  0.3974 -0.1070 -0.2974
 6684SOL    HW131688   2.357   3.998   7.650  0.1836 -0.8090  1.1977
 6684SOL    HW231689   2.219   3.941   7.655  0.2710 -0.2559 -0.4957
 6685SOL     OW31690   4.181   1.333   6.547  0.1549 -0.2215  0.7288
 6685SOL    HW131691   4.141   1.369   6.468 -1.6220  0.8763  2.1265
 6685SOL    HW231692   4.118   1.264   6.570  0.5100 -1.4834 -2.0460
 6686SOL     OW31693   4.487   0.785   5.226 -0.2415 -0.4555  0.5524
 6686SOL    HW131694   4.489   0.753   5.316  0.6799 -1.8345  0.0335
 6686SOL    HW231695   4.407   0.838   5.230  0.8747  1.2281  0.9120
 6687SOL     OW31696   2.351   4.018   5.140  0.0123  0.1218  0.5069
 6687SOL    HW131697   2.346   4.107   5.176  0.4043 -0.7583  2.7072
 6687SOL    HW231698   2.442   3.988   5.149 -0.7139 -2.2025 -0.1599
 6688SOL     OW31699   4.531   1.784  12.251  0.0755 -0.3142  0.2882
 6688SOL    HW131700   4.611   1.805  12.203  1.3833  0.9175  2.9572
 6688SOL    HW231701   4.526   1.863  12.305  1.1584  0.0215 -0.0975
 6689SOL     OW31702   1.141   2.820   9.262 -0.0160 -0.1511  0.3776
 6689SOL    HW131703   1.113   2.910   9.276 -3.0987 -1.2575  1.1248
 6689SOL    HW231704   1.214   2.842   9.204  0.3071 -0.5738  0.6187
 6690SOL     OW31705   2.469   0.302   7.058 -1.0096 -0.9092 -0.4861
 6690SOL    HW131706   2.410   0.266   6.992 -2.3030  1.4387 -0.5827
 6690SOL    HW231707   2.548   0.320   7.006 -0.1421 -1.0338  0.7951
 6691SOL     OW31708   0.183   2.481   7.419  0.0393 -0.0105 -1.0427
 6691SOL    HW131709   0.103   2.433   7.398 -1.9831  2.5492  0.6917
 6691SOL    HW231710   0.242   2.478   7.344 -1.4252 -0.6165 -2.1571
 6692SOL     OW31711   1.419   4.672   5.749 -0.0193  0.2005 -0.2225
 6692SOL    HW131712   1.357   4.658   5.678 -1.5879 -1.0151  1.3597
 6692SOL    HW231713   1.365   4.711   5.818  0.2155 -0.9087  0.5890
 6693SOL     OW31714   1.720   1.366   4.141  0.4348 -0.0789 -0.7757
 6693SOL    HW131715   1.747   1.452   4.110  0.9779 -0.4161 -1.2488
 6693SOL    HW231716   1.795   1.340   4.194 -1.0808 -1.3719  0.7417
 6694SOL     OW31717   2.172   3.802  15.802  0.9537 -0.1753  0.4763
 6694SOL    HW131718   2.135   3.727  15.848 -0.1079  0.8377  1.2769
 6694SOL    HW231719   2.091   3.845  15.772  0.6075 -1.6691 -0.7484
 6695SOL     OW31720   4.432   3.116   3.618 -0.1251 -0.5552  0.3246
 6695SOL    HW131721   4.504   3.053   3.617 -1.1038 -1.6718  0.0277
 6695SOL    HW231722   4.450   3.176   3.546  0.6810  0.7624  1.6171
 6696SOL     OW31723   0.010   1.869  14.025 -0.2621 -0.2437  0.0362
 6696SOL    HW131724   4.669   1.831  13.981 -0.3523  1.8426 -1.6399
 6696SOL    HW231725   4.703   1.946  14.063  2.2002  1.8583 -1.4635
 6697SOL     OW31726   2.047   1.331   9.128  0.2795 -0.1160  0.1309
 6697SOL    HW131727   2.010   1.341   9.041 -0.0449 -1.6835  0.0896
 6697SOL    HW231728   2.140   1.315   9.116 -0.1499 -1.3793 -1.3974
 6698SOL     OW31729   1.962   0.916  13.426 -0.3574  0.0163  0.2108
 6698SOL    HW131730   1.987   1.002  13.392 -3.4165  0.9547  0.3093
 6698SOL    HW231731   1.871   0.908  13.396 -0.0456 -0.2083 -0.6794
 6699SOL     OW31732   2.512   2.800   4.824 -1.0600  0.2851  0.3615
 6699SOL    HW131733   2.522   2.740   4.750 -0.5886  1.1666 -0.2996
 6699SOL    HW231734   2.592   2.788   4.875 -0.8794 -0.7112 -0.1580
 6700SOL     OW31735   0.052   2.826   5.540 -0.1085  0.6655  0.1325
 6700SOL    HW131736   4.695   2.842   5.555 -0.0793  1.4327 -0.4407
 6700SOL    HW231737   0.056   2.895   5.473 -1.5172  1.0257  0.4381
 6701SOL     OW31738   4.588   3.458   7.918  0.1937  0.0038 -0.4154
 6701SOL    HW131739   4.494   3.471   7.931  0.6223  0.8606  1.7719
 6701SOL    HW231740   4.637   3.502   7.987 -1.0386 -0.0779  0.5043
 6702SOL     OW31741   1.538   2.621   8.444 -0.6932 -0.0289  0.1171
 6702SOL    HW131742   1.570   2.540   8.406  0.6418 -0.9248  3.1561
 6702SOL    HW231743   1.487   2.658   8.372 -0.2753  0.2348 -0.0398
 6703SOL     OW31744   4.349   0.619   4.861  0.7985 -0.4966  0.7873
 6703SOL    HW131745   4.354   0.614   4.766  0.5317 -0.2477  0.7587
 6703SOL    HW231746   4.318   0.709   4.851  0.3789 -0.5132  1.8213
 6704SOL     OW31747   1.435   0.851  16.361  0.1844 -0.0101  0.4541
 6704SOL    HW131748   1.418   0.896  16.444 -0.7828  2.2096 -0.9675
 6704SOL    HW231749   1.530   0.862  16.356  0.1890 -1.3375 -2.5788
 6705SOL     OW31750   1.369   4.589  16.056 -0.1432 -0.3245 -0.8883
 6705SOL    HW131751   1.434   4.580  16.126 -1.4827  0.7030  0.4588
 6705SOL    HW231752   1.406   4.522  15.998  0.3670 -1.6863  1.0235
 6706SOL     OW31753   1.127   2.508  12.647 -0.4788  0.2058  0.4409
 6706SOL    HW131754   1.199   2.454  12.678  0.3485  1.3606  0.5488
 6706SOL    HW231755   1.174   2.583  12.610  3.7265 -1.8440  1.6647
 6707SOL     OW31756   1.950   0.526   3.925  0.2004 -0.3724 -0.6592
 6707SOL    HW131757   2.040   0.558   3.918  0.6794 -1.9294 -1.5473
 6707SOL    HW231758   1.912   0.607   3.961 -2.2962 -2.8051  2.2041
 6708SOL     OW31759   2.766   0.792   6.049 -0.1769  0.9891 -0.2980
 6708SOL    HW131760   2.807   0.720   6.097  0.4370  1.5716  0.0459
 6708SOL    HW231761   2.822   0.804   5.972  1.6716 -3.1165  0.4195
 6709SOL     OW31762   2.935   1.446   5.249  0.1595  0.4708 -0.7738
 6709SOL    HW131763   2.928   1.521   5.307  2.1540  0.1213 -0.0738
 6709SOL    HW231764   2.940   1.373   5.311  1.8021  1.0166 -0.2751
 6710SOL     OW31765   2.473   3.994  17.316  0.5793  0.0611  0.0009
 6710SOL    HW131766   2.479   4.088  17.334 -0.2852  0.0562  0.3205
 6710SOL    HW231767   2.562   3.965  17.336  0.0806 -1.2466  0.2750
 6711SOL     OW31768   3.640   4.675   9.065  0.4489 -0.6613 -0.5616
 6711SOL    HW131769   3.665   4.692   9.156 -0.5655 -0.1915 -0.3729
 6711SOL    HW231770   3.720   4.637   9.029  0.8046  0.9303 -1.4172
 6712SOL     OW31771   4.628   1.906  14.732 -0.0153  0.0914 -0.3826
 6712SOL    HW131772   4.553   1.965  14.740 -0.4243 -0.1924 -2.0467
 6712SOL    HW231773   4.611   1.840  14.799  2.2190 -1.5127 -1.4097
 6713SOL     OW31774   2.053   1.423  12.292  0.4969  0.1043 -0.2315
 6713SOL    HW131775   2.038   1.344  12.344 -1.0927  0.0651 -0.7559
 6713SOL    HW231776   2.148   1.423  12.282  0.6129  1.4603  0.9163
 6714SOL     OW31777   0.576   4.358   1.832 -0.2962 -0.0651 -0.0218
 6714SOL    HW131778   0.494   4.401   1.856 -0.6498  0.0300 -1.3848
 6714SOL    HW231779   0.545   4.276   1.793 -1.7762  1.0167 -1.1160
 6715SOL     OW31780   1.790   4.644   9.100  0.1458  0.1199  0.1478
 6715SOL    HW131781   1.697   4.658   9.117  0.6481  2.4005  0.9700
 6715SOL    HW231782   1.810   4.563   9.147  2.3284  0.3202 -0.4689
 6716SOL     OW31783   2.362   2.195   7.435 -0.1331 -0.4757  0.1922
 6716SOL    HW131784   2.419   2.270   7.420  0.6585 -0.7642  1.7371
 6716SOL    HW231785   2.424   2.126   7.411  0.5272  0.7593 -1.5937
 6717SOL     OW31786   3.456   3.994   2.757 -0.0503  0.6066 -0.3349
 6717SOL    HW131787   3.411   4.077   2.769 -1.7380 -0.1917 -1.0209
 6717SOL    HW231788   3.457   3.974   2.664 -0.0356 -1.1522  0.0326
 6718SOL     OW31789   1.063   1.699   3.673 -0.2590  0.0135  0.2615
 6718SOL    HW131790   1.089   1.777   3.722 -2.0749  0.3851  0.6335
 6718SOL    HW231791   1.150   1.663   3.661  0.4089  2.0657 -1.0806
 6719SOL     OW31792   3.697   2.030   3.958  0.0422  0.4446 -0.2218
 6719SOL    HW131793   3.663   2.119   3.946  0.5561  0.2639 -2.9426
 6719SOL    HW231794   3.773   2.041   3.901  0.1237 -0.2636 -0.2440
 6720SOL     OW31795   3.676   3.489   8.341 -0.2564  0.0039  0.5647
 6720SOL    HW131796   3.711   3.538   8.267 -3.6337  2.0369  0.2891
 6720SOL    HW231797   3.613   3.425   8.305 -0.4937  0.9485 -0.7060
 6721SOL     OW31798   2.527   1.030   5.269 -0.1646  0.3547  0.1546
 6721SOL    HW131799   2.586   1.055   5.197  0.1800 -0.0090  0.3111
 6721SOL    HW231800   2.518   1.117   5.306 -0.2620  0.2989  0.2606
 6722SOL     OW31801   3.749   3.646   6.277 -0.4058  0.2257  0.4182
 6722SOL    HW131802   3.817   3.696   6.232 -1.1262  1.4580  0.7043
 6722SOL    HW231803   3.750   3.682   6.366  1.5443 -1.0223  0.9172
 6723SOL     OW31804   2.755   3.803  14.363  0.6531 -0.1197 -0.2762
 6723SOL    HW131805   2.733   3.831  14.452  1.7028  1.7147 -0.5918
 6723SOL    HW231806   2.778   3.712  14.377  0.7211 -0.1827 -0.8002
 6724SOL     OW31807   3.926   2.974   4.979 -0.1490  0.0918 -0.3236
 6724SOL    HW131808   3.890   3.061   4.994  0.7634  0.1406  1.6644
 6724SOL    HW231809   4.012   2.977   5.020 -0.2623  0.2765 -0.1002
 6725SOL     OW31810   3.372   0.879   2.805 -0.2049  0.6621  0.6563
 6725SOL    HW131811   3.331   0.902   2.721 -0.1754 -0.7841  0.2377
 6725SOL    HW231812   3.463   0.862   2.782 -0.8726 -1.3635 -0.4979
 6726SOL     OW31813   3.963   1.958   1.981  0.3791 -0.2654  0.2547
 6726SOL    HW131814   3.927   2.047   1.975 -2.8250 -1.6373 -0.8221
 6726SOL    HW231815   3.892   1.898   1.960  0.4468  0.3654 -1.7731
 6727SOL     OW31816   1.127   3.938   3.338  0.2929 -0.2557 -0.3896
 6727SOL    HW131817   1.204   3.911   3.388  1.0946  1.2539 -0.8017
 6727SOL    HW231818   1.083   3.983   3.410 -0.6398  0.9470 -1.7244
 6728SOL     OW31819   4.334   0.068  15.389  0.5588 -0.5028  0.1509
 6728SOL    HW131820   4.295   0.120  15.460  1.3730  0.2029  0.0753
 6728SOL    HW231821   4.427   0.070  15.410  0.5271 -1.9540  0.4165
 6729SOL     OW31822   4.607   2.415   7.711 -0.1803  0.0835  0.3492
 6729SOL    HW131823   4.553   2.438   7.635 -0.6110  1.2751  1.0062
 6729SOL    HW231824   4.538   2.379   7.767  0.1130 -1.0062  0.0154
 6730SOL     OW31825   1.012   1.390  16.423  0.0924 -0.0287  0.4122
 6730SOL    HW131826   1.035   1.481  16.405  0.4660 -0.4252 -1.1966
 6730SOL    HW231827   1.089   1.356  16.469 -0.1372  0.5623  1.2276
 6731SOL     OW31828   1.142   1.283   4.972 -1.0618 -0.0694 -0.1616
 6731SOL    HW131829   1.103   1.208   4.926 -1.1844  0.4632 -0.9280
 6731SOL    HW231830   1.117   1.356   4.916 -2.5676 -0.8439 -0.5019
 6732SOL     OW31831   1.134   3.349  10.913 -0.2765  0.1866  0.0822
 6732SOL    HW131832   1.125   3.266  10.866 -3.3963  0.3861  0.3715
 6732SOL    HW231833   1.079   3.407  10.860 -0.7072 -2.1757 -2.0737
 6733SOL     OW31834   3.216   2.859   7.989 -0.9954  0.1643 -0.2832
 6733SOL    HW131835   3.210   2.768   8.019  1.3289 -0.3252 -1.2224
 6733SOL    HW231836   3.289   2.841   7.929 -1.6591 -0.5546 -0.8860
 6734SOL     OW31837   3.362   4.069   3.621  0.5328 -0.0403  0.1502
 6734SOL    HW131838   3.291   4.130   3.642 -0.0611 -0.5576 -0.3550
 6734SOL    HW231839   3.315   4.002   3.572 -1.9950  1.8910 -0.1154
 6735SOL     OW31840   2.918   2.646  17.036  0.1712 -0.1337 -0.2193
 6735SOL    HW131841   2.911   2.628  16.942  3.7638  1.5532 -0.8047
 6735SOL    HW231842   2.987   2.584  17.059 -0.3525 -0.5487  0.2459
 6736SOL     OW31843   0.497   3.749   5.405  0.7047 -0.1328  0.0397
 6736SOL    HW131844   0.421   3.700   5.374 -0.4171  2.3747 -1.2162
 6736SOL    HW231845   0.560   3.677   5.408  0.1246 -0.6474 -0.3368
 6737SOL     OW31846   1.101   1.027   5.293 -0.3564  0.2522 -0.3462
 6737SOL    HW131847   1.144   1.103   5.254  1.1695 -0.0900  0.6451
 6737SOL    HW231848   1.174   0.972   5.322 -0.9288 -0.3426 -0.0198
 6738SOL     OW31849   2.408   2.505   5.957 -0.1495 -0.1981 -0.3234
 6738SOL    HW131850   2.318   2.511   5.987  0.3509  0.7236  0.9525
 6738SOL    HW231851   2.421   2.599   5.950  1.9240 -0.5031 -0.6754
 6739SOL     OW31852   0.175   1.524   4.937  0.3415 -0.0461  0.1351
 6739SOL    HW131853   0.115   1.513   4.863 -1.0507 -0.0353  1.2613
 6739SOL    HW231854   0.188   1.430   4.953  1.3573  0.1242  0.2768
 6740SOL     OW31855   2.001   2.650   7.921  0.2233  0.4214  0.4165
 6740SOL    HW131856   2.033   2.740   7.926 -1.9070  1.0272  3.4030
 6740SOL    HW231857   2.075   2.615   7.971 -0.0997 -1.3360 -0.3159
 6741SOL     OW31858   2.794   0.130   4.889  0.4149  0.3911 -0.8140
 6741SOL    HW131859   2.702   0.113   4.912  1.4149 -1.1533  1.9923
 6741SOL    HW231860   2.813   0.202   4.948 -0.2099 -0.8127  0.8655
 6742SOL     OW31861   3.362   3.715   6.259 -0.0599 -0.0536  0.1934
 6742SOL    HW131862   3.332   3.624   6.259  0.1528 -0.1241 -0.0403
 6742SOL    HW231863   3.413   3.709   6.340  0.2811  0.1981  0.0002
 6743SOL     OW31864   1.947   1.144   8.945 -0.0829 -0.3451  0.2235
 6743SOL    HW131865   1.959   1.167   9.037 -1.2237  1.2822 -0.0283
 6743SOL    HW231866   1.911   1.055   8.948 -1.3963  0.0646 -3.3356
 6744SOL     OW31867   0.196   3.494  15.245  0.0984 -0.2637  0.6953
 6744SOL    HW131868   0.201   3.587  15.222 -1.7709  0.1026  1.7214
 6744SOL    HW231869   0.167   3.459  15.161  1.6135  0.6727 -0.2152
 6745SOL     OW31870   4.405   2.167   8.599 -0.1660 -0.1775 -0.1736
 6745SOL    HW131871   4.498   2.145   8.591 -0.0751  0.0727  0.1751
 6745SOL    HW231872   4.388   2.158   8.505 -0.7015 -2.4159  0.1412
 6746SOL     OW31873   2.816   0.965  14.121  0.5256 -0.6719  0.3979
 6746SOL    HW131874   2.857   0.930  14.042 -0.0542 -1.7038  0.5591
 6746SOL    HW231875   2.835   1.058  14.111  1.3318 -0.7780  0.8562
 6747SOL     OW31876   2.382   4.212   6.081 -0.4329  0.1152  0.1045
 6747SOL    HW131877   2.330   4.192   6.159  2.0959 -1.2110  1.4517
 6747SOL    HW231878   2.322   4.194   6.009 -2.0180  2.1186  0.9223
 6748SOL     OW31879   1.080   2.140   2.404 -0.1486  0.5026 -0.1705
 6748SOL    HW131880   1.110   2.230   2.391 -1.0064  1.0898  1.9225
 6748SOL    HW231881   1.000   2.136   2.352 -0.2553  0.7375 -0.0263
 6749SOL     OW31882   4.370   1.041  14.872  0.4686 -0.2665 -0.0503
 6749SOL    HW131883   4.363   1.131  14.903 -2.8915 -0.2352 -0.9058
 6749SOL    HW231884   4.309   1.052  14.799  0.8404  3.6067  0.2352
 6750SOL     OW31885   2.713   3.546  11.797 -0.5235 -0.1546  0.1954
 6750SOL    HW131886   2.766   3.467  11.787 -1.3017 -0.6676  0.1479
 6750SOL    HW231887   2.781   3.608  11.770 -1.5335  0.2944 -1.3391
 6751SOL     OW31888   2.945   4.093  15.954 -0.1860 -0.3323  0.6016
 6751SOL    HW131889   3.009   4.030  15.987 -1.6999 -0.2100  3.7565
 6751SOL    HW231890   2.985   4.105  15.868 -0.9417 -0.3354  0.2471
 6752SOL     OW31891   1.764   2.768   3.834  0.3304 -0.3196  0.0836
 6752SOL    HW131892   1.782   2.733   3.922  1.6439 -0.6877 -0.3238
 6752SOL    HW231893   1.814   2.850   3.826 -0.5157  0.3969  2.2163
 6753SOL     OW31894   0.365   2.588  13.234  0.5532  0.2381  0.5356
 6753SOL    HW131895   0.429   2.544  13.289  0.7136  1.7628  1.5698
 6753SOL    HW231896   0.274   2.573  13.261  1.7566 -2.9457  2.8935
 6754SOL     OW31897   2.387   0.856   4.630  0.1593  0.1624 -0.1612
 6754SOL    HW131898   2.315   0.792   4.629 -0.5325  0.9785 -2.4995
 6754SOL    HW231899   2.406   0.850   4.724 -0.3630 -1.4539 -0.1523
 6755SOL     OW31900   3.585   0.039  13.314  0.1661  0.7712 -0.0702
 6755SOL    HW131901   3.658   4.718  13.290  0.6026  1.8077 -1.2306
 6755SOL    HW231902   3.511   4.728  13.275  1.4406 -0.5590 -0.8682
 6756SOL     OW31903   3.099   3.688   9.041  0.2123 -0.3795  0.3467
 6756SOL    HW131904   3.144   3.703   8.958  0.3428  0.5141  0.5836
 6756SOL    HW231905   3.082   3.595   9.052  0.7054 -0.2542  2.1675
 6757SOL     OW31906   0.042   3.926  13.512 -0.3603  0.2207  0.2389
 6757SOL    HW131907   0.069   4.018  13.507  0.2703 -0.0530 -1.3159
 6757SOL    HW231908   4.684   3.938  13.497 -0.7077  1.0348  2.9497
 6758SOL     OW31909   0.635   3.943  13.838  0.3660  0.2086 -0.1415
 6758SOL    HW131910   0.674   3.870  13.790  1.6124  0.3014  0.7290
 6758SOL    HW231911   0.557   3.963  13.787  0.0310  0.2805  0.3894
 6759SOL     OW31912   0.968   4.521   1.632  0.6817 -0.0833 -0.2656
 6759SOL    HW131913   0.940   4.430   1.639  0.5458  0.0324  0.7953
 6759SOL    HW231914   1.011   4.517   1.547 -0.8593 -1.7106 -0.9606
 6760SOL     OW31915   2.528   1.487   6.960 -0.1420 -0.2975  0.1483
 6760SOL    HW131916   2.623   1.479   6.958  0.0381  2.1472 -0.2726
 6760SOL    HW231917   2.502   1.408   6.912 -2.5535  0.0263  0.9153
 6761SOL     OW31918   2.758   2.350   2.571 -0.1860 -0.5209 -0.6852
 6761SOL    HW131919   2.756   2.393   2.485  0.0771 -0.7388 -0.8013
 6761SOL    HW231920   2.803   2.418   2.622 -0.4024 -1.2006  0.4094
 6762SOL     OW31921   1.147   1.804   2.257  0.5270 -0.4366  0.4882
 6762SOL    HW131922   1.198   1.881   2.231 -0.8558 -0.2361 -1.6451
 6762SOL    HW231923   1.063   1.808   2.211  1.7298  1.9944 -1.4906
 6763SOL     OW31924   4.135   1.628   8.867  0.0530  0.0127 -0.0325
 6763SOL    HW131925   4.043   1.642   8.843  0.3751 -1.3811 -2.0991
 6763SOL    HW231926   4.160   1.572   8.793  0.7891  0.2312  0.0605
 6764SOL     OW31927   3.074   3.416   9.100  0.1819  0.0812 -0.6114
 6764SOL    HW131928   3.020   3.364   9.158  1.3431 -1.0111 -0.5095
 6764SOL    HW231929   3.059   3.371   9.017  1.1825 -0.5947 -0.4211
 6765SOL     OW31930   2.591   1.680   4.031  0.2329 -0.1665 -0.4775
 6765SOL    HW131931   2.655   1.710   4.095  1.8047 -1.7504 -1.2780
 6765SOL    HW231932   2.629   1.598   3.998 -0.8278 -1.1064  0.6556
 6766SOL     OW31933   0.772   1.188  11.989 -0.0186  0.0183  0.0538
 6766SOL    HW131934   0.762   1.255  12.057  1.1016 -0.7370  0.9644
 6766SOL    HW231935   0.706   1.120  12.000  1.1417 -1.1275 -0.1558
 6767SOL     OW31936   0.027   1.008  14.086 -1.0717 -0.3844  0.2163
 6767SOL    HW131937   0.116   1.003  14.050 -0.8073 -0.5812  0.8943
 6767SOL    HW231938   4.736   1.089  14.044 -0.0784  0.0212  0.3536
 6768SOL     OW31939   0.043   0.992   6.440 -0.1548 -0.0256 -0.1528
 6768SOL    HW131940   0.098   1.068   6.420 -0.8612  0.4233 -0.4175
 6768SOL    HW231941   0.109   0.934   6.476  0.3186  0.1312 -0.7628
 6769SOL     OW31942   3.599   4.470   6.549  0.1152  1.0383  0.1492
 6769SOL    HW131943   3.620   4.379   6.572  0.6902  1.7744  2.5402
 6769SOL    HW231944   3.526   4.480   6.610 -0.0516  1.4377 -0.1201
 6770SOL     OW31945   2.590   3.349   8.918 -0.2931 -0.2924  0.3722
 6770SOL    HW131946   2.576   3.439   8.946  2.2627 -0.4695  2.2163
 6770SOL    HW231947   2.685   3.333   8.914  0.0100  0.9049  3.4515
 6771SOL     OW31948   2.387   1.580   6.242 -0.0707  0.3267  0.2892
 6771SOL    HW131949   2.408   1.512   6.305  0.5611 -0.0438 -0.3208
 6771SOL    HW231950   2.291   1.580   6.247 -0.1177 -0.0431 -0.5492
 6772SOL     OW31951   1.753   3.613  13.687  0.2052 -0.1114 -0.7845
 6772SOL    HW131952   1.763   3.708  13.697 -1.3619 -0.3450  3.0363
 6772SOL    HW231953   1.659   3.604  13.672 -0.1501 -2.5032  2.8332
 6773SOL     OW31954   3.474   0.242   8.889 -0.1712  0.4283 -0.2907
 6773SOL    HW131955   3.521   0.226   8.971 -0.3084 -0.4178 -0.3828
 6773SOL    HW231956   3.534   0.213   8.820  0.5945 -1.5487  1.2331
 6774SOL     OW31957   0.003   4.588   9.381 -0.6495 -0.1440 -0.4883
 6774SOL    HW131958   0.025   4.655   9.316  1.3594  1.9839  2.4138
 6774SOL    HW231959   4.653   4.623   9.406 -0.5965 -0.2512 -0.1596
 6775SOL     OW31960   1.508   3.343   3.546  0.3166  0.2130 -0.1405
 6775SOL    HW131961   1.574   3.403   3.581  0.4692  0.6018 -1.1144
 6775SOL    HW231962   1.438   3.404   3.523 -0.0484 -0.2212 -0.2011
 6776SOL     OW31963   3.146   0.018   5.631  0.2585  0.4409  0.3465
 6776SOL    HW131964   3.146   0.068   5.549  1.7342  0.0820  0.1327
 6776SOL    HW231965   3.237   4.729   5.646 -0.0790 -0.2118  1.3126
 6777SOL     OW31966   1.325   1.699   8.017 -0.1625  0.7109 -0.4826
 6777SOL    HW131967   1.353   1.787   8.042  0.2506  1.0316 -2.0235
 6777SOL    HW231968   1.246   1.712   7.963 -0.2418  0.2479 -0.4773
 6778SOL     OW31969   2.584   4.211   1.731  0.2709 -0.5814  0.3799
 6778SOL    HW131970   2.550   4.121   1.727 -0.2552 -0.4144  1.3093
 6778SOL    HW231971   2.516   4.247   1.673 -0.2750 -0.1950  1.2664
 6779SOL     OW31972   0.115   2.508   1.973  0.6028 -0.0063  0.3026
 6779SOL    HW131973   0.109   2.546   2.060 -1.7404 -0.3256  0.2731
 6779SOL    HW231974   0.059   2.571   1.928  1.2603 -0.3942 -1.0653
 6780SOL     OW31975   1.177   2.597   5.811 -0.3076  0.1700  0.3708
 6780SOL    HW131976   1.196   2.513   5.852 -2.4283 -0.5159 -0.0365
 6780SOL    HW231977   1.100   2.625   5.862 -0.4223  0.0862  0.2434
 6781SOL     OW31978   2.975   1.187   2.471 -0.5465 -0.0413  0.1614
 6781SOL    HW131979   2.953   1.158   2.559 -1.4301 -0.0945 -0.0746
 6781SOL    HW231980   2.893   1.157   2.432 -0.4121  0.2042 -0.3186
 6782SOL     OW31981   0.790   2.098   9.414  0.3808  0.4391 -0.1732
 6782SOL    HW131982   0.820   2.081   9.325 -1.4862 -2.7531 -0.2139
 6782SOL    HW231983   0.803   2.192   9.401  1.2827 -0.0523 -2.7312
 6783SOL     OW31984   4.681   3.989   8.839 -0.6956 -0.2638  0.5588
 6783SOL    HW131985   4.734   3.948   8.771  2.0268  0.8069  2.0517
 6783SOL    HW231986   4.590   3.974   8.810 -0.1731 -1.1943 -0.6031
 6784SOL     OW31987   3.036   2.809  12.299  0.2057 -0.8232 -0.6278
 6784SOL    HW131988   3.018   2.786  12.390 -0.7133 -1.2351 -0.9078
 6784SOL    HW231989   3.087   2.887  12.319 -1.0604 -0.6278  1.7626
 6785SOL     OW31990   3.450   3.599   6.939 -0.1089 -0.8969  0.0471
 6785SOL    HW131991   3.531   3.644   6.962  0.1909 -1.0716 -0.6799
 6785SOL    HW231992   3.423   3.649   6.863  1.7025 -0.1419 -0.1087
 6786SOL     OW31993   4.592   4.185  16.486  1.0138 -0.0600  0.2998
 6786SOL    HW131994   4.574   4.106  16.537  0.8388  1.7231  3.0511
 6786SOL    HW231995   4.655   4.154  16.421  0.3091  0.6901 -0.7391
 6787SOL     OW31996   4.028   1.437   0.268  0.0439  0.1607 -0.6605
 6787SOL    HW131997   3.965   1.496   0.226  0.3897  1.4026  0.5598
 6787SOL    HW231998   4.093   1.501   0.297 -0.7756  1.3481 -1.4253
 6788SOL     OW31999   1.415   4.455   4.053  0.2825 -0.6895 -0.1975
 6788SOL    HW132000   1.446   4.444   4.143  1.5433  0.2370 -0.5166
 6788SOL    HW232001   1.374   4.371   4.029  1.2764 -1.5022  0.9693
 6789SOL     OW32002   4.573   3.643   1.063  0.4803 -0.0987 -0.3333
 6789SOL    HW132003   4.597   3.572   1.004  0.2927 -1.3991  1.1452
 6789SOL    HW232004   4.643   3.706   1.049 -0.5381  1.3607  1.0791
 6790SOL     OW32005   0.312   2.494   9.163 -0.4078 -0.5253 -0.0102
 6790SOL    HW132006   0.319   2.399   9.154 -0.2989 -0.8179  3.2583
 6790SOL    HW232007   0.330   2.492   9.256  1.5900 -1.6162 -0.4194
 6791SOL     OW32008   4.060   1.888   3.700 -0.2960 -0.2571  0.6529
 6791SOL    HW132009   4.109   1.899   3.618 -0.7116 -3.0496  0.0426
 6791SOL    HW232010   4.101   1.952   3.758  0.1225 -2.3314  2.6256
 6792SOL     OW32011   1.799   1.125   5.958 -0.6252 -0.1488  0.6699
 6792SOL    HW132012   1.880   1.120   6.009 -0.5064  1.2047  0.6113
 6792SOL    HW232013   1.735   1.158   6.020 -2.0224  0.3192 -1.0169
 6793SOL     OW32014   1.091   3.977  15.737 -0.3596  0.1087 -0.5587
 6793SOL    HW132015   1.017   3.930  15.699 -1.5272 -0.4240  2.3027
 6793SOL    HW232016   1.043   3.975  15.821  2.4270 -0.5376  1.0057
 6794SOL     OW32017   3.941   1.074  14.756 -0.2398 -0.1533 -0.3391
 6794SOL    HW132018   4.002   1.008  14.722  1.1402  0.5568  0.7388
 6794SOL    HW232019   3.921   1.042  14.844 -0.2836  2.5123  0.6360
 6795SOL     OW32020   3.322   4.427   5.613  0.7206 -0.3089  0.3799
 6795SOL    HW132021   3.233   4.456   5.589  0.6163  0.0386  1.1740
 6795SOL    HW232022   3.314   4.332   5.609 -0.4159 -0.3693  3.5702
 6796SOL     OW32023   2.813   3.348  16.079 -0.2083 -0.1127 -0.4353
 6796SOL    HW132024   2.816   3.358  15.984 -1.8483  0.4108 -0.4317
 6796SOL    HW232025   2.804   3.440  16.101 -1.6072 -0.5539  0.8443
 6797SOL     OW32026   2.727   4.662   4.568  0.8494  0.0852 -0.5157
 6797SOL    HW132027   2.698   4.649   4.658  0.0208  2.4535 -0.4349
 6797SOL    HW232028   2.645   4.679   4.520  1.8299  0.0107 -2.2203
 6798SOL     OW32029   1.021   0.016   7.330 -0.4115  0.1549 -0.1513
 6798SOL    HW132030   1.091   0.077   7.307  0.5280 -0.6611  0.5454
 6798SOL    HW232031   0.956   0.072   7.373 -1.3089  0.9532 -2.5830
 6799SOL     OW32032   2.662   0.055  10.279  0.0406 -0.4151  0.6062
 6799SOL    HW132033   2.735   0.110  10.249  0.5354 -1.5889 -0.3643
 6799SOL    HW232034   2.645   4.732  10.205 -2.9057  1.4741 -0.2282
 6800SOL     OW32035   0.155   3.828   3.856  0.2563  0.2860 -0.3215
 6800SOL    HW132036   0.097   3.790   3.791  0.0374  0.2144 -0.0872
 6800SOL    HW232037   0.124   3.782   3.935 -0.8908  0.5736 -0.5974
 6801SOL     OW32038   3.231   3.973   8.272  0.2840  0.5564  0.1614
 6801SOL    HW132039   3.149   3.970   8.321  0.6333  1.8336  0.8072
 6801SOL    HW232040   3.207   4.028   8.197 -1.3344 -2.1327 -1.3051
 6802SOL     OW32041   0.092   0.493   7.886  0.0310  0.4328  0.2031
 6802SOL    HW132042   0.152   0.554   7.843  1.1364 -1.0626 -0.3852
 6802SOL    HW232043   0.008   0.537   7.876 -0.2916 -0.5875 -1.5447
 6803SOL     OW32044   0.122   4.645   7.699 -0.0222  0.2823  0.5276
 6803SOL    HW132045   0.152   4.557   7.719  0.2801 -0.4569 -3.1837
 6803SOL    HW232046   0.030   4.652   7.728 -0.5382  0.1338 -1.0825
 6804SOL     OW32047   4.234   4.417   9.749  0.1484 -0.2141 -0.8264
 6804SOL    HW132048   4.234   4.492   9.808 -4.7253  0.1938 -1.3646
 6804SOL    HW232049   4.154   4.430   9.698 -1.3037 -2.7754  0.8099
 6805SOL     OW32050   1.462   2.995   8.832  0.1660  0.1550 -0.0413
 6805SOL    HW132051   1.478   2.960   8.745 -0.8464  1.8256 -0.9036
 6805SOL    HW232052   1.445   3.087   8.809  2.5049  0.1392 -1.8635
 6806SOL     OW32053   0.767   2.315   6.372 -0.1536  0.3737 -0.0146
 6806SOL    HW132054   0.690   2.259   6.381 -0.7586  1.2229  0.0773
 6806SOL    HW232055   0.816   2.244   6.331 -0.0003  0.2098  0.4457
 6807SOL     OW32056   0.542   0.257  17.155 -0.3096 -0.0422 -0.2628
 6807SOL    HW132057   0.482   0.302  17.214  0.7213  1.0299 -0.0350
 6807SOL    HW232058   0.564   0.329  17.096  1.6863  0.4240  1.0738
 6808SOL     OW32059   1.524   4.285   4.325 -0.0507 -0.0449  0.0480
 6808SOL    HW132060   1.504   4.225   4.397  0.5915  0.0364  0.2945
 6808SOL    HW232061   1.508   4.370   4.365  1.3624  1.0214 -1.6462
 6809SOL     OW32062   4.354   1.968   9.105 -0.1832 -0.2948 -0.5003
 6809SOL    HW132063   4.310   1.948   9.023 -0.1734 -1.8578 -0.1243
 6809SOL    HW232064   4.441   1.927   9.099 -0.1143 -0.6027  2.5754
 6810SOL     OW32065   1.283   2.966   5.394  0.7308  0.4126  0.0633
 6810SOL    HW132066   1.308   2.874   5.408 -1.6713 -0.0984  1.1777
 6810SOL    HW232067   1.300   2.968   5.300 -2.0790 -1.9070 -0.5301
 6811SOL     OW32068   1.639   2.318   7.791  0.0696  0.2950  0.0336
 6811SOL    HW132069   1.561   2.370   7.807  2.1944  2.8200  2.1609
 6811SOL    HW232070   1.620   2.289   7.702 -0.9489 -0.7098  0.5789
 6812SOL     OW32071   3.325   3.137   2.021  0.1488 -0.4936  0.5727
 6812SOL    HW132072   3.345   3.045   2.005  0.5586  0.0818 -2.1667
 6812SOL    HW232073   3.360   3.170   1.938 -3.0687 -2.4617 -1.5474
 6813SOL     OW32074   4.169   4.405   4.581  0.1362  0.1944 -1.2420
 6813SOL    HW132075   4.254   4.447   4.590  0.3055 -0.8090  1.7091
 6813SOL    HW232076   4.116   4.485   4.575  0.0299  0.0842 -1.7898
 6814SOL     OW32077   3.524   1.019   2.312  0.4919  0.0465 -0.1080
 6814SOL    HW132078   3.570   0.971   2.243 -1.0667 -0.0457 -1.0748
 6814SOL    HW232079   3.440   1.036   2.271  0.2121  1.9075  1.2172
 6815SOL     OW32080   1.453   3.361   2.803  0.5590  0.0290  0.0858
 6815SOL    HW132081   1.493   3.404   2.727 -0.4093 -1.0870 -1.0552
 6815SOL    HW232082   1.449   3.429   2.870 -0.6829  0.6520 -0.6132
 6816SOL     OW32083   0.446   4.410  13.190 -0.2196  0.8545 -0.6349
 6816SOL    HW132084   0.522   4.363  13.226 -0.8610  0.3839  0.0912
 6816SOL    HW232085   0.463   4.489  13.241 -0.5627  0.2448  0.4181
 6817SOL     OW32086   0.919   3.699   3.371  0.0046 -0.1306  0.3776
 6817SOL    HW132087   0.824   3.704   3.382  0.0597 -0.4735  0.9880
 6817SOL    HW232088   0.937   3.792   3.357 -1.2858  0.0384 -0.1029
 6818SOL     OW32089   2.139   0.924   1.437  0.1899 -0.5914 -0.8046
 6818SOL    HW132090   2.050   0.919   1.472  0.3705 -1.3922 -0.4690
 6818SOL    HW232091   2.182   0.839   1.433  1.0238 -0.2163  0.5196
 6819SOL     OW32092   3.221   1.564   2.028 -0.6818  0.3103  0.1073
 6819SOL    HW132093   3.175   1.534   1.950 -0.6417 -2.0473  0.9600
 6819SOL    HW232094   3.164   1.543   2.103 -0.0311  0.0270  0.5279
 6820SOL     OW32095   4.423   1.529   0.203  0.0499 -0.4876  0.3476
 6820SOL    HW132096   4.411   1.449   0.152 -0.6778  1.6432 -2.8042
 6820SOL    HW232097   4.333   1.541   0.233  0.1596  1.5032 -0.1693
 6821SOL     OW32098   2.777   1.895   5.384 -0.4051  0.2801 -0.0705
 6821SOL    HW132099   2.870   1.916   5.397 -0.0206 -0.1368 -2.0848
 6821SOL    HW232100   2.752   1.984   5.360 -2.1882  0.3420  2.0529
 6822SOL     OW32101   1.478   3.347   8.141 -0.0608  0.3834  0.4589
 6822SOL    HW132102   1.543   3.285   8.107 -0.9705  0.1566 -0.8590
 6822SOL    HW232103   1.532   3.426   8.148 -0.3790  0.4488  2.3237
 6823SOL     OW32104   0.207   1.906  11.653  0.3596  0.5722 -0.5442
 6823SOL    HW132105   0.180   1.976  11.712 -1.9904  2.1024 -3.4030
 6823SOL    HW232106   0.154   1.930  11.577  0.6605  1.4030 -0.4837
 6824SOL     OW32107   1.100   2.440  13.257 -0.5717 -0.2080  0.2866
 6824SOL    HW132108   1.099   2.345  13.244  2.2230 -0.4569  1.8363
 6824SOL    HW232109   1.055   2.443  13.341  2.3736 -0.3344  1.8601
 6825SOL     OW32110   2.498   2.120  15.621  0.0554  0.1921  0.1128
 6825SOL    HW132111   2.528   2.031  15.607 -0.2908  0.1213 -0.1782
 6825SOL    HW232112   2.435   2.105  15.692  0.3019  0.7806  0.4608
 6826SOL     OW32113   1.193   1.658   1.888  0.0897  0.3298  0.4087
 6826SOL    HW132114   1.120   1.691   1.835  0.6443 -2.7621 -2.2695
 6826SOL    HW232115   1.207   1.737   1.941  0.0275  0.0743  0.8069
 6827SOL     OW32116   4.267   0.740   0.962 -0.0895 -0.0654  0.2208
 6827SOL    HW132117   4.357   0.739   0.994 -0.4809 -0.0980  1.2977
 6827SOL    HW232118   4.277   0.787   0.879  1.3751  1.4900  1.2724
 6828SOL     OW32119   0.370   2.422   9.416  0.2425  0.1834  0.0093
 6828SOL    HW132120   0.461   2.448   9.399 -0.1826  1.6728  0.0621
 6828SOL    HW232121   0.358   2.435   9.510  0.8281 -1.1582  0.2842
 6829SOL     OW32122   3.513   0.788   9.375 -0.1801 -0.2904 -0.0581
 6829SOL    HW132123   3.509   0.741   9.291 -1.2354 -1.0875  0.4387
 6829SOL    HW232124   3.542   0.720   9.435  0.4724  0.4413  0.4455
 6830SOL     OW32125   2.889   2.950   7.489 -0.0604 -0.4041  0.0262
 6830SOL    HW132126   2.920   2.905   7.568  0.5045 -1.1282 -0.6007
 6830SOL    HW232127   2.794   2.941   7.498 -0.0967 -0.9007 -0.8183
 6831SOL     OW32128   3.347   3.190   2.437 -0.2504  0.3476 -0.2783
 6831SOL    HW132129   3.390   3.171   2.354  0.2459  1.0108 -0.1747
 6831SOL    HW232130   3.343   3.105   2.482 -1.4278 -0.1857 -1.4094
 6832SOL     OW32131   0.177   2.519   7.025 -0.3044  0.9196  0.9358
 6832SOL    HW132132   0.097   2.562   7.055  0.5117  1.6481  2.0342
 6832SOL    HW232133   0.129   2.454   6.974  2.0016 -0.2988  0.3337
 6833SOL     OW32134   0.843   3.670  14.822 -0.1231 -0.2743  0.4376
 6833SOL    HW132135   0.897   3.651  14.898  1.2552  0.5815 -0.3438
 6833SOL    HW232136   0.906   3.654  14.752  0.3524  0.1925  0.7611
 6834SOL     OW32137   0.645   0.324   4.308  0.0163  0.3915 -0.4502
 6834SOL    HW132138   0.659   0.235   4.341 -3.4920  0.7404  2.0245
 6834SOL    HW232139   0.715   0.371   4.352  0.9445 -3.0541  1.7480
 6835SOL     OW32140   1.123   2.586  11.159 -0.1259  0.4463 -0.3760
 6835SOL    HW132141   1.207   2.577  11.112 -0.1232 -1.5247  0.0110
 6835SOL    HW232142   1.106   2.680  11.159  1.9177  0.8158  2.4231
 6836SOL     OW32143   2.435   1.158   2.835  0.1105  0.3047 -0.0746
 6836SOL    HW132144   2.474   1.132   2.919 -0.0845 -2.9161 -0.9796
 6836SOL    HW232145   2.509   1.191   2.784 -1.3420  1.8044 -1.2274
 6837SOL     OW32146   0.025   0.553   7.484 -0.0431 -0.5263  0.7142
 6837SOL    HW132147   0.078   0.619   7.527  0.9277 -0.3949 -0.6688
 6837SOL    HW232148   0.006   0.490   7.553 -0.3891 -1.1745  0.0304
 6838SOL     OW32149   0.465   3.495   3.331 -0.7320  0.2783 -0.2704
 6838SOL    HW132150   0.511   3.413   3.314 -2.5149 -0.0760 -3.3010
 6838SOL    HW232151   0.374   3.470   3.347 -0.5388  0.9804  1.9579
 6839SOL     OW32152   0.519   0.489   6.620  0.8183 -0.8138  0.0158
 6839SOL    HW132153   0.543   0.582   6.629 -1.4867  0.0314 -2.4904
 6839SOL    HW232154   0.430   0.489   6.656  0.8314 -1.6290  0.0317
 6840SOL     OW32155   2.671   0.219   3.160  0.8059  0.3500  0.2208
 6840SOL    HW132156   2.727   0.292   3.135  1.0101 -0.4903 -1.7489
 6840SOL    HW232157   2.722   0.168   3.224 -1.8500 -0.8318  1.3979
 6841SOL     OW32158   0.343   0.136   7.338  0.1132  0.2843  0.0125
 6841SOL    HW132159   0.294   0.206   7.381 -0.1569  0.3745 -0.4461
 6841SOL    HW232160   0.385   0.182   7.265  0.6636 -1.6748 -0.8892
 6842SOL     OW32161   0.068   4.191   3.356  0.1436  0.1922  0.2160
 6842SOL    HW132162   0.091   4.180   3.449 -1.5205 -1.4481  0.4266
 6842SOL    HW232163   4.717   4.231   3.365  0.6310  1.7200 -2.0142
 6843SOL     OW32164   4.015   4.550  16.903  0.3452 -0.0303  0.1351
 6843SOL    HW132165   4.067   4.622  16.867  0.0773 -0.3243 -0.8234
 6843SOL    HW232166   4.089   4.492  16.923 -0.5655 -0.3423  2.5882
 6844SOL     OW32167   0.547   1.576   8.116  0.1997  0.0765  0.1269
 6844SOL    HW132168   0.453   1.595   8.121  0.1974 -0.2453  1.3533
 6844SOL    HW232169   0.601   1.636   8.168 -0.7309 -1.5390  2.9516
 6845SOL     OW32170   1.286   2.245  12.639 -0.0421 -0.4187 -0.0065
 6845SOL    HW132171   1.229   2.169  12.652 -0.3484 -0.4635 -1.5841
 6845SOL    HW232172   1.365   2.222  12.687  0.4003 -1.2260 -1.1024
 6846SOL     OW32173   1.823   0.218  16.746 -0.2285 -0.1768 -0.5156
 6846SOL    HW132174   1.801   0.138  16.794 -1.1177 -0.7285 -1.8574
 6846SOL    HW232175   1.867   0.177  16.671 -0.0438 -0.8949 -0.0153
 6847SOL     OW32176   1.743   3.367   8.404  0.0059 -0.2444 -0.2534
 6847SOL    HW132177   1.786   3.347   8.487  0.2123 -1.9395 -0.7830
 6847SOL    HW232178   1.743   3.462   8.420  0.0788 -0.4547  0.9778
 6848SOL     OW32179   2.782   0.641  12.615  0.1333  0.1348 -0.3294
 6848SOL    HW132180   2.856   0.700  12.612 -0.2085  0.5391 -0.7891
 6848SOL    HW232181   2.717   0.711  12.606  1.2510  0.9000 -2.5074
 6849SOL     OW32182   4.241   1.166   3.694 -0.6091 -0.9175 -0.1319
 6849SOL    HW132183   4.283   1.120   3.621 -1.1263 -1.5023 -0.0658
 6849SOL    HW232184   4.307   1.229   3.721 -0.1873 -1.6477  0.5482
 6850SOL     OW32185   1.858   3.185   9.336  0.3043 -0.1026  0.4467
 6850SOL    HW132186   1.891   3.149   9.418 -0.3364 -2.2928 -0.2712
 6850SOL    HW232187   1.768   3.152   9.339  0.9440 -1.6819  1.9228
 6851SOL     OW32188   0.721   3.785  15.041  0.4099  0.1603  0.5035
 6851SOL    HW132189   0.671   3.864  15.021  1.9037  0.7647 -0.7667
 6851SOL    HW232190   0.728   3.746  14.954  0.4417  1.2282  0.0327
 6852SOL     OW32191   1.662   0.728   5.371 -0.0030 -0.0702 -0.2324
 6852SOL    HW132192   1.671   0.821   5.350 -0.2451 -0.2588 -1.1765
 6852SOL    HW232193   1.753   0.700   5.357  0.5636  1.0944  1.1622
 6853SOL     OW32194   1.971   4.339   4.557  0.1073  0.0517  0.4383
 6853SOL    HW132195   1.964   4.342   4.652 -1.1102  0.9974  0.3215
 6853SOL    HW232196   1.956   4.246   4.543  2.1124 -0.4807  1.8521
 6854SOL     OW32197   0.778   1.346   5.048  0.3519 -0.7548 -0.2520
 6854SOL    HW132198   0.715   1.288   5.092  0.8422  0.1557  1.6544
 6854SOL    HW232199   0.742   1.354   4.960 -0.1195  0.2137  0.0210
 6855SOL     OW32200   2.260   3.174   8.972 -0.0096  0.1531 -0.2518
 6855SOL    HW132201   2.238   3.131   9.055  0.0046 -0.2062 -0.4314
 6855SOL    HW232202   2.276   3.260   9.009 -1.2511  1.1880 -2.1046
 6856SOL     OW32203   1.288   1.417   3.162 -0.2187 -0.4320  0.1398
 6856SOL    HW132204   1.198   1.447   3.148  0.1308  0.9446  0.8021
 6856SOL    HW232205   1.321   1.422   3.072  1.0311 -3.0332  0.4613
 6857SOL     OW32206   2.875   3.808  16.861 -0.0407 -0.6281 -0.2378
 6857SOL    HW132207   2.871   3.805  16.765  0.8134  0.9133 -0.3209
 6857SOL    HW232208   2.787   3.785  16.892 -0.2020 -0.1289 -0.3263
 6858SOL     OW32209   1.125   2.574   9.452 -0.3515  0.2013  0.1873
 6858SOL    HW132210   1.102   2.652   9.402 -0.2481  0.8389  1.1368
 6858SOL    HW232211   1.097   2.591   9.542  0.9279  1.8095  0.2963
 6859SOL     OW32212   0.581   4.712   7.085 -0.1112 -0.3705  0.1433
 6859SOL    HW132213   0.508   4.650   7.091  1.4819 -1.9311  3.2209
 6859SOL    HW232214   0.655   4.677   7.133  1.2409 -0.9482 -2.3994
 6860SOL     OW32215   2.493   3.020   4.182 -0.4415  0.4495  0.3029
 6860SOL    HW132216   2.532   2.935   4.166 -0.7562  0.5718 -1.0786
 6860SOL    HW232217   2.492   3.063   4.097  2.7559  1.8208  0.9617
 6861SOL     OW32218   2.622   2.397   4.006 -0.2315  0.3082  0.0825
 6861SOL    HW132219   2.543   2.355   4.038  0.4659  1.5356  3.3595
 6861SOL    HW232220   2.668   2.331   3.954 -1.5997  1.0800 -2.1046
 6862SOL     OW32221   3.450   2.800  10.954  0.1682 -0.4191 -0.0907
 6862SOL    HW132222   3.385   2.774  10.888 -0.7012 -0.1151  0.6517
 6862SOL    HW232223   3.430   2.743  11.028 -1.4031  1.5089  0.9626
 6863SOL     OW32224   2.975   0.286   8.060 -0.2293  0.0432 -0.1468
 6863SOL    HW132225   2.981   0.279   8.155 -0.5040 -2.1204 -0.2716
 6863SOL    HW232226   2.905   0.351   8.053 -1.0980 -0.6440  2.0002
 6864SOL     OW32227   0.623   4.544   9.858 -0.2212 -0.0904  0.4546
 6864SOL    HW132228   0.674   4.490   9.798  3.1972  1.9142  1.5229
 6864SOL    HW232229   0.605   4.491   9.936  1.0805 -2.5184 -0.8756
 6865SOL     OW32230   3.370   0.208   2.283  0.0334 -0.2076 -0.0109
 6865SOL    HW132231   3.288   0.227   2.328  0.5376 -0.0101  0.8126
 6865SOL    HW232232   3.384   0.295   2.245 -1.6336 -0.0735 -0.3214
 6866SOL     OW32233   3.821   2.309  13.226  0.5778  0.0631 -0.3083
 6866SOL    HW132234   3.736   2.346  13.249  1.4401  1.7925  0.0565
 6866SOL    HW232235   3.844   2.364  13.151 -0.3644  1.6056  0.5382
 6867SOL     OW32236   1.566   2.323   6.525  0.0586 -0.4805 -0.0263
 6867SOL    HW132237   1.487   2.372   6.548  0.2695 -0.1472 -0.0083
 6867SOL    HW232238   1.625   2.394   6.499  0.0573  0.1955  1.8278
 6868SOL     OW32239   0.587   2.445   5.455  0.2882 -0.5319  0.2510
 6868SOL    HW132240   0.552   2.531   5.475 -2.1226 -1.5624  0.5181
 6868SOL    HW232241   0.548   2.405   5.533 -2.1779  1.4117  0.0039
 6869SOL     OW32242   1.807   2.835   7.463 -0.0246  0.2672  0.4450
 6869SOL    HW132243   1.753   2.895   7.515 -0.1249  1.3729 -0.9219
 6869SOL    HW232244   1.892   2.839   7.507  0.8490  0.2343 -1.2406
 6870SOL     OW32245   4.368   3.295   4.596 -0.3484  0.7106  0.1619
 6870SOL    HW132246   4.312   3.317   4.521 -0.1200 -0.9132 -0.4640
 6870SOL    HW232247   4.427   3.233   4.555  0.5274 -0.1280  2.7508
 6871SOL     OW32248   0.822   2.861   7.293 -0.0137  0.3247 -0.8376
 6871SOL    HW132249   0.807   2.814   7.211 -0.3934 -1.7158  0.3916
 6871SOL    HW232250   0.814   2.953   7.268 -1.1487  0.1031 -1.3062
 6872SOL     OW32251   3.238   3.307   7.965  0.8221  0.2644 -0.1232
 6872SOL    HW132252   3.203   3.308   7.876 -0.3305 -0.8855  0.3078
 6872SOL    HW232253   3.260   3.400   7.975  3.8968 -0.6484  1.7737
 6873SOL     OW32254   1.917   3.551   5.135  0.0007  0.0259  0.0439
 6873SOL    HW132255   1.990   3.503   5.173 -2.0047 -2.6646  0.4982
 6873SOL    HW232256   1.887   3.488   5.070 -0.2560  0.0929  0.0976
 6874SOL     OW32257   1.005   3.552  11.771  0.1897 -0.0959 -0.4097
 6874SOL    HW132258   1.069   3.483  11.751  0.7048  0.3428 -0.2551
 6874SOL    HW232259   1.049   3.598  11.842 -0.0145 -0.5755  0.0310
 6875SOL     OW32260   0.934   4.434   3.276 -0.0266 -0.0207  0.1414
 6875SOL    HW132261   0.939   4.530   3.272  0.2185 -0.0627 -0.5593
 6875SOL    HW232262   0.991   4.439   3.353 -0.5562 -2.8710  0.6804
 6876SOL     OW32263   4.388   0.746   7.648 -0.1956 -0.1679 -0.3506
 6876SOL    HW132264   4.399   0.773   7.557  0.5966  1.9525  0.3762
 6876SOL    HW232265   4.294   0.754   7.663  0.0048  1.8291 -0.1596
 6877SOL     OW32266   2.981   0.180   0.270  0.4738  0.1903  0.0861
 6877SOL    HW132267   2.906   0.127   0.298  1.6276 -2.3594 -1.5699
 6877SOL    HW232268   2.971   0.262   0.317 -1.6960  0.9732 -1.6911
 6878SOL     OW32269   1.346   1.878   1.993 -0.7017 -0.2439 -0.8159
 6878SOL    HW132270   1.336   1.929   2.074  0.2139 -1.4497  0.0508
 6878SOL    HW232271   1.297   1.935   1.935  1.0457  0.3942 -1.6777
 6879SOL     OW32272   0.585   0.848   4.412 -0.0456 -0.6129 -0.0426
 6879SOL    HW132273   0.658   0.860   4.473  0.3584 -1.3691 -0.3848
 6879SOL    HW232274   0.626   0.797   4.342 -1.8689  1.7103 -2.7798
 6880SOL     OW32275   0.795   3.379   8.070  0.3709 -0.2443 -0.1915
 6880SOL    HW132276   0.714   3.369   8.120 -0.2419  2.2314 -0.7256
 6880SOL    HW232277   0.830   3.290   8.077 -1.1949 -0.8598 -0.1230
 6881SOL     OW32278   2.434   3.157   3.915  0.1560 -0.2907  0.8149
 6881SOL    HW132279   2.342   3.146   3.937  0.2490 -0.5208  1.0986
 6881SOL    HW232280   2.454   3.083   3.858  0.4140  0.8038 -0.5131
 6882SOL     OW32281   0.434   2.899   0.592 -0.3377 -0.7131  0.3188
 6882SOL    HW132282   0.423   2.826   0.652  0.5737 -1.1627 -0.0590
 6882SOL    HW232283   0.347   2.937   0.596  0.8777  2.3907 -2.7872
 6883SOL     OW32284   4.050   4.666   4.572  1.1498 -0.1370 -0.0398
 6883SOL    HW132285   3.992   4.638   4.502 -2.7511  1.4818  2.5729
 6883SOL    HW232286   4.061   0.024   4.557  1.2357  0.1847  2.0753
 6884SOL     OW32287   0.048   0.728  15.057 -0.3649  0.3433  0.0622
 6884SOL    HW132288   0.138   0.739  15.027 -0.0139 -0.6198  0.7501
 6884SOL    HW232289   0.029   0.811  15.100  0.1710 -0.1722  1.3118
 6885SOL     OW32290   1.085   1.024   2.274 -0.6317  0.0314 -0.0424
 6885SOL    HW132291   1.152   0.960   2.251 -2.3659 -1.7303 -0.1097
 6885SOL    HW232292   1.100   1.085   2.202  1.5370  0.2767  0.6288
 6886SOL     OW32293   0.947   3.360   1.803  0.2613  0.3580  0.3588
 6886SOL    HW132294   0.906   3.366   1.889  1.5816  1.1845  0.9214
 6886SOL    HW232295   0.894   3.429   1.763 -1.1340 -0.8007  0.1863
 6887SOL     OW32296   3.822   0.840   1.530  0.0950  1.3347  0.0803
 6887SOL    HW132297   3.844   0.777   1.599  0.3688  2.3082  0.8776
 6887SOL    HW232298   3.850   0.796   1.450  0.0412  1.4051  0.0226
 6888SOL     OW32299   2.908   2.706   6.910  0.5690 -0.6209  0.6986
 6888SOL    HW132300   2.943   2.777   6.963  1.3830 -0.1981 -0.4139
 6888SOL    HW232301   2.982   2.702   6.849 -0.6723 -0.5446 -0.8162
 6889SOL     OW32302   1.108   2.895   6.007  0.0098  0.1628 -0.0141
 6889SOL    HW132303   1.056   2.967   6.044 -0.6500 -0.1328 -0.3577
 6889SOL    HW232304   1.144   2.935   5.927  0.6879 -2.6796 -1.1223
 6890SOL     OW32305   1.361   0.891   0.133  0.1602  0.4228  0.6106
 6890SOL    HW132306   1.416   0.830   0.084  0.1415  0.9173 -0.0226
 6890SOL    HW232307   1.302   0.841   0.190 -0.2222 -0.3109 -0.4268
 6891SOL     OW32308   4.556   1.676  12.959 -0.6286  0.8945 -0.6128
 6891SOL    HW132309   4.594   1.614  12.897 -0.9285 -0.1283  0.2234
 6891SOL    HW232310   4.579   1.759  12.917  0.4759  0.8679 -0.0501
 6892SOL     OW32311   1.078   3.345   7.677  0.3927 -0.6111  0.4114
 6892SOL    HW132312   1.040   3.414   7.622 -0.6676 -0.2491  1.5978
 6892SOL    HW232313   1.095   3.402   7.753 -2.8183 -1.8889  2.0796
 6893SOL     OW32314   4.689   4.165   2.307  0.3174 -0.1385  0.3751
 6893SOL    HW132315   0.033   4.184   2.356  1.1705 -1.6829 -0.3706
 6893SOL    HW232316   4.702   4.072   2.286 -2.0147 -0.3661 -0.0153
 6894SOL     OW32317   3.682   1.370   3.774  0.0370 -0.4232  0.1176
 6894SOL    HW132318   3.682   1.307   3.701 -2.5698  1.9110 -1.8738
 6894SOL    HW232319   3.650   1.313   3.843 -3.3234  0.2569 -0.8885
 6895SOL     OW32320   3.311   1.213   5.409  0.6750 -0.2372  0.0385
 6895SOL    HW132321   3.280   1.299   5.382 -0.0233 -0.4781  0.0827
 6895SOL    HW232322   3.375   1.204   5.339  0.0671 -1.8924 -0.3054
 6896SOL     OW32323   2.609   0.537  13.915  0.0954  0.2625  0.0234
 6896SOL    HW132324   2.686   0.533  13.858  1.0888  1.1307  1.2711
 6896SOL    HW232325   2.604   0.632  13.931 -0.5994  0.8234 -3.5012
 6897SOL     OW32326   2.027   2.928   8.175 -0.5405 -0.2085  0.6430
 6897SOL    HW132327   2.029   2.932   8.080  2.3732  0.4208  0.7348
 6897SOL    HW232328   1.935   2.947   8.191 -0.8960 -1.2044 -0.2232
 6898SOL     OW32329   0.390   4.391   5.376 -0.1704 -0.3503 -0.5294
 6898SOL    HW132330   0.297   4.391   5.353 -0.4888 -0.1331  0.7876
 6898SOL    HW232331   0.392   4.314   5.432  0.9441 -0.8610 -1.2773
 6899SOL     OW32332   0.022   0.871   1.156 -0.4340 -0.2973 -0.0697
 6899SOL    HW132333   4.688   0.930   1.184  0.2667  0.5870 -0.2020
 6899SOL    HW232334   0.062   0.923   1.086  2.0407 -0.4122  1.2823
 6900SOL     OW32335   1.964   4.653   7.175 -0.2606  0.1872  0.3250
 6900SOL    HW132336   1.901   4.589   7.142  0.0253 -0.5837  1.2812
 6900SOL    HW232337   2.033   4.641   7.109  0.1904 -0.6292  0.9510
 6901SOL     OW32338   3.992   0.486   6.175 -0.4459 -0.1157  0.6647
 6901SOL    HW132339   3.950   0.526   6.252 -1.1057 -0.3120  0.4073
 6901SOL    HW232340   3.941   0.516   6.100 -0.0060 -0.3766  0.2652
 6902SOL     OW32341   1.464   4.400   1.242 -0.4682  0.3186 -0.5305
 6902SOL    HW132342   1.372   4.376   1.256  0.1778 -0.9239  1.5269
 6902SOL    HW232343   1.464   4.494   1.224  0.8547  0.1709 -1.2297
 6903SOL     OW32344   0.424   3.710   2.488 -0.2464 -0.1509  0.2512
 6903SOL    HW132345   0.444   3.730   2.579  0.1064  1.1352 -0.1020
 6903SOL    HW232346   0.411   3.616   2.494 -2.3665  0.1485  0.1229
 6904SOL     OW32347   2.630   3.864   5.068  0.1179  0.7919  0.3903
 6904SOL    HW132348   2.683   3.784   5.066 -1.3916 -0.1551 -1.2722
 6904SOL    HW232349   2.700   3.928   5.081  2.2197 -1.6780  1.2567
 6905SOL     OW32350   0.234   0.344   1.685 -0.1041 -0.4789  0.2174
 6905SOL    HW132351   0.271   0.259   1.710  1.2876  0.4603  1.3669
 6905SOL    HW232352   0.191   0.372   1.765 -0.4936  0.3868 -0.2983
 6906SOL     OW32353   2.506   2.830   3.290  0.6324  0.0662 -0.4058
 6906SOL    HW132354   2.541   2.777   3.362  1.0191  0.1552 -0.5253
 6906SOL    HW232355   2.578   2.892   3.279 -0.3797  1.4500  0.8099
 6907SOL     OW32356   1.627   1.482   8.521  0.2694 -0.3399 -0.1345
 6907SOL    HW132357   1.563   1.478   8.592 -0.4702 -1.2861 -0.8511
 6907SOL    HW232358   1.611   1.570   8.486 -1.0602 -0.5175 -0.0072
 6908SOL     OW32359   2.976   2.354   8.287  0.0124 -0.1087  0.1593
 6908SOL    HW132360   3.035   2.322   8.218 -1.3421 -1.0816 -0.5467
 6908SOL    HW232361   3.004   2.315   8.370 -1.1437  0.5929  0.8800
 6909SOL     OW32362   1.013   3.621   6.488 -0.3417  0.2455  0.4646
 6909SOL    HW132363   1.104   3.596   6.472 -0.6548 -0.3647 -0.3779
 6909SOL    HW232364   1.000   3.701   6.437 -0.2569  1.0177  1.6680
 6910SOL     OW32365   4.063   4.595   3.515  0.1559  0.6514 -0.8733
 6910SOL    HW132366   4.032   4.521   3.463 -0.1702 -0.6690  1.1786
 6910SOL    HW232367   4.136   4.552   3.559 -0.1507  3.2397  2.1687
 6911SOL     OW32368   0.191   1.056   5.133  0.0219  0.2450  0.0897
 6911SOL    HW132369   0.126   0.986   5.125  0.8519 -0.5115 -0.1551
 6911SOL    HW232370   0.196   1.063   5.229  0.3258 -1.8956  0.2394
 6912SOL     OW32371   1.609   3.540   5.580 -0.6280 -0.3849  0.5353
 6912SOL    HW132372   1.625   3.448   5.602  1.3936  0.0117  0.7120
 6912SOL    HW232373   1.550   3.533   5.505 -1.0976  1.8436  0.7011
 6913SOL     OW32374   1.471   4.535   6.619 -0.2442 -0.1775 -0.7928
 6913SOL    HW132375   1.408   4.534   6.690  1.0528  1.5891  0.3745
 6913SOL    HW232376   1.544   4.552   6.678 -0.5591  1.1168 -0.7875
 6914SOL     OW32377   2.980   2.151   1.797  0.1230  0.1082 -0.2561
 6914SOL    HW132378   2.900   2.178   1.752 -1.2174 -0.5429  1.7231
 6914SOL    HW232379   3.007   2.068   1.759 -1.6705 -0.3957 -0.3990
 6915SOL     OW32380   4.019   2.795   6.145 -0.1146 -0.2871  0.9816
 6915SOL    HW132381   3.978   2.720   6.101  1.7761 -0.2067 -0.9400
 6915SOL    HW232382   4.005   2.862   6.078  0.1167  0.5474  1.7872
 6916SOL     OW32383   2.149   1.406   8.549 -0.1759  0.5196 -0.2803
 6916SOL    HW132384   2.185   1.338   8.606 -0.9804  2.5862  2.6975
 6916SOL    HW232385   2.228   1.453   8.520  0.4834 -0.4563 -0.0644
 6917SOL     OW32386   2.080   3.328   6.647 -0.1617 -0.1742 -0.0717
 6917SOL    HW132387   2.034   3.264   6.701  0.2766  1.1858  1.9600
 6917SOL    HW232388   2.110   3.393   6.711  0.2690 -0.0459 -0.4022
 6918SOL     OW32389   0.289   4.672  14.869 -0.4715 -0.3513 -0.3804
 6918SOL    HW132390   0.329   0.024  14.863  1.4118 -1.2515 -1.0435
 6918SOL    HW232391   0.303   4.644  14.779  3.6154 -2.5020  0.8856
 6919SOL     OW32392   4.591   3.085   2.784  0.3269  0.0606  0.3414
 6919SOL    HW132393   4.496   3.082   2.784  0.3787 -1.5219 -0.6837
 6919SOL    HW232394   4.603   3.038   2.866  0.0598 -1.7070 -0.6232
 6920SOL     OW32395   2.506   0.844   8.550  0.6685  0.1839 -0.3979
 6920SOL    HW132396   2.546   0.772   8.598  3.5603  2.0792  0.0375
 6920SOL    HW232397   2.437   0.874   8.608 -0.2100  0.9072 -1.8139
 6921SOL     OW32398   3.917   4.236  16.176 -0.7530  0.0934  0.1622
 6921SOL    HW132399   3.980   4.294  16.132 -0.2492 -0.2168  0.4686
 6921SOL    HW232400   3.976   4.196  16.240  0.6296  0.0662 -1.1214
 6922SOL     OW32401   2.257   3.091  11.372  0.0086 -0.5198 -0.4056
 6922SOL    HW132402   2.266   3.016  11.313 -1.2913 -0.3183 -0.8616
 6922SOL    HW232403   2.345   3.129  11.368 -1.0329  1.8427 -0.7317
 6923SOL     OW32404   4.012   4.501  16.387 -0.2978 -0.0943 -0.0811
 6923SOL    HW132405   4.088   4.448  16.364  0.1478  1.5541 -2.3221
 6923SOL    HW232406   3.953   4.428  16.406 -0.2142  0.4993  2.5768
 6924SOL     OW32407   0.570   1.331   6.764 -0.1689  0.1585 -0.3917
 6924SOL    HW132408   0.595   1.257   6.709  2.1909  0.4471  0.2956
 6924SOL    HW232409   0.546   1.286   6.845  0.1997  0.9189  0.1415
 6925SOL     OW32410   2.433   1.099  10.507 -0.0016 -0.3682  0.2464
 6925SOL    HW132411   2.435   1.069  10.598 -1.1537 -0.0242  0.3944
 6925SOL    HW232412   2.487   1.035  10.462  0.3902 -1.1774  1.8701
 6926SOL     OW32413   1.574   0.340   4.638  0.4983  0.1525 -0.1090
 6926SOL    HW132414   1.564   0.387   4.721 -0.9116 -0.6260  0.1560
 6926SOL    HW232415   1.496   0.285   4.637  1.0644 -0.6488 -0.0112
 6927SOL     OW32416   4.495   0.706   5.486  0.5068  0.1578 -0.0665
 6927SOL    HW132417   4.581   0.706   5.529  0.8626  1.5157 -0.7901
 6927SOL    HW232418   4.440   0.703   5.564 -0.2705  1.1179 -0.5898
 6928SOL     OW32419   2.675   4.308   4.029  0.0464 -0.1829  0.3448
 6928SOL    HW132420   2.619   4.342   4.099 -1.9576  1.2702 -2.0053
 6928SOL    HW232421   2.701   4.222   4.064  0.1941 -1.2095 -2.3294
 6929SOL     OW32422   4.250   4.532  11.971  0.4173  0.0963  0.3448
 6929SOL    HW132423   4.296   4.567  12.047  1.2902 -2.5737  1.0266
 6929SOL    HW232424   4.162   4.506  11.998  0.6827 -0.0281  1.0881
 6930SOL     OW32425   1.346   1.987   3.212  0.0620  0.2018 -0.2249
 6930SOL    HW132426   1.408   1.929   3.256  0.2140  0.6530  0.1607
 6930SOL    HW232427   1.395   2.023   3.138 -0.5541 -1.2805 -1.3536
 6931SOL     OW32428   3.891   2.766   4.805 -0.0172  0.1115 -0.5312
 6931SOL    HW132429   3.946   2.716   4.866 -0.4598 -0.8635 -0.9160
 6931SOL    HW232430   3.904   2.856   4.835 -0.9448 -0.2586  1.0323
 6932SOL     OW32431   3.591   0.094  13.640  0.0372  0.3835 -0.4916
 6932SOL    HW132432   3.603   0.176  13.687  2.4633  0.6713 -1.5740
 6932SOL    HW232433   3.645   0.114  13.563  1.2025  0.3943  0.3401
 6933SOL     OW32434   3.937   2.989   0.878  0.9655 -0.5659 -0.3323
 6933SOL    HW132435   4.019   2.961   0.919  1.8738  0.5631 -1.3502
 6933SOL    HW232436   3.877   2.997   0.951  0.8722  0.0561 -0.4750
 6934SOL     OW32437   1.194   2.299   4.484 -0.1917 -0.1138 -0.2416
 6934SOL    HW132438   1.105   2.333   4.478  0.1140  1.2901  3.3756
 6934SOL    HW232439   1.248   2.373   4.457 -0.4356 -0.6146 -2.1505
 6935SOL     OW32440   0.749   1.488  15.994 -0.0891 -0.3768  0.2109
 6935SOL    HW132441   0.729   1.553  15.927 -1.0290  1.0047  1.8320
 6935SOL    HW232442   0.845   1.480  15.995  0.0268  0.8180 -0.5090
 6936SOL     OW32443   0.466   0.562   7.183  0.2277  0.0401  0.0544
 6936SOL    HW132444   0.447   0.469   7.166  1.3673 -0.5516  1.9800
 6936SOL    HW232445   0.561   0.554   7.191  0.3207 -0.3165 -1.2558
 6937SOL     OW32446   2.529   1.116   6.089 -0.8188 -0.1372  0.0303
 6937SOL    HW132447   2.461   1.180   6.065  2.8373  3.3236 -1.1115
 6937SOL    HW232448   2.538   1.149   6.179 -1.4699  0.2383 -0.0339
 6938SOL     OW32449   4.694   3.799  13.737  0.4947  0.5013  0.5175
 6938SOL    HW132450   4.734   3.823  13.654 -2.0862  1.0696 -0.5616
 6938SOL    HW232451   0.040   3.767  13.774  0.7018  0.4385 -0.0037
 6939SOL     OW32452   4.370   0.054  16.725 -0.5957  0.2461  0.1705
 6939SOL    HW132453   4.434   0.019  16.663 -0.9230 -2.8749  1.5775
 6939SOL    HW232454   4.366   4.718  16.789 -0.7040 -2.3478 -2.7622
 6940SOL     OW32455   0.893   0.419   6.683 -0.1014 -0.6537  0.1556
 6940SOL    HW132456   0.865   0.327   6.688 -0.5465 -0.6803 -2.8573
 6940SOL    HW232457   0.846   0.461   6.755 -0.9974  1.6861 -1.7629
 6941SOL     OW32458   2.895   3.405   6.292  0.0303  0.3024 -0.3842
 6941SOL    HW132459   2.983   3.384   6.324  0.9820  0.2063 -3.0790
 6941SOL    HW232460   2.906   3.424   6.199 -0.9146 -0.4178 -0.6461
 6942SOL     OW32461   3.962   1.765   4.655  0.6367 -0.4219 -0.0151
 6942SOL    HW132462   3.877   1.766   4.610  0.1127 -0.1066  0.9705
 6942SOL    HW232463   4.023   1.735   4.588  1.3918 -1.6761  1.2148
 6943SOL     OW32464   4.197   0.131   3.736 -0.8134  0.1980  0.1322
 6943SOL    HW132465   4.105   0.157   3.727 -1.0132 -0.4913  0.1563
 6943SOL    HW232466   4.223   0.110   3.647 -1.8961  1.4695 -0.4849
 6944SOL     OW32467   1.202   1.407   6.487 -0.1521  0.3050  0.1797
 6944SOL    HW132468   1.146   1.365   6.552 -0.1389 -0.8711 -0.5735
 6944SOL    HW232469   1.135   1.422   6.419 -0.3054 -0.9691  0.0613
 6945SOL     OW32470   4.451   0.832   6.900 -0.2673  0.2053  0.9436
 6945SOL    HW132471   4.443   0.795   6.989 -0.0931  0.3390  1.0146
 6945SOL    HW232472   4.535   0.877   6.912  0.2210 -1.1503  2.6908
 6946SOL     OW32473   4.249   1.219   7.120  0.1716 -0.2515  0.0080
 6946SOL    HW132474   4.157   1.240   7.141 -0.0706  0.2402 -1.5307
 6946SOL    HW232475   4.271   1.152   7.185  1.2708  0.5042  0.4049
 6947SOL     OW32476   3.245   1.931   7.571 -0.4353  0.4370 -0.1114
 6947SOL    HW132477   3.179   1.862   7.563  1.6114 -1.7306  1.3662
 6947SOL    HW232478   3.193   2.010   7.584  0.8815  1.8102 -3.2282
 6948SOL     OW32479   0.270   0.081   6.751  0.5359  0.5220 -0.8965
 6948SOL    HW132480   0.283   4.732   6.793  0.9154  1.1522  0.2510
 6948SOL    HW232481   0.262   0.142   6.824 -1.2660 -1.4317  0.5083
 6949SOL     OW32482   3.991   0.261   2.047  0.4039 -0.8008  0.3748
 6949SOL    HW132483   3.896   0.274   2.048  0.2197 -2.1275 -1.0696
 6949SOL    HW232484   4.022   0.351   2.036 -0.3408 -0.8213 -1.8628
 6950SOL     OW32485   0.832   0.839  13.353  0.3040  0.4802 -0.2512
 6950SOL    HW132486   0.750   0.849  13.400 -0.3971  0.5395 -1.4724
 6950SOL    HW232487   0.896   0.871  13.416  0.7673  0.8845 -0.9218
 6951SOL     OW32488   1.763   4.736   4.263 -0.1407 -0.4453 -0.2582
 6951SOL    HW132489   1.702   0.073   4.258 -0.8213 -1.0750 -1.1900
 6951SOL    HW232490   1.772   4.733   4.168  0.3094  0.2184 -0.2385
 6952SOL     OW32491   4.376   2.721   9.027  0.4638 -0.0241 -0.3260
 6952SOL    HW132492   4.400   2.801   8.981 -1.9825  1.0922  0.2875
 6952SOL    HW232493   4.324   2.766   9.094  0.8272 -0.6568  0.3728
 6953SOL     OW32494   4.292   2.140  11.215 -0.2028 -0.2767  0.5643
 6953SOL    HW132495   4.301   2.235  11.222 -2.0246 -0.1222  0.7051
 6953SOL    HW232496   4.380   2.109  11.237  0.5312 -0.6849 -2.9838
 6954SOL     OW32497   4.139   1.274   7.446 -0.3394 -0.2526  0.3367
 6954SOL    HW132498   4.186   1.291   7.528 -2.9923 -2.4674  2.2994
 6954SOL    HW232499   4.148   1.365   7.415  1.2564 -0.5590 -0.1027
 6955SOL     OW32500   3.547   3.146   6.981  0.0515 -0.0049 -0.4109
 6955SOL    HW132501   3.598   3.082   7.031 -1.4193  0.0712  1.1795
 6955SOL    HW232502   3.496   3.092   6.920  0.1945 -1.4029  0.7172
 6956SOL     OW32503   0.428   0.908   2.391 -0.1986  0.1081  0.2575
 6956SOL    HW132504   0.478   0.847   2.445 -0.3845  1.3848  1.8665
 6956SOL    HW232505   0.455   0.990   2.432 -2.8952  1.5831 -0.9055
 6957SOL     OW32506   3.258   1.975   9.154 -0.1448  0.0962 -0.0852
 6957SOL    HW132507   3.339   1.924   9.151  0.2136  0.7794 -2.0069
 6957SOL    HW232508   3.201   1.909   9.116  1.1983 -1.0258 -0.1463
 6958SOL     OW32509   3.725   2.721  13.288  0.4697  0.3221 -0.0756
 6958SOL    HW132510   3.817   2.731  13.263  0.5752 -0.2113  0.0953
 6958SOL    HW232511   3.694   2.679  13.208  1.6223 -0.2288 -0.2287
 6959SOL     OW32512   0.254   4.407   3.519 -0.3124  0.2040  0.5893
 6959SOL    HW132513   0.198   4.413   3.596 -1.9889  0.0781 -0.6173
 6959SOL    HW232514   0.190   4.413   3.447 -0.9361 -0.4835  1.0908
 6960SOL     OW32515   0.178   3.827   4.395  0.5496 -0.4924 -0.3999
 6960SOL    HW132516   0.085   3.811   4.376  0.2334 -0.2025  0.8461
 6960SOL    HW232517   0.189   3.787   4.482  1.4033  0.1693 -0.2003
 6961SOL     OW32518   4.517   1.610   9.373 -0.1029  0.7950 -0.4072
 6961SOL    HW132519   4.578   1.536   9.369 -1.0110 -0.0129  0.5226
 6961SOL    HW232520   4.448   1.569   9.426 -0.0841  0.1198 -0.9001
 6962SOL     OW32521   0.363   0.075  11.115 -0.3864  0.1090  0.2665
 6962SOL    HW132522   0.417   0.143  11.155 -1.0320  1.3398 -0.9449
 6962SOL    HW232523   0.330   0.026  11.190 -1.2382 -0.3589 -0.4032
 6963SOL     OW32524   3.000   4.469  16.196 -0.1599 -0.2605  0.5891
 6963SOL    HW132525   3.068   4.440  16.135 -1.3061  0.3361 -0.9483
 6963SOL    HW232526   2.952   4.388  16.217 -2.8371  0.6756 -1.9316
 6964SOL     OW32527   3.146   1.139   0.396  0.7777  0.4663 -0.0721
 6964SOL    HW132528   3.091   1.174   0.327  1.4964 -0.4645 -1.1231
 6964SOL    HW232529   3.225   1.192   0.384  0.6311  1.2652  2.3418
 6965SOL     OW32530   2.454   0.511   0.516  0.1073  0.3656 -0.2117
 6965SOL    HW132531   2.511   0.551   0.581  0.5152  1.1593 -1.0681
 6965SOL    HW232532   2.379   0.571   0.515  0.4997  0.8473 -0.6951
 6966SOL     OW32533   4.449   3.356   5.214  0.2195 -0.2427 -0.3735
 6966SOL    HW132534   4.396   3.425   5.174  0.9819 -1.1375 -2.9725
 6966SOL    HW232535   4.496   3.403   5.283 -1.7387 -2.0079  2.1306
 6967SOL     OW32536   0.716   4.413  14.456 -0.0055 -0.0090 -0.5368
 6967SOL    HW132537   0.740   4.479  14.521  0.0628 -0.1683 -0.3997
 6967SOL    HW232538   0.763   4.437  14.377 -3.6531  1.3175 -2.3261
 6968SOL     OW32539   3.454   0.065   3.039 -0.3382  0.5613 -0.3537
 6968SOL    HW132540   3.427   0.002   2.972  0.5216  2.2166 -2.2316
 6968SOL    HW232541   3.549   0.056   3.041 -0.3978 -0.2713 -1.0128
 6969SOL     OW32542   4.551   3.355   2.848  0.0996 -0.6294  0.5895
 6969SOL    HW132543   4.457   3.359   2.865  0.1347  1.0240  0.4279
 6969SOL    HW232544   4.556   3.264   2.818  1.8728 -0.5613  0.6643
 6970SOL     OW32545   0.415   2.065   2.651 -0.0203 -0.3020 -0.3167
 6970SOL    HW132546   0.474   2.051   2.577  0.3750 -0.9904  0.1243
 6970SOL    HW232547   0.338   2.101   2.606  0.3874  1.6430  0.5922
 6971SOL     OW32548   1.336   4.530  16.417 -0.1011  0.2793  0.1753
 6971SOL    HW132549   1.331   4.497  16.507  1.8871 -0.2600  0.0955
 6971SOL    HW232550   1.419   4.488  16.391 -0.8610  0.2836 -2.3111
 6972SOL     OW32551   1.018   4.413   4.074  0.2840  0.3903  0.3119
 6972SOL    HW132552   0.933   4.429   4.034  0.9646 -0.8976 -1.6363
 6972SOL    HW232553   1.009   4.413   4.169  1.1237  0.3023  0.3977
 6973SOL     OW32554   2.491   2.636   8.302 -0.3247 -0.4397  0.2591
 6973SOL    HW132555   2.431   2.643   8.377 -0.3592  0.5979  0.1342
 6973SOL    HW232556   2.576   2.653   8.344 -0.2857  0.5694 -0.2227
 6974SOL     OW32557   3.568   3.250   7.655 -0.6167 -0.1424  0.0797
 6974SOL    HW132558   3.543   3.215   7.570  0.1418 -0.3268 -0.0762
 6974SOL    HW232559   3.508   3.197   7.708 -1.4247  1.9588  1.2601
 6975SOL     OW32560   0.340   2.091   1.221  0.4385  0.0882  0.1682
 6975SOL    HW132561   0.316   2.001   1.244 -1.1209  0.3593 -0.4152
 6975SOL    HW232562   0.417   2.103   1.278  0.8750  1.7474 -0.7548
 6976SOL     OW32563   0.926   4.627   1.256  0.0489 -0.2826  0.4495
 6976SOL    HW132564   0.842   4.580   1.256  1.5844 -3.0241 -0.3446
 6976SOL    HW232565   0.967   4.602   1.174 -0.0900  0.1374  0.2529
 6977SOL     OW32566   1.075   3.430   5.435 -0.4705 -0.1234 -0.6115
 6977SOL    HW132567   1.049   3.507   5.383 -0.2081 -1.7191 -3.0760
 6977SOL    HW232568   1.105   3.486   5.508 -0.3695  1.1771 -1.6486
 6978SOL     OW32569   0.080   2.676   6.487  0.3425  0.0627  0.8688
 6978SOL    HW132570   0.069   2.722   6.403 -1.1644 -0.3998  0.8206
 6978SOL    HW232571   0.056   2.747   6.546 -1.0881  0.8411 -0.6645
 6979SOL     OW32572   2.226   4.165   3.251  0.2449 -0.0384  0.0440
 6979SOL    HW132573   2.295   4.117   3.203  2.0041  2.5309 -0.0202
 6979SOL    HW232574   2.148   4.119   3.220 -0.1685  0.6819  0.0167
 6980SOL     OW32575   3.746   3.314   2.884  0.2203  0.3938  0.0899
 6980SOL    HW132576   3.788   3.259   2.818  0.8073  0.2361  0.5857
 6980SOL    HW232577   3.766   3.404   2.858  0.8959  0.5415  1.1190
 6981SOL     OW32578   1.606   1.204   9.025 -0.7188  0.3320  0.1947
 6981SOL    HW132579   1.650   1.153   8.957 -2.2381  0.7888 -1.1134
 6981SOL    HW232580   1.519   1.216   8.987 -0.4546  1.9252  0.0800
 6982SOL     OW32581   1.083   3.100   9.295  0.4699 -0.1532  0.0458
 6982SOL    HW132582   1.011   3.109   9.357 -1.1905 -1.1737 -1.7074
 6982SOL    HW232583   1.043   3.133   9.214 -1.6911  1.6412  1.8255
 6983SOL     OW32584   2.209   1.482   7.917 -0.2688  0.4024  0.1296
 6983SOL    HW132585   2.176   1.392   7.915  1.3417 -0.2082  0.8555
 6983SOL    HW232586   2.136   1.527   7.959  0.3300  0.7977  0.7618
 6984SOL     OW32587   1.153   2.700   2.237  0.3013 -0.1378 -0.3654
 6984SOL    HW132588   1.095   2.728   2.166 -2.4902  0.5111  2.1496
 6984SOL    HW232589   1.194   2.627   2.191 -0.2795 -0.0139 -1.0712
 6985SOL     OW32590   0.530   4.482  14.100  0.3889 -0.4932  1.1539
 6985SOL    HW132591   0.504   4.548  14.036  1.9324  0.3270  1.3743
 6985SOL    HW232592   0.570   4.418  14.040  1.1670  0.1769  0.9611
 6986SOL     OW32593   2.864   2.908   5.704  0.1582  0.0642  0.6268
 6986SOL    HW132594   2.910   2.854   5.640 -0.2910 -0.6156  0.8741
 6986SOL    HW232595   2.914   2.889   5.784  0.7514  1.1895  0.5180
 6987SOL     OW32596   0.634   3.501  17.080 -0.1704  0.2534  0.2941
 6987SOL    HW132597   0.670   3.412  17.075  0.2112  0.3847  0.7225
 6987SOL    HW232598   0.592   3.508  16.994 -0.2615  0.1925  0.3337
 6988SOL     OW32599   4.447   0.916  16.522 -0.4654 -0.5641  0.0823
 6988SOL    HW132600   4.433   0.951  16.434 -0.2532 -1.3926 -0.2858
 6988SOL    HW232601   4.494   0.992  16.558 -0.6494 -0.3193 -0.1951
 6989SOL     OW32602   3.579   1.794  11.453 -0.6484  0.0666  0.5013
 6989SOL    HW132603   3.660   1.814  11.406 -1.2537  1.4744  0.0512
 6989SOL    HW232604   3.623   1.753  11.527  1.5658 -1.3698 -1.6077
 6990SOL     OW32605   0.576   3.284  16.592 -0.2558 -0.3837  0.2014
 6990SOL    HW132606   0.662   3.325  16.579  0.8773 -2.1126  2.1653
 6990SOL    HW232607   0.532   3.323  16.517 -0.0233  0.1034  0.3162
 6991SOL     OW32608   1.633   0.377  14.299  0.0283 -0.0365  0.2628
 6991SOL    HW132609   1.593   0.421  14.374  1.1503  2.6984 -0.7273
 6991SOL    HW232610   1.592   0.415  14.221 -0.1274 -3.2630 -1.2419
 6992SOL     OW32611   3.103   3.394   8.754 -1.1121  0.6047 -0.1790
 6992SOL    HW132612   3.045   3.343   8.697  0.7132  0.8868 -2.2869
 6992SOL    HW232613   3.057   3.478   8.748 -0.8271  0.6189 -2.0548
 6993SOL     OW32614   1.394   4.506   7.216  0.1502 -0.6613  0.7129
 6993SOL    HW132615   1.447   4.475   7.143  1.1371  2.3479  0.1754
 6993SOL    HW232616   1.468   4.539   7.266  0.2618  1.5320 -0.8906
 6994SOL     OW32617   2.051   2.641   2.131  0.0411 -0.0885 -0.3555
 6994SOL    HW132618   2.023   2.622   2.221 -0.2760  0.2636 -0.3802
 6994SOL    HW232619   2.040   2.735   2.147  0.8357 -0.1273  0.4004
 6995SOL     OW32620   0.898   3.607   6.190  0.3752 -0.3425  1.0711
 6995SOL    HW132621   0.898   3.696   6.225 -2.2253  0.5429 -1.1147
 6995SOL    HW232622   0.866   3.559   6.266  0.8672 -1.9148  0.2747
 6996SOL     OW32623   2.025   0.399   7.477  0.1875 -0.0584 -0.4015
 6996SOL    HW132624   2.039   0.319   7.428 -0.0249 -0.3482  0.0139
 6996SOL    HW232625   2.029   0.469   7.411 -0.0661  0.0721 -0.2813
 6997SOL     OW32626   4.609   0.130   6.642 -0.1782  0.3601  1.0159
 6997SOL    HW132627   4.624   0.125   6.737  1.5029  0.0392  0.7244
 6997SOL    HW232628   4.648   0.211   6.610  0.2350  0.1107  0.8927
 6998SOL     OW32629   3.607   3.663   4.109  0.3639  0.0155  0.2347
 6998SOL    HW132630   3.670   3.596   4.135  0.1626  0.6606  2.3789
 6998SOL    HW232631   3.651   3.725   4.051 -0.2297  1.7482  1.6469
 6999SOL     OW32632   4.628   0.471  16.428  0.3462  0.2780 -0.1696
 6999SOL    HW132633   4.613   0.380  16.452  1.0140  0.0962 -0.4244
 6999SOL    HW232634   4.632   0.470  16.332  4.6906 -0.8862  0.0191
 7000SOL     OW32635   1.766   1.788  13.996 -0.6001 -0.2746  0.1807
 7000SOL    HW132636   1.682   1.779  14.042 -0.4901 -1.6104  0.1209
 7000SOL    HW232637   1.790   1.876  14.023 -1.2376 -0.2380  0.6352
 7001SOL     OW32638   3.595   0.239   8.235 -0.5361 -0.2243 -0.0964
 7001SOL    HW132639   3.509   0.210   8.267 -1.1458  2.2701  0.5321
 7001SOL    HW232640   3.586   0.334   8.247 -0.0216 -0.3009  0.9240
 7002SOL     OW32641   2.077   0.131   6.727  0.2804  0.4185 -0.1030
 7002SOL    HW132642   2.094   0.179   6.646  0.6100  0.6994  0.1296
 7002SOL    HW232643   1.985   0.147   6.746  0.2572  1.2162 -0.9221
 7003SOL     OW32644   3.290   2.934   2.565  0.1171 -0.5381 -0.1871
 7003SOL    HW132645   3.231   2.906   2.495 -0.3863 -0.0785  0.0513
 7003SOL    HW232646   3.338   2.853   2.583  0.4089 -0.1634  0.6930
 7004SOL     OW32647   1.726   3.737   6.185  0.0701  0.4939 -0.4863
 7004SOL    HW132648   1.774   3.815   6.213  1.6292 -1.3168  1.7814
 7004SOL    HW232649   1.782   3.660   6.193 -0.6596 -0.4163 -3.8225
 7005SOL     OW32650   2.188   0.007   2.828  0.0750 -0.2580 -0.2491
 7005SOL    HW132651   2.147   0.080   2.782 -1.5437 -1.3046 -0.4607
 7005SOL    HW232652   2.125   4.670   2.822 -0.0294 -0.4198  2.7702
 7006SOL     OW32653   0.744   1.206   5.449 -0.6752 -0.3170 -0.7126
 7006SOL    HW132654   0.674   1.193   5.513 -2.0473  4.1959 -1.3285
 7006SOL    HW232655   0.787   1.286   5.479  3.3514 -2.5765 -0.4694
 7007SOL     OW32656   0.838   0.721   5.481  0.1261  0.1191 -0.3113
 7007SOL    HW132657   0.788   0.763   5.411 -1.5095 -1.0571  0.1370
 7007SOL    HW232658   0.787   0.750   5.557  0.1375 -0.5274 -0.0558
 7008SOL     OW32659   0.020   1.197   9.862 -0.4355  0.1610 -0.1293
 7008SOL    HW132660   0.047   1.105   9.865 -3.7227 -0.8173 -0.8239
 7008SOL    HW232661   0.097   1.242   9.827 -0.7209  1.4314  0.8763
 7009SOL     OW32662   4.421   0.391  13.257  0.6062  0.4711 -0.3291
 7009SOL    HW132663   4.420   0.318  13.319  0.4568  1.4340  0.8014
 7009SOL    HW232664   4.465   0.464  13.299  0.4264  0.9840 -1.0324
 7010SOL     OW32665   3.692   1.941   9.325 -0.0806 -0.4057 -0.4500
 7010SOL    HW132666   3.622   1.886   9.361 -1.3324  0.2714 -1.8196
 7010SOL    HW232667   3.647   2.018   9.289  1.9324  0.6822 -0.6294
 7011SOL     OW32668   2.741   1.861   3.443  0.1795 -0.1332  0.6269
 7011SOL    HW132669   2.741   1.767   3.426  2.0420  0.1132 -0.7263
 7011SOL    HW232670   2.682   1.909   3.385 -0.6811  0.3671  1.9170
 7012SOL     OW32671   4.535   2.058  14.436  0.3409 -0.3872 -0.0191
 7012SOL    HW132672   4.541   2.153  14.432  0.9874 -0.4260 -0.0131
 7012SOL    HW232673   4.480   2.029  14.363 -2.3150  3.1965  0.5786
 7013SOL     OW32674   1.135   4.488  14.947 -0.5863 -0.5255  0.5038
 7013SOL    HW132675   1.108   4.438  15.023 -1.5348 -1.1555 -0.2470
 7013SOL    HW232676   1.115   4.427  14.876  1.9459 -0.7855 -0.0059
 7014SOL     OW32677   3.153   3.582   7.756  0.5649  0.0429  0.6627
 7014SOL    HW132678   3.090   3.513   7.737 -0.9680  1.7897 -0.5098
 7014SOL    HW232679   3.094   3.647   7.793  1.7116 -0.0742  2.7578
 7015SOL     OW32680   0.657   3.734   3.048 -0.3787  0.0472  0.8336
 7015SOL    HW132681   0.751   3.746   3.040 -0.6922  0.1190 -2.8220
 7015SOL    HW232682   0.641   3.809   3.105  0.5276  1.4179 -0.7081
 7016SOL     OW32683   0.394   0.424   7.617  0.4204  0.3056  0.2079
 7016SOL    HW132684   0.345   0.479   7.678  1.3870  0.2688  1.0191
 7016SOL    HW232685   0.335   0.424   7.541  2.6504  0.3522 -1.5531
 7017SOL     OW32686   1.045   4.607   7.907 -0.0232 -0.2860 -0.5980
 7017SOL    HW132687   1.007   4.527   7.941 -0.4963  1.4028  2.8104
 7017SOL    HW232688   0.970   4.665   7.912  0.9659  0.9260  0.2397
 7018SOL     OW32689   0.446   1.234   7.610  0.4202  0.3833  0.1995
 7018SOL    HW132690   0.491   1.253   7.693 -1.3136  1.4623  0.8834
 7018SOL    HW232691   0.516   1.197   7.557 -0.4444 -0.1075 -0.5902
 7019SOL     OW32692   3.461   3.870   8.808  0.0802  0.3508  0.1509
 7019SOL    HW132693   3.437   3.890   8.899  1.1227 -0.8420  0.7059
 7019SOL    HW232694   3.546   3.911   8.792  0.2550  0.3395  1.0201
 7020SOL     OW32695   2.622   0.006   2.245 -0.0987 -0.4093  0.3667
 7020SOL    HW132696   2.713   4.719   2.265  0.4562  1.4487 -0.0828
 7020SOL    HW232697   2.599   4.693   2.166  0.2523 -1.9802  1.2183
 7021SOL     OW32698   1.167   0.165   0.747 -0.2640 -0.4074 -0.7489
 7021SOL    HW132699   1.142   0.240   0.801  0.6035 -0.5319 -0.1821
 7021SOL    HW232700   1.194   0.107   0.819  0.0977 -0.9295 -1.3061
 7022SOL     OW32701   1.633   2.537   0.661 -0.0746  0.0056 -0.3016
 7022SOL    HW132702   1.582   2.565   0.585  0.5799 -0.3771 -0.8832
 7022SOL    HW232703   1.684   2.615   0.684  2.8737 -1.6569 -1.2927
 7023SOL     OW32704   0.923   3.463   9.298 -0.0985  0.1465 -0.7028
 7023SOL    HW132705   0.862   3.419   9.358  0.6934 -0.1096 -0.0817
 7023SOL    HW232706   0.947   3.389   9.242 -2.5625 -0.3875 -1.0162
 7024SOL     OW32707   1.527   0.728   6.297  0.2327 -0.1400  0.7072
 7024SOL    HW132708   1.591   0.743   6.366 -2.0055  1.0842  2.5012
 7024SOL    HW232709   1.498   0.641   6.325  1.1591 -0.6082  0.2225
 7025SOL     OW32710   2.250   2.741   9.105 -0.0372  0.1725 -0.2936
 7025SOL    HW132711   2.214   2.654   9.122  1.3540 -0.3900 -0.2319
 7025SOL    HW232712   2.243   2.749   9.010  2.8067  0.7912 -0.4280
 7026SOL     OW32713   4.508   2.214   2.277 -0.3174 -0.6558 -0.2014
 7026SOL    HW132714   4.430   2.239   2.327  0.7236  2.6118 -0.1837
 7026SOL    HW232715   4.544   2.134   2.315  1.5808 -0.0197 -0.6651
 7027SOL     OW32716   1.314   4.648   0.480  0.1780 -0.3766  0.5410
 7027SOL    HW132717   1.387   4.699   0.447 -0.0498 -0.8897 -0.7256
 7027SOL    HW232718   1.242   4.684   0.428  1.2168  0.3298 -0.4121
 7028SOL     OW32719   3.822   3.141  17.640 -0.2344 -0.0556  0.4638
 7028SOL    HW132720   3.883   3.214  17.626 -1.9456  1.1427 -0.6943
 7028SOL    HW232721   3.776   3.155  17.558  1.2117  2.1932  0.0413
 7029SOL     OW32722   1.972   4.011   0.888  0.1180 -0.3210  0.4253
 7029SOL    HW132723   1.957   3.954   0.963  1.8136  1.3141  1.9878
 7029SOL    HW232724   1.895   4.069   0.886  0.0177 -0.4785 -0.3318
 7030SOL     OW32725   3.785   4.076   5.516 -0.2206  0.1269 -0.0790
 7030SOL    HW132726   3.871   4.095   5.553 -0.6210  1.3657  0.2089
 7030SOL    HW232727   3.781   4.157   5.466 -0.8428 -0.8366 -1.5674
 7031SOL     OW32728   0.931   4.052   9.019 -0.1142  0.4323  0.3733
 7031SOL    HW132729   1.017   4.046   9.059 -0.1633 -2.6630  0.0454
 7031SOL    HW232730   0.896   4.128   9.065 -0.2372 -1.0572  2.7655
 7032SOL     OW32731   1.467   1.972  16.341 -0.2543 -0.4064  0.4639
 7032SOL    HW132732   1.373   1.984  16.328 -0.4108  0.0823  2.0136
 7032SOL    HW232733   1.491   1.908  16.274  0.0506 -0.2327  0.4075
 7033SOL     OW32734   1.040   3.192   6.922 -0.1823  0.6195  0.1851
 7033SOL    HW132735   1.063   3.283   6.903  1.6795  0.3886  1.3121
 7033SOL    HW232736   1.113   3.171   6.981  1.3903 -0.8759 -2.2484
 7034SOL     OW32737   4.500   2.788   6.077  0.5718 -0.1962  0.4083
 7034SOL    HW132738   4.539   2.863   6.032  4.5258 -2.1793  0.5057
 7034SOL    HW232739   4.471   2.837   6.154 -0.9867 -2.0526  0.9956
 7035SOL     OW32740   4.213   0.889   6.135  0.0356  0.9604 -0.5128
 7035SOL    HW132741   4.176   0.971   6.169 -0.8597 -0.9157  2.9437
 7035SOL    HW232742   4.175   0.825   6.195  0.2340  0.7469 -0.6146
 7036SOL     OW32743   1.707   0.180  10.920  0.1999  0.3546 -0.0906
 7036SOL    HW132744   1.786   0.158  10.969  1.0546  2.5199 -0.4801
 7036SOL    HW232745   1.713   0.276  10.915 -0.7312  0.5670  3.1521
 7037SOL     OW32746   2.938   4.201   8.564  0.0718 -0.0592  0.5541
 7037SOL    HW132747   2.843   4.201   8.577 -0.1232  1.7860 -0.7500
 7037SOL    HW232748   2.958   4.281   8.613  0.0433 -0.3590  1.0536
 7038SOL     OW32749   0.528   2.220   4.167 -0.2308 -0.4226 -0.2964
 7038SOL    HW132750   0.539   2.293   4.227 -1.2497 -1.9866  1.7621
 7038SOL    HW232751   0.467   2.253   4.100  0.0437  1.1674  0.2294
 7039SOL     OW32752   0.586   1.352  16.301 -0.1205  0.5363  0.3820
 7039SOL    HW132753   0.619   1.431  16.342 -1.1405  1.4733 -0.5972
 7039SOL    HW232754   0.664   1.299  16.320 -0.8246 -0.3597  0.8085
 7040SOL     OW32755   3.569   0.375   6.168 -0.2466  0.0168  0.2277
 7040SOL    HW132756   3.525   0.298   6.205 -2.8721  2.4420  2.1182
 7040SOL    HW232757   3.602   0.349   6.082  0.0183 -1.9474  0.9109
 7041SOL     OW32758   4.520   2.874  16.627 -0.3148  0.1971 -0.2653
 7041SOL    HW132759   4.443   2.822  16.652 -0.4716  0.7179  0.3381
 7041SOL    HW232760   4.552   2.910  16.710  0.4123  0.9215 -0.8754
 7042SOL     OW32761   0.318   1.730   9.362  0.1291 -0.2020  0.9536
 7042SOL    HW132762   0.391   1.686   9.405  1.3326  0.1842 -0.6859
 7042SOL    HW232763   0.340   1.823   9.370  1.0515 -0.2400 -1.3156
 7043SOL     OW32764   3.861   3.051   8.747  0.3166 -0.1915 -0.2791
 7043SOL    HW132765   3.786   3.046   8.687 -0.2277 -0.8314  0.4567
 7043SOL    HW232766   3.816   3.090   8.822  0.1851  1.0978 -1.0229
 7044SOL     OW32767   1.044   0.332   6.163  0.2017  0.8453 -0.2797
 7044SOL    HW132768   0.952   0.354   6.176  0.0684  0.4100 -0.5040
 7044SOL    HW232769   1.030   0.260   6.101  1.1166  1.8110 -1.6205
 7045SOL     OW32770   3.163   1.847  13.143  0.1240  0.7438  0.0693
 7045SOL    HW132771   3.240   1.792  13.158  0.1211  0.3981 -1.2575
 7045SOL    HW232772   3.115   1.846  13.227  0.8306  0.0865  0.4656
 7046SOL     OW32773   0.614   1.705   2.768  0.0703  0.1354  0.3618
 7046SOL    HW132774   0.652   1.792   2.778  0.4701 -0.3844  3.3424
 7046SOL    HW232775   0.539   1.704   2.827 -0.0232 -0.7636  0.2351
 7047SOL     OW32776   0.466   0.974   9.169 -0.3299 -0.1552 -0.0286
 7047SOL    HW132777   0.397   0.910   9.182 -0.9880  0.5820  0.1477
 7047SOL    HW232778   0.503   0.993   9.256  0.9044 -1.4334 -0.2810
 7048SOL     OW32779   0.094   1.932  15.842  0.2339 -0.5288 -0.2761
 7048SOL    HW132780   0.166   1.990  15.814 -0.3787  1.3598  2.0005
 7048SOL    HW232781   0.014   1.978  15.817  0.3809  0.7514  1.6062
 7049SOL     OW32782   0.679   0.860   3.224 -0.4264  0.4843 -0.5839
 7049SOL    HW132783   0.741   0.857   3.296  0.9272  2.3009 -1.6652
 7049SOL    HW232784   0.693   0.776   3.179 -0.3546  1.3026 -2.1061
 7050SOL     OW32785   0.000   1.017   7.486 -0.1870 -0.1464  0.6818
 7050SOL    HW132786   0.060   1.090   7.504  1.3843 -1.8540  2.4653
 7050SOL    HW232787   0.058   0.947   7.517  2.7714  1.0563 -2.1574
 7051SOL     OW32788   2.806   0.092   3.337  0.1896 -0.4526  0.8695
 7051SOL    HW132789   2.799   4.734   3.319 -2.2482  0.2733 -1.8981
 7051SOL    HW232790   2.756   0.107   3.418  1.7679  4.3390  0.9713
 7052SOL     OW32791   3.976   0.775   6.606 -0.1509  0.0507 -0.3301
 7052SOL    HW132792   3.887   0.741   6.613 -0.2500  0.7283  1.7352
 7052SOL    HW232793   4.021   0.751   6.687 -0.6746 -0.8649 -0.3155
 7053SOL     OW32794   4.183   3.088   6.769  0.0319 -0.7260  0.8774
 7053SOL    HW132795   4.136   3.017   6.726 -1.7759  0.7174  0.4458
 7053SOL    HW232796   4.173   3.154   6.700  2.2628 -1.7119 -0.3683
 7054SOL     OW32797   2.274   2.312  15.337  0.3063  0.3862  0.2976
 7054SOL    HW132798   2.180   2.295  15.326 -0.0336  1.9960  0.6512
 7054SOL    HW232799   2.288   2.343  15.427  0.4709  2.1445 -0.3288
 7055SOL     OW32800   3.664   3.326  16.838 -0.0161  0.1695 -0.1807
 7055SOL    HW132801   3.619   3.356  16.917  0.7003  0.3039  0.1782
 7055SOL    HW232802   3.637   3.393  16.775 -1.9211  1.3152  1.8042
 7056SOL     OW32803   1.676   2.034   4.016 -0.1553  0.7699  0.5203
 7056SOL    HW132804   1.758   2.083   4.025  0.5377  0.0265 -1.7674
 7056SOL    HW232805   1.623   2.109   3.988 -1.0766  0.1594  0.6469
 7057SOL     OW32806   2.838   0.718   6.475 -0.5019 -0.6591 -0.1704
 7057SOL    HW132807   2.883   0.635   6.466  2.4575  0.8426  0.8219
 7057SOL    HW232808   2.896   0.781   6.431  0.5178 -0.9032  0.8277
 7058SOL     OW32809   0.041   4.257   6.345 -0.3511 -0.2208  0.4198
 7058SOL    HW132810   4.686   4.279   6.366  0.0003  3.8174 -2.3047
 7058SOL    HW232811   0.068   4.181   6.397  0.1717  0.0635  0.5732
 7059SOL     OW32812   0.343   2.875   6.373 -0.3579 -0.5821 -0.4128
 7059SOL    HW132813   0.261   2.884   6.325 -1.0303 -0.4536  0.7607
 7059SOL    HW232814   0.318   2.915   6.456 -2.2637 -0.2742 -1.1294
 7060SOL     OW32815   3.359   2.661   2.599  0.1079 -0.4650 -0.4204
 7060SOL    HW132816   3.360   2.572   2.565 -1.3455 -1.0397  1.0517
 7060SOL    HW232817   3.419   2.642   2.671  1.3894  1.9897 -0.8249
 7061SOL     OW32818   3.055   1.482   7.991  0.0911  0.1867  0.5087
 7061SOL    HW132819   3.063   1.463   8.084 -1.4953 -0.4423  0.5146
 7061SOL    HW232820   3.028   1.574   7.996 -1.4258 -0.1176 -1.9614
 7062SOL     OW32821   0.533   4.001   2.658  0.0777  0.2493  0.2331
 7062SOL    HW132822   0.520   4.049   2.740 -0.0430 -0.1685  0.4587
 7062SOL    HW232823   0.512   3.910   2.680 -2.1493  0.7464  0.0937
 7063SOL     OW32824   3.000   3.654  17.467  0.7998 -0.1771 -0.2336
 7063SOL    HW132825   2.938   3.684  17.534  1.8240 -1.8077  1.4569
 7063SOL    HW232826   3.039   3.587  17.523  1.3846  0.3598 -0.0003
 7064SOL     OW32827   0.690   4.192  12.387 -0.0322  0.2985 -0.5728
 7064SOL    HW132828   0.670   4.270  12.439  3.8957  1.0149 -0.1463
 7064SOL    HW232829   0.618   4.138  12.418  1.3173  0.5331  2.9552
 7065SOL     OW32830   2.796   0.824  14.358  0.0794 -0.3684  0.5349
 7065SOL    HW132831   2.701   0.825  14.364  0.0012  0.1283 -0.9979
 7065SOL    HW232832   2.816   0.877  14.281 -0.4007  0.2083  0.8050
 7066SOL     OW32833   0.913   0.374   9.463 -0.2191 -0.0120  0.0341
 7066SOL    HW132834   0.926   0.442   9.397  2.2233 -1.0028 -0.5079
 7066SOL    HW232835   0.997   0.328   9.461 -1.4266 -2.1217 -1.8458
 7067SOL     OW32836   4.651   1.490   4.411 -0.8126 -0.5805  0.2512
 7067SOL    HW132837   4.589   1.433   4.458 -0.2114  0.1826  1.9740
 7067SOL    HW232838   4.699   1.514   4.490 -1.9604  2.3583  0.0418
 7068SOL     OW32839   1.481   1.327  10.221  0.2039  0.7244 -0.6943
 7068SOL    HW132840   1.471   1.233  10.208 -1.2625  0.8067 -0.1850
 7068SOL    HW232841   1.568   1.331  10.260 -0.5278 -0.9221  1.0743
 7069SOL     OW32842   3.487   2.988   4.822 -0.3770  0.2720  0.9043
 7069SOL    HW132843   3.422   2.956   4.760  0.7109 -0.8545  0.3478
 7069SOL    HW232844   3.528   2.904   4.843  0.7180  1.3587  3.1031
 7070SOL     OW32845   3.276   3.399   6.609  0.2784 -0.2910 -0.4920
 7070SOL    HW132846   3.241   3.368   6.526  1.0189 -2.0281 -0.1715
 7070SOL    HW232847   3.320   3.481   6.588  0.1757 -0.3936 -1.0968
 7071SOL     OW32848   3.234   2.601   7.453  0.3836 -0.0649  0.2139
 7071SOL    HW132849   3.315   2.557   7.428  0.6701  0.1652  0.7529
 7071SOL    HW232850   3.264   2.661   7.521 -2.7065  2.6789 -0.8542
 7072SOL     OW32851   0.029   2.881   6.673 -0.2923  0.6415 -0.3397
 7072SOL    HW132852   0.089   2.846   6.740 -0.1329 -0.1128 -0.8777
 7072SOL    HW232853   0.042   2.975   6.657 -0.1959  0.6466 -0.2346
 7073SOL     OW32854   2.961   0.458   6.447  0.1180 -0.6518 -0.9063
 7073SOL    HW132855   3.048   0.495   6.436  0.2358 -0.4785  0.4998
 7073SOL    HW232856   2.985   0.368   6.425  2.8095  0.4407 -2.4142
 7074SOL     OW32857   0.580   0.999  12.398 -0.3110 -0.0436 -0.2313
 7074SOL    HW132858   0.635   0.928  12.431  0.1662  0.6085  0.3674
 7074SOL    HW232859   0.514   0.950  12.349  0.5106 -1.0693 -0.3089
 7075SOL     OW32860   3.895   0.186   7.479 -0.0542  0.3423  0.2232
 7075SOL    HW132861   3.887   0.113   7.540 -3.1404  0.7401  0.3011
 7075SOL    HW232862   3.989   0.199   7.491 -0.1200 -0.8407  1.9731
 7076SOL     OW32863   4.527   2.434  10.740  0.6326 -0.2090  0.0400
 7076SOL    HW132864   4.436   2.419  10.717  0.5854 -1.5774  1.0778
 7076SOL    HW232865   4.570   2.474  10.665  1.0862 -1.5529 -0.4148
 7077SOL     OW32866   2.708   3.249   2.635 -0.6689  0.3474  0.2615
 7077SOL    HW132867   2.674   3.280   2.551 -2.6101  1.2988  1.3988
 7077SOL    HW232868   2.693   3.331   2.682  0.0486 -0.1992  1.4268
 7078SOL     OW32869   1.042   3.618  14.048  0.2208  0.6556  0.1277
 7078SOL    HW132870   1.132   3.629  14.016  0.2368 -3.7432 -1.3780
 7078SOL    HW232871   1.002   3.703  14.028  0.3144  0.0211 -2.7760
 7079SOL     OW32872   0.215   2.127   4.849 -0.2937 -0.1098 -0.5637
 7079SOL    HW132873   0.211   2.196   4.915  1.7442 -0.4441 -0.1013
 7079SOL    HW232874   0.265   2.061   4.896 -0.7058  0.3109  0.4603
 7080SOL     OW32875   1.108   1.675   9.205 -0.3124 -0.9819  0.0126
 7080SOL    HW132876   1.132   1.690   9.297 -1.5012  1.6153 -0.1033
 7080SOL    HW232877   1.113   1.580   9.202  3.2378 -0.7769 -1.1565
 7081SOL     OW32878   1.091   0.627   5.454 -0.1338 -0.2185 -0.4558
 7081SOL    HW132879   1.077   0.652   5.363  0.3123  1.2516 -0.1326
 7081SOL    HW232880   1.001   0.639   5.484  0.3632  0.6737  0.6945
 7082SOL     OW32881   4.134   2.584  11.682  0.1425 -0.5356  0.5411
 7082SOL    HW132882   4.151   2.497  11.718 -1.4997 -0.8184  0.6399
 7082SOL    HW232883   4.125   2.569  11.588 -0.9975  0.0548  0.5542
 7083SOL     OW32884   2.838   2.285  11.184  0.1147 -0.2487 -0.4971
 7083SOL    HW132885   2.763   2.283  11.244  2.5154  2.9665  2.5990
 7083SOL    HW232886   2.793   2.279  11.099  1.5155  0.8487 -1.3256
 7084SOL     OW32887   3.266   0.236   4.325  0.1587  0.0439 -0.3126
 7084SOL    HW132888   3.188   0.205   4.279 -1.0829  0.8887  1.2299
 7084SOL    HW232889   3.296   0.305   4.265  1.3961  0.3020  0.6155
 7085SOL     OW32890   3.177   1.575   8.830  0.0711  0.3545 -0.5038
 7085SOL    HW132891   3.144   1.499   8.781 -0.4665 -0.3489  0.9629
 7085SOL    HW232892   3.102   1.634   8.831 -0.2971 -0.0857 -1.6117
 7086SOL     OW32893   2.552   4.497   0.024  0.4392  0.1523  0.2957
 7086SOL    HW132894   2.607   4.573   0.043 -0.4748  0.7897  0.3960
 7086SOL    HW232895   2.474   4.543  17.734  0.0265  1.0877  2.5880
 7087SOL     OW32896   3.572   1.285  10.031 -0.3298  0.0858  0.4325
 7087SOL    HW132897   3.500   1.314   9.975  0.3280 -0.3693 -0.6415
 7087SOL    HW232898   3.534   1.323  10.110 -1.7015 -1.2314  0.3877
 7088SOL     OW32899   1.984   0.731   0.608 -0.0161  0.0400  0.6192
 7088SOL    HW132900   1.977   0.737   0.703 -0.0003  0.4596  0.5945
 7088SOL    HW232901   2.018   0.642   0.602 -0.0725  0.2889 -3.1790
 7089SOL     OW32902   4.016   2.479   6.674 -0.2572 -0.4047  0.4996
 7089SOL    HW132903   4.104   2.509   6.651 -0.6850  0.7037  0.2723
 7089SOL    HW232904   4.027   2.385   6.663  0.4893 -0.3134  0.4729
 7090SOL     OW32905   4.213   4.351   6.181 -0.0290  0.1521 -0.2324
 7090SOL    HW132906   4.153   4.378   6.112 -2.1823 -1.0060  1.1883
 7090SOL    HW232907   4.259   4.434   6.188  2.1478 -1.0592  0.1428
 7091SOL     OW32908   0.558   4.211   8.818  0.2528  0.1357 -0.0718
 7091SOL    HW132909   0.613   4.186   8.744  0.8700  0.5700  0.2379
 7091SOL    HW232910   0.631   4.229   8.877  0.8151  0.9043 -0.9871
 7092SOL     OW32911   3.658   1.409  11.055 -0.0155 -0.1111  0.1758
 7092SOL    HW132912   3.751   1.387  11.053 -0.6699 -3.3125  3.2139
 7092SOL    HW232913   3.630   1.323  11.087 -2.8000  1.3572  1.6562
 7093SOL     OW32914   1.486   2.965   4.781  0.1494 -0.3430  0.3540
 7093SOL    HW132915   1.535   3.041   4.812 -0.0356  0.0479 -0.3105
 7093SOL    HW232916   1.405   3.012   4.765  1.8474  1.8733 -1.8183
 7094SOL     OW32917   0.633   4.298   8.540  0.1935  0.4609 -0.0407
 7094SOL    HW132918   0.666   4.315   8.452 -1.6223  1.6713 -0.4912
 7094SOL    HW232919   0.558   4.239   8.530 -0.4253  1.1743  0.3974
 7095SOL     OW32920   0.122   1.683   2.584  0.6533  0.0456 -0.1787
 7095SOL    HW132921   0.085   1.595   2.585 -0.8538  0.6933  1.6563
 7095SOL    HW232922   0.214   1.656   2.585  0.6996  0.2050  0.2053
 7096SOL     OW32923   3.834   0.497   3.054  0.5295 -0.7422 -0.1802
 7096SOL    HW132924   3.746   0.486   3.090  1.1062 -1.0604  1.1388
 7096SOL    HW232925   3.831   0.422   2.995 -0.1045  0.2212 -1.3722
 7097SOL     OW32926   1.110   1.237   2.083 -0.2959  0.0933 -0.3813
 7097SOL    HW132927   1.124   1.206   1.993  2.3136  1.5878 -0.4726
 7097SOL    HW232928   1.177   1.305   2.088 -1.1849  0.8949  0.6562
 7098SOL     OW32929   4.267   3.157   8.817 -0.0054  0.6197  0.0455
 7098SOL    HW132930   4.226   3.070   8.818 -2.1721  1.6400 -0.3707
 7098SOL    HW232931   4.192   3.216   8.824  0.0826  0.6091  1.1335
 7099SOL     OW32932   1.802   1.420   4.716  0.0022  0.2962 -0.5444
 7099SOL    HW132933   1.816   1.499   4.663 -1.3477  1.0218  0.1854
 7099SOL    HW232934   1.894   1.404   4.733  0.1039  1.1183 -0.2848
 7100SOL     OW32935   3.870   2.391   4.399  0.0503  0.2167 -0.5104
 7100SOL    HW132936   3.945   2.420   4.451 -1.1826  1.5363  0.5225
 7100SOL    HW232937   3.834   2.475   4.370  0.5867 -0.8931 -4.4651
 7101SOL     OW32938   1.292   1.470   9.629 -0.3506  0.0113 -0.1397
 7101SOL    HW132939   1.369   1.483   9.684 -0.3219 -0.0105 -0.1748
 7101SOL    HW232940   1.305   1.380   9.598 -0.2941 -0.3095  0.8117
 7102SOL     OW32941   3.155   4.344   6.539  0.0963  0.3879 -0.3465
 7102SOL    HW132942   3.153   4.249   6.526  3.0396  0.1057  1.0130
 7102SOL    HW232943   3.128   4.374   6.452 -0.6779  0.5256 -0.0573
 7103SOL     OW32944   2.974   1.823  16.290 -0.3968  0.3001  0.2503
 7103SOL    HW132945   2.957   1.917  16.286  1.4018  0.5660 -1.2679
 7103SOL    HW232946   3.069   1.831  16.300 -0.3514  1.1499 -0.8279
 7104SOL     OW32947   0.523   1.842   7.618 -0.5227  0.2403 -0.4971
 7104SOL    HW132948   0.487   1.821   7.532 -2.6861 -0.5858  0.6073
 7104SOL    HW232949   0.594   1.780   7.604 -0.7946 -0.4966  1.3913
 7105SOL     OW32950   3.097   2.421   2.463  0.0877  0.1882 -0.3492
 7105SOL    HW132951   3.192   2.417   2.451 -0.0099 -0.0933 -1.0188
 7105SOL    HW232952   3.090   2.360   2.536  0.7428 -1.0959 -1.3641
 7106SOL     OW32953   2.986   0.229   8.863 -0.3630  0.1246 -0.7265
 7106SOL    HW132954   3.075   0.200   8.845 -1.5416 -1.7482 -3.4901
 7106SOL    HW232955   3.003   0.262   8.951 -0.7885  1.0802 -1.0099
 7107SOL     OW32956   4.164   1.738   5.195  0.1283  0.0527 -0.2407
 7107SOL    HW132957   4.216   1.781   5.127  1.1856 -1.3177 -0.2911
 7107SOL    HW232958   4.193   1.649   5.174  1.0884 -0.0708  1.5993
 7108SOL     OW32959   2.093   3.971   5.688  0.3859 -0.0578 -0.1271
 7108SOL    HW132960   2.151   3.937   5.620 -1.3920 -0.3784 -1.4797
 7108SOL    HW232961   2.039   3.895   5.710  2.0514 -0.8502  1.2507
 7109SOL     OW32962   3.427   2.028   7.205  0.2550  0.0669 -0.0508
 7109SOL    HW132963   3.509   2.024   7.254  0.0275 -0.9839  0.2365
 7109SOL    HW232964   3.374   2.081   7.264  0.4785  0.0813  0.1371
 7110SOL     OW32965   1.338   2.733   5.637 -0.3104  0.1241  0.1044
 7110SOL    HW132966   1.384   2.656   5.604 -1.5108 -0.9004  0.8347
 7110SOL    HW232967   1.277   2.690   5.697 -0.0033  0.6375  0.7841
 7111SOL     OW32968   2.043   3.587   2.153  0.7052  0.2576  0.3126
 7111SOL    HW132969   2.012   3.662   2.203 -0.3177 -0.2167  0.3955
 7111SOL    HW232970   2.047   3.621   2.063  0.7669  0.9328  0.5738
 7112SOL     OW32971   0.705   3.206   4.322  0.2087  0.0972  0.2714
 7112SOL    HW132972   0.641   3.135   4.317 -0.4216  0.6308  0.8133
 7112SOL    HW232973   0.696   3.236   4.231 -0.5511  1.8183  0.9192
 7113SOL     OW32974   4.209   0.934  13.070 -0.2951  0.1619  0.0468
 7113SOL    HW132975   4.295   0.910  13.106  0.9701 -1.2946 -3.9262
 7113SOL    HW232976   4.165   0.964  13.149  0.2437 -1.6332  1.0094
 7114SOL     OW32977   3.941   0.914  13.517  0.1703 -0.2182 -0.9147
 7114SOL    HW132978   3.973   0.942  13.603  0.2439 -2.8731 -0.0535
 7114SOL    HW232979   3.855   0.956  13.514  0.5046  0.5169 -0.1885
 7115SOL     OW32980   0.027   3.055  13.198  0.2505  0.2284 -0.3137
 7115SOL    HW132981   0.018   2.974  13.250 -0.3281  1.2682  1.2068
 7115SOL    HW232982   0.109   3.044  13.149  1.0575  0.8595  0.8929
 7116SOL     OW32983   1.363   0.379  13.167 -0.5904 -0.1348  0.4526
 7116SOL    HW132984   1.277   0.377  13.124 -0.7174  1.4612  0.6448
 7116SOL    HW232985   1.381   0.285  13.160 -1.9215 -0.5149  2.2861
 7117SOL     OW32986   3.512   2.269   2.960  0.1243  0.0670 -0.3694
 7117SOL    HW132987   3.558   2.217   2.894  0.4444 -0.4279  0.2491
 7117SOL    HW232988   3.578   2.335   2.981  1.2909 -0.3597 -2.7413
 7118SOL     OW32989   2.396   3.565   7.730  0.4544  0.5591 -0.3140
 7118SOL    HW132990   2.457   3.621   7.682 -0.2817  0.3005 -1.5559
 7118SOL    HW232991   2.438   3.571   7.816  0.2885 -0.7388 -0.1396
 7119SOL     OW32992   3.650   3.801   1.310  0.1134 -0.0425 -0.9987
 7119SOL    HW132993   3.635   3.855   1.389  0.8444 -1.1591 -0.1078
 7119SOL    HW232994   3.667   3.872   1.248  1.5955  1.4438  1.1194
 7120SOL     OW32995   2.093   4.462  13.696  0.6993  0.5238 -0.1013
 7120SOL    HW132996   2.028   4.448  13.766 -1.1282 -0.2672 -1.9460
 7120SOL    HW232997   2.107   4.556  13.693 -0.7346  0.7282 -0.2735
 7121SOL     OW32998   1.491   4.342  17.339  0.1612 -0.2235 -0.1623
 7121SOL    HW132999   1.582   4.367  17.331  0.1937 -0.3147 -0.0850
 7121SOL    HW233000   1.483   4.295  17.256 -0.4146 -1.7544  0.7466
 7122SOL     OW33001   2.365   2.060   8.170 -0.1755  0.2383  0.1928
 7122SOL    HW133002   2.303   1.991   8.144  0.2457 -0.1698  0.2708
 7122SOL    HW233003   2.393   2.016   8.251  0.3636 -1.5557 -0.9734
 7123SOL     OW33004   1.708   3.075   1.688  0.2050  0.0452  0.0445
 7123SOL    HW133005   1.672   3.160   1.665 -1.1818  0.1259  2.4914
 7123SOL    HW233006   1.797   3.107   1.707  0.4214  0.9981 -2.5689
 7124SOL     OW33007   3.266   2.899   4.700  0.1752 -0.6450  0.5637
 7124SOL    HW133008   3.215   2.980   4.693 -0.5814 -1.2414 -0.9395
 7124SOL    HW233009   3.234   2.864   4.783 -1.2675  2.3658  1.3154
 7125SOL     OW33010   2.762   0.820   6.985  0.0032 -0.2538 -0.3566
 7125SOL    HW133011   2.681   0.796   6.939 -0.9192  2.1614  0.0298
 7125SOL    HW233012   2.802   0.887   6.930 -0.9245  1.2863  0.8474
 7126SOL     OW33013   3.337   1.360   1.661 -0.1569 -0.1196  0.1519
 7126SOL    HW133014   3.359   1.453   1.660  0.1079 -0.1814  0.1999
 7126SOL    HW233015   3.418   1.315   1.637 -2.1458 -3.3621 -0.3723
 7127SOL     OW33016   1.578   3.033  11.487 -0.5825  0.4503  0.6391
 7127SOL    HW133017   1.660   3.072  11.458  0.4744 -1.9553  0.3589
 7127SOL    HW233018   1.556   3.072  11.571 -0.8109 -0.5521  1.0428
 7128SOL     OW33019   1.227   0.232  14.625  0.4744  0.6280 -0.2787
 7128SOL    HW133020   1.322   0.222  14.613  0.4039  1.0674 -1.2132
 7128SOL    HW233021   1.213   0.317  14.667  3.4059  1.8085 -1.6575
 7129SOL     OW33022   3.946   0.253   5.337  0.1282 -0.4348 -0.3520
 7129SOL    HW133023   3.916   0.340   5.314  2.3059  0.6940  1.0558
 7129SOL    HW233024   4.013   0.272   5.403 -0.6778  0.2833  0.2593
 7130SOL     OW33025   2.016   3.213   2.627  0.3074 -0.0736 -0.7175
 7130SOL    HW133026   1.976   3.264   2.697 -1.2911 -2.2240 -0.0668
 7130SOL    HW233027   2.036   3.273   2.554  0.7307 -0.0484 -0.5794
 7131SOL     OW33028   2.686   0.998   9.143 -0.1326 -0.4335  0.1672
 7131SOL    HW133029   2.699   1.023   9.052 -1.7489 -1.3816 -0.3327
 7131SOL    HW233030   2.753   1.054   9.183 -1.0539 -0.0271  1.1768
 7132SOL     OW33031   0.413   2.193   6.937 -0.1684  0.0691  0.2646
 7132SOL    HW133032   0.425   2.221   6.846  3.5757  1.1517  1.1020
 7132SOL    HW233033   0.466   2.261   6.979 -1.0532  0.9545 -0.0284
 7133SOL     OW33034   2.365   3.155   6.428 -0.4406  0.0567 -0.1805
 7133SOL    HW133035   2.413   3.237   6.428 -0.1911 -0.0696  2.4580
 7133SOL    HW233036   2.307   3.158   6.504  0.9359 -0.2388  0.8859
 7134SOL     OW33037   3.628   4.314  15.845 -0.2255  0.0214 -0.0044
 7134SOL    HW133038   3.630   4.220  15.828  2.3675  0.2408 -0.9286
 7134SOL    HW233039   3.565   4.318  15.917  1.1192  1.2802  1.0990
 7135SOL     OW33040   2.493   3.876   9.395  0.2512  0.2580  0.7622
 7135SOL    HW133041   2.420   3.832   9.439 -1.9226  0.1708 -2.8923
 7135SOL    HW233042   2.562   3.839   9.449 -0.8102 -1.4751  0.9134
 7136SOL     OW33043   0.060   1.507   4.692  0.2549  0.5889  0.0045
 7136SOL    HW133044   0.140   1.543   4.652  1.0227  0.1976  1.1989
 7136SOL    HW233045   0.075   1.413   4.681  2.2664  0.7932  1.0460
 7137SOL     OW33046   1.431   0.866   4.506 -0.6481 -0.0059  0.1997
 7137SOL    HW133047   1.480   0.943   4.535 -1.3003  0.4247  0.1632
 7137SOL    HW233048   1.464   0.791   4.556 -2.0669 -0.1132  0.9583
 7138SOL     OW33049   0.974   2.445   4.397 -0.0370  0.4712 -0.0752
 7138SOL    HW133050   0.887   2.415   4.373 -0.3073  2.4994 -1.5763
 7138SOL    HW233051   0.963   2.506   4.470 -2.6020 -2.0783  1.7008
 7139SOL     OW33052   4.078   0.075  12.989 -0.6841  0.0021  0.7218
 7139SOL    HW133053   4.148   0.127  13.029  0.0876  1.3431 -2.3761
 7139SOL    HW233054   4.097   0.102  12.900 -3.0632  0.2578  0.3080
 7140SOL     OW33055   0.766   2.008  11.855  0.2756 -0.2258  0.8362
 7140SOL    HW133056   0.738   2.096  11.830 -0.2794 -0.2620  1.3362
 7140SOL    HW233057   0.716   2.003  11.936  0.1209  1.2700  0.8473
 7141SOL     OW33058   4.518   3.101   9.297  0.1004  0.2218  0.2200
 7141SOL    HW133059   4.556   3.020   9.262 -0.0635 -1.1584  3.2486
 7141SOL    HW233060   4.574   3.172   9.265  1.8242 -0.9896  0.5283
 7142SOL     OW33061   4.478   2.349  10.323 -0.1911 -0.4876  0.4479
 7142SOL    HW133062   4.498   2.256  10.330 -0.8186 -0.6794 -0.3041
 7142SOL    HW233063   4.489   2.356  10.228  1.5757  1.6358  0.7967
 7143SOL     OW33064   1.050   1.426   2.422 -0.2971 -0.3359 -0.2612
 7143SOL    HW133065   1.116   1.478   2.376  1.8211 -1.1386  1.8272
 7143SOL    HW233066   1.061   1.469   2.508 -0.9290 -0.1483 -0.2722
 7144SOL     OW33067   0.789   2.687   9.369  0.2527  0.5168  0.4304
 7144SOL    HW133068   0.837   2.672   9.450 -2.3967  0.2476  1.9179
 7144SOL    HW233069   0.699   2.704   9.395 -0.1114  1.1337 -1.1929
 7145SOL     OW33070   4.201   2.919   0.958 -0.5694  0.1570  0.0051
 7145SOL    HW133071   4.231   2.945   1.045 -0.2245 -0.7822  0.1687
 7145SOL    HW233072   4.278   2.891   0.908  0.4861  1.5871  0.8084
 7146SOL     OW33073   1.596   0.119   7.353  0.2942  0.7134  0.2411
 7146SOL    HW133074   1.618   0.171   7.275 -0.7049  1.3007  0.3416
 7146SOL    HW233075   1.669   0.137   7.411  1.1927  2.0930 -1.2991
 7147SOL     OW33076   1.761   0.219   8.511 -0.5641 -0.2363  0.3028
 7147SOL    HW133077   1.789   0.235   8.421 -0.9359  0.4608  0.3167
 7147SOL    HW233078   1.817   0.149   8.544 -1.8019 -2.6807 -2.7714
 7148SOL     OW33079   4.700   2.602   4.342  0.7431 -0.0988  0.7072
 7148SOL    HW133080   0.017   2.532   4.379  1.3213 -0.1938 -0.2956
 7148SOL    HW233081   4.726   2.588   4.251 -0.9723 -1.3577  0.4213
 7149SOL     OW33082   0.693   0.337   4.835 -0.0785 -0.0680  0.3948
 7149SOL    HW133083   0.625   0.335   4.902 -0.7035  2.3027 -0.1606
 7149SOL    HW233084   0.650   0.404   4.781 -0.9326 -1.6991 -0.9656
 7150SOL     OW33085   3.724   2.779   5.201  0.0278  0.0117  0.0159
 7150SOL    HW133086   3.731   2.834   5.123  2.2257 -1.8183 -1.1234
 7150SOL    HW233087   3.805   2.809   5.242 -1.5206  0.1950  2.9214
 7151SOL     OW33088   2.334   0.176  15.091  0.0024 -0.1555 -0.6475
 7151SOL    HW133089   2.370   0.218  15.013  2.4767 -1.4409 -0.1818
 7151SOL    HW233090   2.367   0.088  15.078 -3.2354 -1.4000 -0.3368
 7152SOL     OW33091   1.913   2.207   4.020  0.2900 -0.2138 -0.3029
 7152SOL    HW133092   1.949   2.267   3.954 -1.3776 -0.3610 -1.3472
 7152SOL    HW233093   1.847   2.261   4.062  0.1827 -0.0697 -0.6501
 7153SOL     OW33094   1.440   0.888   5.750  0.1950  0.2945  0.4685
 7153SOL    HW133095   1.489   0.970   5.745 -0.1886  0.7098  3.3071
 7153SOL    HW233096   1.509   0.823   5.758 -2.4715 -2.6157 -0.1865
 7154SOL     OW33097   0.669   1.507   6.079 -0.1807 -0.2356 -0.5638
 7154SOL    HW133098   0.576   1.530   6.088 -0.2291 -0.9049  0.5920
 7154SOL    HW233099   0.713   1.567   6.139 -1.1043 -1.8622  1.7524
 7155SOL     OW33100   3.885   0.792   6.002 -0.6697  0.4427 -0.3205
 7155SOL    HW133101   3.957   0.784   5.939  1.4125  1.3122  1.9330
 7155SOL    HW233102   3.852   0.703   5.991  0.5503  0.4459 -3.7530
 7156SOL     OW33103   2.764   1.429   5.665  1.0993 -0.3089 -0.0899
 7156SOL    HW133104   2.778   1.521   5.644  0.2870 -0.3514 -0.8411
 7156SOL    HW233105   2.834   1.428   5.729 -0.2114  1.0916  1.3684
 7157SOL     OW33106   1.585   3.028   8.373  0.2092  0.1455  0.6220
 7157SOL    HW133107   1.505   3.012   8.323  1.9860 -4.0108 -0.9002
 7157SOL    HW233108   1.562   2.992   8.459 -2.3039  0.6265  0.1557
 7158SOL     OW33109   2.275   0.899   8.686 -0.3402  0.1588 -0.0226
 7158SOL    HW133110   2.194   0.902   8.635 -0.8895 -0.0671  0.8421
 7158SOL    HW233111   2.247   0.941   8.767  0.4334  0.5445  0.0470
 7159SOL     OW33112   1.617   0.678  10.992  0.3185 -0.2301 -0.5589
 7159SOL    HW133113   1.670   0.754  10.970  2.4544 -1.7266 -0.5924
 7159SOL    HW233114   1.526   0.703  10.975 -0.0451 -0.8106  0.4907
 7160SOL     OW33115   3.264   2.886  14.692 -0.2974  0.0377 -0.2685
 7160SOL    HW133116   3.197   2.896  14.759 -0.6064 -1.2769 -0.3802
 7160SOL    HW233117   3.260   2.792  14.674 -0.2297 -0.0204  0.0202
 7161SOL     OW33118   1.430   4.641   1.676 -0.2737  0.3808 -0.0789
 7161SOL    HW133119   1.407   4.552   1.648  0.0121 -0.1899  1.4499
 7161SOL    HW233120   1.384   4.687   1.606  1.1631  2.5930  0.4457
 7162SOL     OW33121   2.875   4.622   5.118  0.1012  0.1501 -0.3931
 7162SOL    HW133122   2.837   4.707   5.098 -0.6243  0.0087  0.3538
 7162SOL    HW233123   2.834   4.602   5.202  2.4441 -2.0204  0.2326
 7163SOL     OW33124   2.606   2.948   7.499  0.0438 -0.6441  0.3880
 7163SOL    HW133125   2.562   3.029   7.471  0.6927  0.3994  2.3814
 7163SOL    HW233126   2.582   2.957   7.591  0.7508 -0.5527  0.5687
 7164SOL     OW33127   2.464   4.471   7.000  0.0294 -0.5692 -0.4291
 7164SOL    HW133128   2.522   4.473   7.077  0.2136  0.5449 -0.5902
 7164SOL    HW233129   2.515   4.412   6.945  2.3603  2.3818 -1.4650
 7165SOL     OW33130   2.184   0.406  12.747  0.2991  0.2146 -0.3554
 7165SOL    HW133131   2.139   0.472  12.800 -2.0275 -1.4525 -0.2753
 7165SOL    HW233132   2.114   0.352  12.710  1.3979  0.8211 -3.3351
 7166SOL     OW33133   2.323   3.378   4.407 -0.2982 -0.0213 -0.4861
 7166SOL    HW133134   2.328   3.473   4.397  0.8387  0.0061  0.3387
 7166SOL    HW233135   2.380   3.357   4.481  0.5776 -0.6645 -1.3445
 7167SOL     OW33136   2.449   0.296   2.388  0.3993  0.3511  0.2244
 7167SOL    HW133137   2.516   0.332   2.330 -0.8597  0.0849 -1.3809
 7167SOL    HW233138   2.458   0.337   2.474 -1.1211  1.2294 -0.0354
 7168SOL     OW33139   2.475   0.168  13.790  0.0866 -0.0037  0.1059
 7168SOL    HW133140   2.496   0.155  13.697  1.7895  0.8752  0.3642
 7168SOL    HW233141   2.382   0.145  13.795 -0.3726  2.0015  0.5661
 7169SOL     OW33142   3.775   2.399   8.423 -0.6365 -0.1503  0.3025
 7169SOL    HW133143   3.746   2.413   8.514 -0.2114  1.1157  0.2366
 7169SOL    HW233144   3.796   2.306   8.421  1.4456  0.4012 -2.6991
 7170SOL     OW33145   2.140   3.274   8.279 -0.5062 -0.0523 -0.2676
 7170SOL    HW133146   2.138   3.280   8.374  0.4008 -1.7654 -0.1473
 7170SOL    HW233147   2.050   3.259   8.250 -1.1238  1.4862  0.8955
 7171SOL     OW33148   1.465   4.446   8.918  0.5885  0.2491  0.2600
 7171SOL    HW133149   1.414   4.367   8.940  2.1630 -1.4510 -2.1500
 7171SOL    HW233150   1.391   4.493   8.878  0.9844 -1.1379 -2.0965
 7172SOL     OW33151   0.017   1.380  11.670  0.3190  0.7563 -0.2871
 7172SOL    HW133152   4.713   1.320  11.733  1.3219  0.0278 -0.3383
 7172SOL    HW233153   0.052   1.437  11.739 -1.7840  0.2088  1.2089
 7173SOL     OW33154   4.377   3.188   4.873 -0.4541 -0.0166 -0.1819
 7173SOL    HW133155   4.399   3.217   4.785  2.5951 -0.5944  0.3836
 7173SOL    HW233156   4.283   3.172   4.867 -0.2639 -0.6636 -1.3787
 7174SOL     OW33157   4.106   4.231   3.481  0.2565 -0.1722  0.4137
 7174SOL    HW133158   4.167   4.298   3.513  1.3959 -0.8858 -0.2754
 7174SOL    HW233159   4.161   4.157   3.506 -2.3108 -2.7346 -1.4626
 7175SOL     OW33160   2.824   3.708   2.818 -0.3322 -0.1279  0.3704
 7175SOL    HW133161   2.861   3.623   2.842  3.6137  1.6232  0.4146
 7175SOL    HW233162   2.883   3.724   2.745 -2.6205  0.0306 -1.4703
 7176SOL     OW33163   0.378   1.716   0.968  0.4089  0.0951 -0.3137
 7176SOL    HW133164   0.332   1.762   1.038  1.5991 -1.5430  1.5624
 7176SOL    HW233165   0.465   1.754   0.959  1.4726 -1.4942  2.9979
 7177SOL     OW33166   4.632   1.801   3.312  0.3474  0.5526  0.5761
 7177SOL    HW133167   4.711   1.838   3.273  0.9903 -1.6980 -0.2656
 7177SOL    HW233168   4.657   1.824   3.402  0.7403  1.1048  0.3249
 7178SOL     OW33169   3.062   2.774   3.428 -0.7021 -0.1516 -0.1914
 7178SOL    HW133170   3.105   2.694   3.458 -0.1923 -0.4774 -1.8108
 7178SOL    HW233171   3.108   2.787   3.345  2.5273 -2.1357  1.2860
 7179SOL     OW33172   0.079   4.209   8.688  0.0384 -0.2281 -0.2481
 7179SOL    HW133173   0.122   4.193   8.604  1.0508  2.5238 -0.2573
 7179SOL    HW233174   0.132   4.161   8.752 -0.9949  1.0673  1.5694
 7180SOL     OW33175   0.242   3.917  16.510 -0.1337 -0.0866  0.1716
 7180SOL    HW133176   0.298   3.947  16.582  1.2459  0.4087 -1.0901
 7180SOL    HW233177   0.215   3.832  16.544  1.7191 -0.4293  0.8034
 7181SOL     OW33178   0.227   1.268   4.975  0.1147 -0.6429  0.0031
 7181SOL    HW133179   0.216   1.198   5.039 -0.3114  0.0866  0.7226
 7181SOL    HW233180   0.216   1.233   4.887  2.7408  0.5700 -0.8240
 7182SOL     OW33181   3.494   2.631   5.243 -0.3266  0.0232 -0.0627
 7182SOL    HW133182   3.444   2.674   5.173  0.6062  1.8362  0.3791
 7182SOL    HW233183   3.584   2.663   5.241  0.1112 -1.1002  1.7656
 7183SOL     OW33184   2.189   2.299   1.630 -0.1187 -0.2146 -0.2104
 7183SOL    HW133185   2.107   2.261   1.661  0.6504 -1.7247 -0.0005
 7183SOL    HW233186   2.241   2.283   1.710 -0.8064  1.4473  0.5715
 7184SOL     OW33187   3.896   2.406   6.298  0.3894  0.3689  0.2704
 7184SOL    HW133188   3.812   2.361   6.296  1.7703 -2.2185 -0.0734
 7184SOL    HW233189   3.882   2.467   6.370  1.1738  0.9446 -0.0604
 7185SOL     OW33190   1.252   3.988  10.960  0.2888 -0.1579  0.1950
 7185SOL    HW133191   1.343   3.993  10.989 -0.0479 -0.4066  1.3171
 7185SOL    HW233192   1.249   4.080  10.932  0.6268 -0.3284 -0.3853
 7186SOL     OW33193   0.144   1.008   9.160 -0.5505  0.5053 -0.5907
 7186SOL    HW133194   0.186   0.962   9.233  0.6484 -1.2746 -2.3856
 7186SOL    HW233195   0.176   0.965   9.080  3.0005 -1.2908  1.8188
 7187SOL     OW33196   0.693   4.210   3.984 -0.7439  0.1012  0.3395
 7187SOL    HW133197   0.754   4.181   4.051 -0.7963  0.2382  0.4465
 7187SOL    HW233198   0.715   4.303   3.972  0.1348 -0.2407 -0.6201
 7188SOL     OW33199   1.352   3.228   6.186  0.3349  0.8052 -0.1834
 7188SOL    HW133200   1.337   3.208   6.094  1.3732  0.7626 -0.3357
 7188SOL    HW233201   1.444   3.204   6.191 -0.2773 -0.7408  3.5452
 7189SOL     OW33202   4.218   0.143   9.440  0.0721  0.9737  0.3184
 7189SOL    HW133203   4.179   0.060   9.411  0.8951  0.0957  1.7341
 7189SOL    HW233204   4.235   0.173   9.351  0.7059  1.7555  0.7051
 7190SOL     OW33205   2.273   2.786   5.421  0.0731 -0.1871  0.7229
 7190SOL    HW133206   2.179   2.775   5.438  0.3505 -0.1695  2.2151
 7190SOL    HW233207   2.317   2.769   5.504  0.9520 -2.1965 -0.1748
 7191SOL     OW33208   2.225   3.115   6.211 -0.1184  0.2504  0.3737
 7191SOL    HW133209   2.154   3.083   6.267  1.1871  2.7394  3.4230
 7191SOL    HW233210   2.300   3.121   6.270 -0.3047 -0.7953  0.7290
 7192SOL     OW33211   1.896   1.595   0.764 -0.0268 -0.4896 -0.3181
 7192SOL    HW133212   1.841   1.548   0.702  0.4488 -0.3636 -0.8347
 7192SOL    HW233213   1.842   1.662   0.806 -0.2021 -1.1858  0.5601
 7193SOL     OW33214   3.859   3.920   9.055  0.5475 -0.5222  0.4788
 7193SOL    HW133215   3.938   3.890   9.011 -0.1188 -1.5822  0.0026
 7193SOL    HW233216   3.814   3.836   9.059 -0.3780 -0.0192  0.6490
 7194SOL     OW33217   3.580   1.290   1.935 -0.6781  0.6279 -0.0031
 7194SOL    HW133218   3.563   1.306   2.028 -2.3349 -0.9343 -0.0322
 7194SOL    HW233219   3.544   1.203   1.918 -0.8949  0.6197  0.5029
 7195SOL     OW33220   4.003   2.062   9.902  0.1913  0.0320  0.0597
 7195SOL    HW133221   4.021   2.123   9.974  0.7908 -0.8638  0.6625
 7195SOL    HW233222   4.096   2.059   9.879  0.0518 -0.0218 -0.4979
 7196SOL     OW33223   0.157   3.497   2.227  0.3257 -0.4574 -0.2519
 7196SOL    HW133224   0.137   3.556   2.299  0.9844 -2.0718  1.2496
 7196SOL    HW233225   0.090   3.528   2.166  1.6026  0.3853 -1.2362
 7197SOL     OW33226   1.758   2.634  14.064  0.5165  0.2595  0.0396
 7197SOL    HW133227   1.666   2.609  14.057 -0.0715  3.3916 -3.6439
 7197SOL    HW233228   1.756   2.678  14.149 -0.3268  0.8408 -0.2775
 7198SOL     OW33229   4.692   2.356  12.122  0.9191 -0.2324 -0.9573
 7198SOL    HW133230   4.711   2.399  12.205 -0.1162  0.8476 -1.2828
 7198SOL    HW233231   4.599   2.372  12.110  1.0081  0.7327 -0.3713
 7199SOL     OW33232   4.003   3.440   8.499  0.1438  0.2188  0.5678
 7199SOL    HW133233   4.039   3.352   8.496  0.2656  0.3343 -1.4623
 7199SOL    HW233234   3.908   3.431   8.489  0.3163  1.6248 -2.4553
 7200SOL     OW33235   3.884   2.934   8.097  0.4611  0.0506 -0.0261
 7200SOL    HW133236   3.796   2.948   8.063 -1.0135 -0.5433  3.5108
 7200SOL    HW233237   3.878   2.839   8.110  0.0839  0.3592  2.1735
 7201SOL     OW33238   4.666   4.392   7.615 -0.1952 -0.5717  0.0713
 7201SOL    HW133239   4.632   4.481   7.619  1.2081  0.0268 -1.4024
 7201SOL    HW233240   4.731   4.405   7.546  0.5394  2.9237  1.4715
 7202SOL     OW33241   3.035   3.975  17.024  0.4225 -0.0483 -0.5426
 7202SOL    HW133242   3.000   3.912  16.960  1.3020  0.2480 -1.3094
 7202SOL    HW233243   3.029   3.926  17.106 -0.8325  1.2261  0.1304
 7203SOL     OW33244   0.114   2.104  12.067 -0.3660  0.2278  0.6031
 7203SOL    HW133245   0.134   2.136  11.979 -1.1892  1.0885  0.7375
 7203SOL    HW233246   0.084   2.185  12.107 -0.5177 -0.3363  1.6376
 7204SOL     OW33247   4.625   2.608   7.454  0.8280  0.0951  0.1865
 7204SOL    HW133248   4.680   2.550   7.507  0.9637  1.0097  1.0509
 7204SOL    HW233249   4.684   2.650   7.391 -1.1216 -0.9432 -2.3298
 7205SOL     OW33250   2.213   4.025  10.150 -0.5291  0.1905  0.1036
 7205SOL    HW133251   2.152   4.027  10.076 -1.8005  2.5075  1.2102
 7205SOL    HW233252   2.154   4.015  10.225 -0.7138  0.4010 -0.0130
 7206SOL     OW33253   4.511   4.671   7.549  0.1073  0.5341 -0.5328
 7206SOL    HW133254   4.563   4.679   7.629 -0.4354 -0.5750 -0.0663
 7206SOL    HW233255   4.422   4.692   7.577 -0.1694 -1.9185  0.4066
 7207SOL     OW33256   2.043   1.215  17.519  0.0879 -0.6960  0.2049
 7207SOL    HW133257   2.030   1.302  17.481 -2.6960  0.3166  3.4915
 7207SOL    HW233258   2.031   1.160  17.442  0.6218 -0.2536 -0.2000
 7208SOL     OW33259   0.116   2.569  13.615 -0.3350  0.0664 -0.2480
 7208SOL    HW133260   0.022   2.584  13.617 -0.5949 -1.5567 -0.4116
 7208SOL    HW233261   0.129   2.528  13.529 -0.5880 -0.6515  0.0602
 7209SOL     OW33262   1.367   1.584  14.298 -0.3093 -0.4221  0.5349
 7209SOL    HW133263   1.311   1.526  14.247  0.5612  0.5054 -1.4711
 7209SOL    HW233264   1.424   1.523  14.345  0.1036  0.6475  1.4213
 7210SOL     OW33265   4.605   3.247   5.927  0.1920 -0.5281  0.1193
 7210SOL    HW133266   4.544   3.320   5.919 -0.3413 -1.2082 -1.9903
 7210SOL    HW233267   4.550   3.170   5.940 -0.1211 -0.7070 -2.2589
 7211SOL     OW33268   3.173   2.548   6.413  0.3995 -0.4681 -0.0691
 7211SOL    HW133269   3.083   2.579   6.400 -0.4445 -1.1045  4.0310
 7211SOL    HW233270   3.164   2.541   6.508 -0.2018  4.0626  0.2293
 7212SOL     OW33271   1.207   0.223   7.288  0.6239  0.1496  0.5789
 7212SOL    HW133272   1.185   0.240   7.196 -1.1087 -0.5118  0.8714
 7212SOL    HW233273   1.214   0.314   7.316 -0.4939 -0.0539  1.5231
 7213SOL     OW33274   3.199   1.777  10.678  0.0918  0.3681 -0.3048
 7213SOL    HW133275   3.191   1.715  10.606 -2.7338  1.0463 -0.5808
 7213SOL    HW233276   3.148   1.741  10.750  1.5954 -2.0774 -0.4583
 7214SOL     OW33277   0.232   0.214   8.987 -0.7530 -0.1810 -0.5118
 7214SOL    HW133278   0.278   0.130   8.978  0.0055 -0.1202  2.7474
 7214SOL    HW233279   0.286   0.254   9.056  0.4933 -2.1978 -0.2890
 7215SOL     OW33280   0.890   1.482   9.621 -0.5516  0.0342 -0.4136
 7215SOL    HW133281   0.879   1.571   9.590  0.0090  0.1902 -0.1669
 7215SOL    HW233282   0.853   1.482   9.709 -0.1248 -0.9050 -0.2278
 7216SOL     OW33283   1.776   2.164   6.595  0.2235 -0.0032 -0.5040
 7216SOL    HW133284   1.722   2.114   6.656  1.1315 -1.8501 -1.2195
 7216SOL    HW233285   1.702   2.217   6.563 -1.3401 -2.1808 -0.4827
 7217SOL     OW33286   1.561   4.021   6.225 -0.6886 -0.0444  0.2705
 7217SOL    HW133287   1.649   4.023   6.263  0.7568 -0.0379 -3.1392
 7217SOL    HW233288   1.577   3.980   6.140 -0.9789  3.1162 -1.2947
 7218SOL     OW33289   0.321   0.231   5.975  0.2539  0.1472  0.1605
 7218SOL    HW133290   0.289   0.309   6.020 -0.0767  0.2781 -0.3029
 7218SOL    HW233291   0.379   0.268   5.909 -0.8872 -1.1881 -1.6046
 7219SOL     OW33292   4.608   0.563  10.839 -0.5010 -0.2170 -0.2330
 7219SOL    HW133293   4.519   0.554  10.874 -0.0517  0.0243  0.9996
 7219SOL    HW233294   4.647   0.558  10.927  2.5150  2.3630 -1.4264
 7220SOL     OW33295   4.556   3.716   5.145 -0.2752  0.4896 -0.0608
 7220SOL    HW133296   4.462   3.727   5.126 -0.4324 -0.0017  0.4379
 7220SOL    HW233297   4.570   3.802   5.182  0.9126  0.2324  0.0746
 7221SOL     OW33298   4.295   3.830   1.057  0.7374 -0.1389  0.0514
 7221SOL    HW133299   4.256   3.869   0.979 -0.3702 -1.0828  0.1310
 7221SOL    HW233300   4.351   3.765   1.016  1.2033 -1.1665  2.3206
 7222SOL     OW33301   2.559   4.334  13.320 -0.0170 -0.1919  0.3184
 7222SOL    HW133302   2.480   4.348  13.267  1.0951 -0.2171 -1.3681
 7222SOL    HW233303   2.606   4.416  13.303  2.1495 -1.7441 -1.1801
 7223SOL     OW33304   2.169   1.048   2.577  0.4528  0.3888  0.4770
 7223SOL    HW133305   2.085   1.084   2.549  0.7989  1.2565  0.5602
 7223SOL    HW233306   2.232   1.101   2.528  0.4500 -1.1692 -1.2059
 7224SOL     OW33307   3.744   2.419   2.902 -0.1518 -0.5210 -0.0418
 7224SOL    HW133308   3.728   2.368   2.823  1.8725 -0.8460 -0.2621
 7224SOL    HW233309   3.801   2.357   2.948  0.5483 -0.1374 -0.3813
 7225SOL     OW33310   0.755   2.918   9.260  0.1034  0.1568 -0.0753
 7225SOL    HW133311   0.761   2.830   9.296 -0.6636 -1.2437 -3.3024
 7225SOL    HW233312   0.802   2.905   9.178  0.3515  0.0584  0.0841
 7226SOL     OW33313   1.754   1.021   1.407 -0.0311  0.2094 -0.0531
 7226SOL    HW133314   1.773   1.010   1.314  2.0530 -2.4269  0.6658
 7226SOL    HW233315   1.699   1.098   1.395 -1.1513 -0.4865  0.5737
 7227SOL     OW33316   0.597   1.370   4.247  0.5408 -0.5480  0.6477
 7227SOL    HW133317   0.577   1.277   4.240  2.7119 -1.0036  0.7746
 7227SOL    HW233318   0.607   1.403   4.157 -1.0134 -0.6193  0.4402
 7228SOL     OW33319   4.707   1.366   6.575  0.0175  0.3640  0.3041
 7228SOL    HW133320   4.705   1.450   6.530  1.4248  1.2034  1.7876
 7228SOL    HW233321   4.635   1.333   6.521  2.1603 -0.5025 -2.0007
 7229SOL     OW33322   1.571   0.206   9.613  0.1101 -0.3336  0.2512
 7229SOL    HW133323   1.502   0.141   9.610  0.1084 -0.2808 -1.0924
 7229SOL    HW233324   1.560   0.233   9.704  1.9103  1.5485 -0.0664
 7230SOL     OW33325   0.903   4.626   5.729  0.0085 -0.2486 -0.8336
 7230SOL    HW133326   0.848   4.663   5.660  1.9692 -1.1325 -2.8434
 7230SOL    HW233327   0.876   4.676   5.806  1.3677 -1.2528  0.3018
 7231SOL     OW33328   1.009   2.608   4.966  0.2405 -0.0484 -0.1036
 7231SOL    HW133329   1.004   2.515   4.987  0.2540  0.4835  2.3644
 7231SOL    HW233330   0.942   2.657   5.015 -1.1720 -0.9166 -1.1889
 7232SOL     OW33331   1.942   1.612   6.553 -0.5642  0.2494  0.4272
 7232SOL    HW133332   1.943   1.707   6.564 -3.1256  0.2740  0.4820
 7232SOL    HW233333   1.902   1.584   6.636  0.9494 -0.8179  0.7980
 7233SOL     OW33334   0.276   0.645  13.295  0.1107  0.4313 -0.1722
 7233SOL    HW133335   0.234   0.714  13.244  0.3834 -0.0519 -1.0624
 7233SOL    HW233336   0.316   0.588  13.228 -0.1422 -1.1316  1.0097
 7234SOL     OW33337   4.206   1.749   7.215  0.1572  0.0531  0.2424
 7234SOL    HW133338   4.115   1.732   7.190 -0.3170 -1.8544  3.2839
 7234SOL    HW233339   4.248   1.775   7.133  0.4081 -0.9182  0.0689
 7235SOL     OW33340   2.957   0.123   4.557  1.1559 -0.5532  0.1065
 7235SOL    HW133341   2.873   0.079   4.541 -0.2367  1.6050  1.4717
 7235SOL    HW233342   2.925   0.213   4.561 -3.7428 -2.3295  0.9515
 7236SOL     OW33343   2.864   0.256   5.122  0.6778 -0.1209  0.3023
 7236SOL    HW133344   2.833   0.237   5.210 -3.0612  0.7422 -0.8360
 7236SOL    HW233345   2.921   0.331   5.142 -0.8852  1.8373 -2.5361
 7237SOL     OW33346   2.172   0.741  14.923 -0.1472  0.5232  0.3771
 7237SOL    HW133347   2.192   0.746  14.830  0.9716  1.0122  0.6404
 7237SOL    HW233348   2.226   0.675  14.968 -2.8266 -1.3810  0.7608
 7238SOL     OW33349   4.575   2.708  17.599 -0.5902 -0.6675 -0.2248
 7238SOL    HW133350   4.501   2.733  17.655  0.5466  0.2865  0.8405
 7238SOL    HW233351   4.640   2.667  17.656  0.2865 -1.5111 -1.8451
 7239SOL     OW33352   2.634   2.905  16.512  0.3387 -0.0806  0.1955
 7239SOL    HW133353   2.660   2.890  16.603 -0.2640  1.6550  0.6583
 7239SOL    HW233354   2.555   2.852  16.504 -0.1470  0.8481 -1.1619
 7240SOL     OW33355   3.326   3.055   4.236  0.3171 -0.8057 -0.1101
 7240SOL    HW133356   3.345   3.042   4.143  1.0271 -0.8597  0.0397
 7240SOL    HW233357   3.315   2.964   4.263 -1.0524 -1.1587 -1.8306
 7241SOL     OW33358   0.705   0.571   3.499  0.1737 -0.1962  0.1918
 7241SOL    HW133359   0.714   0.649   3.444 -2.9314  1.2256  1.6710
 7241SOL    HW233360   0.797   0.545   3.499  0.2003 -0.1340  3.2611
 7242SOL     OW33361   4.216   4.469   3.952  0.1189  0.1416 -0.2193
 7242SOL    HW133362   4.235   4.561   3.969 -0.0662 -0.0744  1.1339
 7242SOL    HW233363   4.231   4.468   3.857 -0.2642  0.1539 -0.2786
 7243SOL     OW33364   1.201   3.501  12.742  0.1171  0.0074  0.2046
 7243SOL    HW133365   1.187   3.574  12.803  1.9494  0.6055 -0.0817
 7243SOL    HW233366   1.128   3.441  12.757  0.9798 -1.0750  0.0844
 7244SOL     OW33367   3.072   2.446   8.644  0.0553  0.8044  0.1707
 7244SOL    HW133368   3.105   2.396   8.718  1.5293 -1.2139 -1.8350
 7244SOL    HW233369   2.984   2.466   8.677  0.4337 -0.4244  1.9068
 7245SOL     OW33370   0.832   4.070   9.365 -1.2774  0.0632 -0.2950
 7245SOL    HW133371   0.770   4.126   9.413 -2.5818 -2.3099  0.7793
 7245SOL    HW233372   0.778   4.032   9.295 -0.4783  0.4979 -1.1461
 7246SOL     OW33373   0.248   3.149   9.499  0.1799 -0.0303 -0.9311
 7246SOL    HW133374   0.166   3.105   9.522 -0.2734  0.4446 -1.6650
 7246SOL    HW233375   0.215   3.238   9.485 -0.6069 -0.5358 -2.3073
 7247SOL     OW33376   2.128   3.213   9.223 -0.0517 -0.0586 -0.0118
 7247SOL    HW133377   2.078   3.132   9.208  0.0130  0.0456 -0.7991
 7247SOL    HW233378   2.152   3.188   9.312  3.2965  2.0084 -0.3469
 7248SOL     OW33379   2.959   1.252   5.462  0.5559 -0.3591  0.1084
 7248SOL    HW133380   2.868   1.222   5.456 -0.4935  2.5036  1.5417
 7248SOL    HW233381   3.004   1.184   5.411 -1.3063 -1.5078 -0.0247
 7249SOL     OW33382   4.245   3.259  15.368 -0.2519  0.5033  0.4841
 7249SOL    HW133383   4.207   3.181  15.326 -0.3875  0.0322  1.4781
 7249SOL    HW233384   4.160   3.294  15.395 -0.4762 -0.6899  1.3105
 7250SOL     OW33385   0.663   0.203   3.380 -0.1314  0.0626  0.4508
 7250SOL    HW133386   0.655   0.225   3.287  2.3085  2.8142  0.8883
 7250SOL    HW233387   0.750   0.165   3.391  0.6911  1.7256 -0.2628
 7251SOL     OW33388   0.463   2.198   7.263  0.2456  0.3944  0.4250
 7251SOL    HW133389   0.523   2.170   7.332 -2.0238  0.4534  2.4097
 7251SOL    HW233390   0.484   2.133   7.195 -1.5528  0.7606 -0.4823
 7252SOL     OW33391   1.341   1.679   3.657  0.1634  0.2993  0.6280
 7252SOL    HW133392   1.396   1.619   3.605 -1.6017 -2.4503  1.9064
 7252SOL    HW233393   1.380   1.673   3.744  0.9187  0.9987  0.3392
 7253SOL     OW33394   0.763   0.868   5.694 -0.4090 -0.1271  0.0349
 7253SOL    HW133395   0.809   0.941   5.653 -0.0070  0.1438  0.9663
 7253SOL    HW233396   0.724   0.912   5.769  0.0852 -0.7220  0.6447
 7254SOL     OW33397   3.024   2.862  16.133 -0.6814  0.3753 -0.3943
 7254SOL    HW133398   2.993   2.857  16.043  1.1792  1.8067 -1.1244
 7254SOL    HW233399   2.940   2.858  16.178 -0.3108  4.3736  0.6939
 7255SOL     OW33400   0.343   0.664   7.786 -0.2986 -0.3899 -0.2746
 7255SOL    HW133401   0.424   0.701   7.752 -0.0342  0.2871  1.1132
 7255SOL    HW233402   0.295   0.743   7.810 -0.9902 -0.3981 -1.6148
 7256SOL     OW33403   1.755   1.686   2.267 -0.2714 -0.3219 -0.0671
 7256SOL    HW133404   1.677   1.741   2.275 -0.5306 -0.8079  0.8037
 7256SOL    HW233405   1.825   1.750   2.271 -1.2354  0.5471  2.4828
 7257SOL     OW33406   3.191   2.794   3.169 -0.0953  0.1713  0.0352
 7257SOL    HW133407   3.139   2.783   3.090 -1.9187  0.3299  1.2093
 7257SOL    HW233408   3.276   2.816   3.131  0.2219 -0.7088  0.2431
 7258SOL     OW33409   4.209   2.095  12.110 -0.9996 -0.1523  0.3815
 7258SOL    HW133410   4.165   2.083  12.195 -0.5894  1.0964  0.7785
 7258SOL    HW233411   4.203   2.006  12.076  0.6170 -1.1089  2.6261
 7259SOL     OW33412   1.625   0.736   4.762  0.0588  0.1552 -0.1197
 7259SOL    HW133413   1.568   0.677   4.712 -1.5444 -0.6060  2.5834
 7259SOL    HW233414   1.693   0.757   4.698  1.2446 -0.3622  0.9980
 7260SOL     OW33415   4.044   4.253   3.218  0.5670 -0.2379  0.1536
 7260SOL    HW133416   3.985   4.327   3.203  0.8578  0.1179  0.7684
 7260SOL    HW233417   4.050   4.241   3.313 -2.1318  1.2413  0.5112
 7261SOL     OW33418   1.718   2.338   8.992 -0.1907 -0.0853  0.0364
 7261SOL    HW133419   1.802   2.343   9.037  0.3941 -0.9761 -0.9575
 7261SOL    HW233420   1.746   2.263   8.939  0.2807  0.7627 -0.9044
 7262SOL     OW33421   3.943   0.036   7.890  0.0762  0.4520 -0.2230
 7262SOL    HW133422   3.880   0.061   7.822  1.4121  0.3610 -1.4853
 7262SOL    HW233423   3.987   4.693   7.858 -2.2481 -0.3558 -1.4063
 7263SOL     OW33424   2.108   2.864   3.575 -0.0695 -0.7861 -0.7027
 7263SOL    HW133425   2.058   2.940   3.546  1.4503  0.7256  0.5992
 7263SOL    HW233426   2.195   2.904   3.565 -0.1472 -0.3671  0.2542
 7264SOL     OW33427   2.937   3.956   7.622  0.1604  0.3617 -0.2951
 7264SOL    HW133428   2.894   3.999   7.548 -0.3435 -0.1609 -0.3020
 7264SOL    HW233429   2.900   3.868   7.618 -1.2332  0.9962 -1.5201
 7265SOL     OW33430   1.560   1.212   7.481 -0.0543 -0.6760 -0.3839
 7265SOL    HW133431   1.588   1.238   7.569  4.2116  1.3121 -2.3064
 7265SOL    HW233432   1.468   1.232   7.495  0.9026  1.3181  3.2062
 7266SOL     OW33433   4.146   3.857   9.071 -0.2098  0.3485 -0.1241
 7266SOL    HW133434   4.190   3.924   9.124  1.3774 -0.1903 -0.7520
 7266SOL    HW233435   4.099   3.803   9.135  1.3303 -1.3566 -0.4436
 7267SOL     OW33436   1.562   2.703   4.856  0.3494  0.5227  0.0004
 7267SOL    HW133437   1.470   2.688   4.877 -0.0158  1.3548 -0.9857
 7267SOL    HW233438   1.556   2.797   4.838 -0.5154  0.1757 -1.6171
 7268SOL     OW33439   0.305   3.082   2.238 -0.0332 -0.9542  0.0279
 7268SOL    HW133440   0.317   3.176   2.246  0.9033 -1.0806  0.0907
 7268SOL    HW233441   0.391   3.044   2.258 -0.4534 -3.1048 -2.1902
 7269SOL     OW33442   1.213   2.845   3.060 -0.4244  0.7099  0.0152
 7269SOL    HW133443   1.153   2.915   3.085  0.6358  1.1273  1.4039
 7269SOL    HW233444   1.286   2.903   3.039  0.7457 -0.1463  1.7063
 7270SOL     OW33445   1.602   3.532   9.288  0.5998  0.5650 -0.5697
 7270SOL    HW133446   1.675   3.483   9.249  0.5801  1.6099 -1.9220
 7270SOL    HW233447   1.578   3.471   9.358 -3.5979  0.3867 -2.1547
 7271SOL     OW33448   2.558   2.792   7.818 -0.1492 -0.2078  0.1181
 7271SOL    HW133449   2.515   2.720   7.772 -2.5050  0.3460  1.4942
 7271SOL    HW233450   2.649   2.762   7.825  0.3739  1.0283 -1.2805
 7272SOL     OW33451   4.156   3.790   6.530 -0.3690 -0.0318  0.1159
 7272SOL    HW133452   4.129   3.719   6.588 -0.0899  2.0205  2.7948
 7272SOL    HW233453   4.077   3.792   6.476 -0.6427 -1.9872  0.4701
 7273SOL     OW33454   4.505   2.872   6.597 -0.0247 -0.6115  0.3448
 7273SOL    HW133455   4.479   2.933   6.666  0.4410 -0.8077  0.6852
 7273SOL    HW233456   4.597   2.866   6.622  0.0870  0.8718  0.2956
 7274SOL     OW33457   0.522   0.314  16.035  0.5707 -0.4989 -0.3596
 7274SOL    HW133458   0.607   0.271  16.044  1.7259  1.8955  0.2909
 7274SOL    HW233459   0.537   0.408  16.020  0.8107 -0.2300  1.4970
 7275SOL     OW33460   0.124   3.861   5.789 -0.5506 -0.0487 -0.1265
 7275SOL    HW133461   0.031   3.866   5.811 -0.4988 -2.5338  0.6653
 7275SOL    HW233462   0.143   3.953   5.770  1.3890 -0.3679  0.2403
 7276SOL     OW33463   4.139   0.837   3.444 -0.2737 -0.4201 -0.0210
 7276SOL    HW133464   4.111   0.746   3.454  0.1015 -0.6750 -1.3018
 7276SOL    HW233465   4.174   0.849   3.532  2.6762  0.3383 -1.2781
 7277SOL     OW33466   2.968   1.659   7.149  0.0617 -0.0125  0.3807
 7277SOL    HW133467   2.873   1.664   7.142  0.0575  0.0028  0.4537
 7277SOL    HW233468   2.980   1.670   7.243  0.7361  1.2849  0.1430
 7278SOL     OW33469   0.357   0.767   7.344 -0.1751  0.5994  0.3078
 7278SOL    HW133470   0.404   0.701   7.292  2.9880  1.0652  2.5832
 7278SOL    HW233471   0.306   0.814   7.278 -2.7011 -2.1274  0.3500
 7279SOL     OW33472   0.728   1.790   3.883  0.3269 -0.7506 -0.0411
 7279SOL    HW133473   0.792   1.860   3.878 -1.4347  0.8759  0.0132
 7279SOL    HW233474   0.761   1.704   3.857 -0.5079 -0.9279 -0.5037
 7280SOL     OW33475   2.373   0.013   2.378  0.4099 -0.1871  0.1644
 7280SOL    HW133476   2.462   0.018   2.341  0.6205  0.5901  0.7673
 7280SOL    HW233477   2.347   0.105   2.376 -1.6542 -0.8006 -0.3364
 7281SOL     OW33478   4.434   4.735   3.210 -0.5138 -0.6538 -0.2353
 7281SOL    HW133479   4.496   4.664   3.195 -2.6142 -2.7806  1.0604
 7281SOL    HW233480   4.353   4.690   3.186 -0.1857 -0.5899 -1.4362
 7282SOL     OW33481   2.402   2.891  11.995 -0.4880  0.2771 -0.1789
 7282SOL    HW133482   2.395   2.951  12.069  2.4627 -0.8860  0.9947
 7282SOL    HW233483   2.491   2.909  11.963 -1.1030  0.4872 -1.7988
 7283SOL     OW33484   3.359   1.372   9.910  0.0977  0.1618 -0.1035
 7283SOL    HW133485   3.301   1.334   9.844 -1.8689  1.3373  0.9277
 7283SOL    HW233486   3.320   1.459   9.918 -0.1350  0.2935 -2.5053
 7284SOL     OW33487   3.150   2.892   2.339  0.1707 -0.0960 -0.0840
 7284SOL    HW133488   3.167   2.918   2.249 -0.0097 -1.2241 -0.4491
 7284SOL    HW233489   3.124   2.800   2.331 -2.1336  0.5633 -0.2658
 7285SOL     OW33490   2.912   3.346   3.103 -0.0367  0.0013 -0.6432
 7285SOL    HW133491   2.924   3.412   3.035  1.6674 -0.1299 -0.4882
 7285SOL    HW233492   2.833   3.373   3.150  1.4087 -0.1836  1.9074
 7286SOL     OW33493   1.336   3.255  15.239 -0.5562 -0.8275 -0.5655
 7286SOL    HW133494   1.264   3.197  15.212  0.1813 -0.7700 -2.6381
 7286SOL    HW233495   1.400   3.251  15.168 -1.0936  1.3418 -1.1549
 7287SOL     OW33496   0.522   4.712   0.203  0.1275  0.0387  0.4054
 7287SOL    HW133497   0.486   4.712   0.292  0.7175  1.2951  0.6506
 7287SOL    HW233498   0.612   0.007   0.217 -0.2892  1.9893 -1.2407
 7288SOL     OW33499   1.603   3.322   7.184  0.0030 -0.3591 -0.2588
 7288SOL    HW133500   1.528   3.370   7.148  1.5098  0.8414 -1.8095
 7288SOL    HW233501   1.561   3.273   7.255 -1.2771 -0.4151 -1.0467
 7289SOL     OW33502   0.834   0.520   3.920  0.2837 -0.1638 -0.1054
 7289SOL    HW133503   0.743   0.549   3.919 -0.4142 -2.4331 -2.0349
 7289SOL    HW233504   0.863   0.579   3.851 -0.7381 -1.9083 -2.0355
 7290SOL     OW33505   2.095   2.499   8.241  0.4797  0.0353 -0.1789
 7290SOL    HW133506   2.141   2.446   8.176  1.3997  1.2062 -0.4677
 7290SOL    HW233507   2.139   2.582   8.227  1.7172 -0.7822 -1.0987
 7291SOL     OW33508   3.535   2.064   6.037 -0.1423 -0.1700  0.4117
 7291SOL    HW133509   3.497   2.152   6.035  1.5657  0.5419 -1.1421
 7291SOL    HW233510   3.469   2.008   5.996  0.1992 -0.2367 -0.0409
 7292SOL     OW33511   4.663   3.026  10.958 -0.1739 -0.4368  0.1972
 7292SOL    HW133512   4.730   3.070  11.009 -0.7090  0.1000  0.4360
 7292SOL    HW233513   4.586   3.082  10.950 -0.2037 -0.4003  0.7646
 7293SOL     OW33514   1.088   0.032   4.838 -0.0046  0.1912 -0.1545
 7293SOL    HW133515   1.173   0.074   4.849 -0.9079  2.5420 -2.1301
 7293SOL    HW233516   1.121   4.683   4.807 -0.0892  0.3902 -0.7861
 7294SOL     OW33517   2.065   0.682   5.125 -0.3362 -0.7460 -0.0248
 7294SOL    HW133518   1.982   0.633   5.122 -1.1856  0.7625 -1.1407
 7294SOL    HW233519   2.069   0.704   5.218 -1.3977 -1.2075  0.1366
 7295SOL     OW33520   3.963   1.214   7.171 -0.6163 -0.5431  0.1243
 7295SOL    HW133521   3.954   1.148   7.240 -0.6465  2.3062  2.8637
 7295SOL    HW233522   3.920   1.290   7.210 -0.9661 -0.6000 -0.1530
 7296SOL     OW33523   0.899   2.288   1.157 -0.5274 -0.3976  0.1394
 7296SOL    HW133524   0.948   2.268   1.237 -1.3613 -0.0944  0.7259
 7296SOL    HW233525   0.905   2.383   1.159 -0.0246 -0.4578  1.6862
 7297SOL     OW33526   2.451   2.953   8.551  0.1061  0.1748 -0.3091
 7297SOL    HW133527   2.422   2.987   8.466 -1.9181  0.7677  0.6219
 7297SOL    HW233528   2.429   3.025   8.609  2.6620  2.2228 -1.8805
 7298SOL     OW33529   1.876   0.046  15.786 -0.2188  0.4406 -0.4091
 7298SOL    HW133530   1.905   0.009  15.869  2.3963 -0.5217 -1.7431
 7298SOL    HW233531   1.887   4.711  15.722 -1.0274 -1.8290  1.9795
 7299SOL     OW33532   1.425   1.324   6.361  0.0460 -0.3589  0.1008
 7299SOL    HW133533   1.393   1.361   6.279  1.1147  1.9691  0.7495
 7299SOL    HW233534   1.352   1.354   6.415 -0.4512 -5.3414  2.2850
 7300SOL     OW33535   4.561   1.411   8.107  0.7029 -0.2139  0.0549
 7300SOL    HW133536   4.488   1.407   8.169 -0.7443  1.9380 -1.4899
 7300SOL    HW233537   4.553   1.499   8.070 -2.0580  0.1725  1.5563
 7301SOL     OW33538   3.665   4.715  12.561 -0.0475 -0.1404  0.0935
 7301SOL    HW133539   3.686   4.721  12.468  0.0058  0.0658  0.1207
 7301SOL    HW233540   3.750   4.695  12.601  0.2616 -0.3075 -0.6491
 7302SOL     OW33541   1.509   1.487   2.727  0.0013 -0.0978 -0.6951
 7302SOL    HW133542   1.491   1.557   2.665 -0.7492  0.7314  0.4596
 7302SOL    HW233543   1.572   1.432   2.681 -1.1084 -0.6365 -1.5662
 7303SOL     OW33544   0.397   1.408   1.834 -0.0076 -0.5921  0.2145
 7303SOL    HW133545   0.366   1.380   1.748 -0.6169  1.2884 -0.1805
 7303SOL    HW233546   0.399   1.330   1.890 -0.5994  0.3067  1.4955
 7304SOL     OW33547   1.049   1.562   8.293  0.0379 -0.4658 -0.3079
 7304SOL    HW133548   1.128   1.572   8.346 -2.5759  0.4699  3.4139
 7304SOL    HW233549   0.980   1.592   8.352  1.0942  0.8336  0.2619
 7305SOL     OW33550   0.227   2.444   6.384 -0.0415 -0.0977  0.3054
 7305SOL    HW133551   0.183   2.521   6.420  0.5172  0.7769 -0.8791
 7305SOL    HW233552   0.300   2.444   6.446 -0.5991 -3.1984  0.9386
 7306SOL     OW33553   2.826   1.698  17.245  0.3782 -0.1846  0.3153
 7306SOL    HW133554   2.732   1.683  17.232  0.4513 -1.0038  0.7473
 7306SOL    HW233555   2.855   1.618  17.203 -2.7878  0.1524 -2.5386
 7307SOL     OW33556   2.820   3.145   1.220 -0.8251  0.1839 -0.0176
 7307SOL    HW133557   2.910   3.112   1.216 -1.3875 -1.1962 -1.3406
 7307SOL    HW233558   2.807   3.182   1.133 -0.3489 -0.3238 -0.3048
 7308SOL     OW33559   1.473   0.541   3.109  0.2050 -0.1878 -0.0860
 7308SOL    HW133560   1.536   0.546   3.181 -0.3403 -0.1540  0.3899
 7308SOL    HW233561   1.540   0.563   3.044  0.2975 -1.9070 -0.5725
 7309SOL     OW33562   4.257   1.732   8.224 -0.1415  0.4679  0.1024
 7309SOL    HW133563   4.212   1.727   8.139  0.8232  1.9931 -0.4919
 7309SOL    HW233564   4.351   1.721   8.207 -0.4978 -1.3106 -0.8001
 7310SOL     OW33565   2.670   2.958  10.368 -0.4039  0.0226  0.4266
 7310SOL    HW133566   2.588   2.998  10.336  0.2482  0.2489 -0.9825
 7310SOL    HW233567   2.706   3.023  10.428  2.8781  0.3368 -1.9239
 7311SOL     OW33568   4.041   1.047   4.588  0.2360  0.1741 -0.4083
 7311SOL    HW133569   4.086   1.112   4.641 -2.1824  1.3770  0.1592
 7311SOL    HW233570   3.976   1.005   4.644  0.9954 -0.6024 -0.1101
 7312SOL     OW33571   0.350   0.221  12.078 -0.5361 -0.4719 -1.0655
 7312SOL    HW133572   0.264   0.221  12.037 -1.3595  0.6543  0.6593
 7312SOL    HW233573   0.396   0.281  12.018 -0.8617  1.9384  1.0985
 7313SOL     OW33574   0.264   4.191   9.167 -0.5485  0.2938 -0.1640
 7313SOL    HW133575   0.209   4.250   9.218 -0.6701  0.3489 -0.3553
 7313SOL    HW233576   0.207   4.185   9.090  0.8228  3.6833 -1.4446
 7314SOL     OW33577   4.237   3.531   9.372  0.5093 -0.0368 -0.5661
 7314SOL    HW133578   4.297   3.578   9.314  1.4615 -0.3760  0.1541
 7314SOL    HW233579   4.305   3.497   9.429 -0.7896 -0.1556  0.9214
 7315SOL     OW33580   2.004   0.082   6.296 -0.0952 -0.2506 -0.0606
 7315SOL    HW133581   1.986   0.173   6.318 -0.1704  0.1791 -1.8809
 7315SOL    HW233582   2.036   0.097   6.207  0.9766 -0.0018  0.3751
 7316SOL     OW33583   2.677   3.221   4.339 -0.4964 -0.4602  0.1732
 7316SOL    HW133584   2.658   3.128   4.326  0.5324 -0.1066 -4.1111
 7316SOL    HW233585   2.708   3.203   4.428 -2.4704 -1.9297  0.5527
 7317SOL     OW33586   1.894   1.569   9.182 -0.1901  0.0396 -0.4119
 7317SOL    HW133587   1.941   1.486   9.178  1.1281  0.7977 -1.1142
 7317SOL    HW233588   1.844   1.565   9.263 -0.4875  0.6229 -0.5632
 7318SOL     OW33589   0.988   2.475  15.659  0.5575  0.6590 -0.5425
 7318SOL    HW133590   1.003   2.386  15.691 -1.1905  0.4649 -0.2400
 7318SOL    HW233591   1.028   2.521  15.732  1.0969 -2.7239  1.2735
 7319SOL     OW33592   0.377   3.722   6.836  0.4437  0.0105 -0.0964
 7319SOL    HW133593   0.393   3.672   6.756  1.0354  0.0918 -0.0241
 7319SOL    HW233594   0.456   3.701   6.886  0.5003  1.0069  0.2296
 7320SOL     OW33595   1.711   0.860  16.319  0.2844 -0.3074  0.2584
 7320SOL    HW133596   1.771   0.920  16.362  0.6037  0.7221 -1.6162
 7320SOL    HW233597   1.734   0.871  16.227  1.0882  3.0158  0.8807
 7321SOL     OW33598   3.515   1.899   3.386 -0.5911 -0.4401 -0.6808
 7321SOL    HW133599   3.556   1.949   3.315 -0.4804 -0.0382 -0.3380
 7321SOL    HW233600   3.426   1.935   3.390 -0.7988 -1.0283 -0.0500
 7322SOL     OW33601   1.455   1.000   8.115 -0.5598  0.6998  0.5355
 7322SOL    HW133602   1.423   0.956   8.194  0.0524  0.4353  0.6287
 7322SOL    HW233603   1.484   1.079   8.159 -0.3891  0.7457  0.3365
 7323SOL     OW33604   4.115   3.048   4.801 -0.2315  0.7980 -0.3093
 7323SOL    HW133605   4.132   3.023   4.710  1.6746  0.2341  0.1853
 7323SOL    HW233606   4.049   3.114   4.782 -2.4750 -1.6263 -1.0683
 7324SOL     OW33607   4.157   3.159   3.549  0.4177  0.0993 -0.7399
 7324SOL    HW133608   4.225   3.094   3.565  0.8594  0.3891 -1.4110
 7324SOL    HW233609   4.152   3.165   3.454  2.2933  2.4632 -0.7025
 7325SOL     OW33610   3.682   2.310  16.634 -0.2747  0.3874  0.7311
 7325SOL    HW133611   3.677   2.389  16.581 -3.7977 -1.0284 -1.0396
 7325SOL    HW233612   3.733   2.259  16.572 -2.1810  0.4110 -0.8426
 7326SOL     OW33613   0.243   1.533   8.212 -0.1924 -0.6192 -0.6863
 7326SOL    HW133614   0.319   1.491   8.254 -1.9619 -1.6914  1.4479
 7326SOL    HW233615   0.222   1.471   8.142 -0.2115 -1.4882  0.0875
 7327SOL     OW33616   0.320   0.089   0.457 -0.4955  0.0827 -0.2311
 7327SOL    HW133617   0.372   0.068   0.535 -0.1861 -2.1123 -1.0071
 7327SOL    HW233618   0.315   0.184   0.462  2.1308  0.2610 -1.0177
 7328SOL     OW33619   3.785   3.204   8.950 -0.0271  0.5290  0.2521
 7328SOL    HW133620   3.726   3.279   8.955  2.5087  2.5821 -0.2878
 7328SOL    HW233621   3.761   3.150   9.025  1.1919  3.3399  2.6801
 7329SOL     OW33622   2.226   3.341   3.062  0.4122 -0.2844  0.6738
 7329SOL    HW133623   2.306   3.305   3.098  0.2856 -0.0049  1.2303
 7329SOL    HW233624   2.160   3.274   3.079  0.1450 -0.2364 -0.1419
 7330SOL     OW33625   2.568   0.298   6.579  0.3309  0.1604 -0.2772
 7330SOL    HW133626   2.543   0.262   6.494  0.0579  0.2195 -0.2225
 7330SOL    HW233627   2.549   0.225   6.638 -0.5196  0.5789 -0.0420
 7331SOL     OW33628   2.276   2.187   6.002 -0.0784 -0.4521 -0.2519
 7331SOL    HW133629   2.294   2.096   5.977  0.8402 -0.4064  0.2284
 7331SOL    HW233630   2.351   2.229   5.960 -1.0269  2.2978  0.7953
 7332SOL     OW33631   1.511   0.668   1.579  0.4726 -0.1024  0.0606
 7332SOL    HW133632   1.449   0.610   1.624  0.6082 -1.0493 -0.9834
 7332SOL    HW233633   1.581   0.679   1.644 -0.5166 -0.5519  1.1950
 7333SOL     OW33634   3.423   3.379  16.183  0.3658  0.2646  0.8880
 7333SOL    HW133635   3.459   3.377  16.094 -2.6837 -0.6567 -0.3138
 7333SOL    HW233636   3.501   3.398  16.236  0.6256  0.4859  0.4293
 7334SOL     OW33637   1.937   0.834  17.376  0.1184  0.0235  0.1899
 7334SOL    HW133638   1.964   0.908  17.321 -2.2633  0.8610  0.1402
 7334SOL    HW233639   1.960   0.865  17.463  0.6586  0.6360 -0.1673
 7335SOL     OW33640   3.773   1.170   3.221 -0.3057 -0.3139  0.0769
 7335SOL    HW133641   3.698   1.222   3.190  0.2334 -0.2834 -1.1894
 7335SOL    HW233642   3.820   1.228   3.281  0.0769  1.4376 -1.9007
 7336SOL     OW33643   2.192   1.785   3.815 -0.0953 -0.2591 -0.0324
 7336SOL    HW133644   2.221   1.841   3.743 -1.7283 -1.3311 -1.5620
 7336SOL    HW233645   2.101   1.816   3.822 -0.7564 -2.5083  1.5561
 7337SOL     OW33646   3.980   1.765   5.408 -0.7539 -0.3600  0.5001
 7337SOL    HW133647   4.035   1.735   5.336 -1.2669 -1.4476  0.5669
 7337SOL    HW233648   3.909   1.800   5.355  1.1697 -0.2444 -1.9829
 7338SOL     OW33649   0.639   1.740   2.217  0.1520 -0.8269  0.4476
 7338SOL    HW133650   0.687   1.666   2.256  0.1725 -1.6320 -1.1125
 7338SOL    HW233651   0.565   1.684   2.194  1.2115 -2.3270  0.6158
 7339SOL     OW33652   3.588   3.773   2.512 -0.1349  0.0568 -0.8104
 7339SOL    HW133653   3.674   3.801   2.542 -0.4059 -0.0362  0.0504
 7339SOL    HW233654   3.591   3.684   2.547  0.6750  0.7820  0.9381
 7340SOL     OW33655   2.827   3.596   6.672  0.2151  0.6591  0.0816
 7340SOL    HW133656   2.885   3.669   6.692 -1.1888  1.4324  1.3239
 7340SOL    HW233657   2.826   3.557   6.760 -2.7901  1.5032  0.4428
 7341SOL     OW33658   2.339   0.824  15.696  0.3768  0.2340  0.2194
 7341SOL    HW133659   2.377   0.766  15.630 -0.2445 -0.5698  0.5586
 7341SOL    HW233660   2.247   0.824  15.669 -0.3335  1.2468  2.6535
 7342SOL     OW33661   4.665   1.042  14.893  0.1972  0.4727 -0.1436
 7342SOL    HW133662   4.720   1.045  14.814  0.3405  1.1647 -0.0172
 7342SOL    HW233663   4.603   0.979  14.854  1.4621 -1.2439  0.6293
 7343SOL     OW33664   1.180   2.048  16.332 -0.0006  0.2692  0.2630
 7343SOL    HW133665   1.134   2.079  16.409 -0.7878 -0.2710  0.0123
 7343SOL    HW233666   1.111   1.985  16.313 -1.6967  0.9220  4.2599
 7344SOL     OW33667   1.017   0.445  17.290 -0.2785 -0.0907  0.8392
 7344SOL    HW133668   1.007   0.375  17.225 -1.0215  2.2039 -1.5231
 7344SOL    HW233669   0.974   0.516  17.242 -1.0030 -0.8715  0.3342
 7345SOL     OW33670   3.024   1.918   3.457  0.0075  0.2932  0.1026
 7345SOL    HW133671   2.929   1.908   3.457 -0.0773  1.1532  0.8571
 7345SOL    HW233672   3.052   1.841   3.505 -0.5140 -0.3750 -0.6645
 7346SOL     OW33673   2.926   4.470   6.583  0.3686 -0.2191 -0.4636
 7346SOL    HW133674   3.006   4.418   6.583  0.8328  0.4948  0.3422
 7346SOL    HW233675   2.854   4.406   6.580  0.5701 -0.6462  4.3302
 7347SOL     OW33676   2.600   4.468   1.846 -0.4232 -0.3784  0.1520
 7347SOL    HW133677   2.620   4.384   1.804  1.5145  0.4975 -0.6736
 7347SOL    HW233678   2.504   4.476   1.851 -0.3252  0.6655  0.1854
 7348SOL     OW33679   2.816   4.408   4.894 -0.1101  0.3539  0.0868
 7348SOL    HW133680   2.843   4.456   4.971 -1.7403  0.4150  0.6179
 7348SOL    HW233681   2.904   4.386   4.863 -1.3136 -1.0712 -2.3487
 7349SOL     OW33682   0.372   4.099  15.787  0.0006 -0.3696  0.0628
 7349SOL    HW133683   0.441   4.067  15.728 -0.1185 -2.0725  0.8272
 7349SOL    HW233684   0.364   4.191  15.764 -1.1590 -0.3610  0.5112
 7350SOL     OW33685   0.632   4.178   2.896  0.1565  0.1732  0.1529
 7350SOL    HW133686   0.573   4.133   2.957 -0.8544  0.2915 -0.7415
 7350SOL    HW233687   0.710   4.123   2.907  0.2583  0.4168  0.6669
 7351SOL     OW33688   0.868   4.407   5.940 -0.2631 -0.3067 -0.0758
 7351SOL    HW133689   0.951   4.427   5.985  0.4570  0.0207 -1.5348
 7351SOL    HW233690   0.880   4.465   5.864 -0.2317 -2.4679 -1.7235
 7352SOL     OW33691   4.115   1.824   0.616  0.3198  0.6343  0.0326
 7352SOL    HW133692   4.196   1.830   0.565  0.1590 -2.3463 -0.5606
 7352SOL    HW233693   4.129   1.741   0.660 -1.0685  0.9343  1.0328
 7353SOL     OW33694   2.599   3.003  11.654  0.1435 -0.3147 -0.3408
 7353SOL    HW133695   2.694   3.021  11.651 -0.0520  0.5483 -1.8501
 7353SOL    HW233696   2.582   3.033  11.743  2.3291 -0.4267  0.1347
 7354SOL     OW33697   1.902   2.604  14.504  0.2887 -0.1070 -0.5296
 7354SOL    HW133698   1.889   2.661  14.580 -1.0365  1.3031 -1.8104
 7354SOL    HW233699   1.971   2.644  14.451  0.3076  1.4876  0.6815
 7355SOL     OW33700   2.208   1.165   3.583  0.2757  0.7723  0.3024
 7355SOL    HW133701   2.127   1.139   3.537  2.0292  0.6508 -2.7268
 7355SOL    HW233702   2.217   1.259   3.566  0.3657  0.6679 -0.2206
 7356SOL     OW33703   1.237   2.043   9.685 -0.1742 -0.3043 -0.0897
 7356SOL    HW133704   1.147   2.013   9.673  0.4548 -1.3822 -2.0230
 7356SOL    HW233705   1.251   2.057   9.779  2.4308 -0.8316 -0.3818
 7357SOL     OW33706   4.051   3.516   3.091  0.1776  0.3717 -0.1678
 7357SOL    HW133707   3.973   3.571   3.088  0.9237  1.3888 -0.6189
 7357SOL    HW233708   4.020   3.431   3.059 -0.4716  0.4649  0.2037
 7358SOL     OW33709   3.075   4.087   5.033  0.2124 -0.6983  0.0091
 7358SOL    HW133710   3.164   4.101   5.066 -0.1267 -1.7553  1.3490
 7358SOL    HW233711   3.099   4.098   4.940 -1.5435  4.6762  0.1929
 7359SOL     OW33712   2.353   1.537   2.968  0.3243 -0.1604  0.8514
 7359SOL    HW133713   2.330   1.559   3.058  0.3489 -0.1817  0.8628
 7359SOL    HW233714   2.380   1.625   2.940 -2.3795  0.5299  0.4361
 7360SOL     OW33715   3.855   4.307  16.617  0.3946 -0.0410  0.1677
 7360SOL    HW133716   3.822   4.370  16.682  1.0877  0.1230  0.3628
 7360SOL    HW233717   3.782   4.310  16.555  1.1176 -2.0337 -0.7503
 7361SOL     OW33718   0.601   3.352   1.781 -0.5890 -0.1224 -0.1125
 7361SOL    HW133719   0.603   3.447   1.789 -1.0028 -0.1068 -0.2281
 7361SOL    HW233720   0.550   3.341   1.861  0.4643  2.0380  0.8486
 7362SOL     OW33721   1.974   3.120   7.114  0.1058 -0.1546  0.7564
 7362SOL    HW133722   1.892   3.070   7.117 -0.0702  0.0946 -0.0285
 7362SOL    HW233723   2.029   3.042   7.109  0.4318  0.1876 -1.0292
 7363SOL     OW33724   0.418   2.824  14.067  0.0473 -0.0114 -0.8720
 7363SOL    HW133725   0.376   2.894  14.116  1.2245 -0.8149  1.3140
 7363SOL    HW233726   0.454   2.864  13.988  1.0310  0.2269 -0.2939
 7364SOL     OW33727   4.252   0.214   8.468  0.4345  0.5035 -0.0014
 7364SOL    HW133728   4.317   0.170   8.523 -0.5568 -0.1622  0.6172
 7364SOL    HW233729   4.180   0.245   8.522 -0.2356  0.6141 -0.9512
 7365SOL     OW33730   2.428   0.673   9.046  0.3214 -0.0626  0.5610
 7365SOL    HW133731   2.507   0.623   9.064  0.2785 -0.1622  0.4779
 7365SOL    HW233732   2.446   0.746   9.104  0.0142  0.0904  0.4664
 7366SOL     OW33733   1.245   4.365  13.855 -0.4832  0.2130  0.3495
 7366SOL    HW133734   1.275   4.437  13.799  0.7176 -2.5401 -2.6035
 7366SOL    HW233735   1.180   4.329  13.794 -0.1531 -0.5263  0.4272
 7367SOL     OW33736   3.352   1.892   5.921  0.3266 -0.0833 -0.3701
 7367SOL    HW133737   3.273   1.887   5.867  0.7035  0.2657 -0.9432
 7367SOL    HW233738   3.391   1.808   5.894  0.0294 -0.5651  0.6640
 7368SOL     OW33739   2.537   3.901   1.973  0.4169  0.1260  0.0233
 7368SOL    HW133740   2.591   3.844   2.027  1.1493  0.7302 -0.0683
 7368SOL    HW233741   2.546   3.868   1.884  1.2104  0.1128  0.1138
 7369SOL     OW33742   3.542   3.384   1.610 -0.1722  0.0674 -0.5952
 7369SOL    HW133743   3.548   3.301   1.563  2.0259  0.3514 -0.8353
 7369SOL    HW233744   3.454   3.417   1.592 -0.6590  0.2281  2.0850
 7370SOL     OW33745   3.199   0.992   8.743 -0.8762  0.1796 -0.6531
 7370SOL    HW133746   3.269   0.927   8.730  0.5002  1.4396  0.3760
 7370SOL    HW233747   3.128   0.953   8.694 -0.6831  1.1284 -1.6963
 7371SOL     OW33748   0.531   0.058   6.617  0.2622 -0.0420 -0.5321
 7371SOL    HW133749   0.452   0.112   6.614 -0.0646 -0.4410  0.5832
 7371SOL    HW233750   0.512   0.001   6.543 -0.3892 -1.8070  0.9837
 7372SOL     OW33751   1.623   2.521   2.248  0.0385 -0.3648  0.0325
 7372SOL    HW133752   1.639   2.543   2.340 -0.3228 -0.7891  0.1974
 7372SOL    HW233753   1.664   2.598   2.209 -0.7823 -0.8167 -1.7164
 7373SOL     OW33754   3.937   0.056   5.979  0.0435 -0.7594  0.5029
 7373SOL    HW133755   4.002   0.088   5.917  1.3257 -1.6649  1.3632
 7373SOL    HW233756   3.900   0.144   5.984  1.3970 -0.2356  1.5705
 7374SOL     OW33757   0.144   0.608   6.591 -0.0886 -0.6976  0.0753
 7374SOL    HW133758   0.050   0.600   6.608  0.1494 -0.2617  1.5949
 7374SOL    HW233759   0.156   0.532   6.534  0.2352  0.5201 -1.4682
 7375SOL     OW33760   3.010   3.498   2.889  0.2455  0.1757 -0.2984
 7375SOL    HW133761   3.100   3.504   2.858  0.0506  1.3245 -0.6502
 7375SOL    HW233762   2.978   3.422   2.840  0.4852  0.8593 -1.5114
 7376SOL     OW33763   4.045   1.674  10.832  0.0413  0.3385 -0.1974
 7376SOL    HW133764   4.019   1.584  10.850  1.6560 -0.1715 -0.4686
 7376SOL    HW233765   3.974   1.733  10.859 -1.3459 -1.0560 -0.7804
 7377SOL     OW33766   4.587   0.021   5.001  0.1999  0.1240  0.1683
 7377SOL    HW133767   4.584   4.662   4.987  2.7280  0.1205 -0.4057
 7377SOL    HW233768   4.515   0.031   5.063  0.9463  0.3335  1.0168
 7378SOL     OW33769   2.802   2.884  10.896 -0.2766 -0.0886  0.4636
 7378SOL    HW133770   2.810   2.866  10.803  1.9069  0.8994  0.4600
 7378SOL    HW233771   2.892   2.889  10.927  0.4153  1.4263 -1.8224
 7379SOL     OW33772   3.138   0.670  14.189  0.2916  0.7395  0.0749
 7379SOL    HW133773   3.140   0.660  14.284 -1.7621 -0.6570 -0.0260
 7379SOL    HW233774   3.149   0.580  14.159 -1.5058  1.1634 -1.8289
 7380SOL     OW33775   4.450   2.663   1.796 -0.5591 -0.2665 -0.2837
 7380SOL    HW133776   4.481   2.619   1.717 -0.2184 -1.2106  0.3784
 7380SOL    HW233777   4.364   2.697   1.775 -0.6896  0.4006  1.3350
 7381SOL     OW33778   4.050   2.621   2.557 -0.0735 -0.7061 -0.0789
 7381SOL    HW133779   4.046   2.613   2.461  1.0992  1.2334 -0.2764
 7381SOL    HW233780   4.009   2.538   2.581  2.2222 -1.6657  0.5776
 7382SOL     OW33781   4.613   1.599   5.061 -0.3668  0.6677 -0.0914
 7382SOL    HW133782   4.572   1.640   4.985  0.2254  0.1897 -0.6652
 7382SOL    HW233783   4.699   1.584   5.023  0.8334  0.6355  2.5925
 7383SOL     OW33784   4.546   2.192   2.771  0.1852 -0.5027  0.1161
 7383SOL    HW133785   4.476   2.149   2.722 -0.1989  1.8401 -1.3812
 7383SOL    HW233786   4.570   2.118   2.828 -0.4779 -0.9111 -0.1375
 7384SOL     OW33787   4.557   1.329  10.001  0.1271 -0.0636  0.6617
 7384SOL    HW133788   4.635   1.274  10.006 -0.4860 -0.7261  2.7255
 7384SOL    HW233789   4.488   1.276  10.040 -0.7039  0.9982  0.6334
 7385SOL     OW33790   1.276   3.921   8.529  0.4180  0.9358  0.8601
 7385SOL    HW133791   1.204   3.928   8.592  0.3154  1.4379  0.6874
 7385SOL    HW233792   1.277   3.825   8.529 -0.1308  0.9232 -1.6456
 7386SOL     OW33793   4.123   0.737   5.277  0.5468  0.4828  0.1631
 7386SOL    HW133794   4.173   0.818   5.280  0.3808  0.5909 -0.0057
 7386SOL    HW233795   4.145   0.702   5.190  0.7449  1.9284 -0.3718
 7387SOL     OW33796   4.159   2.115   6.315 -0.8156  0.1293  0.3609
 7387SOL    HW133797   4.105   2.079   6.244  2.5373  1.5441 -2.8820
 7387SOL    HW233798   4.243   2.073   6.300 -1.2014 -0.2411 -0.7880
 7388SOL     OW33799   3.267   4.293   4.638 -0.1195  0.4910  0.0681
 7388SOL    HW133800   3.214   4.249   4.573  0.3126 -0.6448  0.4797
 7388SOL    HW233801   3.282   4.384   4.612 -0.5691  0.2646 -0.9692
 7389SOL     OW33802   3.307   3.770   9.478  0.3708 -0.0580  0.6268
 7389SOL    HW133803   3.389   3.794   9.434  0.3794 -1.1985  0.0187
 7389SOL    HW233804   3.312   3.676   9.496  1.8197  0.4587  2.9069
 7390SOL     OW33805   3.932   2.489   4.041 -0.3305  0.6250  0.6979
 7390SOL    HW133806   3.843   2.525   4.042 -0.4566  0.4057 -1.3102
 7390SOL    HW233807   3.980   2.570   4.024  0.5436 -0.3048 -1.2441
 7391SOL     OW33808   3.022   1.107   5.201  0.1144 -0.0033  0.5538
 7391SOL    HW133809   2.959   1.039   5.178 -0.0455  0.7675 -1.2823
 7391SOL    HW233810   3.087   1.103   5.131  0.9203  1.2980  1.2345
 7392SOL     OW33811   3.359   3.060   1.123 -0.2991 -0.0242  0.0477
 7392SOL    HW133812   3.400   3.035   1.040  0.4052  1.7448 -0.1386
 7392SOL    HW233813   3.356   3.156   1.121 -3.4253 -0.1350 -0.0326
 7393SOL     OW33814   2.399   3.415   0.742  0.0095 -0.6875 -0.1558
 7393SOL    HW133815   2.377   3.336   0.692 -2.6342  0.4120 -0.7320
 7393SOL    HW233816   2.401   3.464   0.660  1.9703 -1.3569 -0.5225
 7394SOL     OW33817   2.129   3.279   2.083 -0.2094 -0.2423 -0.3328
 7394SOL    HW133818   2.095   3.368   2.079  0.3381 -0.2126 -4.2000
 7394SOL    HW233819   2.217   3.302   2.052  0.3316 -1.9563 -0.0831
 7395SOL     OW33820   4.422   1.832   3.631 -0.0807 -0.0997 -0.2462
 7395SOL    HW133821   4.408   1.740   3.609 -0.0958 -0.5082  1.4491
 7395SOL    HW233822   4.511   1.851   3.603 -0.7577  2.0408 -0.9197
 7396SOL     OW33823   1.725   1.144  17.299  0.3699 -0.7421 -0.3190
 7396SOL    HW133824   1.719   1.197  17.378  1.3028 -0.6945 -0.2796
 7396SOL    HW233825   1.690   1.060  17.330  1.6096 -0.6838  1.2067
 7397SOL     OW33826   1.754   0.710   1.274 -0.3634  0.0977  0.3782
 7397SOL    HW133827   1.705   0.790   1.255  0.6221  0.1498 -1.8798
 7397SOL    HW233828   1.684   0.645   1.279 -1.2480  0.9617 -0.7949
 7398SOL     OW33829   2.025   4.550   4.939 -0.1573  0.0617 -0.1360
 7398SOL    HW133830   2.119   4.566   4.946 -0.0706 -0.1597 -0.7989
 7398SOL    HW233831   1.978   4.626   4.975 -1.1664 -0.8313  0.4386
 7399SOL     OW33832   2.426   0.678  13.489 -0.5337 -0.3536  0.5377
 7399SOL    HW133833   2.471   0.723  13.418 -1.2444 -1.2963 -0.5186
 7399SOL    HW233834   2.386   0.753  13.532  1.8294  0.2363  1.7065
 7400SOL     OW33835   1.414   0.243  10.985  0.5004 -0.2511 -0.3806
 7400SOL    HW133836   1.507   0.233  10.967  0.4570  0.2505 -0.8956
 7400SOL    HW233837   1.405   0.288  11.069 -1.3387 -2.6164  0.6884
 7401SOL     OW33838   3.057   0.850   8.185 -0.2173  0.2594 -0.1294
 7401SOL    HW133839   2.981   0.793   8.193  1.1477 -1.5957 -0.2968
 7401SOL    HW233840   3.045   0.907   8.262 -0.9210 -0.2533  0.1352
 7402SOL     OW33841   3.447   2.723   9.327 -0.2936  0.0534 -0.1573
 7402SOL    HW133842   3.483   2.805   9.358 -0.3077  0.3467 -0.9127
 7402SOL    HW233843   3.353   2.739   9.315 -0.1556  0.6076 -0.4799
 7403SOL     OW33844   2.310   3.127   2.846  0.3370  0.0111  0.5940
 7403SOL    HW133845   2.314   3.190   2.774  2.7224 -0.7580  0.0386
 7403SOL    HW233846   2.351   3.174   2.919  0.4379 -0.1823  0.6623
 7404SOL     OW33847   4.025   3.875   3.291 -0.5011  0.1017  0.3608
 7404SOL    HW133848   4.044   3.851   3.381 -1.5128 -0.4239  0.4355
 7404SOL    HW233849   3.930   3.861   3.292 -0.5416  0.1906 -2.0487
 7405SOL     OW33850   4.445   2.914   6.320 -0.2956 -0.0143 -0.3679
 7405SOL    HW133851   4.487   2.866   6.391 -0.4546 -2.8742 -2.2264
 7405SOL    HW233852   4.435   2.996   6.368  0.7801 -0.3958  0.5057
 7406SOL     OW33853   0.340   2.304   3.980  0.1483 -0.3457 -0.0961
 7406SOL    HW133854   0.249   2.275   3.975  0.4329 -1.1112 -1.0157
 7406SOL    HW233855   0.344   2.375   3.916  2.5344 -1.2022 -0.9342
 7407SOL     OW33856   1.825   2.693   4.096  0.7391  0.7726  0.0620
 7407SOL    HW133857   1.851   2.652   4.179  0.0759  0.1765 -0.0263
 7407SOL    HW233858   1.749   2.742   4.128  1.1542  0.8051  0.9907
 7408SOL     OW33859   3.532   0.562   5.237 -1.1022 -0.2743  0.3917
 7408SOL    HW133860   3.466   0.511   5.189 -0.9327  0.9590 -1.1259
 7408SOL    HW233861   3.556   0.501   5.307 -1.1523 -0.2745  0.4091
 7409SOL     OW33862   2.105   0.633   8.344  0.0413  0.2169 -0.2814
 7409SOL    HW133863   2.026   0.581   8.357  0.5933 -1.0966 -2.2504
 7409SOL    HW233864   2.105   0.692   8.420 -0.5393  0.0044 -0.1183
 7410SOL     OW33865   0.211   2.192   1.491 -0.2372 -0.4761 -0.4864
 7410SOL    HW133866   0.153   2.257   1.530 -1.6340 -0.7671 -2.0794
 7410SOL    HW233867   0.193   2.206   1.398  0.1341  1.3137 -0.2876
 7411SOL     OW33868   2.691   1.699   7.279  0.1703  0.3237 -0.0203
 7411SOL    HW133869   2.749   1.775   7.276  1.4646 -0.5830  1.6301
 7411SOL    HW233870   2.616   1.732   7.330 -2.1264 -1.3155 -2.3696
 7412SOL     OW33871   3.180   0.143   3.740  0.1517  0.0962 -0.1219
 7412SOL    HW133872   3.189   0.179   3.828 -1.0712 -0.0795  0.0753
 7412SOL    HW233873   3.086   0.124   3.748  0.0614  0.6023 -0.0291
 7413SOL     OW33874   4.179   3.939  16.841  0.1520  0.0477 -0.2432
 7413SOL    HW133875   4.176   3.872  16.772  0.0829 -1.7233  1.4747
 7413SOL    HW233876   4.105   3.995  16.816  0.7342  1.3344  0.9668
 7414SOL     OW33877   0.814   1.994   2.539  0.2406  0.3249 -0.4286
 7414SOL    HW133878   0.809   1.958   2.628 -0.3796  1.8450  0.1538
 7414SOL    HW233879   0.749   1.946   2.487 -0.7991 -0.1255  1.2693
 7415SOL     OW33880   0.597   3.387   8.308  0.3723  0.0565  0.6469
 7415SOL    HW133881   0.582   3.298   8.338 -0.8623  0.5205  1.4132
 7415SOL    HW233882   0.679   3.412   8.351 -0.1725  0.2625  1.5557
 7416SOL     OW33883   1.913   2.354   5.386 -0.0822 -0.2269 -0.0731
 7416SOL    HW133884   1.960   2.393   5.460 -0.9501 -0.0329  0.3695
 7416SOL    HW233885   1.905   2.264   5.416  1.5613  0.2875  1.8671
 7417SOL     OW33886   2.335   1.275  13.442 -0.6102  0.4705 -0.0880
 7417SOL    HW133887   2.283   1.226  13.505  1.6088 -1.8173 -0.0053
 7417SOL    HW233888   2.324   1.228  13.359 -1.7025 -1.1821  0.9875
 7418SOL     OW33889   1.096   4.321   4.886 -0.5688 -1.0382 -0.7009
 7418SOL    HW133890   1.010   4.363   4.885  0.8099  1.8171 -0.6594
 7418SOL    HW233891   1.130   4.384   4.823  1.6554 -1.1793  0.3501
 7419SOL     OW33892   4.264   3.846   9.456  0.0823 -0.3202  0.7122
 7419SOL    HW133893   4.175   3.812   9.448  0.7043 -1.7349 -0.2438
 7419SOL    HW233894   4.267   3.910   9.385 -3.6356 -0.4492  0.4314
 7420SOL     OW33895   2.574   1.543   6.513  0.3933 -0.4573  0.1418
 7420SOL    HW133896   2.648   1.487   6.535  1.0849  1.7951  3.4834
 7420SOL    HW233897   2.504   1.485   6.485  0.2805 -0.3036  0.1031
 7421SOL     OW33898   0.715   1.121   7.519  0.7508  0.0965 -0.0100
 7421SOL    HW133899   0.679   1.035   7.496 -3.2568  1.4441  1.2883
 7421SOL    HW233900   0.783   1.129   7.452 -0.8561  3.3014 -1.2251
 7422SOL     OW33901   4.708   0.190   3.710  0.1190 -0.6629  0.0799
 7422SOL    HW133902   0.013   0.192   3.796  0.1778 -0.4965  0.0475
 7422SOL    HW233903   4.616   0.185   3.733  0.0897  0.6052  0.2327
 7423SOL     OW33904   0.032   0.489   5.874 -0.1862  0.6828 -0.6212
 7423SOL    HW133905   0.105   0.478   5.812  0.8686  0.6676  0.6109
 7423SOL    HW233906   0.046   0.422   5.940  0.6635  1.1079 -0.3695
 7424SOL     OW33907   4.391   4.056  16.993 -0.2054 -0.2018  0.1810
 7424SOL    HW133908   4.326   4.008  16.942 -0.1535  0.2199 -0.2732
 7424SOL    HW233909   4.420   4.124  16.933 -0.9262 -1.7284 -1.9017
 7425SOL     OW33910   0.581   4.276  13.388 -0.1911  0.0073  0.7204
 7425SOL    HW133911   0.515   4.212  13.363  0.2830 -0.2296  0.0807
 7425SOL    HW233912   0.546   4.309  13.471 -0.5339 -4.1739  2.2554
 7426SOL     OW33913   4.038   4.583  13.125  0.2028 -0.3337 -0.1356
 7426SOL    HW133914   4.124   4.583  13.166 -0.6073  1.5440  1.5849
 7426SOL    HW233915   4.046   4.668  13.080 -0.7706 -0.6686 -0.9541
 7427SOL     OW33916   1.068   1.903   6.073  0.7898  0.3734  0.4211
 7427SOL    HW133917   1.071   1.811   6.045 -2.9691 -0.3510  2.4272
 7427SOL    HW233918   1.102   1.901   6.162 -0.5397 -0.7000  0.9041
 7428SOL     OW33919   2.974   0.776  17.368 -0.1034  0.2562  0.3290
 7428SOL    HW133920   3.038   0.708  17.346 -0.3405  0.2282 -0.2901
 7428SOL    HW233921   2.951   0.744  17.455 -0.3170  0.1526  0.2367
 7429SOL     OW33922   3.328   2.515   4.045 -0.3908 -0.1917  0.0525
 7429SOL    HW133923   3.267   2.538   3.975 -0.0806  0.2099 -0.0783
 7429SOL    HW233924   3.278   2.545   4.121 -1.7359 -0.3500 -0.7655
 7430SOL     OW33925   0.516   2.684   9.123  0.1689  0.1114  0.1556
 7430SOL    HW133926   0.446   2.619   9.120  0.3787 -0.0110 -2.0414
 7430SOL    HW233927   0.537   2.690   9.216 -0.1567  1.0849  0.1692
 7431SOL     OW33928   3.449   2.572   9.816  0.4938  0.1396  0.1206
 7431SOL    HW133929   3.489   2.490   9.842 -0.8014 -0.8801 -1.1254
 7431SOL    HW233930   3.370   2.545   9.769  0.2238 -0.4284  0.8956
 7432SOL     OW33931   1.524   0.439   5.600  0.7949  0.1461 -0.4828
 7432SOL    HW133932   1.444   0.450   5.549  0.2317  0.1474  0.4081
 7432SOL    HW233933   1.584   0.377   5.557  1.3327 -0.0812  0.5868
 7433SOL     OW33934   0.635   0.035   9.099 -0.1393 -0.2764  0.0576
 7433SOL    HW133935   0.651   4.688   9.144 -0.3613 -1.3050 -1.7706
 7433SOL    HW233936   0.668   0.102   9.159  0.6483 -1.2995  0.7475
 7434SOL     OW33937   2.406   2.895   7.039 -0.2406  0.4091  0.0383
 7434SOL    HW133938   2.404   2.974   6.984  0.1830  2.0841  2.4662
 7434SOL    HW233939   2.342   2.846   6.987  0.1718  0.2557 -0.3271
 7435SOL     OW33940   1.329   0.775  10.361 -0.3541  0.1960  0.2159
 7435SOL    HW133941   1.354   0.804  10.449  0.2842  2.7419 -0.7903
 7435SOL    HW233942   1.291   0.691  10.384  0.8604  0.1255  1.9271
 7436SOL     OW33943   2.178   4.450  14.802 -0.1862 -0.2071  0.3752
 7436SOL    HW133944   2.159   4.536  14.839 -1.0470 -0.8640  1.4471
 7436SOL    HW233945   2.162   4.475  14.711 -1.1563  1.3498  0.9871
 7437SOL     OW33946   3.450   0.948   5.825  0.7951 -0.4194 -0.0846
 7437SOL    HW133947   3.416   0.924   5.738 -2.3172  1.9730  0.4844
 7437SOL    HW233948   3.369   0.990   5.854  2.5580  0.8649  2.9977
 7438SOL     OW33949   2.826   2.557   1.931 -0.3626 -0.2152 -0.7966
 7438SOL    HW133950   2.801   2.602   2.011  0.5351 -0.6376 -0.2763
 7438SOL    HW233951   2.843   2.473   1.973  1.2988  1.9495  2.7829
 7439SOL     OW33952   0.950   3.083   6.128 -0.6853 -0.2227 -0.3525
 7439SOL    HW133953   0.865   3.088   6.084 -0.3089 -1.2548 -1.2090
 7439SOL    HW233954   0.930   3.065   6.220 -2.1230 -1.8996 -1.0017
 7440SOL     OW33955   1.424   0.673   0.360 -0.5556  0.1265 -0.2260
 7440SOL    HW133956   1.432   0.623   0.441  0.9389  2.0642  0.8141
 7440SOL    HW233957   1.329   0.689   0.363 -0.3786  0.5710  2.8908
 7441SOL     OW33958   3.003   2.191   3.397 -0.0141  0.0413 -0.0437
 7441SOL    HW133959   2.993   2.096   3.384 -2.0052  0.4719 -1.6680
 7441SOL    HW233960   2.991   2.185   3.492  0.6923 -2.5515 -0.1127
 7442SOL     OW33961   3.434   3.473   8.724 -0.5964 -0.0061 -0.1786
 7442SOL    HW133962   3.367   3.476   8.655 -0.0795  1.7843 -0.6159
 7442SOL    HW233963   3.426   3.379   8.740  1.4061 -0.3231 -1.0968
 7443SOL     OW33964   4.255   4.471   3.663 -0.6003 -0.8996  0.0129
 7443SOL    HW133965   4.302   4.388   3.668  2.0685  0.4465 -2.7111
 7443SOL    HW233966   4.325   4.536   3.658 -0.8295 -0.6712 -0.1849
 7444SOL     OW33967   0.491   1.607  15.685  0.6755 -0.3762  0.1003
 7444SOL    HW133968   0.472   1.519  15.718 -0.1453  0.4526  1.8703
 7444SOL    HW233969   0.411   1.649  15.715  0.0694 -1.5855  0.1542
 7445SOL     OW33970   3.310   4.688   6.764  0.2418 -0.4156  0.4093
 7445SOL    HW133971   3.392   4.734   6.753 -0.2374 -0.0863 -1.9372
 7445SOL    HW233972   3.299   4.708   6.857 -2.8630  1.0819 -0.2694
 7446SOL     OW33973   2.789   2.230  16.087  0.0837 -0.0227  0.3040
 7446SOL    HW133974   2.723   2.162  16.073  1.0717 -0.4510 -2.2951
 7446SOL    HW233975   2.865   2.212  16.032 -1.1140  0.0265 -1.3490
 7447SOL     OW33976   2.438   3.960   4.494 -0.1407 -0.1870 -0.3665
 7447SOL    HW133977   2.372   3.934   4.431  0.3313  0.0330 -0.9520
 7447SOL    HW233978   2.396   3.939   4.577 -0.3497  0.6263 -0.2658
 7448SOL     OW33979   4.105   2.864   4.223  0.4875 -0.7480  0.5440
 7448SOL    HW133980   4.043   2.802   4.184  1.4027 -0.6689 -1.0544
 7448SOL    HW233981   4.185   2.821   4.193  0.8749  0.6984 -0.4899
 7449SOL     OW33982   1.816   2.194   3.686 -0.6821 -0.7523 -0.2757
 7449SOL    HW133983   1.832   2.261   3.620 -0.6030 -1.1271 -0.6355
 7449SOL    HW233984   1.782   2.248   3.757  1.4830  0.4227 -0.1566
 7450SOL     OW33985   1.987   0.693  15.778 -0.2927  0.1962 -0.7493
 7450SOL    HW133986   2.023   0.755  15.714  0.5901 -0.2784 -0.7274
 7450SOL    HW233987   1.895   0.714  15.765 -0.4109  0.5251  0.6844
 7451SOL     OW33988   1.039   1.309   0.049  0.1203  0.2926  0.4756
 7451SOL    HW133989   1.098   1.234   0.050 -1.4202 -0.9008  2.8405
 7451SOL    HW233990   1.003   1.288  17.705 -0.0192 -0.7005  0.7739
 7452SOL     OW33991   3.316   0.308   3.278 -0.1194  0.6721 -0.0986
 7452SOL    HW133992   3.231   0.293   3.320  0.5279 -1.8529  0.3303
 7452SOL    HW233993   3.279   0.334   3.193  2.2916 -1.3707 -1.7836
 7453SOL     OW33994   0.821   2.797   4.795  0.0890 -0.3937 -0.2777
 7453SOL    HW133995   0.853   2.861   4.858  0.0500 -1.1222  0.4857
 7453SOL    HW233996   0.758   2.750   4.849  0.5800 -1.4943 -0.6669
 7454SOL     OW33997   3.464   3.676   1.830  0.0121 -0.0797  0.4475
 7454SOL    HW133998   3.526   3.676   1.903 -1.0833 -3.8679  1.3840
 7454SOL    HW233999   3.435   3.586   1.843  0.7945 -0.3102  0.5764
 7455SOL     OW34000   2.132   3.332   8.535 -0.1889  0.5234  0.2805
 7455SOL    HW134001   2.100   3.420   8.557  0.4073  0.8983 -0.3711
 7455SOL    HW234002   2.226   3.341   8.553  0.1749 -1.5521 -0.5277
 7456SOL     OW34003   4.227   0.482   5.843 -0.2446 -0.6329 -0.2673
 7456SOL    HW134004   4.297   0.500   5.905 -1.7761  0.5308  1.1135
 7456SOL    HW234005   4.255   0.398   5.807  0.4911 -0.1178 -0.9209
 7457SOL     OW34006   2.942   2.333   9.630  0.0321 -0.9143 -0.0604
 7457SOL    HW134007   2.959   2.361   9.540 -1.0731 -0.7560 -0.2252
 7457SOL    HW234008   2.964   2.240   9.629  0.1936 -0.8736 -0.5196
 7458SOL     OW34009   0.332   3.297   7.292 -0.1394  0.0861 -0.2533
 7458SOL    HW134010   0.343   3.284   7.386 -1.9279 -1.7731 -0.2870
 7458SOL    HW234011   0.236   3.301   7.291 -0.0525  2.0340 -0.6453
 7459SOL     OW34012   4.398   1.546   7.607 -0.0726  0.1947 -0.7361
 7459SOL    HW134013   4.469   1.528   7.546 -2.7856 -0.0295 -3.8194
 7459SOL    HW234014   4.327   1.536   7.544  1.8188 -2.2094 -2.4890
 7460SOL     OW34015   1.628   4.275   9.045 -0.7450 -0.2348  0.4047
 7460SOL    HW134016   1.593   4.352   9.000  3.1872  0.9579 -0.5802
 7460SOL    HW234017   1.619   4.311   9.133 -1.5139  0.5456  0.0151
 7461SOL     OW34018   2.479   2.989   5.113 -0.3597  0.6923 -0.2231
 7461SOL    HW134019   2.460   3.039   5.034  1.9583  0.9315 -0.6243
 7461SOL    HW234020   2.404   2.931   5.123  0.4270 -0.3860 -0.5504
 7462SOL     OW34021   0.531   2.057  12.523  0.3147 -0.7706 -0.4512
 7462SOL    HW134022   0.585   2.132  12.497  0.1857 -0.5429 -0.0673
 7462SOL    HW234023   0.509   2.090  12.610  1.0158  0.9903 -0.9393
 7463SOL     OW34024   2.682   1.265   2.214  0.0968  0.1994  0.1371
 7463SOL    HW134025   2.704   1.295   2.302  1.7486  0.4527 -0.3637
 7463SOL    HW234026   2.612   1.330   2.212  1.6548  1.8752  0.3247
 7464SOL     OW34027   1.819   0.522   4.573  0.0132  0.3898  0.2267
 7464SOL    HW134028   1.782   0.453   4.627 -0.9106  0.0615 -0.8364
 7464SOL    HW234029   1.880   0.468   4.524  1.5897  0.2812  2.2671
 7465SOL     OW34030   4.220   1.606   9.134  0.0917 -0.1919 -0.0475
 7465SOL    HW134031   4.162   1.615   9.058 -0.9976 -1.2896  0.6659
 7465SOL    HW234032   4.206   1.691   9.176 -2.2867 -1.1237  1.0195
 7466SOL     OW34033   3.617   2.839   8.243 -0.3202 -0.7368  0.7021
 7466SOL    HW134034   3.616   2.744   8.244  2.6857 -0.7625  0.1842
 7466SOL    HW234035   3.676   2.853   8.317  0.8961  2.4634 -0.8397
 7467SOL     OW34036   3.557   0.260  12.045  0.0165 -0.2715  0.1737
 7467SOL    HW134037   3.465   0.267  12.073  0.1408 -0.5545  0.6456
 7467SOL    HW234038   3.542   0.258  11.950  0.6041  1.0045  0.0523
 7468SOL     OW34039   3.292   1.977   2.457  0.2754 -1.0025  0.1818
 7468SOL    HW134040   3.340   1.894   2.463 -1.1644 -2.0765 -2.6358
 7468SOL    HW234041   3.257   1.963   2.369  0.1765  0.7943 -0.0579
 7469SOL     OW34042   3.483   0.322  11.527 -0.1272 -0.0312  0.2002
 7469SOL    HW134043   3.448   0.294  11.612  1.8641 -0.0520  0.9953
 7469SOL    HW234044   3.428   0.399  11.513 -0.1272 -0.3157 -1.3015
 7470SOL     OW34045   0.694   1.422   2.742 -0.3451  0.9215  0.3198
 7470SOL    HW134046   0.677   1.516   2.744 -0.4595  0.9519 -1.7126
 7470SOL    HW234047   0.776   1.434   2.789 -0.4307  0.4608  0.5826
 7471SOL     OW34048   0.690   1.649   7.563 -0.2642  0.1740  0.3090
 7471SOL    HW134049   0.663   1.617   7.649 -2.8678  0.8704 -0.2510
 7471SOL    HW234050   0.742   1.579   7.524 -0.5600  0.1265 -0.0009
 7472SOL     OW34051   3.854   3.392  10.439 -0.9710 -0.4421 -0.0589
 7472SOL    HW134052   3.802   3.312  10.443 -0.2653 -0.9314 -0.7262
 7472SOL    HW234053   3.913   3.368  10.367  1.4899 -0.0505  1.7926
 7473SOL     OW34054   2.962   3.061  11.913 -0.0355  0.0490 -0.1323
 7473SOL    HW134055   3.057   3.068  11.903 -0.1169  1.0350 -0.2867
 7473SOL    HW234056   2.957   2.986  11.972 -1.5011  0.2817  0.0479
 7474SOL     OW34057   0.091   3.022  15.590  0.6250 -0.0188  0.1400
 7474SOL    HW134058   0.098   3.098  15.532 -0.6468  1.2429  1.6606
 7474SOL    HW234059   0.068   3.066  15.672  1.3015  2.3680 -0.9453
 7475SOL     OW34060   4.523   4.381   6.503  0.3794 -0.0462  0.7457
 7475SOL    HW134061   4.523   4.477   6.501  0.9061 -0.0718 -0.1549
 7475SOL    HW234062   4.436   4.358   6.537 -0.1887  0.1500 -0.5713
 7476SOL     OW34063   4.112   1.860   9.245 -0.3457 -0.1315 -0.2928
 7476SOL    HW134064   4.098   1.879   9.152 -2.6996 -1.2870 -0.1774
 7476SOL    HW234065   4.160   1.938   9.271 -1.8460  0.0741  1.8610
 7477SOL     OW34066   1.359   2.874   6.118 -0.0589  0.3087 -0.2546
 7477SOL    HW134067   1.434   2.900   6.064  0.7599  1.3785  1.3898
 7477SOL    HW234068   1.291   2.852   6.055 -0.0375 -2.3765  0.6665
 7478SOL     OW34069   0.770   1.791   4.572 -0.1653 -0.2932 -0.1749
 7478SOL    HW134070   0.724   1.829   4.646 -0.5013  1.0825 -1.0896
 7478SOL    HW234071   0.854   1.769   4.612  0.0904  0.1178 -0.4851
 7479SOL     OW34072   0.653   0.629   7.950  0.7622  0.3977  0.2761
 7479SOL    HW134073   0.608   0.713   7.946 -0.8857 -0.5786 -1.3197
 7479SOL    HW234074   0.728   0.633   8.009  0.2919 -1.7432  1.0326
 7480SOL     OW34075   0.601   0.508  15.196 -0.6244  0.1460  0.4492
 7480SOL    HW134076   0.675   0.562  15.223 -0.2526 -0.0316 -0.2118
 7480SOL    HW234077   0.551   0.493  15.277  1.6591 -0.5435  1.7239
 7481SOL     OW34078   4.445   0.782  12.717 -0.2716  0.5335  0.6299
 7481SOL    HW134079   4.357   0.820  12.723 -0.6956 -0.3286 -0.0410
 7481SOL    HW234080   4.472   0.759  12.806 -0.8348 -0.1003  0.6404
 7482SOL     OW34081   3.183   1.112   4.976  0.2582  0.0641 -0.3731
 7482SOL    HW134082   3.240   1.046   4.937  0.6125  0.5359 -0.6481
 7482SOL    HW234083   3.096   1.090   4.941 -0.1535 -0.9398  1.3062
 7483SOL     OW34084   0.629   4.624   3.201 -0.1568  0.0514  0.3739
 7483SOL    HW134085   0.635   4.641   3.295  0.2247 -0.5386  0.4616
 7483SOL    HW234086   0.713   4.661   3.173 -0.6758  0.7851 -0.1778
 7484SOL     OW34087   4.587   4.041   7.927  0.3291 -0.1316 -0.0994
 7484SOL    HW134088   4.547   4.100   7.862 -0.4901 -0.2732  0.2784
 7484SOL    HW234089   4.514   4.042   7.989  0.9865 -0.7499  0.6768
 7485SOL     OW34090   1.481   4.411  11.212  0.2282  0.0359 -0.2175
 7485SOL    HW134091   1.434   4.485  11.251  0.8978  0.2396  0.2028
 7485SOL    HW234092   1.548   4.456  11.159 -2.6663  1.7302 -2.4206
 7486SOL     OW34093   1.149   3.697   8.823  0.2508  0.3219  0.1588
 7486SOL    HW134094   1.130   3.682   8.916 -3.3235  0.9091 -0.5042
 7486SOL    HW234095   1.208   3.772   8.835  0.2231  0.2497  0.7531
 7487SOL     OW34096   0.897   1.505   8.021 -0.2276  0.2885 -0.4569
 7487SOL    HW134097   0.928   1.415   8.019  0.6450  0.6200 -1.5977
 7487SOL    HW234098   0.913   1.529   8.112 -0.7130 -0.4650 -0.1751
 7488SOL     OW34099   0.524   0.768  17.079  0.7191 -0.0774  0.4494
 7488SOL    HW134100   0.434   0.798  17.082  0.5709 -0.3122 -2.1884
 7488SOL    HW234101   0.567   0.852  17.097 -3.3055  1.8346  0.9488
 7489SOL     OW34102   0.709   0.431  16.613  0.5663  0.1332  0.3763
 7489SOL    HW134103   0.702   0.337  16.595  2.7284 -0.0397  0.4885
 7489SOL    HW234104   0.803   0.449  16.611  0.5749  0.2460  2.5086
 7490SOL     OW34105   2.868   2.652   3.716 -0.2366 -0.5389 -0.0745
 7490SOL    HW134106   2.776   2.654   3.741  0.1051  1.8670  0.9533
 7490SOL    HW234107   2.859   2.588   3.645 -1.1878 -1.1125  0.5682
 7491SOL     OW34108   1.985   2.281  17.660  0.0189  0.4242  0.4588
 7491SOL    HW134109   2.004   2.227  17.737  0.5069 -0.5820 -0.3748
 7491SOL    HW234110   1.963   2.211  17.599  2.1140 -0.9800  1.3017
 7492SOL     OW34111   0.467   2.663   5.576  0.6449 -0.0939  0.3394
 7492SOL    HW134112   0.418   2.712   5.510  1.8207  0.4737 -0.1163
 7492SOL    HW234113   0.419   2.666   5.658 -1.0907 -0.3650 -0.6649
 7493SOL     OW34114   3.927   2.206   4.927  0.1120  0.0559 -0.3144
 7493SOL    HW134115   3.883   2.121   4.925  2.2350 -1.0499 -0.2527
 7493SOL    HW234116   3.888   2.247   5.004 -0.1835  0.5596 -0.7268
 7494SOL     OW34117   3.231   1.272  13.033 -0.0444  0.6583  0.5028
 7494SOL    HW134118   3.171   1.323  13.087 -1.1334  0.8342 -0.9028
 7494SOL    HW234119   3.313   1.322  13.045  1.2006 -1.6840  1.6770
 7495SOL     OW34120   3.284   4.461   7.147  0.1906 -0.5707  0.0348
 7495SOL    HW134121   3.266   4.539   7.200  0.0457 -0.0796 -0.7516
 7495SOL    HW234122   3.373   4.483   7.120 -0.0494  0.2056 -0.1265
 7496SOL     OW34123   4.488   1.795   4.436 -0.0071  0.2641  0.1718
 7496SOL    HW134124   4.446   1.732   4.379  0.4886  1.1327 -1.1590
 7496SOL    HW234125   4.468   1.872   4.383  0.9005  1.2853  1.3063
 7497SOL     OW34126   1.465   3.948  16.279 -0.0498  0.2749 -0.1315
 7497SOL    HW134127   1.537   4.012  16.281 -1.1850  1.5209  0.9034
 7497SOL    HW234128   1.418   3.983  16.204 -0.8656  0.1018  0.2953
 7498SOL     OW34129   4.324   1.187   3.091  0.2368  0.1288 -0.2782
 7498SOL    HW134130   4.306   1.135   3.013  0.9309 -0.8954  0.2512
 7498SOL    HW234131   4.261   1.258   3.081 -0.0390 -0.1383 -0.4136
 7499SOL     OW34132   0.389   2.411  13.652  0.1891  0.1927  0.0947
 7499SOL    HW134133   0.380   2.406  13.747 -1.9944  0.5987 -0.0879
 7499SOL    HW234134   0.297   2.431  13.633  0.2042  0.9507  0.7816
 7500SOL     OW34135   0.492   1.283  12.686  0.2004 -0.5436  0.4961
 7500SOL    HW134136   0.474   1.318  12.599  0.8018 -0.1835  0.5187
 7500SOL    HW234137   0.407   1.251  12.717  0.5102 -0.7626  1.1254
 7501SOL     OW34138   3.693   3.341   1.847 -0.2868  0.2163 -0.1742
 7501SOL    HW134139   3.787   3.353   1.833 -0.2292  2.5320  2.0989
 7501SOL    HW234140   3.653   3.372   1.767 -0.9951  2.9076  1.2201
 7502SOL     OW34141   3.221   4.163   5.381  0.0188 -0.2246  0.4666
 7502SOL    HW134142   3.314   4.171   5.404 -0.1528  1.3641  0.6477
 7502SOL    HW234143   3.226   4.185   5.288 -0.7198  0.6592  0.6288
 7503SOL     OW34144   0.356   4.519   0.706 -0.1144  0.2561 -0.0328
 7503SOL    HW134145   0.335   4.431   0.735 -0.1241  0.1144 -0.4665
 7503SOL    HW234146   0.448   4.497   0.693 -0.0183 -0.0542  1.2155
 7504SOL     OW34147   1.136   0.504   3.695 -0.0766  0.1391 -0.6193
 7504SOL    HW134148   1.175   0.553   3.767  1.0839 -2.7543  0.7307
 7504SOL    HW234149   1.062   0.562   3.677 -2.1932 -1.9911  1.1603
 7505SOL     OW34150   3.583   4.170   3.310  0.0505  0.1777  0.9456
 7505SOL    HW134151   3.540   4.244   3.268  1.7227  1.7470  2.0087
 7505SOL    HW234152   3.626   4.121   3.239 -2.9412 -2.5070  0.9539
 7506SOL     OW34153   3.781   0.735   9.189 -0.6050  0.1219  0.0275
 7506SOL    HW134154   3.829   0.771   9.114 -1.0277 -0.1742 -0.3846
 7506SOL    HW234155   3.726   0.807   9.219  2.0702  1.4105  1.8073
 7507SOL     OW34156   4.734   2.611   0.048 -0.1090 -0.4279 -0.0722
 7507SOL    HW134157   4.719   2.584   0.138 -2.1657  0.5474 -0.1381
 7507SOL    HW234158   0.083   2.571   0.027  0.0065 -1.5942  2.6025
 7508SOL     OW34159   3.459   4.520  15.358  0.6905 -0.1204  0.1938
 7508SOL    HW134160   3.442   4.446  15.300  0.6996 -0.0592  0.1132
 7508SOL    HW234161   3.505   4.466  15.422  1.0862 -1.7319 -1.4461
 7509SOL     OW34162   1.490   1.730   1.481  0.4626 -0.0989 -0.4444
 7509SOL    HW134163   1.559   1.795   1.496 -0.7038  0.9633  0.3093
 7509SOL    HW234164   1.463   1.700   1.568 -0.8774  1.8007 -0.1986
 7510SOL     OW34165   2.412   1.672  14.891 -0.8008  0.1105 -0.1596
 7510SOL    HW134166   2.476   1.690  14.822  0.5059 -3.1216  0.2218
 7510SOL    HW234167   2.463   1.694  14.969 -1.4477  2.2851 -0.3417
 7511SOL     OW34168   4.688   3.658  15.829  0.0594  0.6876 -0.7477
 7511SOL    HW134169   4.644   3.634  15.910 -1.5818  0.2910 -1.7687
 7511SOL    HW234170   0.034   3.608  15.828 -1.2344 -1.4108  0.0418
 7512SOL     OW34171   3.005   3.533   2.037 -0.2583 -0.2790  0.7043
 7512SOL    HW134172   3.011   3.614   1.987  0.4258 -0.4489  0.5014
 7512SOL    HW234173   3.093   3.529   2.075 -0.7068  2.0033  1.9186
 7513SOL     OW34174   0.869   0.394   8.224  0.8335  0.2126 -0.0343
 7513SOL    HW134175   0.913   0.314   8.195 -0.1303 -0.2176 -0.2786
 7513SOL    HW234176   0.935   0.438   8.278 -0.6816  0.7258  1.3620
 7514SOL     OW34177   1.682   3.375   3.840 -0.1707 -0.8480  0.2705
 7514SOL    HW134178   1.631   3.295   3.855 -0.5942 -0.8924 -1.3504
 7514SOL    HW234179   1.615   3.441   3.857  1.3140  0.3282  1.5295
 7515SOL     OW34180   3.742   0.071   5.725 -0.7163 -0.8142  0.1912
 7515SOL    HW134181   3.711   0.015   5.654 -1.2151  0.7240 -0.7987
 7515SOL    HW234182   3.836   0.072   5.707 -1.2820  0.7431 -2.7483
 7516SOL     OW34183   4.727   4.271  13.067  0.3990  0.2575 -0.2640
 7516SOL    HW134184   0.024   4.190  13.104 -0.2585  1.3582  2.8032
 7516SOL    HW234185   0.010   4.335  13.136  0.7113 -1.2945  1.0775
 7517SOL     OW34186   1.309   2.879  15.484 -0.1251  0.0200  0.3232
 7517SOL    HW134187   1.222   2.904  15.454  0.2498 -0.5257 -1.2011
 7517SOL    HW234188   1.341   2.969  15.494 -0.6602  0.4298 -1.6744
 7518SOL     OW34189   2.965   3.872   4.339 -0.1674  0.3620 -0.3464
 7518SOL    HW134190   2.957   3.776   4.338 -1.1457  0.4215  1.6720
 7518SOL    HW234191   2.878   3.890   4.375 -0.1309 -2.0454  0.9440
 7519SOL     OW34192   0.758   0.341   2.071 -0.4931  0.0368 -0.7312
 7519SOL    HW134193   0.841   0.295   2.085 -1.1765 -1.4159 -1.4171
 7519SOL    HW234194   0.767   0.379   1.983 -1.5525 -0.6669 -1.1560
 7520SOL     OW34195   3.255   0.702  13.363  0.3655  0.3571 -0.3038
 7520SOL    HW134196   3.328   0.642  13.378  0.3953  0.4977  0.1048
 7520SOL    HW234197   3.297   0.771  13.313  0.7048 -0.2255 -0.8197
 7521SOL     OW34198   1.052   4.064   8.029 -0.8491  0.1743  0.2006
 7521SOL    HW134199   1.064   4.129   7.960 -0.0360 -1.6930 -1.4397
 7521SOL    HW234200   1.140   4.026   8.028 -1.4216 -1.1351 -0.3647
 7522SOL     OW34201   2.418   0.744   7.655 -0.1600  0.4364  0.2082
 7522SOL    HW134202   2.454   0.700   7.579  0.0997 -0.8732  1.0880
 7522SOL    HW234203   2.438   0.834   7.629  0.0414 -0.4483 -2.6199
 7523SOL     OW34204   1.428   3.170  10.798 -0.0888 -0.4558  0.5441
 7523SOL    HW134205   1.514   3.211  10.806  0.2005 -0.7321 -1.3365
 7523SOL    HW234206   1.404   3.160  10.891 -1.7496  2.3003  0.4188
 7524SOL     OW34207   1.623   1.103   5.754  0.1602  0.0062  0.5587
 7524SOL    HW134208   1.710   1.087   5.791  0.4495  0.2947  0.0221
 7524SOL    HW234209   1.640   1.118   5.660  2.9290  0.9273  1.1953
 7525SOL     OW34210   0.268   3.654   9.029  0.6413  0.0316 -0.6228
 7525SOL    HW134211   0.185   3.699   9.046  0.5006 -0.5809  0.2764
 7525SOL    HW234212   0.240   3.618   8.945 -0.2988 -0.3127 -0.1578
 7526SOL     OW34213   3.177   3.090  11.711 -0.4568  0.3980  0.0330
 7526SOL    HW134214   3.135   3.176  11.718 -1.2357  0.0112  0.1980
 7526SOL    HW234215   3.255   3.119  11.665 -0.1431  0.9179  0.8981
 7527SOL     OW34216   0.514   3.440   6.960  0.1681  0.4321 -0.7367
 7527SOL    HW134217   0.442   3.469   7.015  0.5947  1.0153 -0.4732
 7527SOL    HW234218   0.581   3.503   6.987 -1.3358  1.7652 -0.1360
 7528SOL     OW34219   1.272   3.381  11.720 -0.2110 -0.4694 -0.1436
 7528SOL    HW134220   1.342   3.340  11.669 -1.0295  0.8493 -2.3154
 7528SOL    HW234221   1.204   3.314  11.712  0.2647 -0.8775 -0.7475
 7529SOL     OW34222   0.172   2.540   7.694  0.3334  0.8882 -0.3542
 7529SOL    HW134223   0.170   2.517   7.601 -2.5842 -0.3272  0.0174
 7529SOL    HW234224   0.081   2.518   7.714  0.6906  0.6748  1.0206
 7530SOL     OW34225   4.476   3.905   0.006 -0.0340  0.3456 -0.8904
 7530SOL    HW134226   4.437   3.900  17.661  0.7960  1.1919 -1.3115
 7530SOL    HW234227   4.513   3.993   0.008 -0.5908  0.5720 -0.6376
 7531SOL     OW34228   3.863   0.674   5.103  0.3749 -0.2107  0.2102
 7531SOL    HW134229   3.941   0.636   5.142  0.1931  0.7245  1.4953
 7531SOL    HW234230   3.896   0.676   5.013  0.7052 -0.0391  0.3344
 7532SOL     OW34231   0.072   2.116   5.875 -0.1636 -0.0147 -0.1287
 7532SOL    HW134232   4.727   2.167   5.864 -0.3791 -0.8879 -2.6398
 7532SOL    HW234233   0.110   2.120   5.787  2.6390  1.5389  1.1750
 7533SOL     OW34234   4.290   1.327   8.183  0.0350 -0.3164 -0.5400
 7533SOL    HW134235   4.225   1.288   8.240  0.7443  0.4398  0.7794
 7533SOL    HW234236   4.286   1.276   8.102  1.2472 -1.0902 -0.1182
 7534SOL     OW34237   0.187   4.183   5.813  0.2727  0.6711 -0.3592
 7534SOL    HW134238   0.165   4.156   5.903 -0.0216  1.0763 -0.3078
 7534SOL    HW234239   0.215   4.274   5.825 -2.0082  1.1556  1.3076
 7535SOL     OW34240   4.668   1.758   5.710  0.1531 -0.0397  0.2569
 7535SOL    HW134241   4.721   1.784   5.634  1.3821  1.8952  1.7851
 7535SOL    HW234242   4.722   1.775   5.788  1.3541 -1.1498 -0.3252
 7536SOL     OW34243   4.126   0.593   1.422  0.0049  0.4245  0.0171
 7536SOL    HW134244   4.055   0.583   1.358  0.3181 -0.9742 -0.0981
 7536SOL    HW234245   4.186   0.520   1.407  0.5938  0.7803  0.6130
 7537SOL     OW34246   1.487   0.352   1.846 -0.2691 -0.1873 -0.0021
 7537SOL    HW134247   1.441   0.433   1.823  0.1153 -0.0414 -0.2604
 7537SOL    HW234248   1.425   0.282   1.829  0.0757  0.5219 -4.0480
 7538SOL     OW34249   4.355   3.062   3.876  0.3972  0.5918 -0.1069
 7538SOL    HW134250   4.442   3.045   3.910  0.9794  1.6027 -1.1072
 7538SOL    HW234251   4.373   3.099   3.790  0.7281 -1.6013 -0.9825
 7539SOL     OW34252   1.105   1.458   3.457  0.1997 -0.3571 -0.4185
 7539SOL    HW134253   1.089   1.553   3.454  0.8944 -0.2036  0.6911
 7539SOL    HW234254   1.200   1.458   3.453  0.0995 -0.3794 -2.5053
 7540SOL     OW34255   0.637   3.126   5.348  0.8159  0.5340 -0.1888
 7540SOL    HW134256   0.676   3.174   5.275  2.1591 -1.2588 -0.6646
 7540SOL    HW234257   0.675   3.176   5.421 -0.2483 -0.8932  1.3543
 7541SOL     OW34258   3.895   2.289  14.781 -0.2692  0.0706 -0.1909
 7541SOL    HW134259   3.850   2.277  14.865 -0.7773 -1.3882 -0.6665
 7541SOL    HW234260   3.889   2.384  14.773  0.4021  0.2150  1.0923
 7542SOL     OW34261   4.038   1.514  12.098  1.0172 -0.2932  0.4122
 7542SOL    HW134262   4.029   1.434  12.151  0.1778 -0.0624  0.6118
 7542SOL    HW234263   4.108   1.563  12.143 -0.5893  2.6470 -0.3171
 7543SOL     OW34264   1.244   1.559   2.286 -0.4313  0.5858  0.3950
 7543SOL    HW134265   1.248   1.519   2.199  1.8845 -0.5921  1.0288
 7543SOL    HW234266   1.208   1.644   2.261  0.3755  1.1565  1.1739
 7544SOL     OW34267   3.265   4.182   2.251 -0.6945  0.2045 -0.4957
 7544SOL    HW134268   3.326   4.239   2.298  0.4052 -0.1194 -1.5324
 7544SOL    HW234269   3.266   4.096   2.294  0.6380  1.6001  2.2175
 7545SOL     OW34270   2.782   2.551   2.959  0.2810  0.2051  0.0065
 7545SOL    HW134271   2.743   2.632   2.926 -0.5140 -0.3576 -0.4305
 7545SOL    HW234272   2.811   2.510   2.878  1.1611  0.4026  0.2212
 7546SOL     OW34273   4.232   1.822   0.929 -0.3778 -0.4978 -0.4161
 7546SOL    HW134274   4.263   1.884   0.862  0.4726  0.9671  1.3432
 7546SOL    HW234275   4.295   1.751   0.919  1.8916  1.2350  1.5325
 7547SOL     OW34276   3.796   1.352   6.723  0.2059  0.7295 -0.0688
 7547SOL    HW134277   3.823   1.319   6.638  1.8897  0.3756  0.6037
 7547SOL    HW234278   3.820   1.275   6.775  0.8484  0.8688 -0.1561
 7548SOL     OW34279   3.218   3.632  16.655  0.0252  0.1590  0.4621
 7548SOL    HW134280   3.297   3.677  16.685  1.0550  0.2938 -2.3631
 7548SOL    HW234281   3.248   3.542  16.644 -1.8090 -0.2707 -1.2224
 7549SOL     OW34282   0.865   1.105   7.284  0.7786 -0.3326  0.6977
 7549SOL    HW134283   0.817   1.063   7.213  2.4604  0.4638 -0.9175
 7549SOL    HW234284   0.954   1.113   7.250  1.4685 -1.5915  2.1947
 7550SOL     OW34285   3.882   4.286   6.695 -0.1226 -0.5160 -0.6138
 7550SOL    HW134286   3.960   4.236   6.720  0.1743 -0.3921 -1.2916
 7550SOL    HW234287   3.861   4.333   6.776  2.3654 -0.0101 -0.2639
 7551SOL     OW34288   4.549   4.267   9.244 -0.3477 -0.1844  0.4807
 7551SOL    HW134289   4.538   4.327   9.170  0.0997  0.0253  0.5812
 7551SOL    HW234290   4.638   4.296   9.267 -0.0892  1.5484 -2.7556
 7552SOL     OW34291   1.063   0.202   8.150  0.0486 -0.5593 -0.3426
 7552SOL    HW134292   1.144   0.246   8.177 -0.3091 -0.1160  0.0073
 7552SOL    HW234293   1.079   0.112   8.177 -0.8412  0.1367  2.5656
 7553SOL     OW34294   0.564   2.100   0.185  0.1639 -0.7205  0.0983
 7553SOL    HW134295   0.527   2.014   0.207  0.0408 -0.6412  0.1971
 7553SOL    HW234296   0.595   2.119   0.273  0.4934  2.4553 -0.7061
 7554SOL     OW34297   2.341   0.741  13.150  0.4925 -0.5826  0.0621
 7554SOL    HW134298   2.288   0.819  13.167  0.7293 -0.6230  0.9536
 7554SOL    HW234299   2.282   0.671  13.178 -0.3956  0.1320 -0.0238
 7555SOL     OW34300   2.633   4.072   2.768 -0.2793 -0.0797 -0.1014
 7555SOL    HW134301   2.725   4.056   2.746 -0.5382 -1.2495 -0.3295
 7555SOL    HW234302   2.645   4.148   2.826  1.9647 -2.8897  3.1274
 7556SOL     OW34303   3.522   3.323   6.673  0.4386  0.1380  0.3429
 7556SOL    HW134304   3.539   3.368   6.755  1.1819  0.8602 -0.2126
 7556SOL    HW234305   3.433   3.355   6.657  1.1059  1.4251 -0.7588
 7557SOL     OW34306   2.005   2.315  15.468  0.7954 -0.2903  0.3137
 7557SOL    HW134307   1.954   2.375  15.523  1.9365  1.2683 -0.2978
 7557SOL    HW234308   1.952   2.310  15.389 -0.4157  0.3544  1.0839
 7558SOL     OW34309   2.079   3.948   2.562 -0.3138  0.1214 -0.4584
 7558SOL    HW134310   2.000   3.905   2.597 -0.9161  1.0008 -0.7427
 7558SOL    HW234311   2.107   3.880   2.501  0.3532 -0.1035  0.1046
 7559SOL     OW34312   2.657   2.615   5.104  1.0578 -0.2095  0.0109
 7559SOL    HW134313   2.667   2.568   5.022 -2.4621  2.0094 -1.6808
 7559SOL    HW234314   2.562   2.607   5.111  0.6433  1.9259 -3.1905
 7560SOL     OW34315   1.715   2.839   8.740 -0.2949  0.1125  0.0493
 7560SOL    HW134316   1.742   2.899   8.809 -1.3555  0.0591  0.5034
 7560SOL    HW234317   1.741   2.756   8.781 -0.8928  0.0910  0.3767
 7561SOL     OW34318   0.260   3.981   1.135 -0.1201  0.6064  0.6824
 7561SOL    HW134319   0.211   4.036   1.196  0.1865  0.3337  1.1769
 7561SOL    HW234320   0.347   4.021   1.138  0.4504 -0.6549  0.9692
 7562SOL     OW34321   2.928   0.277  15.585  0.4961 -0.0574 -0.4095
 7562SOL    HW134322   3.017   0.311  15.575 -0.2132  2.0648  0.4581
 7562SOL    HW234323   2.945   0.193  15.544 -2.2715 -2.0698  2.5950
 7563SOL     OW34324   2.724   3.407   8.170 -0.3149  0.1535  0.7011
 7563SOL    HW134325   2.800   3.358   8.140 -2.5862 -2.5328 -0.7145
 7563SOL    HW234326   2.691   3.440   8.087  2.9854  1.5010 -0.0524
 7564SOL     OW34327   1.819   4.415   5.779 -0.7910  0.3902  0.0635
 7564SOL    HW134328   1.793   4.323   5.769 -1.2087  0.5196 -0.0390
 7564SOL    HW234329   1.733   4.445   5.810 -0.7933  1.1683 -0.7337
 7565SOL     OW34330   0.972   4.575   4.602  0.4950  0.5694 -0.0022
 7565SOL    HW134331   0.955   4.669   4.614  0.7285  0.5408  0.5970
 7565SOL    HW234332   1.066   4.561   4.586  0.7554  3.0812 -0.7552
 7566SOL     OW34333   0.791   2.213   5.468  0.8694  0.5227 -0.6338
 7566SOL    HW134334   0.804   2.305   5.490  0.7997  0.2076  0.6990
 7566SOL    HW234335   0.859   2.205   5.401  0.3067  2.8270 -1.5053
 7567SOL     OW34336   0.760   0.174   3.746  0.0319 -0.1143  0.5173
 7567SOL    HW134337   0.690   0.181   3.811 -1.5211 -2.1293 -0.9684
 7567SOL    HW234338   0.720   0.222   3.673  2.1671 -0.7372 -1.0474
 7568SOL     OW34339   1.269   3.642  12.219  0.1466 -0.6425 -0.4032
 7568SOL    HW134340   1.266   3.580  12.291 -0.3917 -1.9990 -1.5933
 7568SOL    HW234341   1.318   3.718  12.252 -1.2051  0.1939 -0.3022
 7569SOL     OW34342   1.258   0.892   3.132  0.5364  0.0522  0.3994
 7569SOL    HW134343   1.184   0.854   3.178 -1.0597  1.2971 -1.1628
 7569SOL    HW234344   1.222   0.976   3.107  1.8399  0.4688 -0.0846
 7570SOL     OW34345   4.270   3.460   4.248 -0.3562 -0.2866 -0.3856
 7570SOL    HW134346   4.206   3.389   4.254 -0.4021 -0.2524 -0.4832
 7570SOL    HW234347   4.342   3.413   4.290 -1.1594  0.2676  1.6453
 7571SOL     OW34348   2.983   2.440  11.779 -0.1842  0.5265  0.3346
 7571SOL    HW134349   2.942   2.442  11.865 -0.2186  0.6428  0.3156
 7571SOL    HW234350   2.993   2.535  11.773 -0.9767  0.7478  2.5470
 7572SOL     OW34351   3.722   1.710   7.477 -0.0877  0.5719 -0.1849
 7572SOL    HW134352   3.710   1.786   7.534 -1.7886 -1.7754  2.5366
 7572SOL    HW234353   3.633   1.677   7.472  0.1368 -0.1255  0.4533
 7573SOL     OW34354   1.753   3.787   4.101 -0.4334  0.1538  0.0790
 7573SOL    HW134355   1.781   3.696   4.104  1.4174  0.6918 -0.9554
 7573SOL    HW234356   1.767   3.822   4.189 -1.1513 -0.1765  0.3218
 7574SOL     OW34357   3.190   1.932  17.047  0.0198  0.0081 -0.3948
 7574SOL    HW134358   3.118   1.902  16.991 -1.0796  0.7153  0.6652
 7574SOL    HW234359   3.244   1.855  17.062  0.4574  0.4342  0.2287
 7575SOL     OW34360   2.721   0.872   4.711 -0.3813  0.4288  0.3771
 7575SOL    HW134361   2.685   0.847   4.625  1.3739 -0.7356 -0.0444
 7575SOL    HW234362   2.683   0.803   4.766  0.1189  1.2858  1.7656
 7576SOL     OW34363   4.160   2.162   7.650  0.4594  0.2822  0.3662
 7576SOL    HW134364   4.126   2.228   7.711  0.2848  2.1765 -1.7755
 7576SOL    HW234365   4.115   2.081   7.674 -0.7954 -0.0311 -3.1093
 7577SOL     OW34366   2.755   4.131   6.795 -0.0566 -0.7714  0.3991
 7577SOL    HW134367   2.754   4.226   6.801 -0.8158 -0.8370  1.2972
 7577SOL    HW234368   2.661   4.114   6.792 -0.1201 -0.0939 -1.3407
 7578SOL     OW34369   1.453   1.740  10.807 -0.2851  0.2161  0.0603
 7578SOL    HW134370   1.384   1.718  10.744 -1.1175  0.1982  0.9905
 7578SOL    HW234371   1.422   1.821  10.849  0.1942  1.0205 -1.1078
 7579SOL     OW34372   2.234   4.257  11.648  0.3961  0.7196 -0.1480
 7579SOL    HW134373   2.195   4.312  11.716 -1.1396 -0.3612 -0.1602
 7579SOL    HW234374   2.326   4.280  11.666  0.1547  0.8176  1.0061
 7580SOL     OW34375   0.033   3.800  17.739 -0.1242  0.1711  0.0813
 7580SOL    HW134376   4.676   3.821   0.009 -0.3676 -0.9653  0.2261
 7580SOL    HW234377   0.053   3.820  17.647  0.8985 -3.9953 -0.6438
 7581SOL     OW34378   3.386   0.286  13.642  0.4013 -0.2646  0.0921
 7581SOL    HW134379   3.314   0.348  13.633  0.3708 -0.9583 -4.2251
 7581SOL    HW234380   3.335   0.208  13.660  1.0906 -0.9736 -1.0605
 7582SOL     OW34381   2.714   4.408   8.814 -0.6427  0.4229  0.1893
 7582SOL    HW134382   2.683   4.404   8.904 -0.7330 -0.3066  0.1308
 7582SOL    HW234383   2.638   4.378   8.763  0.0684  1.0474 -1.2339
 7583SOL     OW34384   2.336   3.703   6.088  0.3808  0.3971 -0.0687
 7583SOL    HW134385   2.412   3.665   6.132 -0.7937 -0.3982  1.2903
 7583SOL    HW234386   2.300   3.759   6.157 -0.8253 -2.8493  1.9313
 7584SOL     OW34387   4.611   2.196   7.011 -0.2908 -0.5888 -0.0411
 7584SOL    HW134388   4.566   2.160   6.935  1.0955 -2.6067  0.0963
 7584SOL    HW234389   4.663   2.260   6.963 -0.3070 -0.5842 -0.0525
 7585SOL     OW34390   3.617   1.269   5.401  0.0328  0.4573 -0.3807
 7585SOL    HW134391   3.606   1.252   5.307 -0.7285 -1.3621  0.0369
 7585SOL    HW234392   3.623   1.365   5.402 -0.4872  0.4743  0.5837
 7586SOL     OW34393   1.258   0.377   1.436  0.2865 -0.5589  0.0007
 7586SOL    HW134394   1.180   0.405   1.389 -0.5395 -1.9445  0.5459
 7586SOL    HW234395   1.293   0.299   1.394 -4.0382 -1.5241 -1.8159
 7587SOL     OW34396   2.699   3.022   0.293  0.8618  0.4162 -0.1234
 7587SOL    HW134397   2.740   2.936   0.282 -0.9233 -0.1405 -2.5257
 7587SOL    HW234398   2.708   3.050   0.202 -2.8407  0.0157 -0.6457
 7588SOL     OW34399   4.119   3.866   7.013 -0.1854 -0.0602  0.1528
 7588SOL    HW134400   4.184   3.869   7.084  1.4623 -0.2026 -1.3383
 7588SOL    HW234401   4.173   3.897   6.941  1.2741  1.1830  1.7654
 7589SOL     OW34402   4.157   1.540   1.702  0.0280 -0.1931  0.3238
 7589SOL    HW134403   4.190   1.552   1.613 -2.0399  0.8973 -0.3100
 7589SOL    HW234404   4.232   1.546   1.761  0.9337 -0.3994 -0.8192
 7590SOL     OW34405   3.634   2.164   6.573 -0.0498 -0.0776  0.6562
 7590SOL    HW134406   3.659   2.089   6.627  0.7540 -0.1684  0.1556
 7590SOL    HW234407   3.599   2.227   6.636 -0.4066  0.6868 -0.3045
 7591SOL     OW34408   0.164   4.383  16.462  0.1448 -0.1593  0.0732
 7591SOL    HW134409   0.204   4.317  16.405 -2.5478 -0.6198 -1.3069
 7591SOL    HW234410   0.106   4.427  16.401  1.8919  1.6997 -0.2360
 7592SOL     OW34411   1.782   2.952   9.136  0.1760 -0.6230  0.3466
 7592SOL    HW134412   1.786   2.856   9.130 -0.6705 -0.5450 -1.5717
 7592SOL    HW234413   1.876   2.970   9.140  0.2470 -0.6757 -1.1558
 7593SOL     OW34414   0.949   2.362   8.487 -0.2094 -0.7847 -0.0091
 7593SOL    HW134415   0.965   2.284   8.540  1.6169  1.2602  2.4411
 7593SOL    HW234416   0.916   2.419   8.556  0.8325  0.5805 -0.6485
 7594SOL     OW34417   1.855   3.033   3.925 -0.1241  0.3302 -0.0368
 7594SOL    HW134418   1.880   3.119   3.894  1.5962  0.2223  1.0577
 7594SOL    HW234419   1.896   3.040   4.011 -0.9629 -2.3168  0.5770
 7595SOL     OW34420   0.088   3.617   3.631 -0.5101 -0.5664 -0.7470
 7595SOL    HW134421   0.027   3.690   3.616  2.2343  2.0487  0.6290
 7595SOL    HW234422   0.040   3.540   3.604 -2.3458  0.8192 -1.4168
 7596SOL     OW34423   2.996   0.719   7.444 -0.5324  0.1372 -0.4891
 7596SOL    HW134424   3.087   0.689   7.452 -1.4936 -1.8529  2.8347
 7596SOL    HW234425   2.943   0.641   7.459  0.7715 -0.5102  0.7508
 7597SOL     OW34426   2.504   0.051   6.687  0.1785  0.2660  0.4421
 7597SOL    HW134427   2.476   4.696   6.673 -1.4794  0.8614 -0.1493
 7597SOL    HW234428   2.435   0.077   6.748 -0.6167  0.6089 -0.5912
 7598SOL     OW34429   4.280   2.702   6.808  0.1399  0.1402  0.0577
 7598SOL    HW134430   4.201   2.741   6.772  0.5596 -0.0329 -1.0615
 7598SOL    HW234431   4.300   2.650   6.730 -2.5708 -0.3393 -0.3201
 7599SOL     OW34432   2.534   1.652  15.131  0.0353  0.0502  0.1295
 7599SOL    HW134433   2.519   1.739  15.170  0.0739  0.0634  0.1146
 7599SOL    HW234434   2.609   1.617  15.178 -0.4496 -1.8889 -0.5457
 7600SOL     OW34435   0.604   2.829   6.330 -0.8750  0.2966  0.2943
 7600SOL    HW134436   0.509   2.826   6.319 -0.9203  1.1998  0.4229
 7600SOL    HW234437   0.610   2.915   6.372 -0.0621  0.7266 -0.6943
 7601SOL     OW34438   1.357   0.141  14.918  0.8128  0.6439 -0.1537
 7601SOL    HW134439   1.261   0.141  14.915  0.7534 -0.3492  1.2821
 7601SOL    HW234440   1.360   0.186  15.002 -0.1004  1.8918 -0.7920
 7602SOL     OW34441   0.308   0.580   9.170 -0.3164 -0.2097 -0.6497
 7602SOL    HW134442   0.301   0.636   9.247  0.5628 -0.5669 -0.3125
 7602SOL    HW234443   0.237   0.614   9.117 -1.2996  0.0518  0.8257
 7603SOL     OW34444   3.536   4.646   7.999  0.5834 -0.3079  0.1089
 7603SOL    HW134445   3.536   4.571   8.058  2.5522  0.6196  1.2671
 7603SOL    HW234446   3.549   4.718   8.060 -2.8782 -1.3558  2.0663
 7604SOL     OW34447   0.469   0.693   4.893 -0.0775 -0.7723 -0.0892
 7604SOL    HW134448   0.427   0.617   4.853 -1.9850  1.7918 -3.0012
 7604SOL    HW234449   0.479   0.742   4.812  0.2046  0.6631  0.8243
 7605SOL     OW34450   3.468   4.161   4.182 -0.6883  0.0790 -0.3023
 7605SOL    HW134451   3.550   4.196   4.148 -0.2311 -0.6338  0.0906
 7605SOL    HW234452   3.470   4.068   4.162  2.2117 -0.0684  0.6392
 7606SOL     OW34453   3.869   2.672  10.157 -0.3349  0.3994  0.0454
 7606SOL    HW134454   3.933   2.672  10.228  1.3181  1.0763 -1.4520
 7606SOL    HW234455   3.788   2.709  10.194 -1.2345 -2.8129  1.2645
 7607SOL     OW34456   2.003   1.502   1.911  1.2265 -0.0483  0.0127
 7607SOL    HW134457   2.044   1.563   1.850 -0.8426 -0.0126 -1.3547
 7607SOL    HW234458   1.929   1.557   1.936 -0.4410 -1.7452 -1.2327
 7608SOL     OW34459   1.009   2.982   4.933  0.0720 -0.3875  0.3200
 7608SOL    HW134460   1.046   3.048   4.875 -3.2736  2.0836  0.9578
 7608SOL    HW234461   1.072   2.910   4.933 -0.9962 -1.3312  0.5656
 7609SOL     OW34462   4.206   1.037   6.713  0.3988 -0.3823  0.4324
 7609SOL    HW134463   4.180   0.985   6.789  2.5824  0.2128  1.5969
 7609SOL    HW234464   4.270   1.094   6.756  1.7003 -0.0552 -1.9413
 7610SOL     OW34465   4.510   4.000   5.563  0.1219  0.2088 -0.4329
 7610SOL    HW134466   4.541   3.973   5.649  0.0321  1.3306 -0.0613
 7610SOL    HW234467   4.579   4.065   5.556  1.1148 -0.9870 -1.8872
 7611SOL     OW34468   3.741   0.340  11.472 -0.4334 -0.2444  0.5621
 7611SOL    HW134469   3.772   0.286  11.545 -0.1990 -0.0411  0.6137
 7611SOL    HW234470   3.646   0.330  11.482 -0.4589 -1.1569 -0.7371
 7612SOL     OW34471   3.558   2.611   5.525 -0.4980 -0.3061 -0.9256
 7612SOL    HW134472   3.517   2.621   5.439  0.7386  2.9829 -1.1199
 7612SOL    HW234473   3.639   2.660   5.514 -0.0548 -0.8267 -0.0285
 7613SOL     OW34474   1.932   4.372  13.500 -0.1314 -0.4500  0.1490
 7613SOL    HW134475   1.996   4.409  13.561  1.2232 -1.8979 -0.3864
 7613SOL    HW234476   1.984   4.301  13.461 -1.6770 -0.8015 -1.2669
 7614SOL     OW34477   4.291   1.587   9.957 -0.0081  0.3802 -0.1167
 7614SOL    HW134478   4.210   1.615   9.915  0.6168  0.6976 -1.0967
 7614SOL    HW234479   4.335   1.536   9.890  1.3508 -0.8260  1.6997
 7615SOL     OW34480   3.604   1.499  15.406  0.2661 -0.4600 -1.0222
 7615SOL    HW134481   3.688   1.492  15.451 -0.1607 -0.5267 -0.2421
 7615SOL    HW234482   3.611   1.416  15.359 -1.2926 -0.6509 -0.9044
 7616SOL     OW34483   0.199   2.161   4.299  0.0267 -0.0092 -0.6330
 7616SOL    HW134484   0.145   2.082   4.305 -1.6049  1.1738  0.4024
 7616SOL    HW234485   0.263   2.133   4.234  1.2437 -0.7791  0.9001
 7617SOL     OW34486   2.748   2.687   2.432  0.1021  0.2891 -0.1691
 7617SOL    HW134487   2.780   2.772   2.461 -2.9646  1.3135  0.1981
 7617SOL    HW234488   2.677   2.675   2.495 -0.1920  1.7139 -0.2282
 7618SOL     OW34489   3.091   0.353   4.880 -0.5493  0.0374 -0.3416
 7618SOL    HW134490   3.154   0.312   4.821 -0.5110 -0.2543 -0.0998
 7618SOL    HW234491   3.078   0.289   4.950  0.0514 -1.8880 -1.9885
 7619SOL     OW34492   0.082   1.920   3.076 -0.2379 -0.2019  0.1450
 7619SOL    HW134493   0.134   1.896   3.153  0.1701 -1.0777 -0.4021
 7619SOL    HW234494   0.107   1.854   3.011  0.5584  0.4205 -0.1810
 7620SOL     OW34495   1.662   3.651   0.169  0.1592  0.1806 -0.7667
 7620SOL    HW134496   1.601   3.579   0.155  0.0947  0.0933 -0.0296
 7620SOL    HW234497   1.603   3.727   0.171  1.3151  0.9922  1.6327
 7621SOL     OW34498   0.593   0.238   8.920  0.4620 -0.0811  0.0083
 7621SOL    HW134499   0.618   0.173   8.986  1.2899  0.6522  0.4145
 7621SOL    HW234500   0.543   0.188   8.855 -0.5419  0.8976  0.0292
 7622SOL     OW34501   0.869   2.044   8.372 -0.2859 -0.0679 -0.1668
 7622SOL    HW134502   0.799   1.989   8.337  0.4238  0.0633 -1.8027
 7622SOL    HW234503   0.829   2.131   8.382  0.6452  0.6721 -2.7872
 7623SOL     OW34504   2.741   0.505  15.514  0.4894  0.2499  0.3306
 7623SOL    HW134505   2.784   0.423  15.537  2.6660  0.7830 -1.8795
 7623SOL    HW234506   2.745   0.552  15.597  0.2854  1.8492 -0.5630
 7624SOL     OW34507   2.476   1.191  12.789  0.7061  0.0891 -0.1336
 7624SOL    HW134508   2.491   1.106  12.830 -1.4878  0.7708  2.0974
 7624SOL    HW234509   2.441   1.237  12.865  0.6991  0.1629 -0.1810
 7625SOL     OW34510   0.089   2.528  13.317  0.3224  0.4649 -0.1450
 7625SOL    HW134511   0.077   2.442  13.277  1.1730  0.8086 -1.1426
 7625SOL    HW234512   0.004   2.565  13.294  0.2454 -1.6271 -3.2219
 7626SOL     OW34513   0.325   3.654  13.131  0.5719  0.1241  0.0299
 7626SOL    HW134514   0.332   3.568  13.172 -0.9387  0.3631  0.7858
 7626SOL    HW234515   0.400   3.690  13.177  2.2739  1.4510 -3.7852
 7627SOL     OW34516   4.246   3.979   5.527  0.2305  0.3796 -0.3313
 7627SOL    HW134517   4.236   3.920   5.452  1.1939 -0.7896  0.4506
 7627SOL    HW234518   4.339   4.004   5.529  0.4379 -0.4198  0.0587
 7628SOL     OW34519   0.166   4.256   2.442  0.5399  0.1485  0.0172
 7628SOL    HW134520   0.150   4.339   2.398 -0.0513  2.2765  4.2414
 7628SOL    HW234521   0.211   4.290   2.520 -0.1983  0.7859  0.1654
 7629SOL     OW34522   2.017   4.146   4.785  0.2532 -0.1076  0.3210
 7629SOL    HW134523   2.077   4.174   4.854  0.0240 -3.0231  1.6888
 7629SOL    HW234524   1.940   4.128   4.840 -0.2947 -1.0387 -0.7684
 7630SOL     OW34525   3.110   0.662   9.327 -0.3958  0.2373  0.3274
 7630SOL    HW134526   3.105   0.714   9.247 -3.4432  0.7347  0.8472
 7630SOL    HW234527   3.044   0.596   9.309 -0.2011  0.6362 -1.9105
 7631SOL     OW34528   3.494   2.483   4.867 -0.6425  0.6701  0.2706
 7631SOL    HW134529   3.529   2.402   4.905 -0.9632  0.1960 -0.4330
 7631SOL    HW234530   3.537   2.469   4.783 -0.9106 -3.2713  0.7959
 7632SOL     OW34531   4.027   0.359  15.446 -0.1439  0.4172  0.5751
 7632SOL    HW134532   4.075   0.350  15.363  2.1557  1.2075  1.8293
 7632SOL    HW234533   4.000   0.269  15.466 -2.0018  0.3708 -1.9766
 7633SOL     OW34534   1.734   2.772   6.780 -0.2300  0.0127 -0.0373
 7633SOL    HW134535   1.789   2.836   6.734 -0.1074 -0.2323 -0.2346
 7633SOL    HW234536   1.778   2.695   6.743  0.0118 -0.9149  2.1680
 7634SOL     OW34537   4.487   0.500   1.834  0.3075  0.0297 -0.4193
 7634SOL    HW134538   4.392   0.516   1.832  0.0213 -1.5640  0.0616
 7634SOL    HW234539   4.509   0.562   1.903 -1.9791  1.3884 -0.8855
 7635SOL     OW34540   3.389   0.468   8.257  0.0210 -0.1700  0.2976
 7635SOL    HW134541   3.344   0.553   8.260 -0.0550 -0.1884 -0.3497
 7635SOL    HW234542   3.344   0.418   8.324 -1.6700 -0.0286 -0.7309
 7636SOL     OW34543   3.005   3.334  10.575  0.2256  0.0181  0.2902
 7636SOL    HW134544   2.966   3.258  10.619 -1.3786 -0.7027 -2.3614
 7636SOL    HW234545   2.920   3.368  10.546  0.3520  0.8897  0.9334
 7637SOL     OW34546   2.035   0.326   8.067 -0.0537 -0.0838  0.0363
 7637SOL    HW134547   2.052   0.269   7.993 -1.9844 -2.1767  1.1912
 7637SOL    HW234548   1.965   0.380   8.030 -1.0698 -2.7118 -1.8760
 7638SOL     OW34549   4.621   4.437  10.755  0.1721  0.1134 -0.3501
 7638SOL    HW134550   4.619   4.509  10.818 -1.3129  0.5916 -0.9510
 7638SOL    HW234551   4.587   4.490  10.684 -1.3848  1.0496  1.0893
 7639SOL     OW34552   2.465   1.095   3.648 -0.4771  0.1860 -0.2319
 7639SOL    HW134553   2.468   1.002   3.629 -2.6145 -0.3773  2.2612
 7639SOL    HW234554   2.373   1.110   3.625 -0.7973 -1.3152  0.1075
 7640SOL     OW34555   4.585   1.145  11.609 -0.0430  0.7947 -0.0855
 7640SOL    HW134556   4.623   1.114  11.527 -1.7106 -2.5626  0.4560
 7640SOL    HW234557   4.520   1.207  11.577  1.7264  3.1209  0.7357
 7641SOL     OW34558   3.688   1.175  13.096 -0.0491 -0.1738  0.2655
 7641SOL    HW134559   3.667   1.128  13.177 -2.6182 -0.1844 -0.4039
 7641SOL    HW234560   3.699   1.268  13.116  1.7083 -0.5780  1.1969
 7642SOL     OW34561   0.838   1.063   7.854  0.3833  0.2649  0.5407
 7642SOL    HW134562   0.873   1.129   7.915 -3.4488  3.1268 -0.3412
 7642SOL    HW234563   0.867   1.103   7.772 -3.7464 -1.8207 -1.8526
 7643SOL     OW34564   0.204   3.669   7.401 -0.0559 -0.0366 -0.0453
 7643SOL    HW134565   0.110   3.686   7.405  0.0365  0.9078 -2.0901
 7643SOL    HW234566   0.209   3.585   7.447  0.4053 -1.6990 -3.1397
 7644SOL     OW34567   0.804   3.166  16.864  0.0798  0.9098 -0.4280
 7644SOL    HW134568   0.774   3.078  16.888 -1.9652  1.8223  0.2892
 7644SOL    HW234569   0.725   3.217  16.876 -1.5350 -2.0076  1.4321
 7645SOL     OW34570   4.367   0.700   5.735 -0.1647 -0.8247  0.1361
 7645SOL    HW134571   4.435   0.729   5.795 -1.9517 -1.8787  2.6396
 7645SOL    HW234572   4.327   0.634   5.792  0.1646  1.4767  3.0201
 7646SOL     OW34573   2.437   1.297   7.341 -0.1629  0.4308  0.2020
 7646SOL    HW134574   2.502   1.293   7.410  1.4352 -0.1979 -1.3299
 7646SOL    HW234575   2.406   1.387   7.347  1.5763  1.1088 -0.9801
 7647SOL     OW34576   0.567   2.708   3.616  0.2706  0.8087 -0.1342
 7647SOL    HW134577   0.500   2.706   3.685  0.6605  1.0175  0.2531
 7647SOL    HW234578   0.623   2.636   3.645  0.1574  0.5041 -0.6811
 7648SOL     OW34579   1.621   3.581   8.180 -0.1149  0.0207  0.6113
 7648SOL    HW134580   1.686   3.588   8.250 -0.3152 -0.4729  0.8467
 7648SOL    HW234581   1.674   3.581   8.100 -0.1884 -0.6367  0.5655
 7649SOL     OW34582   2.889   3.501  17.251  0.3699  0.4855 -0.3903
 7649SOL    HW134583   2.948   3.552  17.307  1.3697 -1.6597  0.4967
 7649SOL    HW234584   2.935   3.507  17.168 -0.7375 -4.0474 -1.2772
 7650SOL     OW34585   1.080   4.585  17.421 -0.0752 -0.1995 -0.1251
 7650SOL    HW134586   1.120   4.533  17.490 -0.2385  0.0959  0.1907
 7650SOL    HW234587   1.150   4.601  17.358  0.6479 -1.3417  0.3919
 7651SOL     OW34588   0.454   2.624   6.471  0.6175 -0.2894  0.0250
 7651SOL    HW134589   0.427   2.713   6.449 -1.0091 -1.0748 -1.1136
 7651SOL    HW234590   0.548   2.624   6.455  0.1102 -0.3185 -2.9593
 7652SOL     OW34591   4.674   0.794   8.369 -0.6555  0.3669  0.1494
 7652SOL    HW134592   4.685   0.838   8.284 -0.7769 -0.3844 -0.2563
 7652SOL    HW234593   4.581   0.770   8.372 -0.8297  1.0167  0.0258
 7653SOL     OW34594   3.585   3.424   8.975 -0.3553 -0.4191 -0.1228
 7653SOL    HW134595   3.525   3.447   8.903  2.5327 -0.0384 -2.4026
 7653SOL    HW234596   3.522   3.403   9.044 -0.6856 -0.8593 -0.5618
 7654SOL     OW34597   2.356   2.362  11.813  0.1511 -0.2586 -0.1811
 7654SOL    HW134598   2.293   2.296  11.843  1.1768 -1.0567  0.2004
 7654SOL    HW234599   2.441   2.317  11.817  0.2448  0.0124  0.8207
 7655SOL     OW34600   4.634   2.858   2.337  0.2226  0.1013  0.8347
 7655SOL    HW134601   4.704   2.857   2.403 -0.7535  1.1248  1.8747
 7655SOL    HW234602   4.681   2.905   2.268  1.1803  0.6681  1.8624
 7656SOL     OW34603   2.620   2.991   1.293 -0.2449  0.6174 -0.4659
 7656SOL    HW134604   2.676   3.064   1.268 -1.6170  2.2010  1.0995
 7656SOL    HW234605   2.575   2.975   1.210  0.0585  0.1898 -0.5429
 7657SOL     OW34606   0.704   0.268   9.304 -0.3833  0.1227 -0.2469
 7657SOL    HW134607   0.761   0.324   9.356  2.2727 -0.5457 -2.4444
 7657SOL    HW234608   0.701   0.185   9.353 -0.5100  0.7619  0.8182
 7658SOL     OW34609   2.793   2.814   3.087  0.3684 -0.4519 -0.0678
 7658SOL    HW134610   2.795   2.901   3.127 -2.1941 -0.2013 -0.5291
 7658SOL    HW234611   2.772   2.764   3.165 -0.3624 -0.6345 -0.3846
 7659SOL     OW34612   0.244   3.537   4.301 -0.1340 -0.3104 -0.3213
 7659SOL    HW134613   0.295   3.483   4.360  1.1017  1.0728 -0.1093
 7659SOL    HW234614   0.152   3.518   4.318  0.2669 -0.4283  1.7179
 7660SOL     OW34615   1.116   3.994  11.624 -0.4434 -0.3589  0.3956
 7660SOL    HW134616   1.148   3.935  11.692 -1.9903 -0.7937  0.7381
 7660SOL    HW234617   1.102   3.924  11.560  1.8325 -1.6367  1.2976
 7661SOL     OW34618   0.442   3.141   5.029 -0.1005 -0.3181 -0.2912
 7661SOL    HW134619   0.527   3.163   5.067  0.2867  0.3629 -1.5646
 7661SOL    HW234620   0.422   3.217   4.975 -0.0892  0.8980  1.3897
 7662SOL     OW34621   0.471   0.642  12.621 -0.0045  0.0017 -0.0306
 7662SOL    HW134622   0.545   0.648  12.561 -0.1853  0.1738 -0.2383
 7662SOL    HW234623   0.494   0.557  12.658  0.5433  0.2297  0.1626
 7663SOL     OW34624   3.804   4.732   6.918 -0.3367 -0.0152 -0.8559
 7663SOL    HW134625   3.793   0.076   6.866  0.4109 -0.2609 -1.3974
 7663SOL    HW234626   3.780   0.018   7.008  0.2638 -2.5760 -0.0842
 7664SOL     OW34627   3.280   0.983  13.691  0.0576  0.2114 -0.5031
 7664SOL    HW134628   3.267   1.038  13.768 -2.0289 -0.1480 -0.5897
 7664SOL    HW234629   3.272   0.893  13.721  0.8177  0.7927  1.4390
 7665SOL     OW34630   3.154   0.609  12.426  0.1403  0.5078  0.1784
 7665SOL    HW134631   3.118   0.520  12.427  0.2440  0.4604 -0.2926
 7665SOL    HW234632   3.220   0.603  12.495  1.9033 -0.7485 -1.6264
 7666SOL     OW34633   3.634   4.185   2.288  0.2023 -0.0139  0.0912
 7666SOL    HW134634   3.655   4.277   2.273  1.6910 -0.4851 -0.7480
 7666SOL    HW234635   3.699   4.140   2.234  0.7216  2.7824 -1.5963
 7667SOL     OW34636   4.142   2.355   3.512 -0.6822 -0.0507  0.1304
 7667SOL    HW134637   4.084   2.365   3.588  0.5878  1.1402  0.9621
 7667SOL    HW234638   4.223   2.395   3.545 -1.1614  1.3393 -0.3683
 7668SOL     OW34639   1.297   2.034   4.092  0.1967  0.3740 -0.1154
 7668SOL    HW134640   1.239   2.109   4.077 -0.7557 -0.3059  0.1422
 7668SOL    HW234641   1.272   2.022   4.183  0.3201 -1.8778 -0.3919
 7669SOL     OW34642   1.109   0.347   7.048 -0.6833 -0.1819  0.0086
 7669SOL    HW134643   1.146   0.318   6.964 -0.2552  0.3513  0.0149
 7669SOL    HW234644   1.118   0.442   7.045 -0.7173 -0.1955 -0.5687
 7670SOL     OW34645   4.412   3.788   1.524  0.2108  0.0233  0.0165
 7670SOL    HW134646   4.326   3.808   1.487 -0.0582  0.7834  1.0399
 7670SOL    HW234647   4.457   3.765   1.442  0.7629  2.6417 -0.4156
 7671SOL     OW34648   4.387   0.930   9.729  0.2115 -0.0518  0.4821
 7671SOL    HW134649   4.401   0.847   9.774  2.1635  0.9932  1.8289
 7671SOL    HW234650   4.480   0.939   9.708  0.7533 -1.9845  1.9778
 7672SOL     OW34651   2.089   4.362   9.386 -0.1203 -0.4476 -0.1635
 7672SOL    HW134652   2.156   4.426   9.412 -2.1299  1.8009 -0.6006
 7672SOL    HW234653   2.067   4.379   9.295  0.4750 -1.1605 -0.4367
 7673SOL     OW34654   4.272   3.769   7.342 -0.4443  0.1423 -0.2263
 7673SOL    HW134655   4.305   3.830   7.408 -3.6819  2.4172 -0.7194
 7673SOL    HW234656   4.207   3.712   7.382 -0.4238  0.2108 -0.0959
 7674SOL     OW34657   0.561   2.606   4.136  0.6559 -0.2240  0.2227
 7674SOL    HW134658   0.635   2.587   4.080  0.4339  1.7483 -0.7254
 7674SOL    HW234659   0.576   2.540   4.204 -0.4800  0.0099  0.7063
 7675SOL     OW34660   1.034   1.095   1.479  0.3060  0.1610  0.1682
 7675SOL    HW134661   1.103   1.033   1.455  1.9138  1.0244  2.5590
 7675SOL    HW234662   1.063   1.178   1.439 -0.5161  0.9927  1.2982
 7676SOL     OW34663   1.356   3.870   8.913 -0.4186 -0.4455 -0.4824
 7676SOL    HW134664   1.427   3.932   8.934 -2.1149  0.6190  2.0925
 7676SOL    HW234665   1.392   3.785   8.939  1.4162  0.6751  0.7133
 7677SOL     OW34666   3.916   3.409   7.528 -0.4021  0.8632  0.1005
 7677SOL    HW134667   3.823   3.422   7.549  0.7277 -0.6381  6.1903
 7677SOL    HW234668   3.914   3.314   7.516 -0.1237  0.7282  1.0659
 7678SOL     OW34669   2.959   3.999   8.379  0.0337  0.3728 -0.1878
 7678SOL    HW134670   2.874   4.016   8.337  0.2731  1.4282 -0.2399
 7678SOL    HW234671   2.968   4.078   8.432 -1.2823 -0.7328  1.6820
 7679SOL     OW34672   3.119   0.374   1.469  0.3391  0.1598 -0.3407
 7679SOL    HW134673   3.091   0.283   1.462  1.0059 -0.1697  1.2131
 7679SOL    HW234674   3.149   0.386   1.559 -2.6856 -3.3427  1.1362
 7680SOL     OW34675   1.321   3.546   9.289 -0.2307  0.1146 -0.1471
 7680SOL    HW134676   1.309   3.640   9.301 -1.5021 -0.3540  2.3341
 7680SOL    HW234677   1.412   3.534   9.263  0.5768  2.4178  1.5927
 7681SOL     OW34678   3.113   2.574   3.879 -0.5532  0.3731 -0.5228
 7681SOL    HW134679   3.086   2.494   3.923 -0.6220  1.2236  1.0051
 7681SOL    HW234680   3.031   2.617   3.853 -0.9580 -1.4097 -2.1408
 7682SOL     OW34681   0.052   3.634   2.426 -0.5244 -0.2108 -0.4924
 7682SOL    HW134682   0.000   3.585   2.489 -0.7389 -0.2461 -0.6977
 7682SOL    HW234683   0.039   3.716   2.473 -0.6652 -0.5755  0.1007
 7683SOL     OW34684   0.504   1.954   9.373 -0.0387 -0.0846  0.2728
 7683SOL    HW134685   0.513   1.946   9.278  0.4510 -1.8084  0.4639
 7683SOL    HW234686   0.535   2.041   9.401 -3.6428  0.8190  1.4284
 7684SOL     OW34687   0.908   2.476   9.897 -0.1134  0.3387 -0.6099
 7684SOL    HW134688   0.952   2.400   9.861  0.5588  0.3696  0.1563
 7684SOL    HW234689   0.928   2.462   9.990  0.5236 -1.0317 -0.9508
 7685SOL     OW34690   2.650   3.956   7.737 -0.4069  0.1344 -0.0292
 7685SOL    HW134691   2.721   3.956   7.801  0.4172 -1.4634 -0.9265
 7685SOL    HW234692   2.574   3.988   7.785 -0.3322 -0.2561  0.3467
 7686SOL     OW34693   2.569   1.279  11.977 -0.1801  0.1034  0.1221
 7686SOL    HW134694   2.478   1.310  11.975  0.5057  2.1619  0.4580
 7686SOL    HW234695   2.584   1.275  12.071  0.0477  0.8379  0.1172
 7687SOL     OW34696   0.186   1.258   5.734  0.3238  0.3187  0.2397
 7687SOL    HW134697   0.213   1.327   5.793  1.8172  0.6985 -0.8775
 7687SOL    HW234698   0.132   1.315   5.679  0.9881  0.4631 -0.2691
 7688SOL     OW34699   0.448   1.174  12.175 -0.1799  0.0560 -0.1447
 7688SOL    HW134700   0.531   1.205  12.212 -1.0755 -0.7163  2.4363
 7688SOL    HW234701   0.407   1.260  12.161 -0.3110  0.2858  1.7170
 7689SOL     OW34702   3.027   1.966   5.468 -0.4486 -0.4599  0.6227
 7689SOL    HW134703   3.076   1.904   5.523  1.7846 -1.6961 -2.7630
 7689SOL    HW234704   3.093   2.009   5.414 -0.4860 -0.8369  0.2766
 7690SOL     OW34705   0.005   0.438  12.501  0.3187  0.2840  0.5839
 7690SOL    HW134706   0.061   0.388  12.561 -2.2487  0.4352  3.1024
 7690SOL    HW234707   4.705   0.506  12.558  0.9175  2.5904 -1.8245
 7691SOL     OW34708   2.264   2.377   1.377  0.1879  0.2141  0.3499
 7691SOL    HW134709   2.263   2.386   1.472 -0.5206  1.5631  0.2094
 7691SOL    HW234710   2.203   2.303   1.369  0.4427  0.1138 -0.7182
 7692SOL     OW34711   2.945   0.997   3.974 -0.2935 -0.4787  0.1638
 7692SOL    HW134712   2.919   0.905   3.984 -0.5543 -0.2338  1.7341
 7692SOL    HW234713   2.976   1.030   4.058  0.0214  0.6623 -0.4024
 7693SOL     OW34714   0.571   0.276   0.545 -0.3894  0.4467 -0.9644
 7693SOL    HW134715   0.667   0.284   0.542 -0.1748 -0.9063  1.3002
 7693SOL    HW234716   0.557   0.182   0.560 -0.8097  0.3334 -2.0745
 7694SOL     OW34717   1.922   4.261   5.214 -0.3408 -0.0686  0.7735
 7694SOL    HW134718   1.944   4.225   5.300 -0.9036 -1.1978  0.4450
 7694SOL    HW234719   1.998   4.250   5.157 -0.2422 -0.0822  0.9099
 7695SOL     OW34720   2.265   3.076   6.862 -0.0388  0.0952  0.1053
 7695SOL    HW134721   2.234   3.023   6.789  0.2042 -1.1378  0.9132
 7695SOL    HW234722   2.296   3.154   6.815  0.8161 -0.2306  0.1348
 7696SOL     OW34723   0.076   0.332   7.653  0.3956  0.4185 -0.1762
 7696SOL    HW134724   0.137   0.260   7.667  0.0285 -0.0600 -1.0105
 7696SOL    HW234725   0.077   0.379   7.736 -0.8416  0.7871 -0.3607
 7697SOL     OW34726   2.835   2.540  11.057 -0.3303 -0.0709  0.3668
 7697SOL    HW134727   2.866   2.482  11.127 -1.0012 -1.6408 -0.6576
 7697SOL    HW234728   2.858   2.624  11.097  1.8988 -1.4460  1.9918
 7698SOL     OW34729   2.110   2.831   7.114 -0.0090  0.0625  0.2111
 7698SOL    HW134730   2.026   2.788   7.130 -0.5695  2.0321  2.5377
 7698SOL    HW234731   2.137   2.787   7.034  0.1849  1.9014 -0.7458
 7699SOL     OW34732   0.567   2.094   5.531  0.4317 -0.0443  0.4209
 7699SOL    HW134733   0.620   2.021   5.563 -0.0353  0.3277  2.0246
 7699SOL    HW234734   0.641   2.146   5.501 -0.6999  0.5145 -1.4606
 7700SOL     OW34735   4.037   0.420   6.942 -0.1561  0.1216 -0.2820
 7700SOL    HW134736   4.076   0.371   7.014  2.3197 -0.9813 -2.3401
 7700SOL    HW234737   3.955   0.445   6.983  0.5695  0.7597  0.7730
 7701SOL     OW34738   3.562   1.413   6.867  0.0756  0.0914  0.8611
 7701SOL    HW134739   3.643   1.415   6.817 -0.1491 -0.6807  0.4563
 7701SOL    HW234740   3.566   1.327   6.911 -0.7176 -0.8362 -0.8890
 7702SOL     OW34741   0.004   3.567   9.127 -0.7440  0.4084 -0.1543
 7702SOL    HW134742   0.000   3.517   9.045  0.8584 -0.4723  0.3240
 7702SOL    HW234743   4.730   3.659   9.101  2.5123  1.3074  1.7646
 7703SOL     OW34744   3.975   3.364   6.687  0.4508 -0.3216 -0.2835
 7703SOL    HW134745   4.020   3.351   6.770 -3.5109 -0.9438  1.7529
 7703SOL    HW234746   3.932   3.443   6.721 -0.9588 -1.6287  0.9417
 7704SOL     OW34747   1.610   0.877   0.421  0.6195 -0.5148  0.3687
 7704SOL    HW134748   1.572   0.819   0.487 -0.0043 -0.1603  0.3175
 7704SOL    HW234749   1.557   0.845   0.349 -1.7620  1.1610  1.3811
 7705SOL     OW34750   0.795   0.585   3.168 -0.3026 -0.7469  0.3616
 7705SOL    HW134751   0.800   0.543   3.082 -1.9249 -1.2526  0.5118
 7705SOL    HW234752   0.820   0.507   3.217  0.1671  0.3198  1.8014
 7706SOL     OW34753   0.524   2.873   7.243 -0.2460 -0.0777  0.3844
 7706SOL    HW134754   0.498   2.898   7.331  2.6880  0.2335  1.1583
 7706SOL    HW234755   0.557   2.783   7.250  2.2651  0.8347  0.1657
 7707SOL     OW34756   1.115   2.370   3.114 -1.2210 -0.2568  0.2258
 7707SOL    HW134757   1.197   2.367   3.063 -1.2674  0.3678  0.1198
 7707SOL    HW234758   1.098   2.463   3.121 -2.1656 -0.3496 -0.7555
 7708SOL     OW34759   1.491   4.399   9.257  0.0167 -0.4315 -0.3174
 7708SOL    HW134760   1.414   4.438   9.215 -0.3057 -0.4545  0.2672
 7708SOL    HW234761   1.491   4.459   9.331  0.4252  0.3571 -0.9569
 7709SOL     OW34762   0.443   1.881   8.100 -0.0732 -0.6160  0.2495
 7709SOL    HW134763   0.411   1.961   8.058  0.6980 -0.4979 -0.1227
 7709SOL    HW234764   0.428   1.824   8.025 -1.0233  2.0278 -1.5838
 7710SOL     OW34765   3.417   2.267   9.459 -0.5478 -0.4588 -0.0215
 7710SOL    HW134766   3.461   2.197   9.412 -1.1879  0.3913 -1.8980
 7710SOL    HW234767   3.480   2.260   9.530  0.9687 -2.0403 -1.5197
 7711SOL     OW34768   1.631   2.472   9.969  0.1388 -0.6117 -0.8760
 7711SOL    HW134769   1.705   2.411   9.964 -0.6488 -1.6262 -0.2247
 7711SOL    HW234770   1.611   2.458  10.061 -1.6730 -0.6898 -1.2738
 7712SOL     OW34771   1.329   0.611   4.369  0.0949 -0.3781 -0.0140
 7712SOL    HW134772   1.262   0.646   4.427 -0.4836 -2.3505  0.5119
 7712SOL    HW234773   1.316   0.659   4.287  2.4483 -0.0981 -0.2353
 7713SOL     OW34774   4.657   3.388   0.367 -0.4872 -0.5220 -0.2794
 7713SOL    HW134775   4.566   3.375   0.392 -0.3138  2.4300  1.8937
 7713SOL    HW234776   4.680   3.478   0.393  1.9184 -1.0731 -0.4784
 7714SOL     OW34777   2.813   1.478   6.061 -0.3628  0.1915  0.0303
 7714SOL    HW134778   2.851   1.456   5.976  0.0524  3.1146 -0.5387
 7714SOL    HW234779   2.853   1.565   6.064  1.8107 -0.7483 -1.4061
 7715SOL     OW34780   4.294   0.423   7.111 -0.0688  0.0660 -0.4113
 7715SOL    HW134781   4.283   0.515   7.135 -2.5397 -0.1898 -0.5439
 7715SOL    HW234782   4.346   0.433   7.031  0.0543  1.0250 -0.2072
 7716SOL     OW34783   2.095   1.283   7.045 -0.4886  0.2292 -0.3877
 7716SOL    HW134784   2.170   1.226   7.062 -2.1585 -1.8587 -0.1392
 7716SOL    HW234785   2.134   1.334   6.974  0.1712  0.3157  0.0316
 7717SOL     OW34786   4.645   1.310  14.847  0.5319  0.3218 -0.3251
 7717SOL    HW134787   4.674   1.355  14.927  2.9839 -0.1587 -0.9322
 7717SOL    HW234788   4.661   1.223  14.884 -0.6483  1.4329  2.8309
 7718SOL     OW34789   1.072   2.153  13.294  0.1710  0.8056 -0.0009
 7718SOL    HW134790   0.986   2.117  13.275  0.0869 -0.6268  3.0988
 7718SOL    HW234791   1.063   2.148  13.389  2.3881  0.7005  0.2051
 7719SOL     OW34792   1.105   2.510   8.887  0.5661  0.0917  0.0225
 7719SOL    HW134793   1.152   2.593   8.886  0.6580  0.0336 -0.7572
 7719SOL    HW234794   1.150   2.458   8.954  0.9165 -0.1750 -0.4200
 7720SOL     OW34795   3.649   4.045   9.163  0.6111 -0.2521  0.1734
 7720SOL    HW134796   3.637   3.978   9.230 -3.2644  0.5195  0.2871
 7720SOL    HW234797   3.722   3.999   9.121  1.1789  1.0812 -0.3090
 7721SOL     OW34798   3.246   3.302   1.731  0.3824  0.3103  0.4072
 7721SOL    HW134799   3.173   3.289   1.792  0.6534  0.1586  0.6990
 7721SOL    HW234800   3.300   3.361   1.784 -0.1369  1.3551 -0.2307
 7722SOL     OW34801   1.828   4.016   2.725 -0.4752  0.0191  0.4625
 7722SOL    HW134802   1.815   4.103   2.687  0.0662 -1.9591 -4.2512
 7722SOL    HW234803   1.766   3.963   2.675 -1.5232  0.8945  0.8523
 7723SOL     OW34804   0.672   0.271   3.122 -0.3325  0.1911 -0.4493
 7723SOL    HW134805   0.748   0.291   3.067  0.5467  2.1275  1.4678
 7723SOL    HW234806   0.605   0.320   3.074 -0.7025 -0.9654 -1.1125
 7724SOL     OW34807   1.016   3.639   8.391 -0.4983  0.0794 -0.1994
 7724SOL    HW134808   1.016   3.721   8.440  0.7250 -0.3520  0.5176
 7724SOL    HW234809   1.104   3.607   8.408 -1.1996 -1.0078  1.2825
 7725SOL     OW34810   0.902   0.081   1.702  0.1904 -0.2835 -0.4012
 7725SOL    HW134811   0.983   0.085   1.753 -0.2899 -1.1024  0.4144
 7725SOL    HW234812   0.906   4.722   1.688 -0.1490 -0.2129 -0.9645
 7726SOL     OW34813   1.844   4.114  14.468  0.8083  0.2061  0.2265
 7726SOL    HW134814   1.782   4.095  14.537  1.3528  1.5516  1.0770
 7726SOL    HW234815   1.792   4.098  14.389 -0.4593  1.1289  0.8899
 7727SOL     OW34816   3.858   2.336   5.997  0.3970  0.0956 -0.2462
 7727SOL    HW134817   3.809   2.418   6.002  2.3865  1.1856  1.4441
 7727SOL    HW234818   3.897   2.338   6.085  1.4058 -0.0769 -0.6876
 7728SOL     OW34819   0.252   4.064   3.935  0.1544 -0.6654  0.8015
 7728SOL    HW134820   0.342   4.058   3.901  0.1472  2.4369  0.2425
 7728SOL    HW234821   0.203   4.000   3.884 -0.4999  0.8845 -0.4999
 7729SOL     OW34822   2.758   1.074  11.210  0.5677  0.2313 -0.0086
 7729SOL    HW134823   2.683   1.124  11.177  0.8252 -1.4651 -3.0920
 7729SOL    HW234824   2.721   0.986  11.219  0.1740  0.6992  2.9525
 7730SOL     OW34825   2.636   2.782   2.875  0.1577  0.4271  0.1547
 7730SOL    HW134826   2.625   2.855   2.815  1.6943  0.5928  0.0710
 7730SOL    HW234827   2.702   2.819   2.933 -1.1196  0.4439  1.5961
 7731SOL     OW34828   0.382   0.574   3.573 -0.0626 -0.5900  0.3368
 7731SOL    HW134829   0.422   0.555   3.489  1.3177 -0.4362  0.9616
 7731SOL    HW234830   0.325   0.498   3.583 -0.6185  0.0009  1.6937
 7732SOL     OW34831   4.049   0.257   8.635 -0.0285 -0.5417  0.7366
 7732SOL    HW134832   4.002   0.194   8.689 -0.4870 -1.7576 -1.1176
 7732SOL    HW234833   3.976   0.311   8.606  0.2451 -0.7376 -0.3079
 7733SOL     OW34834   1.652   1.960  13.397  1.0684 -0.2166 -0.5612
 7733SOL    HW134835   1.660   1.938  13.304  1.7100  0.0226 -0.5594
 7733SOL    HW234836   1.701   1.890  13.440  0.8366  0.4666  0.8276
 7734SOL     OW34837   0.775   3.517   7.107  0.3988  0.2072 -0.2182
 7734SOL    HW134838   0.753   3.549   7.194 -0.8422 -0.9666 -0.1041
 7734SOL    HW234839   0.836   3.448   7.132  1.0846  1.1433  0.6817
 7735SOL     OW34840   1.031   0.180   4.317  0.2970 -0.2127 -0.0063
 7735SOL    HW134841   1.124   0.162   4.300  0.8676  1.2300  1.5485
 7735SOL    HW234842   1.000   0.180   4.227  0.4329 -3.8604 -0.0706
 7736SOL     OW34843   1.398   0.859   3.697 -0.3559 -0.6596 -0.0581
 7736SOL    HW134844   1.354   0.931   3.652  0.7600 -0.1857 -0.4052
 7736SOL    HW234845   1.440   0.902   3.772 -1.5107  2.6129 -1.2718
 7737SOL     OW34846   1.362   3.560   0.665  0.2212 -0.2425  0.3547
 7737SOL    HW134847   1.401   3.541   0.579 -1.3424 -1.5976 -0.0579
 7737SOL    HW234848   1.370   3.655   0.660 -0.6514 -0.3899 -4.4608
 7738SOL     OW34849   2.683   2.685  12.645 -0.3610 -1.1522  0.3533
 7738SOL    HW134850   2.619   2.757  12.648 -0.7413 -1.4037 -1.7354
 7738SOL    HW234851   2.675   2.655  12.735 -3.9874 -0.8269  0.1456
 7739SOL     OW34852   1.030   2.368   1.981  0.0967 -0.0213 -0.6849
 7739SOL    HW134853   1.041   2.322   1.899  1.6852 -0.9072  0.0206
 7739SOL    HW234854   1.102   2.432   1.986 -1.0757  1.2202  0.5065
 7740SOL     OW34855   2.842   2.547   8.789 -0.2052  0.0771  0.1688
 7740SOL    HW134856   2.856   2.595   8.871  0.4112 -0.9151  0.6487
 7740SOL    HW234857   2.747   2.561   8.785 -0.6033 -2.8511 -0.4100
 7741SOL     OW34858   2.506   3.147   7.993 -0.4367  0.1499  0.2949
 7741SOL    HW134859   2.444   3.218   8.013  0.5204  1.4620 -1.3034
 7741SOL    HW234860   2.575   3.164   8.057  0.1650 -0.1360 -0.2839
 7742SOL     OW34861   3.608   4.318   9.045  0.5878  0.0900  0.6837
 7742SOL    HW134862   3.644   4.232   9.068  0.3211  0.1070  1.1668
 7742SOL    HW234863   3.593   4.342   9.137 -2.6599 -1.9119  0.6578
 7743SOL     OW34864   3.387   3.629  15.465 -0.2602 -0.1758  0.1597
 7743SOL    HW134865   3.449   3.645  15.536  0.2243 -1.3229 -0.0066
 7743SOL    HW234866   3.346   3.545  15.485  0.2244 -0.4729 -0.0946
 7744SOL     OW34867   2.650   1.078   7.285  0.5149  0.7311  0.3731
 7744SOL    HW134868   2.725   1.024   7.309  0.1522  0.1825  0.2900
 7744SOL    HW234869   2.679   1.117   7.203 -0.3138 -0.0990 -0.3286
 7745SOL     OW34870   4.099   0.358   5.540 -0.0745 -0.4885 -0.4582
 7745SOL    HW134871   4.058   0.444   5.551 -0.6680 -0.6822 -1.1668
 7745SOL    HW234872   4.180   0.384   5.498  0.4368 -2.6334 -0.8039
 7746SOL     OW34873   1.589   3.645   6.862 -0.0579 -0.0753  0.0113
 7746SOL    HW134874   1.507   3.693   6.855  0.1701  0.0646 -1.7207
 7746SOL    HW234875   1.633   3.680   6.940  0.3512 -3.6848  1.4045
 7747SOL     OW34876   0.874   1.466   4.123  0.2596 -0.0635  0.4646
 7747SOL    HW134877   0.933   1.517   4.067  0.2197 -0.7402 -0.1837
 7747SOL    HW234878   0.788   1.464   4.082  1.5173  0.5149 -2.1932
 7748SOL     OW34879   1.274   3.259   5.467 -0.4508  0.2445  0.6280
 7748SOL    HW134880   1.241   3.173   5.440  0.6546  0.0365 -0.0411
 7748SOL    HW234881   1.190   3.306   5.463  1.1563  3.1489  0.5835
 7749SOL     OW34882   1.618   1.292  17.098 -0.0775 -0.4339 -0.1752
 7749SOL    HW134883   1.648   1.250  17.178 -1.3037  3.0644  2.1173
 7749SOL    HW234884   1.695   1.337  17.061  0.3346  0.9582  2.4272
 7750SOL     OW34885   0.755   1.104  11.582 -0.1564 -0.0598  0.0397
 7750SOL    HW134886   0.765   1.189  11.625 -0.5368  1.0242 -2.0168
 7750SOL    HW234887   0.678   1.121  11.529  0.9804  0.6830 -1.3706
 7751SOL     OW34888   3.277   2.787   5.368  0.8509  0.3619 -0.0713
 7751SOL    HW134889   3.216   2.750   5.304  1.8460  1.1212 -1.4558
 7751SOL    HW234890   3.336   2.833   5.309 -0.8155 -0.0589 -2.0770
 7752SOL     OW34891   3.283   4.660   7.318  0.2106  0.2421 -0.4677
 7752SOL    HW134892   3.293   0.016   7.291  3.4449 -0.2023 -0.7572
 7752SOL    HW234893   3.286   4.663   7.413 -0.7580 -1.5523 -0.3885
 7753SOL     OW34894   0.017   0.813   5.149  0.4777 -0.1557  0.3283
 7753SOL    HW134895   0.024   0.766   5.232  0.0796 -1.4653 -0.3674
 7753SOL    HW234896   4.663   0.786   5.130  0.1792  0.3033  1.0968
 7754SOL     OW34897   3.986   1.573  13.499  0.1920  0.1843  0.2475
 7754SOL    HW134898   3.929   1.571  13.575  1.2631 -2.2898  0.9693
 7754SOL    HW234899   3.968   1.651  13.446 -2.3781 -0.3838  0.2829
 7755SOL     OW34900   3.806   1.430   9.910 -0.2535 -0.3673 -0.3123
 7755SOL    HW134901   3.738   1.492   9.935 -0.0512 -0.7300  1.1209
 7755SOL    HW234902   3.749   1.397   9.841  0.5695  0.0856 -1.2285
 7756SOL     OW34903   0.849   4.015  11.998 -1.0588 -0.2889 -0.0438
 7756SOL    HW134904   0.855   3.981  11.909  0.2741 -0.4780  0.1097
 7756SOL    HW234905   0.941   4.025  12.021 -1.1301  0.8922 -0.2891
 7757SOL     OW34906   2.843   4.530   4.270 -0.0393  0.5959 -0.1540
 7757SOL    HW134907   2.879   4.443   4.282 -0.8236  0.5054  1.5927
 7757SOL    HW234908   2.761   4.522   4.319 -0.4070 -2.2320 -1.2960
 7758SOL     OW34909   3.537   3.061   8.811  0.3921  0.3660  0.0714
 7758SOL    HW134910   3.588   3.053   8.892  0.8428  0.3822 -0.2091
 7758SOL    HW234911   3.473   3.125   8.841 -0.7412 -1.2430  1.0676
 7759SOL     OW34912   3.791   2.836   8.449  0.4206  0.0672 -0.5886
 7759SOL    HW134913   3.881   2.804   8.452  0.5172  0.5485  1.6617
 7759SOL    HW234914   3.769   2.838   8.543  1.9779 -2.1275 -0.1878
 7760SOL     OW34915   4.511   2.515  16.794  0.2613  0.0253  0.2747
 7760SOL    HW134916   4.469   2.453  16.734  1.7635 -0.4182 -0.3076
 7760SOL    HW234917   4.595   2.473  16.813 -0.5244  0.1272  3.8858
 7761SOL     OW34918   3.942   1.878  14.925 -0.0176  0.2652 -0.3003
 7761SOL    HW134919   4.028   1.873  14.968 -0.5815 -0.1221  0.7696
 7761SOL    HW234920   3.893   1.869  15.007 -1.2425  1.7081 -0.8769
 7762SOL     OW34921   2.071   0.190   8.310 -0.4320  0.0530 -0.5106
 7762SOL    HW134922   2.103   0.112   8.265 -1.8009 -0.6319 -0.2774
 7762SOL    HW234923   2.038   0.234   8.232 -1.1163 -1.2779 -0.9743
 7763SOL     OW34924   4.484   3.665   3.309 -0.6651 -0.5854  0.3557
 7763SOL    HW134925   4.400   3.620   3.300 -1.4993  1.0770 -0.0677
 7763SOL    HW234926   4.540   3.610   3.254  0.7535  0.6021  0.6135
 7764SOL     OW34927   2.390   4.649  15.052 -0.0514  0.2318  0.2034
 7764SOL    HW134928   2.466   4.651  15.110 -0.8104  2.7651  1.0781
 7764SOL    HW234929   2.423   4.608  14.972 -3.0745 -0.5701 -0.6680
 7765SOL     OW34930   2.126   4.517   7.717 -0.3766 -0.0603 -0.7937
 7765SOL    HW134931   2.085   4.576   7.780  2.7460  0.6479  0.6106
 7765SOL    HW234932   2.059   4.450   7.723 -0.7588  0.4623  0.6735
 7766SOL     OW34933   3.800   0.247   6.410 -0.5377 -0.4906 -0.2066
 7766SOL    HW134934   3.773   0.185   6.342  0.1087 -1.5513  0.4932
 7766SOL    HW234935   3.845   0.303   6.347  1.3116  0.2522  1.7585
 7767SOL     OW34936   1.470   3.779   2.149  0.4293  0.4440  0.3441
 7767SOL    HW134937   1.435   3.867   2.164 -1.5221 -0.4430  1.0813
 7767SOL    HW234938   1.396   3.719   2.141 -0.0722  0.7300  2.8457
 7768SOL     OW34939   2.393   2.293   9.801  0.0237 -0.6399  0.3487
 7768SOL    HW134940   2.376   2.202   9.826 -2.1223 -0.0780  0.9247
 7768SOL    HW234941   2.420   2.292   9.709 -0.7451 -0.4417  0.1191
 7769SOL     OW34942   1.101   0.358   2.829  0.5388  0.1532 -0.4447
 7769SOL    HW134943   1.153   0.415   2.774 -0.4474  2.8686  1.4480
 7769SOL    HW234944   1.162   0.329   2.897 -0.1297  0.1315  0.1418
 7770SOL     OW34945   3.206   1.873   4.027 -0.8751 -0.0536  0.0544
 7770SOL    HW134946   3.284   1.888   3.973  0.3730 -0.5002  1.7250
 7770SOL    HW234947   3.215   1.783   4.057  1.6203  0.6937  1.5901
 7771SOL     OW34948   0.692   3.509   2.519 -0.1462 -0.2826  0.2468
 7771SOL    HW134949   0.712   3.423   2.557  1.5537  1.0705  2.4190
 7771SOL    HW234950   0.675   3.485   2.427 -1.0265  0.1937  0.2853
 7772SOL     OW34951   2.593   4.446   8.024 -0.5633 -0.4464 -0.1812
 7772SOL    HW134952   2.672   4.421   7.976 -0.5697 -1.1335  0.1643
 7772SOL    HW234953   2.536   4.454   7.948 -0.0605 -2.2039 -0.7465
 7773SOL     OW34954   1.905   4.159   6.019  0.0584 -0.1675 -0.0091
 7773SOL    HW134955   1.953   4.224   5.967  0.9439  0.2021  1.2585
 7773SOL    HW234956   1.822   4.203   6.037 -0.1489 -1.0164  1.1975
 7774SOL     OW34957   4.716   1.445  15.935  0.0124  0.2027 -0.4332
 7774SOL    HW134958   4.694   1.393  15.858  0.5602 -0.0538 -0.4137
 7774SOL    HW234959   4.662   1.524  15.930  3.4335  2.6050  0.1450
 7775SOL     OW34960   4.680   0.141   7.451  0.2827 -0.9373  0.4715
 7775SOL    HW134961   4.692   0.194   7.530  1.0055 -0.5055  0.0701
 7775SOL    HW234962   4.598   0.094   7.468 -0.2060  0.7907  2.9189
 7776SOL     OW34963   4.169   0.686   3.769 -0.5248  0.0433  0.0623
 7776SOL    HW134964   4.141   0.627   3.698  0.6329  0.6102 -0.8643
 7776SOL    HW234965   4.245   0.728   3.728 -0.0434 -2.0172 -1.1933
 7777SOL     OW34966   1.446   0.676   6.044  0.2654  0.2532 -0.3589
 7777SOL    HW134967   1.470   0.696   6.135 -2.8325  1.2117  0.2319
 7777SOL    HW234968   1.522   0.626   6.014  1.7268  2.0651  0.2935
 7778SOL     OW34969   2.619   0.104   7.231  0.2239 -0.1086 -0.1939
 7778SOL    HW134970   2.688   0.169   7.237  0.3489 -0.4107  1.7360
 7778SOL    HW234971   2.569   0.159   7.172 -1.1755 -2.2482 -1.0219
 7779SOL     OW34972   2.485   0.869   5.979  0.1717 -0.1625 -0.0718
 7779SOL    HW134973   2.497   0.962   5.996 -1.5425  0.0551 -0.0877
 7779SOL    HW234974   2.579   0.850   5.983  0.5017  1.5630  0.2574
 7780SOL     OW34975   0.537   0.248   7.175 -0.5705 -0.0844  0.4563
 7780SOL    HW134976   0.563   0.166   7.133  0.8609  0.2102  0.7656
 7780SOL    HW234977   0.623   0.288   7.160 -0.7727 -1.3072 -3.9939
 7781SOL     OW34978   0.776   1.930   8.018 -0.0746  0.1240 -0.1142
 7781SOL    HW134979   0.699   1.898   7.970 -0.5194  1.2119 -0.1407
 7781SOL    HW234980   0.773   1.872   8.094 -0.0654 -0.4933 -0.5859
 7782SOL     OW34981   3.558   4.002   6.729  0.1137  0.5640  0.1639
 7782SOL    HW134982   3.624   4.005   6.660 -0.2880  2.9285 -0.1198
 7782SOL    HW234983   3.529   4.093   6.738 -2.7349 -0.3297  0.1012
 7783SOL     OW34984   3.200   0.416   6.009  0.0649  0.2238 -0.2276
 7783SOL    HW134985   3.145   0.465   5.947 -0.1878 -0.2349 -0.3598
 7783SOL    HW234986   3.144   0.350   6.049 -1.2117  0.3276 -1.8457
 7784SOL     OW34987   2.602   4.728   5.454  0.0512  0.0840 -0.3775
 7784SOL    HW134988   2.528   0.053   5.455 -1.5346 -1.8230  3.2330
 7784SOL    HW234989   2.577   4.664   5.521 -1.2054  1.0156  0.0554
 7785SOL     OW34990   3.746   3.868  13.377 -0.0274  0.0277 -0.0808
 7785SOL    HW134991   3.744   3.841  13.285  1.0735 -0.9906  0.1841
 7785SOL    HW234992   3.722   3.787  13.423 -1.3213 -2.1758 -4.6873
 7786SOL     OW34993   3.722   1.901   6.723 -0.4411  0.4421 -0.0859
 7786SOL    HW134994   3.719   1.816   6.679 -1.5735  0.8399 -0.7734
 7786SOL    HW234995   3.804   1.888   6.772 -0.5554  2.4622  0.6058
 7787SOL     OW34996   3.291   1.177   3.832 -0.0507 -0.1256  0.1201
 7787SOL    HW134997   3.246   1.100   3.797  2.0613 -0.7017 -1.2900
 7787SOL    HW234998   3.378   1.141   3.847 -0.1651 -0.3647  0.2088
 7788SOL     OW34999   0.469   0.880  11.646  0.2908  0.0218  0.1513
 7788SOL    HW135000   0.491   0.862  11.555  0.9969  3.4059 -0.3646
 7788SOL    HW235001   0.437   0.797  11.681 -0.8576 -0.0894 -1.1772
 7789SOL     OW35002   1.339   3.815   9.290 -0.7964 -0.3203 -0.3338
 7789SOL    HW135003   1.365   3.889   9.234 -0.5148 -0.1921 -0.0336
 7789SOL    HW235004   1.251   3.846   9.310 -1.6779 -1.9121 -1.6973
 7790SOL     OW35005   1.305   2.763   6.827  0.5568 -0.1615 -0.1623
 7790SOL    HW135006   1.324   2.765   6.921  0.5138 -0.4268 -0.1472
 7790SOL    HW235007   1.288   2.856   6.813 -0.0000 -0.4827 -1.6198
 7791SOL     OW35008   3.746   0.018   9.484  0.1914  0.2739 -0.3943
 7791SOL    HW135009   3.799   0.063   9.419 -1.1473 -1.7978 -2.9280
 7791SOL    HW235010   3.670   4.724   9.432 -0.4248  1.2899 -0.0707
 7792SOL     OW35011   3.088   4.224  16.582 -0.2139 -0.5958  0.1862
 7792SOL    HW135012   3.152   4.295  16.587 -2.4907  1.5033 -0.7366
 7792SOL    HW235013   3.140   4.147  16.608 -0.6450 -0.3658  1.6951
 7793SOL     OW35014   3.636   0.771   8.223 -0.1553 -0.4838  0.1126
 7793SOL    HW135015   3.689   0.850   8.219 -1.4369  0.3025 -1.3099
 7793SOL    HW235016   3.587   0.786   8.142  0.2943 -1.2700 -0.3143
 7794SOL     OW35017   3.827   3.679   3.074 -0.3198 -0.5006  0.1671
 7794SOL    HW135018   3.825   3.741   3.147 -1.7985 -0.5124  0.1405
 7794SOL    HW235019   3.782   3.733   3.008 -1.9200 -1.8889  0.1135
 7795SOL     OW35020   2.210   4.456   5.676  0.4236  0.2232  0.0480
 7795SOL    HW135021   2.183   4.443   5.767 -0.1760  2.1679  0.1478
 7795SOL    HW235022   2.125   4.468   5.634  0.8570 -1.2702 -1.2071
 7796SOL     OW35023   3.144   3.344  16.393 -0.3434  0.0241 -0.0920
 7796SOL    HW135024   3.173   3.265  16.346 -0.7157  0.5506 -1.2025
 7796SOL    HW235025   3.050   3.327  16.387 -0.1082 -1.6655  0.8898
 7797SOL     OW35026   3.753   2.000   7.123 -0.0475  0.0484  0.8757
 7797SOL    HW135027   3.789   2.050   7.196  1.0243  1.4141 -0.6022
 7797SOL    HW235028   3.804   2.048   7.058 -0.3133  1.4705  1.7277
 7798SOL     OW35029   0.754   1.206   2.372 -0.1492  0.1753 -0.4626
 7798SOL    HW135030   0.671   1.159   2.385  0.3034  0.6875  4.0483
 7798SOL    HW235031   0.763   1.254   2.454  1.5971 -2.4176  0.8774
 7799SOL     OW35032   3.303   0.454   5.041  0.0352  0.0891 -0.2960
 7799SOL    HW135033   3.223   0.477   4.994  0.3717  1.3605 -0.2449
 7799SOL    HW235034   3.271   0.412   5.121  0.7670  0.4652  0.1897
 7800SOL     OW35035   1.309   1.291   8.330  0.2157 -0.5089 -0.0198
 7800SOL    HW135036   1.282   1.348   8.258  1.6144  0.6820  0.4063
 7800SOL    HW235037   1.272   1.340   8.404  2.6976 -0.0624  0.9014
 7801SOL     OW35038   0.500   0.411   3.836  0.4408 -0.2719 -0.3915
 7801SOL    HW135039   0.453   0.493   3.826 -1.0542 -1.2272 -1.2800
 7801SOL    HW235040   0.525   0.393   3.745  0.3276  0.8864 -0.6472
 7802SOL     OW35041   0.503   3.266  17.006 -0.4082  0.5785  0.3946
 7802SOL    HW135042   0.588   3.226  17.029 -1.2560 -1.6548 -0.3117
 7802SOL    HW235043   0.459   3.264  17.091 -0.2301  1.8358  0.5046
 7803SOL     OW35044   3.984   2.829   9.954 -0.8543 -0.3122  0.5994
 7803SOL    HW135045   3.938   2.779  10.021 -1.9770  1.7996  1.3831
 7803SOL    HW235046   3.979   2.768   9.880 -0.0067 -0.7394  0.8932
 7804SOL     OW35047   4.113   3.262   6.190  0.2209  0.0608 -0.3398
 7804SOL    HW135048   4.025   3.267   6.153 -1.3468  1.3665  3.6318
 7804SOL    HW235049   4.099   3.188   6.249  1.8298 -1.3936 -1.7758
 7805SOL     OW35050   2.932   1.426   3.590 -0.1456 -0.0789  0.4118
 7805SOL    HW135051   2.896   1.495   3.645  0.2278  1.4950 -1.3278
 7805SOL    HW235052   3.025   1.421   3.616 -0.4048 -0.6754  1.2301
 7806SOL     OW35053   0.242   2.500   3.313  0.4717  0.3594 -0.1222
 7806SOL    HW135054   0.198   2.562   3.256  1.6904  0.4395 -0.9861
 7806SOL    HW235055   0.323   2.542   3.343  1.2578 -1.2290 -0.0048
 7807SOL     OW35056   0.055   1.942   2.375 -0.5902 -0.4457  0.1198
 7807SOL    HW135057   4.711   1.891   2.360 -0.1384 -0.9317 -0.6222
 7807SOL    HW235058   0.050   2.004   2.303  1.7919  0.7259  0.9806
 7808SOL     OW35059   0.849   4.497   6.970 -0.0432 -0.3223  0.4701
 7808SOL    HW135060   0.758   4.514   6.948 -0.1258 -0.4118  0.7462
 7808SOL    HW235061   0.853   4.536   7.057 -0.4145 -0.0302  0.3569
 7809SOL     OW35062   2.492   3.911   3.514 -0.4501 -0.2678  0.7193
 7809SOL    HW135063   2.571   3.960   3.489  0.2375 -1.9438 -0.3929
 7809SOL    HW235064   2.519   3.857   3.589  1.6904  0.6916  0.6549
 7810SOL     OW35065   2.620   1.837   3.687 -0.6734 -0.0607 -0.0637
 7810SOL    HW135066   2.649   1.747   3.676 -0.0445  0.2296 -0.7431
 7810SOL    HW235067   2.629   1.874   3.599  0.3967  1.8700  0.8583
 7811SOL     OW35068   3.598   1.745  13.039 -0.1946  0.0305  0.1388
 7811SOL    HW135069   3.681   1.791  13.024 -0.6207  0.4964 -0.7715
 7811SOL    HW235070   3.644   1.664  13.064  0.7316  0.2053 -1.0037
 7812SOL     OW35071   3.201   2.030  16.324 -0.1230 -0.0158  0.2878
 7812SOL    HW135072   3.245   2.091  16.265 -0.7591 -0.5441 -0.7356
 7812SOL    HW235073   3.117   2.074  16.337 -1.3269 -2.2937  0.2991
 7813SOL     OW35074   1.073   3.882   0.446 -0.3004  0.1281 -0.1437
 7813SOL    HW135075   1.088   3.946   0.377 -1.3759 -0.2741 -0.7522
 7813SOL    HW235076   1.121   3.806   0.415  1.4372  0.6467  1.3019
 7814SOL     OW35077   3.029   2.994  16.537 -0.0992 -0.3426 -0.7361
 7814SOL    HW135078   3.063   2.905  16.546 -0.9007 -0.6338 -0.6682
 7814SOL    HW235079   2.976   2.988  16.616  1.5208 -0.1573  0.3813
 7815SOL     OW35080   3.400   0.110   6.160  0.3009 -0.0860  0.0427
 7815SOL    HW135081   3.372   0.067   6.241 -0.1308 -1.3896 -0.7978
 7815SOL    HW235082   3.345   0.076   6.089  1.2586  1.1520 -1.3103
 7816SOL     OW35083   2.210   0.944   0.360 -0.1788 -0.4307 -0.0869
 7816SOL    HW135084   2.278   0.994   0.406 -1.4480  1.8252 -0.6730
 7816SOL    HW235085   2.261   0.944   0.279 -0.0262  1.3541 -0.0021
 7817SOL     OW35086   1.462   1.098   8.576  0.5750  0.3440 -0.1027
 7817SOL    HW135087   1.534   1.141   8.532  0.2539  0.1326 -0.8314
 7817SOL    HW235088   1.515   1.069   8.650 -0.3987 -0.3654  0.3221
 7818SOL     OW35089   1.939   2.355  16.386 -0.7741 -0.2692 -0.1786
 7818SOL    HW135090   1.861   2.400  16.355  0.6381  2.0389 -0.3767
 7818SOL    HW235091   1.956   2.393  16.472  2.3155 -1.4302 -0.2678
 7819SOL     OW35092   3.318   4.080   6.267 -0.0825 -0.0069 -0.2515
 7819SOL    HW135093   3.380   4.022   6.224  1.4938  1.4987  0.0170
 7819SOL    HW235094   3.334   4.165   6.228  0.2786  0.3400  0.6605
 7820SOL     OW35095   0.244   0.084   2.654  0.0511 -0.5090  0.4410
 7820SOL    HW135096   0.255   0.105   2.747 -1.1180  1.3232  0.1720
 7820SOL    HW235097   0.317   0.131   2.614 -0.0124  0.0381  0.9584
 7821SOL     OW35098   1.646   0.847   9.396 -0.2090 -0.0939  0.1803
 7821SOL    HW135099   1.593   0.829   9.474 -2.0105  0.3873 -0.9372
 7821SOL    HW235100   1.607   0.781   9.339  2.9434 -1.6860 -0.1440
 7822SOL     OW35101   4.192   4.192   2.875 -0.3759  0.2422  0.3244
 7822SOL    HW135102   4.201   4.132   2.801 -1.4865  0.9658 -0.3967
 7822SOL    HW235103   4.204   4.133   2.949  0.6828 -0.7535 -0.6506
 7823SOL     OW35104   0.370   1.035   0.969  0.9290  0.0773  0.1920
 7823SOL    HW135105   0.438   1.063   1.031  0.5421  0.3943  0.4729
 7823SOL    HW235106   0.385   1.099   0.898  0.1415  1.7734  1.5551
 7824SOL     OW35107   4.039   4.538   8.522 -0.1012 -0.2355 -0.6333
 7824SOL    HW135108   3.963   4.597   8.517  0.5636  0.4809 -2.3563
 7824SOL    HW235109   4.082   4.560   8.604 -0.4802  1.4490 -0.8909
 7825SOL     OW35110   0.562   3.276   3.198 -0.0325 -0.0297 -0.3199
 7825SOL    HW135111   0.646   3.317   3.174 -1.9632  2.8372 -2.2258
 7825SOL    HW235112   0.560   3.214   3.125 -3.1997 -1.6530  1.1981
 7826SOL     OW35113   1.139   1.670   8.906  0.2894  0.5162  0.0936
 7826SOL    HW135114   1.071   1.664   8.838  0.5900 -0.4473 -0.1323
 7826SOL    HW235115   1.118   1.598   8.965 -1.0559 -0.0422 -1.0641
 7827SOL     OW35116   0.186   0.906   2.492 -0.4797  0.2274 -0.3549
 7827SOL    HW135117   0.278   0.908   2.467 -0.3122  0.7013  0.2951
 7827SOL    HW235118   0.186   0.959   2.572 -1.5156 -2.0966  1.1901
 7828SOL     OW35119   4.017   3.697   9.252  0.3971 -0.5656 -0.1092
 7828SOL    HW135120   4.070   3.636   9.303 -1.8083 -1.9457  0.5363
 7828SOL    HW235121   3.949   3.648   9.206 -0.3081  0.4310 -0.1348
 7829SOL     OW35122   0.915   0.744   9.105 -0.3547 -0.0732 -0.4796
 7829SOL    HW135123   0.891   0.769   9.194 -0.8647 -0.8253 -0.4067
 7829SOL    HW235124   0.870   0.815   9.059  0.2777  1.0036  0.5588
 7830SOL     OW35125   3.035   0.429   7.692 -0.1687 -0.1288 -0.0287
 7830SOL    HW135126   3.075   0.425   7.778  0.2926  0.4737 -0.2177
 7830SOL    HW235127   3.102   0.400   7.630 -1.5003 -0.4083 -1.3432
 7831SOL     OW35128   0.290   4.568   3.081  0.0307  0.1517  0.6595
 7831SOL    HW135129   0.233   4.562   3.004 -0.4123  1.5057  0.8851
 7831SOL    HW235130   0.364   4.515   3.051 -0.8852 -0.9507  0.3237
 7832SOL     OW35131   0.688   0.845   2.205 -0.6078  0.0756 -0.1316
 7832SOL    HW135132   0.685   0.907   2.278  0.0703  0.5311 -0.4878
 7832SOL    HW235133   0.611   0.792   2.222 -0.9063  1.1315  1.7983
 7833SOL     OW35134   3.944   4.159  10.326 -0.0539  0.3914 -0.4019
 7833SOL    HW135135   3.950   4.168  10.421  0.1428 -1.3280 -0.2538
 7833SOL    HW235136   3.849   4.163  10.315 -0.0968 -0.0677 -0.2063
 7834SOL     OW35137   1.798   3.643   8.382 -0.0300 -0.0838 -0.2980
 7834SOL    HW135138   1.886   3.641   8.345 -0.4131 -1.2671 -1.1373
 7834SOL    HW235139   1.810   3.720   8.437  0.7029  0.9935 -1.9682
 7835SOL     OW35140   2.319   3.596   2.200 -0.3531  0.5976  0.1823
 7835SOL    HW135141   2.350   3.541   2.128  1.0771  0.8655  0.6083
 7835SOL    HW235142   2.225   3.586   2.182 -0.3557 -1.9597  1.4920
 7836SOL     OW35143   0.359   1.363  16.126 -0.0796  0.0728  0.2962
 7836SOL    HW135144   0.432   1.348  16.185  0.4848 -0.1228 -0.4535
 7836SOL    HW235145   0.311   1.280  16.124  1.3203 -0.6879 -1.9923
 7837SOL     OW35146   2.094   1.565   4.128 -0.6595  0.1862 -0.3635
 7837SOL    HW135147   2.178   1.519   4.133 -0.2900  0.8904 -0.1810
 7837SOL    HW235148   2.098   1.634   4.193 -1.9624 -1.1212  1.1034
 7838SOL     OW35149   0.857   2.829  10.363 -0.0433 -0.2144  0.5097
 7838SOL    HW135150   0.797   2.758  10.342  2.5184 -1.4595 -2.5299
 7838SOL    HW235151   0.844   2.879  10.283  1.3526 -2.4842 -1.1116
 7839SOL     OW35152   1.492   3.695   4.685  0.1261  0.0240 -0.5327
 7839SOL    HW135153   1.473   3.788   4.695  1.2392  0.0595  1.2123
 7839SOL    HW235154   1.530   3.693   4.597  0.2651  2.0503 -0.5211
 7840SOL     OW35155   1.112   2.616   9.725  0.1723 -0.0556 -0.1201
 7840SOL    HW135156   1.177   2.609   9.795  0.3131 -0.9510 -0.3436
 7840SOL    HW235157   1.032   2.586   9.767 -0.4384  3.4988  1.2325
 7841SOL     OW35158   1.746   2.195   4.841  0.5936 -0.3508  0.2566
 7841SOL    HW135159   1.692   2.133   4.889 -0.6103  0.6198  0.1560
 7841SOL    HW235160   1.713   2.172   4.754  0.0800 -2.6387  1.0683
 7842SOL     OW35161   0.964   0.127   2.107 -0.1972  0.1432 -1.0646
 7842SOL    HW135162   0.956   0.052   2.049 -0.9221 -0.4715 -0.1721
 7842SOL    HW235163   0.914   0.105   2.185 -1.9999 -0.3899 -2.3649
 7843SOL     OW35164   2.098   0.367  13.641  0.1012 -0.1432 -0.0911
 7843SOL    HW135165   2.168   0.404  13.696  1.3998 -2.4638 -0.1822
 7843SOL    HW235166   2.147   0.309  13.583 -0.0359 -1.0516  0.6999
 7844SOL     OW35167   1.137   1.556   2.634 -0.0891 -0.2564  0.3851
 7844SOL    HW135168   1.124   1.624   2.700 -0.3691  0.0218  0.0417
 7844SOL    HW235169   1.232   1.565   2.632 -0.4748  3.7623 -0.7317
 7845SOL     OW35170   3.230   1.453  13.385 -0.1162 -0.2245  0.2112
 7845SOL    HW135171   3.193   1.383  13.438  1.3003 -0.2547  1.1720
 7845SOL    HW235172   3.217   1.532  13.438  0.4674 -0.2257  0.3669
 7846SOL     OW35173   2.242   3.820   2.365  0.3151  0.6289 -0.4157
 7846SOL    HW135174   2.286   3.745   2.323  0.1716  0.2663  0.0847
 7846SOL    HW235175   2.170   3.849   2.310  0.3669 -1.5198 -1.6052
 7847SOL     OW35176   3.843   1.751   1.396 -0.1251  0.1151  0.4214
 7847SOL    HW135177   3.874   1.714   1.314 -0.2134  3.3767 -1.1032
 7847SOL    HW235178   3.853   1.678   1.456  0.3329  0.1457  0.3836
 7848SOL     OW35179   3.430   2.415   9.245  0.0003 -0.1740  0.2109
 7848SOL    HW135180   3.418   2.369   9.328 -3.4080  0.7082  0.2039
 7848SOL    HW235181   3.444   2.505   9.274 -0.8720 -0.3040  1.0185
 7849SOL     OW35182   1.805   0.536   5.095  0.4051  0.1404  0.1777
 7849SOL    HW135183   1.766   0.619   5.122  0.5975  1.1527 -2.6927
 7849SOL    HW235184   1.753   0.474   5.148 -0.5028  1.4398  0.8051
 7850SOL     OW35185   0.227   2.204   8.535 -0.4182 -0.3324 -0.4180
 7850SOL    HW135186   0.230   2.139   8.465 -0.1386 -1.2827  0.4647
 7850SOL    HW235187   0.270   2.152   8.603 -0.2124  0.8845  0.3857
 7851SOL     OW35188   2.982   3.814   9.954 -0.0906 -0.2483  0.5009
 7851SOL    HW135189   3.050   3.843   9.893 -0.1647 -0.6479  0.2255
 7851SOL    HW235190   2.955   3.897   9.993 -1.5879 -1.6051  2.3308
 7852SOL     OW35191   0.962   0.326   4.741 -0.2766  0.2706  0.1622
 7852SOL    HW135192   0.880   0.339   4.788  0.1819 -1.5441  1.4320
 7852SOL    HW235193   1.028   0.337   4.809  1.3745 -2.5937 -0.9542
 7853SOL     OW35194   0.484   3.525   4.666  0.4257 -0.0619 -0.1401
 7853SOL    HW135195   0.558   3.578   4.637  0.5568  0.6561  1.5372
 7853SOL    HW235196   0.488   3.542   4.760  0.9714 -1.2800  0.0633
 7854SOL     OW35197   0.066   3.320   7.281 -0.3049 -0.1744 -0.5129
 7854SOL    HW135198   0.033   3.335   7.193 -2.5735  2.0164  0.6879
 7854SOL    HW235199   4.731   3.352   7.337  0.9359  2.8964 -0.6858
 7855SOL     OW35200   2.375   3.306   2.646 -0.0713  0.0148 -0.2626
 7855SOL    HW135201   2.347   3.396   2.629 -1.7349 -0.7106 -1.3044
 7855SOL    HW235202   2.463   3.326   2.679 -0.2724 -1.1985  0.9792
 7856SOL     OW35203   0.265   1.533   4.225  0.0538 -0.3995 -0.1595
 7856SOL    HW135204   0.347   1.578   4.207 -1.3697  1.0245 -3.0969
 7856SOL    HW235205   0.225   1.583   4.296 -0.3599  1.0521 -1.4090
 7857SOL     OW35206   0.878   1.656   8.496 -0.0461 -0.1217 -0.0574
 7857SOL    HW135207   0.946   1.719   8.521  0.4559  0.0293 -1.7841
 7857SOL    HW235208   0.847   1.625   8.581  0.6868 -0.3606  0.1270
 7858SOL     OW35209   4.067   2.168   4.690  0.0326 -0.4451  0.4404
 7858SOL    HW135210   4.152   2.132   4.715  1.0930  1.3065 -0.6237
 7858SOL    HW235211   4.025   2.172   4.775  0.4252 -0.6709  0.6461
 7859SOL     OW35212   3.249   2.077   9.645  0.2592 -0.4665 -0.2252
 7859SOL    HW135213   3.200   2.022   9.584 -0.5643 -0.3957  0.3639
 7859SOL    HW235214   3.237   2.162   9.602  2.0371 -0.7828 -1.3291
 7860SOL     OW35215   3.595   0.941  10.226  0.3357  0.5344  0.3052
 7860SOL    HW135216   3.650   1.003  10.273  1.5336 -0.6005  0.4019
 7860SOL    HW235217   3.613   0.972  10.137 -1.0027  1.5397  0.3935
 7861SOL     OW35218   3.390   3.123  16.245  0.6520  0.2532 -0.1887
 7861SOL    HW135219   3.393   3.211  16.208 -2.4599  0.5215  0.1776
 7861SOL    HW235220   3.295   3.109  16.253  0.7277 -1.6070 -2.4452
 7862SOL     OW35221   2.391   1.008   0.108  0.5495 -0.4487 -0.2697
 7862SOL    HW135222   2.477   1.004   0.149  1.5587  0.7674 -2.2371
 7862SOL    HW235223   2.401   0.945   0.036 -0.4749 -1.8593  0.8139
 7863SOL     OW35224   2.093   0.325   4.634 -0.8077  0.3866  0.0487
 7863SOL    HW135225   2.093   0.230   4.626  0.6522  0.4706 -1.0595
 7863SOL    HW235226   2.088   0.330   4.730 -2.1846 -3.0593  0.1672
 7864SOL     OW35227   2.166   4.302  15.082  0.1616 -0.7517  0.2798
 7864SOL    HW135228   2.173   4.301  14.986 -2.1580  2.4956  0.0859
 7864SOL    HW235229   2.072   4.313  15.091  0.3086  0.1435  0.7213
 7865SOL     OW35230   4.527   2.111   3.485 -0.0388 -0.1992  0.1936
 7865SOL    HW135231   4.610   2.063   3.488 -0.2579 -0.6621 -0.9530
 7865SOL    HW235232   4.536   2.163   3.565  0.0683  0.4381 -0.2350
 7866SOL     OW35233   4.071   2.844   2.195 -0.5193  0.0125  0.3280
 7866SOL    HW135234   4.156   2.833   2.237  0.7361 -1.2288 -2.5281
 7866SOL    HW235235   4.028   2.760   2.211 -0.7227  0.2324  0.9259
 7867SOL     OW35236   0.305   3.316  16.306  0.2412 -0.0439  0.2303
 7867SOL    HW135237   0.367   3.254  16.268 -1.6277 -1.4146 -0.5628
 7867SOL    HW235238   0.371   3.373  16.345 -0.0344 -0.0254  0.6738
 7868SOL     OW35239   4.541   0.845   0.671 -0.0980  0.1040  0.3847
 7868SOL    HW135240   4.448   0.833   0.653 -0.5671  0.5741  2.4370
 7868SOL    HW235241   4.573   0.873   0.585  0.7383 -2.1039 -0.0219
 7869SOL     OW35242   4.162   4.705  16.217  0.0891 -0.3985  0.0161
 7869SOL    HW135243   4.123   0.002  16.298  1.7273 -1.7271  1.3419
 7869SOL    HW235244   4.215   0.043  16.186 -1.3093 -0.2153 -1.9395
 7870SOL     OW35245   1.081   3.403   5.983  0.2457 -0.1951 -0.3523
 7870SOL    HW135246   1.168   3.370   6.005 -0.4721 -1.8242 -0.0200
 7870SOL    HW235247   1.094   3.498   5.988 -0.9654  0.0274 -1.4175
 7871SOL     OW35248   3.666   1.994  13.372  0.3848  0.1141 -0.0700
 7871SOL    HW135249   3.753   2.032  13.366  0.7014 -0.4173  1.1099
 7871SOL    HW235250   3.691   1.928  13.437 -1.0802  0.3544  0.7273
 7872SOL     OW35251   4.673   3.508   9.546  0.2378  0.1329 -0.1627
 7872SOL    HW135252   4.677   3.567   9.470 -0.0773  0.4885  0.0927
 7872SOL    HW235253   4.578   3.499   9.553  0.2093  0.2489 -0.4141
 7873SOL     OW35254   0.104   4.011   8.069  0.3523 -0.1240  0.4433
 7873SOL    HW135255   0.028   4.005   8.011  0.5010 -0.1892  0.2554
 7873SOL    HW235256   0.054   4.019   8.151 -0.1366 -0.4712  0.1771
 7874SOL     OW35257   2.365   1.689   7.059 -0.5447  0.4309 -0.3385
 7874SOL    HW135258   2.417   1.761   7.023 -2.9266  0.9379 -2.8042
 7874SOL    HW235259   2.418   1.616   7.028 -0.5603  0.8595 -1.3647
 7875SOL     OW35260   2.992   2.065  17.200 -0.4026 -0.2307 -0.1345
 7875SOL    HW135261   3.056   2.070  17.129 -0.5895  0.4999 -0.2565
 7875SOL    HW235262   3.021   1.985  17.242  0.6399 -1.4024 -3.1084
 7876SOL     OW35263   3.679   0.487  13.045 -0.2812  0.4666 -0.3909
 7876SOL    HW135264   3.691   0.392  13.052  0.9364  0.7248  0.9755
 7876SOL    HW235265   3.742   0.521  13.108  0.2793 -0.4748 -0.4377
 7877SOL     OW35266   1.059   2.026   2.859 -0.4228  0.2589  0.1451
 7877SOL    HW135267   1.132   1.967   2.836 -1.3352 -0.9240  0.2671
 7877SOL    HW235268   1.104   2.092   2.911  2.2823 -0.2579 -1.5372
 7878SOL     OW35269   0.977   2.113   4.761 -0.0408  0.0541 -0.1774
 7878SOL    HW135270   0.957   2.055   4.834 -1.3093 -0.0855 -0.6314
 7878SOL    HW235271   1.055   2.072   4.725  0.0404  0.3362 -0.3241
 7879SOL     OW35272   0.877   4.003   1.506  0.1114 -0.2527  0.2581
 7879SOL    HW135273   0.940   4.072   1.528 -0.3311  0.3340 -0.3522
 7879SOL    HW235274   0.866   3.966   1.594 -2.3863 -0.5063 -0.1772
 7880SOL     OW35275   1.019   2.164   8.647 -0.0652 -0.0934 -0.0054
 7880SOL    HW135276   1.084   2.224   8.684  1.2233 -2.5901  1.7592
 7880SOL    HW235277   1.039   2.087   8.700 -1.9162 -1.5834 -1.4741
 7881SOL     OW35278   2.570   1.989   2.821 -0.1492 -0.2080 -0.0793
 7881SOL    HW135279   2.642   2.024   2.769 -1.2802  0.9339 -0.8717
 7881SOL    HW235280   2.539   2.072   2.856 -2.4695 -1.0526 -0.0903
 7882SOL     OW35281   4.587   1.775   8.800  0.8220  0.0352 -1.0341
 7882SOL    HW135282   4.516   1.711   8.796 -0.7061  1.7902 -1.9593
 7882SOL    HW235283   4.610   1.776   8.707  0.3048  0.7072 -1.1585
 7883SOL     OW35284   4.613   1.756   6.766  0.3220 -0.0593  0.2207
 7883SOL    HW135285   4.560   1.718   6.835 -0.0744  1.4026  0.7129
 7883SOL    HW235286   4.692   1.779   6.814  0.2588  0.6337 -0.0063
 7884SOL     OW35287   3.637   0.871   2.131 -0.1475  0.0793  0.0157
 7884SOL    HW135288   3.731   0.889   2.140 -0.1807  0.2702 -0.0077
 7884SOL    HW235289   3.645   0.806   2.062 -0.4690 -0.1322  0.1770
 7885SOL     OW35290   3.658   0.459   2.195 -0.0702 -0.0400  0.5044
 7885SOL    HW135291   3.639   0.365   2.197 -1.2253  0.1901  1.0599
 7885SOL    HW235292   3.568   0.488   2.183  0.6246  1.3305 -1.1821
 7886SOL     OW35293   0.180   3.671   8.049 -0.1183 -0.4557 -0.0523
 7886SOL    HW135294   0.090   3.693   8.073  0.1674  1.7902 -0.9362
 7886SOL    HW235295   0.217   3.656   8.136  1.7952 -0.0163 -0.7935
 7887SOL     OW35296   0.867   0.390   2.950  0.0444 -0.2802  0.4423
 7887SOL    HW135297   0.838   0.443   2.876  0.2958 -0.1128  0.4616
 7887SOL    HW235298   0.948   0.357   2.910  0.1181 -2.0962  2.0565
 7888SOL     OW35299   1.175   1.145  14.385 -0.7639  0.1363 -0.0143
 7888SOL    HW135300   1.180   1.179  14.474 -0.6512  1.5359 -0.5529
 7888SOL    HW235301   1.080   1.152  14.375 -0.8380 -0.0540  0.6008
 7889SOL     OW35302   3.034   0.128  12.894 -0.1055 -0.4896  0.0261
 7889SOL    HW135303   2.991   0.082  12.965 -2.0194  2.5861  0.8538
 7889SOL    HW235304   2.988   0.102  12.814  1.2676  0.4206 -1.0646
 7890SOL     OW35305   4.632   4.174   3.882  0.9659 -0.3596  0.9050
 7890SOL    HW135306   4.639   4.215   3.968  3.0512 -0.2808  0.6927
 7890SOL    HW235307   4.623   4.083   3.911  3.0087 -1.6048 -2.3510
 7891SOL     OW35308   2.527   3.882   7.174 -0.3841  0.7426 -0.6695
 7891SOL    HW135309   2.588   3.943   7.131  2.2104  0.5680  2.8062
 7891SOL    HW235310   2.498   3.937   7.247 -0.6819  2.7614 -2.2890
 7892SOL     OW35311   1.028   0.266   2.400 -0.9218 -0.0576 -0.3256
 7892SOL    HW135312   1.037   0.270   2.305 -0.5867  0.8310 -0.2620
 7892SOL    HW235313   1.069   0.349   2.425 -2.0364 -0.1963  1.9855
 7893SOL     OW35314   0.500   1.545  13.136  0.6081 -0.0333  0.1551
 7893SOL    HW135315   0.492   1.593  13.053  0.5568 -1.4861 -0.6835
 7893SOL    HW235316   0.415   1.561  13.178  1.4050  2.1511  0.8873
 7894SOL     OW35317   1.308   1.213   9.572 -0.4351  0.3059 -0.4579
 7894SOL    HW135318   1.360   1.211   9.492 -0.2379 -0.4480 -0.3120
 7894SOL    HW235319   1.245   1.143   9.552 -2.0382  0.6812  3.2779
 7895SOL     OW35320   1.138   1.917   3.775 -0.0232 -0.4813  0.0730
 7895SOL    HW135321   1.219   1.959   3.807  0.1056 -1.0889  0.5444
 7895SOL    HW235322   1.162   1.930   3.683 -0.2618  0.2215  0.1043
 7896SOL     OW35323   0.747   1.808   7.359  0.3507 -0.0922  0.0653
 7896SOL    HW135324   0.705   1.741   7.412  0.1037  0.6034  0.7479
 7896SOL    HW235325   0.838   1.779   7.358  0.3669 -0.0101 -0.8430
 7897SOL     OW35326   1.580   3.298   9.449 -0.3070 -0.2866 -0.1100
 7897SOL    HW135327   1.531   3.241   9.509  1.9289 -1.2034  0.8615
 7897SOL    HW235328   1.648   3.324   9.512  0.2379 -1.1666 -0.3320
 7898SOL     OW35329   2.336   2.495   2.385  0.1296  0.0462 -0.3413
 7898SOL    HW135330   2.397   2.465   2.318 -0.9811 -0.6680 -1.0306
 7898SOL    HW235331   2.385   2.561   2.434  3.2939 -1.3146 -1.7254
 7899SOL     OW35332   3.847   3.561   1.651  0.0305 -0.2001 -0.1574
 7899SOL    HW135333   3.805   3.638   1.687  0.9582  0.3229 -0.1863
 7899SOL    HW235334   3.913   3.605   1.596  0.3607  0.8579  1.0930
 7900SOL     OW35335   0.061   2.741   6.050 -0.2248 -0.3037  0.0478
 7900SOL    HW135336   4.733   2.790   5.999 -0.4811 -1.0673 -0.3612
 7900SOL    HW235337   0.111   2.698   5.981  2.3182  1.2978  0.8737
 7901SOL     OW35338   2.919   2.625   6.090 -0.3526 -0.5066  0.3037
 7901SOL    HW135339   2.823   2.623   6.094 -0.3264 -1.0903  0.6086
 7901SOL    HW235340   2.927   2.557   6.024  1.5759 -0.6121  0.6524
 7902SOL     OW35341   2.856   1.412   6.304  0.1407  0.2053  0.4397
 7902SOL    HW135342   2.936   1.454   6.273  0.5999 -0.4038  0.8113
 7902SOL    HW235343   2.816   1.407   6.217 -0.2621  2.3183  0.5021
 7903SOL     OW35344   0.522   4.726   7.502  0.0625 -0.2615  0.1932
 7903SOL    HW135345   0.483   0.039   7.429  1.6696 -0.4616 -0.7959
 7903SOL    HW235346   0.526   4.636   7.470 -1.3604  0.2092 -1.3340
 7904SOL     OW35347   0.399   0.753  17.479  0.1039 -0.5011  0.3554
 7904SOL    HW135348   0.381   0.839  17.440  0.6151 -1.0326 -1.0091
 7904SOL    HW235349   0.310   0.720  17.472  0.0004 -0.1695  0.1288
 7905SOL     OW35350   1.512   2.301   9.408  0.2767  0.2796 -0.5921
 7905SOL    HW135351   1.562   2.373   9.447 -0.0311  0.3722 -0.3732
 7905SOL    HW235352   1.432   2.312   9.458 -0.1500  2.3927 -1.7607
 7906SOL     OW35353   0.253   3.790  15.152  0.4973  0.1251  0.3133
 7906SOL    HW135354   0.227   3.836  15.072  2.4083 -0.3596 -0.5976
 7906SOL    HW235355   0.285   3.867  15.197 -2.6470  1.1282  0.8126
 7907SOL     OW35356   0.918   3.246   9.114 -0.5437  0.0507 -0.5377
 7907SOL    HW135357   0.916   3.288   9.028 -0.2256  2.0990  0.4604
 7907SOL    HW235358   0.831   3.205   9.109  0.3582 -1.7798 -1.3506
 7908SOL     OW35359   3.807   0.745   4.479 -0.1867 -0.0836  0.7845
 7908SOL    HW135360   3.746   0.793   4.422 -1.8520 -0.1664  2.4881
 7908SOL    HW235361   3.746   0.672   4.493  1.5953 -1.8309 -0.4832
 7909SOL     OW35362   3.005   3.164  15.739  0.8638  0.6032 -0.3532
 7909SOL    HW135363   3.032   3.156  15.831  0.2103 -0.4032 -0.2430
 7909SOL    HW235364   2.931   3.223  15.748 -0.1884 -1.0691  2.0969
 7910SOL     OW35365   1.697   2.733   7.928  0.8026  0.4382  0.1487
 7910SOL    HW135366   1.784   2.771   7.938  1.3625 -1.6044  3.1148
 7910SOL    HW235367   1.696   2.660   7.990  0.4718  2.3752  2.4468
 7911SOL     OW35368   3.869   0.719   7.661 -0.1435  1.2492  0.1762
 7911SOL    HW135369   3.876   0.694   7.754  3.8219 -2.2327 -1.0590
 7911SOL    HW235370   3.774   0.706   7.655 -0.1447  0.6264  1.3367
 7912SOL     OW35371   3.728   1.455  13.153 -0.4003  0.3564 -0.0924
 7912SOL    HW135372   3.818   1.424  13.160 -1.3343 -2.1530  0.7302
 7912SOL    HW235373   3.709   1.494  13.238 -2.2700  1.5460 -1.0363
 7913SOL     OW35374   4.632   3.454   8.902  0.4135  0.3742  0.0736
 7913SOL    HW135375   4.555   3.510   8.900  0.4984  0.5042  0.4089
 7913SOL    HW235376   4.604   3.377   8.853  2.8267 -1.3097  1.3292
 7914SOL     OW35377   1.716   2.724  14.320  0.0120  0.6667 -0.0177
 7914SOL    HW135378   1.654   2.703  14.391  0.6142 -2.4203 -0.3715
 7914SOL    HW235379   1.787   2.670  14.355  0.1694  0.8479 -0.0615
 7915SOL     OW35380   4.515   1.732   0.744 -0.3282  0.3229  0.2235
 7915SOL    HW135381   4.592   1.788   0.736  0.5376 -1.0861 -1.4139
 7915SOL    HW235382   4.526   1.682   0.825  0.6449  0.6966  0.3287
 7916SOL     OW35383   4.321   4.178   5.307  0.3344  0.4198 -0.5676
 7916SOL    HW135384   4.232   4.144   5.295 -0.0557  1.5118 -0.7708
 7916SOL    HW235385   4.325   4.220   5.393 -2.3849 -0.5745  0.0505
 7917SOL     OW35386   2.839   1.075   5.715 -0.0239 -0.1784 -0.2391
 7917SOL    HW135387   2.758   1.113   5.678 -0.1501  0.7530  0.9885
 7917SOL    HW235388   2.821   0.982   5.711  1.7023 -0.5315  0.2541
 7918SOL     OW35389   4.057   4.276   1.933  0.2787 -1.0590  0.5582
 7918SOL    HW135390   4.059   4.346   1.999 -2.7407 -0.8100  0.3686
 7918SOL    HW235391   4.067   4.208   2.000 -1.7285 -1.5909  0.3061
 7919SOL     OW35392   2.952   3.643   8.329 -0.1619 -0.0332 -0.0647
 7919SOL    HW135393   3.007   3.684   8.262 -0.1874  0.4592  0.2123
 7919SOL    HW235394   2.972   3.693   8.408  0.1402 -0.7785  0.3378
 7920SOL     OW35395   4.226   1.286   6.172  0.2708  0.0790 -0.0716
 7920SOL    HW135396   4.172   1.251   6.243  3.0409  2.4570  3.2951
 7920SOL    HW235397   4.161   1.299   6.103  1.6854 -2.0734 -1.7831
 7921SOL     OW35398   4.559   4.540   2.542 -0.4018  0.0140  0.1504
 7921SOL    HW135399   4.504   4.486   2.599 -0.8224 -0.1028 -0.3732
 7921SOL    HW235400   4.493   4.582   2.488 -3.0513  0.0809  3.4233
 7922SOL     OW35401   1.409   2.086   0.654 -0.5696 -0.0369  0.4544
 7922SOL    HW135402   1.344   2.024   0.687 -1.3331  2.3255  3.4065
 7922SOL    HW235403   1.421   2.064   0.562 -2.2583 -2.6522  0.8420
 7923SOL     OW35404   3.609   1.218   0.771 -0.3505 -0.1634 -0.0325
 7923SOL    HW135405   3.554   1.264   0.835  0.4495 -0.0556  0.5686
 7923SOL    HW235406   3.540   1.178   0.718 -0.1840 -0.2761 -0.1613
 7924SOL     OW35407   4.311   1.433   9.451  0.5765  0.1403  0.1465
 7924SOL    HW135408   4.217   1.418   9.465  0.3979  1.7785  0.6024
 7924SOL    HW235409   4.339   1.452   9.540 -2.1013  1.0476  0.8072
 7925SOL     OW35410   0.203   4.000   2.754  0.0619 -0.3098  0.0144
 7925SOL    HW135411   0.251   4.076   2.789  1.1442 -0.8505 -0.2970
 7925SOL    HW235412   0.254   3.928   2.791  0.1318  0.6310  1.7689
 7926SOL     OW35413   1.809   4.030   4.590  0.8226 -0.5957 -0.8269
 7926SOL    HW135414   1.877   4.055   4.653 -0.2456 -1.3807  0.6504
 7926SOL    HW235415   1.769   3.952   4.630 -0.1381 -0.2072 -1.0325
 7927SOL     OW35416   3.782   3.752   2.273 -0.4649  0.1390  0.6120
 7927SOL    HW135417   3.868   3.762   2.314  0.6671 -0.4326 -1.5727
 7927SOL    HW235418   3.763   3.661   2.297  0.4269 -0.0333  0.6601
 7928SOL     OW35419   4.211   1.954  15.044  0.4927  0.3732  0.2827
 7928SOL    HW135420   4.291   1.988  15.003 -0.8475  1.0498 -1.7582
 7928SOL    HW235421   4.175   2.032  15.086 -0.3622 -0.2320  0.6727
 7929SOL     OW35422   2.572   4.398   5.363 -0.2813  0.0382 -0.1092
 7929SOL    HW135423   2.552   4.442   5.446  0.4102  0.0086  0.0707
 7929SOL    HW235424   2.609   4.316   5.395 -2.6676 -0.5388  1.1612
 7930SOL     OW35425   0.311   3.542   7.146  0.3631 -0.0369 -0.0050
 7930SOL    HW135426   0.267   3.463   7.174 -0.1746  0.1330 -0.3633
 7930SOL    HW235427   0.280   3.610   7.206  0.2915 -0.8402  0.8561
 7931SOL     OW35428   2.891   3.713   3.856  0.1786  0.1369  0.3011
 7931SOL    HW135429   2.935   3.789   3.895  0.1536  0.2182  0.1739
 7931SOL    HW235430   2.846   3.673   3.930 -1.6282  0.0908 -0.8249
 7932SOL     OW35431   2.333   3.602  11.014  0.1644  0.4112  0.1396
 7932SOL    HW135432   2.365   3.633  11.099  2.5178 -1.2770 -0.1316
 7932SOL    HW235433   2.293   3.524  11.051  0.2665  0.3266  0.0712
 7933SOL     OW35434   4.222   2.120   9.327 -0.0350 -0.2501 -0.0743
 7933SOL    HW135435   4.261   2.205   9.344  1.4834 -0.7313 -1.1028
 7933SOL    HW235436   4.270   2.091   9.249 -1.8003 -0.8169 -0.9770
 7934SOL     OW35437   0.768   2.057   5.197 -0.0971 -0.1840 -0.0546
 7934SOL    HW135438   0.774   1.989   5.263  2.2348  0.0724 -0.0095
 7934SOL    HW235439   0.848   2.039   5.148  0.8191 -0.0169  1.3957
 7935SOL     OW35440   3.468   2.078   7.596 -0.3288  0.3946 -0.6859
 7935SOL    HW135441   3.483   2.049   7.686 -0.4731  1.0873 -0.4453
 7935SOL    HW235442   3.418   2.004   7.561 -1.9885  1.1296  0.1531
 7936SOL     OW35443   0.067   3.665   6.920 -0.0911 -0.7395  0.0997
 7936SOL    HW135444   0.049   3.705   7.005  1.8860 -0.9980  0.6332
 7936SOL    HW235445   0.162   3.671   6.917 -0.2446  0.6478 -1.7178
 7937SOL     OW35446   1.438   1.088   3.501 -0.2021 -0.3318 -0.4147
 7937SOL    HW135447   1.485   1.024   3.448 -0.4547  1.1525 -2.4147
 7937SOL    HW235448   1.372   1.122   3.440  0.1442  1.2696  0.1086
 7938SOL     OW35449   3.113   0.786  16.957  0.3116 -0.0342  0.2938
 7938SOL    HW135450   3.095   0.815  16.867  1.9484  1.9785  0.6203
 7938SOL    HW235451   3.196   0.826  16.981  1.1427 -2.6739  1.8378
 7939SOL     OW35452   1.469   4.543  17.710 -0.1313 -0.3219  0.1336
 7939SOL    HW135453   1.548   4.596  17.714 -0.6043  0.3335  0.9075
 7939SOL    HW235454   1.402   4.612  17.706 -0.2990 -0.6130 -2.3703
 7940SOL     OW35455   3.865   2.691   8.921  0.3297  0.0424 -0.1309
 7940SOL    HW135456   3.910   2.613   8.953  0.1316  0.6141  1.5040
 7940SOL    HW235457   3.805   2.688   8.995 -1.0898  1.9592 -1.1935
 7941SOL     OW35458   0.532   0.232   9.698 -0.3096  1.1124  0.2249
 7941SOL    HW135459   0.519   0.137   9.696  1.9237  0.8032 -0.1491
 7941SOL    HW235460   0.620   0.241   9.660 -1.1790  0.5198 -1.9477
 7942SOL     OW35461   2.252   0.075  14.571  0.8691 -0.3041  0.4385
 7942SOL    HW135462   2.216   0.091  14.658 -0.6169 -1.3234 -0.0110
 7942SOL    HW235463   2.259   0.165  14.538  0.0062  0.5459  2.5239
 7943SOL     OW35464   1.856   0.696   2.734  0.2008 -0.4061 -0.5217
 7943SOL    HW135465   1.876   0.771   2.679  1.8054 -0.4302  0.0471
 7943SOL    HW235466   1.935   0.688   2.788 -1.1450  0.9612  1.6486
 7944SOL     OW35467   0.215   4.235   8.444  0.1569 -0.6945 -0.0896
 7944SOL    HW135468   0.219   4.330   8.437 -0.5361 -0.5019  1.8853
 7944SOL    HW235469   0.221   4.220   8.350 -0.4031 -0.7751 -0.1143
 7945SOL     OW35470   2.085   2.420   6.782 -0.3895  0.5699 -0.3042
 7945SOL    HW135471   2.100   2.336   6.826  3.0330  1.7502  0.7184
 7945SOL    HW235472   2.133   2.409   6.700 -0.2746  0.4445 -0.2198
 7946SOL     OW35473   3.549   2.997  11.705  0.3109 -0.0712  0.5246
 7946SOL    HW135474   3.624   2.938  11.693  0.3846  0.4512 -1.5946
 7946SOL    HW235475   3.527   3.003  11.612  1.2670 -0.5071  0.2614
 7947SOL     OW35476   2.719   0.187  12.995  0.0343  0.0643  0.1431
 7947SOL    HW135477   2.746   0.099  13.020 -1.2046 -0.5451 -0.6646
 7947SOL    HW235478   2.664   0.210  13.071  1.4579 -0.8002  1.4178
 7948SOL     OW35479   0.999   4.504   7.615  0.2096  0.2392  0.4245
 7948SOL    HW135480   0.906   4.508   7.639 -0.2341  0.3799 -1.3475
 7948SOL    HW235481   1.034   4.571   7.674 -0.2569  0.8865 -0.0319
 7949SOL     OW35482   0.035   1.575  11.991  0.1799  0.4171  0.0066
 7949SOL    HW135483   0.001   1.607  11.907 -1.4595  0.6992  0.7818
 7949SOL    HW235484   0.020   1.653  12.044 -2.3933  0.1061 -0.2423
 7950SOL     OW35485   2.580   2.504  10.850  0.6292 -0.7428 -0.5724
 7950SOL    HW135486   2.606   2.517  10.759 -0.8279 -1.4110 -1.0859
 7950SOL    HW235487   2.627   2.573  10.897  1.9703 -1.4543 -0.8781
 7951SOL     OW35488   3.609   2.637   6.349 -0.3740 -0.0342  0.1562
 7951SOL    HW135489   3.600   2.542   6.350  0.2972 -0.0982 -0.2509
 7951SOL    HW235490   3.538   2.673   6.403 -1.0692 -0.1957 -0.6563
 7952SOL     OW35491   3.390   3.491   3.289 -0.3855 -0.2593  0.5596
 7952SOL    HW135492   3.432   3.517   3.371 -0.7745  1.9024  0.0503
 7952SOL    HW235493   3.463   3.495   3.227  1.0510 -1.0750  2.1965
 7953SOL     OW35494   1.492   4.068   1.816  0.4442  0.1396 -0.4760
 7953SOL    HW135495   1.418   4.035   1.866 -1.4777  1.7204 -2.2669
 7953SOL    HW235496   1.492   4.158   1.847  0.8594  0.0181 -0.1230
 7954SOL     OW35497   0.937   0.331   1.596 -0.3006 -0.4976 -0.0333
 7954SOL    HW135498   0.921   0.241   1.627 -0.3827 -0.5033 -0.0926
 7954SOL    HW235499   0.906   0.331   1.506  0.4126  1.3451 -0.2740
 7955SOL     OW35500   0.247   2.250   5.106 -0.7517  0.2487 -0.2253
 7955SOL    HW135501   0.254   2.344   5.122  0.0623  0.2585 -0.6776
 7955SOL    HW235502   0.329   2.225   5.148 -1.3761 -0.7703  0.4010
 7956SOL     OW35503   3.658   4.013   3.069 -0.5101  0.1330  0.3742
 7956SOL    HW135504   3.584   3.958   3.097 -1.5386  1.1012 -0.4412
 7956SOL    HW235505   3.705   3.947   3.018 -0.9966 -0.6826  0.9675
 7957SOL     OW35506   1.748   0.139   7.848  0.0733  0.2198  0.0975
 7957SOL    HW135507   1.653   0.142   7.839 -0.1001 -0.8080  1.3902
 7957SOL    HW235508   1.750   0.096   7.934 -1.6357 -2.7383 -1.3263
 7958SOL     OW35509   3.752   2.808   3.963  0.9726 -0.4455 -0.3217
 7958SOL    HW135510   3.741   2.791   3.869  1.1047 -1.2345 -0.1905
 7958SOL    HW235511   3.671   2.778   4.002 -0.6068  1.1900 -2.2972
 7959SOL     OW35512   2.840   2.784  15.237  0.3429 -0.3944 -0.2214
 7959SOL    HW135513   2.916   2.744  15.278  0.8160  0.3144 -0.4169
 7959SOL    HW235514   2.787   2.705  15.222  0.0669 -0.2678  0.0980
 7960SOL     OW35515   4.190   2.408   6.360 -0.7180 -0.0210  0.1122
 7960SOL    HW135516   4.177   2.314   6.348 -1.2116  0.0903 -0.1803
 7960SOL    HW235517   4.107   2.449   6.336  0.1269  2.8916  2.2476
 7961SOL     OW35518   1.981   3.782   2.841 -0.2384  0.0909  0.0593
 7961SOL    HW135519   2.070   3.806   2.867 -0.5578 -1.1125  2.2047
 7961SOL    HW235520   1.945   3.861   2.799 -2.8844 -0.9892  0.3151
 7962SOL     OW35521   2.995   2.427   9.382 -0.1722  0.0547  0.0203
 7962SOL    HW135522   3.053   2.400   9.312 -0.9241 -0.6025 -0.3470
 7962SOL    HW235523   2.983   2.518   9.354 -1.1280 -0.3455 -0.8822
 7963SOL     OW35524   2.487   4.092   9.227  0.5687  0.1312  0.0782
 7963SOL    HW135525   2.426   4.127   9.291 -0.6725 -1.2576 -0.3488
 7963SOL    HW235526   2.501   4.013   9.281  1.6249  1.6226  1.9899
 7964SOL     OW35527   1.609   4.670   6.835 -0.5501 -0.0919  1.0042
 7964SOL    HW135528   1.592   4.732   6.905 -0.1048  0.8142  0.3123
 7964SOL    HW235529   1.677   4.711   6.781 -2.1580 -0.6774 -1.4529
 7965SOL     OW35530   0.441   4.479  15.377 -0.2431  0.3290 -0.1419
 7965SOL    HW135531   0.402   4.556  15.419 -1.5705 -1.8406  2.6371
 7965SOL    HW235532   0.438   4.521  15.292 -1.9903  1.1836  0.3294
 7966SOL     OW35533   3.057   1.835  17.324 -0.0503 -0.1345  0.0003
 7966SOL    HW135534   3.111   1.756  17.325 -0.3502 -0.3623 -2.6477
 7966SOL    HW235535   2.972   1.797  17.302 -0.0779  0.0714 -0.2467
 7967SOL     OW35536   3.387   2.591  12.781  0.2957 -0.3659  0.7083
 7967SOL    HW135537   3.335   2.511  12.794  2.8084 -1.9968  0.7888
 7967SOL    HW235538   3.317   2.655  12.784  1.8839  1.3617  0.8861
 7968SOL     OW35539   1.923   3.483   6.479 -0.5970 -0.3111  0.0165
 7968SOL    HW135540   1.840   3.477   6.527 -1.5221 -0.3452 -1.5589
 7968SOL    HW235541   1.980   3.434   6.537 -0.8269 -1.2381 -0.5407
 7969SOL     OW35542   3.560   2.028  16.500  0.0306 -0.0305  0.4849
 7969SOL    HW135543   3.575   1.943  16.542  0.7468 -0.2530 -0.2256
 7969SOL    HW235544   3.645   2.070  16.514 -0.3433  0.0702  2.4306
 7970SOL     OW35545   4.288   4.092   7.084 -0.1028  0.0781  0.3972
 7970SOL    HW135546   4.365   4.136   7.121 -1.0072  1.0966  1.0406
 7970SOL    HW235547   4.290   4.113   6.990 -0.5717  1.4347  0.6874
 7971SOL     OW35548   0.351   1.101   7.256  0.1282  0.4662 -0.2873
 7971SOL    HW135549   0.303   1.128   7.178  0.0192  2.9098  0.6378
 7971SOL    HW235550   0.342   1.006   7.268  1.2218  0.3119 -0.6955
 7972SOL     OW35551   1.546   3.304  10.534 -0.3365  0.2224 -0.0815
 7972SOL    HW135552   1.559   3.215  10.502  2.7145  0.5677  0.1772
 7972SOL    HW235553   1.525   3.349  10.452  1.3367 -1.4383 -1.4013
 7973SOL     OW35554   3.975   3.648   3.940  0.1063  0.1646  0.3420
 7973SOL    HW135555   3.944   3.732   3.974 -1.2160 -1.0299  2.1102
 7973SOL    HW235556   3.901   3.587   3.947  0.5665 -0.6459 -1.8785
 7974SOL     OW35557   0.354   3.119  14.575 -0.5373  0.0006  0.3113
 7974SOL    HW135558   0.300   3.138  14.499  1.7770 -1.2920 -1.6467
 7974SOL    HW235559   0.424   3.182  14.558  0.2969 -1.3669 -1.2844
 7975SOL     OW35560   2.920   2.081  16.317  0.2899  0.0427 -0.1450
 7975SOL    HW135561   2.903   2.156  16.260 -0.9701 -0.8145 -0.9008
 7975SOL    HW235562   2.834   2.064  16.354 -0.3224  2.6861 -0.3514
 7976SOL     OW35563   1.048   4.182  16.781  0.0529  0.3267  0.8929
 7976SOL    HW135564   1.099   4.153  16.705  0.3264 -0.8567  1.5300
 7976SOL    HW235565   1.003   4.257  16.741  0.5156 -0.7132 -1.5918
 7977SOL     OW35566   1.361   0.128   5.144  0.1078  0.0130 -0.3124
 7977SOL    HW135567   1.409   0.108   5.224 -1.8584  1.5788  1.2479
 7977SOL    HW235568   1.382   0.221   5.134  2.4244 -0.4397  0.3684
 7978SOL     OW35569   4.320   2.778   2.323 -0.4382 -0.3093  0.0761
 7978SOL    HW135570   4.403   2.746   2.287  0.4521  1.6273  0.4170
 7978SOL    HW235571   4.327   2.760   2.416 -0.9923  1.5520  0.4865
 7979SOL     OW35572   4.577   2.100   9.864 -0.0681 -0.3017 -0.2715
 7979SOL    HW135573   4.598   2.086   9.771 -0.1978 -1.5796 -0.1134
 7979SOL    HW235574   4.491   2.058   9.865  0.2231 -0.6950  6.2654
 7980SOL     OW35575   0.661   4.247   4.439 -0.2148 -0.3698 -0.5805
 7980SOL    HW135576   0.637   4.229   4.530  1.0124  2.6143  0.3181
 7980SOL    HW235577   0.591   4.307   4.416 -2.0269 -2.3430 -0.2156
 7981SOL     OW35578   1.222   2.522   4.297 -0.3353  0.1164  0.5862
 7981SOL    HW135579   1.133   2.495   4.321 -0.6916  1.3603  0.6397
 7981SOL    HW235580   1.200   2.611   4.269  0.4179  0.4054  0.9213
 7982SOL     OW35581   1.643   0.802   7.685 -0.0584 -0.1987 -0.4772
 7982SOL    HW135582   1.658   0.843   7.599 -0.1284 -1.2721 -1.0019
 7982SOL    HW235583   1.626   0.882   7.734 -0.8022 -0.9101  0.4078
 7983SOL     OW35584   2.352   4.490   7.547 -0.5082  0.2103 -0.0315
 7983SOL    HW135585   2.419   4.553   7.575 -0.4006 -0.0188  0.2178
 7983SOL    HW235586   2.299   4.488   7.627 -0.8242 -2.2418 -0.3125
 7984SOL     OW35587   1.681   2.597  15.881 -0.3420 -0.2951 -0.3828
 7984SOL    HW135588   1.678   2.648  15.800  0.4064 -0.5736 -0.5871
 7984SOL    HW235589   1.775   2.587  15.893 -0.0906  2.3285 -0.1951
 7985SOL     OW35590   4.181   3.502   8.717  0.1696 -0.0720  0.1417
 7985SOL    HW135591   4.110   3.490   8.654 -1.9479 -0.1158  2.5524
 7985SOL    HW235592   4.151   3.437   8.781 -0.2220 -2.0305 -2.0213
 7986SOL     OW35593   2.494   3.119  13.796 -0.4177 -0.1916 -0.3627
 7986SOL    HW135594   2.418   3.168  13.766  0.1752 -0.6505 -2.6466
 7986SOL    HW235595   2.468   3.028  13.779 -1.4273  0.4146 -2.1125
 7987SOL     OW35596   2.371   3.063  15.450  0.2574 -0.0027  0.2299
 7987SOL    HW135597   2.279   3.052  15.476 -0.6107  2.5511 -1.7840
 7987SOL    HW235598   2.394   3.152  15.476 -1.5456  0.7486 -0.7597
 7988SOL     OW35599   0.962   1.374   2.851  0.4062 -0.3703  0.4557
 7988SOL    HW135600   0.937   1.285   2.825 -0.5490 -0.2104  0.8418
 7988SOL    HW235601   1.024   1.393   2.780  0.8600  3.4282  1.9156
 7989SOL     OW35602   4.362   1.915   9.718 -0.5630  0.5584 -0.3239
 7989SOL    HW135603   4.284   1.939   9.669 -1.1340 -2.9123 -1.0951
 7989SOL    HW235604   4.332   1.841   9.771 -0.6543  0.4900 -0.4722
 7990SOL     OW35605   0.518   0.423   1.637 -0.6386 -0.0874  0.1421
 7990SOL    HW135606   0.533   0.343   1.588 -0.2114  0.1433 -0.1056
 7990SOL    HW235607   0.431   0.408   1.674 -0.0889 -0.6785  1.2032
 7991SOL     OW35608   0.938   1.247   1.099 -0.0277  0.0500 -0.2326
 7991SOL    HW135609   0.886   1.309   1.048  1.2987 -0.3542 -2.0808
 7991SOL    HW235610   0.864   1.203   1.141  0.1015 -0.3915 -0.4671
 7992SOL     OW35611   4.235   2.798  16.595  0.3429  0.1248 -0.1598
 7992SOL    HW135612   4.238   2.863  16.665  2.1955  2.2454 -2.1991
 7992SOL    HW235613   4.209   2.717  16.638 -0.7937  1.4641  1.7111
 7993SOL     OW35614   2.003   1.327   4.849 -0.1249  0.2844  0.0814
 7993SOL    HW135615   2.003   1.235   4.878 -1.9106 -0.1511 -1.3489
 7993SOL    HW235616   2.095   1.334   4.825 -0.1203  0.9078  0.2891
 7994SOL     OW35617   0.602   0.926   7.931 -0.2637  0.1940 -0.2159
 7994SOL    HW135618   0.621   0.967   8.015 -0.1839 -1.8675  0.7837
 7994SOL    HW235619   0.685   0.934   7.883 -0.8700 -0.1698 -1.3227
 7995SOL     OW35620   1.159   4.269  10.910  0.4940  0.1424 -0.2164
 7995SOL    HW135621   1.078   4.224  10.932 -0.4232  0.7490 -2.3009
 7995SOL    HW235622   1.146   4.348  10.962 -0.2622 -0.7421  0.9174
 7996SOL     OW35623   0.585   1.348   5.791  0.3820  0.6245  0.6083
 7996SOL    HW135624   0.583   1.276   5.729  1.8525  2.1893 -1.2379
 7996SOL    HW235625   0.667   1.394   5.772  1.2682 -1.1169  0.3032
 7997SOL     OW35626   0.296   2.401   2.225  0.7453 -0.2656 -0.5055
 7997SOL    HW135627   0.282   2.323   2.171 -1.2797 -0.0694 -0.2590
 7997SOL    HW235628   0.214   2.399   2.276  1.8294 -1.6037  1.2207
 7998SOL     OW35629   2.084   0.146   3.877 -0.3172  0.0315  0.0461
 7998SOL    HW135630   2.052   0.198   3.804  1.5823 -0.8729 -1.4418
 7998SOL    HW235631   2.004   0.115   3.918  0.2825 -1.1139  0.3642
 7999SOL     OW35632   2.386   3.266  10.688  0.6654  0.0823 -0.1772
 7999SOL    HW135633   2.341   3.205  10.746  2.3207 -2.1995 -1.2771
 7999SOL    HW235634   2.338   3.347  10.705 -0.1627 -1.1125  3.0271
 8000SOL     OW35635   2.367   2.133   8.802 -0.6088 -0.1689 -0.1691
 8000SOL    HW135636   2.320   2.155   8.883 -2.8101 -2.6569 -0.7914
 8000SOL    HW235637   2.411   2.053   8.830  1.6018  0.2501 -2.4230
 8001SOL     OW35638   1.532   3.719  16.422 -0.2083  0.2592 -0.1567
 8001SOL    HW135639   1.492   3.796  16.380  3.2029  1.6827 -0.7892
 8001SOL    HW235640   1.572   3.680  16.345  1.7036  1.9190 -0.0126
 8002SOL     OW35641   4.546   4.707  16.212  0.3713  0.7377  0.1480
 8002SOL    HW135642   4.466   0.020  16.196  0.5233  1.5567  1.9652
 8002SOL    HW235643   4.574   4.706  16.120 -0.8891 -0.3999 -0.2171
 8003SOL     OW35644   0.422   0.029   2.009 -0.1686 -0.0450  0.6176
 8003SOL    HW135645   0.516   0.012   2.003  0.1862  1.8104  1.0691
 8003SOL    HW235646   0.387   4.686   2.052 -2.0816 -0.7420 -2.2615
 8004SOL     OW35647   1.174   1.787   4.932  0.3511 -0.2850  0.4112
 8004SOL    HW135648   1.168   1.694   4.954 -0.0713 -0.4938 -0.5746
 8004SOL    HW235649   1.269   1.791   4.936  0.4277 -2.0482  0.6350
 8005SOL     OW35650   0.078   4.451   8.889  0.2368  0.2510  0.0259
 8005SOL    HW135651   0.146   4.510   8.857  0.5352  0.1696  0.5094
 8005SOL    HW235652   0.082   4.381   8.824  1.7790  1.2584 -0.9712
 8006SOL     OW35653   2.773   4.231   1.470  0.1771  0.4406  0.4819
 8006SOL    HW135654   2.811   4.154   1.427  1.7450  0.8709  1.0919
 8006SOL    HW235655   2.775   4.210   1.563 -0.5953  0.7947  0.5801
 8007SOL     OW35656   2.555   4.368   4.585  0.1117 -0.0945  0.6958
 8007SOL    HW135657   2.560   4.390   4.492  1.2995 -1.5696  0.4134
 8007SOL    HW235658   2.484   4.306   4.601 -2.1981  1.8564 -2.0957
 8008SOL     OW35659   2.831   1.044  12.426 -0.5317  0.0747  0.1006
 8008SOL    HW135660   2.798   1.116  12.372 -0.5464  0.4826  0.6539
 8008SOL    HW235661   2.861   1.111  12.487 -0.3785  0.8612 -0.8437
 8009SOL     OW35662   2.137   2.171  11.865  0.5689  0.0073 -0.0205
 8009SOL    HW135663   2.114   2.101  11.804 -1.1601 -1.1369  1.9727
 8009SOL    HW235664   2.138   2.134  11.953 -2.1742 -0.5343 -0.2423
 8010SOL     OW35665   1.085   1.394   9.155  0.3302 -0.0962 -0.8191
 8010SOL    HW135666   1.021   1.394   9.226  2.4784 -0.6544  1.1288
 8010SOL    HW235667   1.142   1.325   9.188  1.1992  1.0231  0.0508
 8011SOL     OW35668   2.909   1.144  13.923  0.3164  0.3311  0.1351
 8011SOL    HW135669   2.892   1.192  14.003 -2.8196 -1.9943  0.8316
 8011SOL    HW235670   2.820   1.136  13.890  0.2394  0.5150  0.3031
 8012SOL     OW35671   2.324   4.417   9.864 -0.0677  0.3717 -0.8638
 8012SOL    HW135672   2.373   4.494   9.893  1.6706 -1.3661  0.8385
 8012SOL    HW235673   2.327   4.359   9.941 -0.9145  0.9303 -0.4123
 8013SOL     OW35674   2.444   2.505  12.722 -0.0810  0.5192 -0.3140
 8013SOL    HW135675   2.490   2.451  12.657 -0.0389 -0.3974  0.4842
 8013SOL    HW235676   2.517   2.548  12.766 -1.0355 -0.3850  2.1147
 8014SOL     OW35677   1.388   0.065   4.886 -0.2697  0.0274  0.1936
 8014SOL    HW135678   1.445   4.724   4.881 -2.0312 -1.1213 -2.0056
 8014SOL    HW235679   1.401   0.097   4.975  0.6142  0.2247 -0.0131
 8015SOL     OW35680   0.892   4.510   4.877  0.1849  0.1130 -0.0847
 8015SOL    HW135681   0.910   4.530   4.785  0.3030 -2.1824 -0.5487
 8015SOL    HW235682   0.798   4.527   4.886  0.1487  0.6029 -1.3894
 8016SOL     OW35683   0.218   4.483   2.580 -0.7344  0.7667 -0.5752
 8016SOL    HW135684   0.308   4.478   2.549 -0.7452 -0.4253 -0.3876
 8016SOL    HW235685   0.175   4.489   2.495 -0.5962 -0.6833 -0.7365
 8017SOL     OW35686   0.487   3.100  17.718  0.2774 -0.0420 -0.4224
 8017SOL    HW135687   0.421   3.049   0.022  0.4011 -1.1491 -1.4673
 8017SOL    HW235688   0.565   3.100   0.031 -0.3526  1.8527  0.4824
 8018SOL     OW35689   1.417   4.172  11.299 -0.1793 -0.1837 -0.2756
 8018SOL    HW135690   1.322   4.171  11.281 -0.2883 -0.8994  0.3684
 8018SOL    HW235691   1.446   4.250  11.251  0.7017  2.4244  4.5137
 8019SOL     OW35692   1.879   1.463  17.361  0.1467 -0.9709 -0.1635
 8019SOL    HW135693   1.798   1.424  17.391  0.0859 -1.3703 -0.8318
 8019SOL    HW235694   1.871   1.553  17.391 -1.2404 -1.1599 -0.0048
 8020SOL     OW35695   2.618   1.518   8.154 -0.2949 -0.0181  0.4237
 8020SOL    HW135696   2.582   1.607   8.161  1.4332  0.6762  0.5531
 8020SOL    HW235697   2.555   1.470   8.208  1.3077  0.3270  2.6265
 8021SOL     OW35698   3.613   3.979   3.504  0.1717  0.0759 -0.0402
 8021SOL    HW135699   3.601   4.052   3.443  2.1384  0.1540 -0.3312
 8021SOL    HW235700   3.525   3.940   3.509  0.1904 -0.1876 -1.7046
 8022SOL     OW35701   2.741   1.057   2.493  0.3522  0.3526  0.6607
 8022SOL    HW135702   2.784   0.997   2.554 -0.4348  1.1246  1.9597
 8022SOL    HW235703   2.657   1.023   2.460  1.1234 -0.3505 -0.5863
 8023SOL     OW35704   0.871   4.475  13.543  0.2790  0.3645 -0.2224
 8023SOL    HW135705   0.809   4.479  13.471  1.8023 -0.2724 -1.5722
 8023SOL    HW235706   0.870   4.565  13.576 -0.6823  0.7017 -1.1632
 8024SOL     OW35707   2.322   4.409  13.170 -0.2583 -0.0944 -0.5571
 8024SOL    HW135708   2.281   4.417  13.083 -0.2544 -0.4851 -0.5976
 8024SOL    HW235709   2.350   4.317  13.166  0.2220  0.0276  0.2286
 8025SOL     OW35710   3.087   1.408  12.726  0.4627 -0.0323 -0.0895
 8025SOL    HW135711   3.063   1.462  12.801  1.7581 -0.5503  0.7084
 8025SOL    HW235712   3.181   1.405  12.745  0.2791  0.3052  0.8263
 8026SOL     OW35713   2.335   3.617   1.428  0.1201 -0.1554  0.2697
 8026SOL    HW135714   2.373   3.539   1.468  1.4258  0.1501 -0.3719
 8026SOL    HW235715   2.407   3.679   1.436 -0.1174  0.0215  1.0419
 8027SOL     OW35716   0.251   0.951   8.306 -0.6029  0.2519 -0.2619
 8027SOL    HW135717   0.277   1.016   8.371 -1.1593 -2.8173  3.0487
 8027SOL    HW235718   0.161   0.980   8.288 -1.2508 -2.1736 -0.9438
 8028SOL     OW35719   3.674   1.031   5.012  0.4329 -0.4519  0.0115
 8028SOL    HW135720   3.668   1.115   5.058  0.2121 -0.7873  0.5884
 8028SOL    HW235721   3.635   0.967   5.072  0.7456  0.6974  1.4546
 8029SOL     OW35722   2.176   2.039   6.486 -0.4031  0.4034  0.4211
 8029SOL    HW135723   2.217   2.042   6.572  1.6899  2.6843 -0.6742
 8029SOL    HW235724   2.254   2.022   6.433  0.3922  0.1254  1.7072
 8030SOL     OW35725   2.065   2.926   7.883 -0.5324  0.1135  0.3051
 8030SOL    HW135726   2.107   2.879   7.811  1.1428  1.7420  0.2064
 8030SOL    HW235727   2.114   3.008   7.876 -0.9784  0.3078 -0.5593
 8031SOL     OW35728   0.726   2.696   4.522 -0.3011  0.4372 -0.3058
 8031SOL    HW135729   0.705   2.779   4.565 -0.8171  0.4680 -0.6301
 8031SOL    HW235730   0.815   2.692   4.557  0.1435 -0.2176 -1.5400
 8032SOL     OW35731   4.471   2.317   8.252  0.4202  0.1977  0.5244
 8032SOL    HW135732   4.388   2.365   8.252  0.2983  0.0044 -2.5173
 8032SOL    HW235733   4.492   2.315   8.345  2.6091  0.4820  0.0317
 8033SOL     OW35734   0.702   2.910   8.202  0.7553 -0.2341 -0.1511
 8033SOL    HW135735   0.708   2.828   8.251 -0.2044 -0.8095 -0.9760
 8033SOL    HW235736   0.744   2.965   8.268  0.0596 -1.1038  1.0231
 8034SOL     OW35737   3.350   4.230   8.831 -0.6494 -0.3930  0.1659
 8034SOL    HW135738   3.265   4.224   8.787 -1.1434  0.2381  1.0397
 8034SOL    HW235739   3.326   4.244   8.923 -0.1259  0.5429  0.1523
 8035SOL     OW35740   3.264   4.488   2.174 -0.2711  0.5511  0.1088
 8035SOL    HW135741   3.258   4.541   2.095 -1.9209 -2.2124 -1.6047
 8035SOL    HW235742   3.357   4.493   2.196 -0.6851  2.6762  1.4173
 8036SOL     OW35743   4.593   1.887   0.370  0.0085 -0.3291 -0.4716
 8036SOL    HW135744   4.538   1.916   0.297  2.1642  1.3306 -1.4212
 8036SOL    HW235745   4.678   1.922   0.343 -0.4817  2.1752  1.2516
 8037SOL     OW35746   1.552   0.438   2.096  0.1163 -0.4589  0.7697
 8037SOL    HW135747   1.544   0.400   2.008 -1.5859 -0.2678  0.8336
 8037SOL    HW235748   1.458   0.435   2.115 -0.4900  2.0730 -1.6690
 8038SOL     OW35749   3.391   4.649  13.164  0.0987 -0.0451 -0.0131
 8038SOL    HW135750   3.430   4.625  13.080  2.3551 -2.9204  1.8903
 8038SOL    HW235751   3.341   4.574  13.196  2.0893 -1.0383  0.7015
 8039SOL     OW35752   1.828   4.086  10.243  0.2671 -0.0329  0.1886
 8039SOL    HW135753   1.874   4.137  10.176 -1.3606  0.8618 -0.2586
 8039SOL    HW235754   1.905   4.055  10.290  0.3967 -1.0059 -0.6658
 8040SOL     OW35755   3.054   3.236  16.675 -0.5728  0.2377 -0.1229
 8040SOL    HW135756   2.958   3.235  16.686 -0.7826 -1.2947 -2.2222
 8040SOL    HW235757   3.060   3.163  16.613  1.3861 -1.4303  2.0683
 8041SOL     OW35758   1.340   4.571   7.863  0.0304  0.0749 -0.1727
 8041SOL    HW135759   1.244   4.581   7.864 -0.0910 -1.1517  0.6711
 8041SOL    HW235760   1.355   4.562   7.957  1.5993 -0.2235 -0.4590
 8042SOL     OW35761   1.011   1.326   5.216  0.7547  0.2268  0.5477
 8042SOL    HW135762   0.930   1.312   5.168  1.5812  0.0519 -0.8005
 8042SOL    HW235763   1.075   1.310   5.146 -0.6969 -1.6501 -0.3495
 8043SOL     OW35764   2.378   0.720   6.905  0.0051  0.6892 -0.2521
 8043SOL    HW135765   2.386   0.775   6.983  1.6157 -0.3727  0.3284
 8043SOL    HW235766   2.430   0.646   6.937  3.1374  2.1938 -1.9490
 8044SOL     OW35767   1.643   3.793  12.682 -0.5699  0.3343 -0.6994
 8044SOL    HW135768   1.714   3.831  12.733 -1.2437  0.9583 -0.2227
 8044SOL    HW235769   1.626   3.710  12.726  0.5844  0.1109 -0.6768
 8045SOL     OW35770   1.078   1.518   7.221  0.8442 -0.8458  0.1628
 8045SOL    HW135771   1.065   1.496   7.314  1.3648 -0.0625  0.4212
 8045SOL    HW235772   1.171   1.537   7.229  1.0119 -0.3126 -3.0191
 8046SOL     OW35773   1.162   0.073   3.482 -0.0882 -0.1342  0.1884
 8046SOL    HW135774   1.217   0.064   3.404  2.6966 -1.5233  2.3194
 8046SOL    HW235775   1.221   0.030   3.545  0.9333  0.4032 -0.3915
 8047SOL     OW35776   4.578   0.184   2.350  0.1646  0.1266 -0.1362
 8047SOL    HW135777   4.635   0.145   2.416  1.4407  1.6332 -0.3505
 8047SOL    HW235778   4.492   0.143   2.355 -0.6164  1.7122 -0.4014
 8048SOL     OW35779   0.829   3.796  13.970 -0.1889  0.5680 -0.1023
 8048SOL    HW135780   0.741   3.832  13.983 -1.2925 -2.7354  1.4221
 8048SOL    HW235781   0.829   3.721  13.910 -1.1254 -0.3552  1.0609
 8049SOL     OW35782   2.246   0.997   4.352 -0.1064  0.3325 -0.0825
 8049SOL    HW135783   2.253   1.049   4.272  0.1793 -0.1030 -0.3406
 8049SOL    HW235784   2.160   0.958   4.335 -0.2099 -1.1591  3.6659
 8050SOL     OW35785   0.352   0.171   3.321  0.2054  0.3909 -0.4498
 8050SOL    HW135786   0.304   0.243   3.281 -0.1458  1.2980  1.6426
 8050SOL    HW235787   0.446   0.192   3.319 -0.5640  3.6992 -1.9394
 8051SOL     OW35788   2.045   1.586   3.049  0.8148  0.5356 -0.2558
 8051SOL    HW135789   2.060   1.675   3.081 -2.3794  0.5530  1.1735
 8051SOL    HW235790   2.023   1.587   2.956 -0.8934 -1.4183  0.1225
 8052SOL     OW35791   0.408   0.227  10.410 -0.1588  0.0564 -0.5660
 8052SOL    HW135792   0.406   0.140  10.451  0.8472  0.7701  1.0223
 8052SOL    HW235793   0.331   0.238  10.354  0.0579  1.7998 -0.4963
 8053SOL     OW35794   3.675   3.230  17.393 -0.2048  0.3015 -0.2839
 8053SOL    HW135795   3.647   3.312  17.351  0.5648 -0.0309 -1.4633
 8053SOL    HW235796   3.645   3.154  17.344 -1.9391  0.8196 -0.0160
 8054SOL     OW35797   1.454   3.107  16.145  0.6392 -0.2297  0.5152
 8054SOL    HW135798   1.466   3.200  16.125 -1.9163 -0.5260 -2.2000
 8054SOL    HW235799   1.460   3.064  16.060  0.4183 -1.7556  1.2718
 8055SOL     OW35800   3.847   3.610  14.422 -0.3509  0.1272  0.4963
 8055SOL    HW135801   3.769   3.590  14.369 -0.5307 -1.3446  1.3045
 8055SOL    HW235802   3.917   3.630  14.361 -0.1372  0.5536  0.8791
 8056SOL     OW35803   3.925   4.206   2.931 -0.1066  0.1498 -0.2057
 8056SOL    HW135804   3.973   4.223   3.012 -0.0503 -2.5564  0.3389
 8056SOL    HW235805   3.992   4.199   2.863 -0.2822  1.8280 -0.5448
 8057SOL     OW35806   4.501   3.240  13.766 -0.2630  0.1363  0.3889
 8057SOL    HW135807   4.473   3.330  13.748 -3.4934 -0.9042  0.2275
 8057SOL    HW235808   4.528   3.256  13.857 -1.1577 -0.2403  0.7170
 8058SOL     OW35809   1.110   0.657   0.633 -0.3536  0.6282  0.4279
 8058SOL    HW135810   1.045   0.654   0.563  0.0452 -0.9179  0.1209
 8058SOL    HW235811   1.098   0.747   0.665  2.5765  1.1772 -0.0454
 8059SOL     OW35812   4.307   2.313   2.447 -0.2087 -0.0674  0.4656
 8059SOL    HW135813   4.236   2.297   2.508 -0.8680 -0.1417 -0.3274
 8059SOL    HW235814   4.261   2.357   2.375 -1.7188  0.0718  1.5309
 8060SOL     OW35815   2.821   2.122   8.566 -0.4657 -0.2227 -0.6062
 8060SOL    HW135816   2.910   2.157   8.563 -0.3845 -0.3210  0.7069
 8060SOL    HW235817   2.763   2.197   8.554  0.7964  0.4748 -2.2718
 8061SOL     OW35818   4.147   3.364   6.893 -0.6741 -0.0558  0.4020
 8061SOL    HW135819   4.175   3.277   6.921 -0.5060 -0.2052 -0.2420
 8061SOL    HW235820   4.235   3.398   6.873 -1.0212  1.0236  0.6792
 8062SOL     OW35821   0.313   1.828   2.322 -0.5882 -0.6660  0.1013
 8062SOL    HW135822   0.220   1.835   2.345 -0.6120 -0.7006  0.0163
 8062SOL    HW235823   0.297   1.843   2.228  3.5909  0.4459 -0.4436
 8063SOL     OW35824   0.837   4.523  14.226 -0.5976 -0.3091  0.4545
 8063SOL    HW135825   0.904   4.590  14.213 -0.0957 -0.7698  0.6545
 8063SOL    HW235826   0.872   4.445  14.183 -2.4751 -0.4291 -0.8803
 8064SOL     OW35827   4.525   4.353   1.685  0.3071 -0.5624 -0.6599
 8064SOL    HW135828   4.472   4.300   1.625  0.3579 -1.0252 -0.2864
 8064SOL    HW235829   4.458   4.390   1.743 -0.1899 -2.0405 -0.3034
 8065SOL     OW35830   0.130   0.637   4.669 -0.0156  0.3533 -0.1417
 8065SOL    HW135831   0.077   0.563   4.638  2.2677 -0.5112 -2.0466
 8065SOL    HW235832   0.083   0.643   4.752 -1.4638 -0.5272 -0.8902
 8066SOL     OW35833   2.733   4.014   6.505 -0.4098 -0.4412  0.6263
 8066SOL    HW135834   2.790   4.027   6.581  0.4441 -3.0674  0.4360
 8066SOL    HW235835   2.680   3.937   6.526 -1.3330 -0.3392 -1.3791
 8067SOL     OW35836   1.418   3.277   7.386  0.2168  0.3377  0.1206
 8067SOL    HW135837   1.420   3.362   7.430 -1.6293  0.1866  0.5315
 8067SOL    HW235838   1.348   3.233   7.435  1.9879 -0.7894  1.6089
 8068SOL     OW35839   2.896   1.115   4.244 -0.1760  0.4067  0.1612
 8068SOL    HW135840   2.955   1.050   4.282 -0.6136  0.1342  0.3751
 8068SOL    HW235841   2.951   1.192   4.229  1.3934 -0.5023  1.2661
 8069SOL     OW35842   0.688   4.107   3.601  0.4335 -0.2088 -0.4622
 8069SOL    HW135843   0.637   4.188   3.601 -1.5146 -1.4233  3.5605
 8069SOL    HW235844   0.640   4.060   3.669 -3.4465  1.0841 -2.3179
 8070SOL     OW35845   2.484   0.912   8.229  0.8652 -0.2624  0.3699
 8070SOL    HW135846   2.532   0.876   8.155  0.5768 -0.7660  0.4318
 8070SOL    HW235847   2.496   0.837   8.286  0.6060 -0.8741 -0.3813
 8071SOL     OW35848   0.070   0.325   6.072  0.0190 -0.2882 -0.3366
 8071SOL    HW135849   0.021   0.359   6.147 -0.8451  1.0937 -1.5117
 8071SOL    HW235850   0.044   0.234   6.082 -0.6960 -0.3150 -2.4897
 8072SOL     OW35851   0.379   2.314  14.854  0.3690 -0.7367  0.3961
 8072SOL    HW135852   0.323   2.277  14.786  0.0499  1.4385 -0.5006
 8072SOL    HW235853   0.456   2.321  14.798 -1.2134  1.7590 -1.4427
 8073SOL     OW35854   0.724   3.491   5.364 -0.3098 -0.2313  0.1613
 8073SOL    HW135855   0.800   3.525   5.317  0.2607 -1.1153  0.4539
 8073SOL    HW235856   0.759   3.412   5.405 -0.1443 -1.2529 -1.9287
 8074SOL     OW35857   4.593   4.702  13.736  0.0697 -0.2131 -0.0784
 8074SOL    HW135858   4.658   4.674  13.671  1.2718  1.0515  0.5895
 8074SOL    HW235859   4.511   4.686  13.689  0.0284  0.3880 -0.2112
 8075SOL     OW35860   0.908   0.089   3.406 -0.1059  0.0721 -0.1099
 8075SOL    HW135861   0.990   0.093   3.456 -0.5296  0.9425  0.5007
 8075SOL    HW235862   0.941   0.133   3.327 -0.6863  2.1979  0.8308
 8076SOL     OW35863   0.231   2.744  11.551  0.1663  0.1480  0.0202
 8076SOL    HW135864   0.188   2.770  11.632 -1.9404 -4.0844  0.2492
 8076SOL    HW235865   0.160   2.694  11.510 -1.2554  3.4953 -1.6008
 8077SOL     OW35866   3.020   2.660   2.352  0.4115  0.3088 -0.4068
 8077SOL    HW135867   3.045   2.581   2.401  1.3986  1.1852  0.4823
 8077SOL    HW235868   2.928   2.674   2.372  0.2528  0.7328 -1.4251
 8078SOL     OW35869   4.673   3.615   6.696  0.1008  0.3668 -0.2835
 8078SOL    HW135870   4.663   3.709   6.682 -1.9483  0.0773 -0.7729
 8078SOL    HW235871   4.718   3.621   6.780  2.2403  0.4242 -1.4204
 8079SOL     OW35872   2.240   1.824   8.114 -0.2234 -0.1587 -0.1430
 8079SOL    HW135873   2.164   1.783   8.155 -0.1966  1.5874  1.6660
 8079SOL    HW235874   2.204   1.834   8.026  0.8448 -1.0430 -0.6833
 8080SOL     OW35875   4.608   0.451   9.405 -0.4592 -0.3439 -0.6746
 8080SOL    HW135876   4.533   0.504   9.433 -2.2189 -3.5954  0.7182
 8080SOL    HW235877   4.574   0.413   9.324  0.5926 -0.2151 -1.1794
 8081SOL     OW35878   4.464   4.309   2.374 -0.1757 -0.1979 -0.3286
 8081SOL    HW135879   4.553   4.275   2.359 -1.3169 -3.0404 -0.6693
 8081SOL    HW235880   4.484   4.382   2.432  0.2395 -0.0443 -0.6583
 8082SOL     OW35881   1.205   0.590   6.975 -0.1918  0.2677 -0.1049
 8082SOL    HW135882   1.288   0.636   6.988 -0.0108  0.1749 -0.9216
 8082SOL    HW235883   1.213   0.559   6.884  0.1580  0.0234  0.0085
 8083SOL     OW35884   1.526   4.404   5.793  0.3811 -0.5271 -0.4549
 8083SOL    HW135885   1.507   4.498   5.799 -0.2300 -0.7714  1.5788
 8083SOL    HW235886   1.497   4.383   5.705  0.1339 -1.7046 -0.0987
 8084SOL     OW35887   1.284   0.418  10.693  0.3708  0.0122 -0.2055
 8084SOL    HW135888   1.377   0.435  10.678  0.6960 -2.4894 -1.1193
 8084SOL    HW235889   1.267   0.496  10.746 -3.9401 -1.7281  1.0062
 8085SOL     OW35890   4.118   4.625   8.778 -0.3318  0.0981 -0.3845
 8085SOL    HW135891   4.097   4.575   8.857 -0.6345  1.1709  0.2027
 8085SOL    HW235892   4.209   4.599   8.767 -0.0002  0.1588  2.2062
 8086SOL     OW35893   1.962   2.091   4.303  0.0852  0.0290  0.1869
 8086SOL    HW135894   2.014   2.159   4.345  1.1561 -0.6852  0.0179
 8086SOL    HW235895   1.974   2.120   4.212  1.4520 -0.5805  0.1722
 8087SOL     OW35896   3.759   3.013   5.486  0.9678  0.1734 -0.6026
 8087SOL    HW135897   3.732   3.097   5.450 -2.1815 -0.6737 -0.2051
 8087SOL    HW235898   3.817   2.980   5.417 -0.5048 -0.5860 -1.4695
 8088SOL     OW35899   3.070   1.342   8.722  0.2841  0.6154  0.5555
 8088SOL    HW135900   3.154   1.298   8.726 -0.9937 -1.4518  4.1812
 8088SOL    HW235901   3.024   1.298   8.651  0.7915  1.3739 -0.2470
 8089SOL     OW35902   4.073   1.886   7.711  0.3337 -0.2097 -0.1553
 8089SOL    HW135903   4.103   1.828   7.780  0.0484 -0.0603  0.0940
 8089SOL    HW235904   4.130   1.856   7.640  0.2870 -0.3227 -0.1447
 8090SOL     OW35905   0.428   1.563   0.739 -0.2508 -0.2410 -0.3883
 8090SOL    HW135906   0.524   1.566   0.743 -0.2619  0.6553 -0.8136
 8090SOL    HW235907   0.399   1.599   0.823 -0.9397  1.3588 -1.3244
 8091SOL     OW35908   2.084   0.651   7.914  0.1401  0.0144 -0.4627
 8091SOL    HW135909   2.111   0.600   7.838 -2.5065  1.6541 -2.4844
 8091SOL    HW235910   1.994   0.678   7.900  1.0028  1.9917 -2.2321
 8092SOL     OW35911   4.029   0.031  14.558  0.0289 -0.1906  0.3272
 8092SOL    HW135912   4.102   4.725  14.604  1.2935  1.3343 -0.2888
 8092SOL    HW235913   4.018   0.106  14.618 -0.1589  0.0141  0.0337
 8093SOL     OW35914   1.132   3.500  11.212 -0.0671  0.1136 -0.3671
 8093SOL    HW135915   1.170   3.588  11.204  1.5315 -0.5535 -0.2456
 8093SOL    HW235916   1.119   3.467  11.124 -2.0475  1.0060 -0.3899
 8094SOL     OW35917   0.093   0.817   3.510 -0.4992  0.2844 -0.1378
 8094SOL    HW135918   0.154   0.805   3.438 -2.4279 -0.1854 -1.6786
 8094SOL    HW235919   0.023   0.768   3.467  1.3715 -1.0697 -1.6782
 8095SOL     OW35920   3.928   4.343   0.366  0.0744 -0.2670 -0.5010
 8095SOL    HW135921   3.844   4.323   0.325 -0.0058 -2.0884  0.5876
 8095SOL    HW235922   3.980   4.307   0.295 -0.0987  1.2964 -1.4380
 8096SOL     OW35923   1.541   1.740  14.146 -0.2549 -0.3807 -0.4673
 8096SOL    HW135924   1.611   1.702  14.199 -0.5614  0.6663  0.6911
 8096SOL    HW235925   1.474   1.672  14.145 -2.7674  2.0858 -2.5924
 8097SOL     OW35926   3.785   1.418   6.132 -0.6882 -0.4069  0.0988
 8097SOL    HW135927   3.735   1.362   6.072  1.4757 -0.9856 -1.1620
 8097SOL    HW235928   3.874   1.397   6.103 -0.2163  2.5253 -0.6095
 8098SOL     OW35929   1.727   1.292  16.615 -0.2562 -0.3540  0.5005
 8098SOL    HW135930   1.768   1.265  16.697 -3.7738  0.0655  2.4005
 8098SOL    HW235931   1.804   1.283  16.559  0.6399 -0.5069  1.7700
 8099SOL     OW35932   0.457   3.233  15.598  0.3768 -0.0870  0.1478
 8099SOL    HW135933   0.411   3.301  15.548  0.2265 -0.2316  0.0890
 8099SOL    HW235934   0.384   3.183  15.634  0.3333  1.4134  2.1591
 8100SOL     OW35935   0.872   2.706   0.216  0.2501 -0.0322  0.0304
 8100SOL    HW135936   0.865   2.774   0.283  0.4927  1.1780 -1.1681
 8100SOL    HW235937   0.870   2.769   0.144 -0.0424 -1.0136 -0.8060
 8101SOL     OW35938   2.472   4.247   4.895  0.1135 -0.2886  0.9560
 8101SOL    HW135939   2.560   4.284   4.897 -1.1795  2.8982  0.5766
 8101SOL    HW235940   2.452   4.245   4.988 -0.1123 -1.6453  0.8764
 8102SOL     OW35941   3.968   0.259   3.315  0.1152  0.3562 -0.1254
 8102SOL    HW135942   4.009   0.254   3.229 -1.9635 -1.0036 -1.0354
 8102SOL    HW235943   3.887   0.213   3.291 -0.2274  0.5238  0.6917
 8103SOL     OW35944   3.543   1.480   7.452  0.5482  0.4207  0.6578
 8103SOL    HW135945   3.509   1.390   7.447 -0.5139  0.8094  1.0983
 8103SOL    HW235946   3.477   1.515   7.392 -1.5384  0.2150  2.8458
 8104SOL     OW35947   1.663   2.251  12.511 -0.0516  0.6006 -0.0194
 8104SOL    HW135948   1.625   2.173  12.471 -3.6903  2.4946 -0.2213
 8104SOL    HW235949   1.754   2.242  12.483  0.7508  0.6627  2.5372
 8105SOL     OW35950   0.450   2.423   5.789  0.0691  0.2519  0.4746
 8105SOL    HW135951   0.472   2.344   5.838 -1.1828 -1.5403 -1.8676
 8105SOL    HW235952   0.523   2.482   5.807 -0.2243  1.0135 -0.8425
 8106SOL     OW35953   3.295   1.306   8.364  0.6641 -0.6899  0.4981
 8106SOL    HW135954   3.365   1.247   8.393  0.5578 -0.9216  0.2899
 8106SOL    HW235955   3.246   1.251   8.303  0.7412  0.8404 -0.9507
 8107SOL     OW35956   2.572   4.302   7.629  0.1750  0.3244 -0.2478
 8107SOL    HW135957   2.649   4.324   7.682 -0.7517 -0.9302  1.6518
 8107SOL    HW235958   2.498   4.335   7.681  0.4155  0.6887 -0.1357
 8108SOL     OW35959   3.814   4.032   4.896 -0.8145 -0.0649  0.0862
 8108SOL    HW135960   3.768   4.012   4.978  0.2387  0.2757  0.7651
 8108SOL    HW235961   3.775   3.976   4.829  2.2000 -2.4136  0.2965
 8109SOL     OW35962   4.482   0.400   1.594 -0.2112  0.3140 -0.0293
 8109SOL    HW135963   4.485   0.452   1.674 -0.4301 -1.2264  0.9891
 8109SOL    HW235964   4.575   0.384   1.577 -0.7902 -0.7624 -2.1405
 8110SOL     OW35965   2.120   0.201   6.063  0.2001 -0.0844  0.0897
 8110SOL    HW135966   2.135   0.296   6.058 -2.2904  0.2882 -0.3983
 8110SOL    HW235967   2.043   0.186   6.008 -0.2454 -0.5642  0.8298
 8111SOL     OW35968   1.329   0.369   0.971 -0.3818 -0.0021  0.1887
 8111SOL    HW135969   1.350   0.446   1.024  0.3134 -0.5832  0.7627
 8111SOL    HW235970   1.255   0.406   0.923  0.4386  2.3678  0.7516
 8112SOL     OW35971   3.912   1.021  11.190  0.0106  0.5246 -0.6660
 8112SOL    HW135972   4.004   1.022  11.215 -0.4248  2.1757  0.9508
 8112SOL    HW235973   3.880   0.950  11.245  2.7413  0.0204  0.2585
 8113SOL     OW35974   2.346   2.353  15.600 -0.1641  0.8032  0.5378
 8113SOL    HW135975   2.389   2.269  15.615  1.2381  1.4647  0.1561
 8113SOL    HW235976   2.407   2.409  15.647 -0.7970 -0.8628  3.3591
 8114SOL     OW35977   3.436   1.914   3.890 -0.2882 -0.0972  0.1191
 8114SOL    HW135978   3.530   1.932   3.890 -0.7864  2.5473 -1.5703
 8114SOL    HW235979   3.400   1.985   3.837 -2.7599 -1.1450  0.4091
 8115SOL     OW35980   0.304   1.861   4.955  0.3014  0.8465 -0.0509
 8115SOL    HW135981   0.351   1.848   5.037  0.5362 -1.6522 -0.5799
 8115SOL    HW235982   0.381   1.871   4.898 -0.3608 -2.2812 -1.4964
 8116SOL     OW35983   2.198   4.119   6.677 -0.0575 -0.1909 -0.3688
 8116SOL    HW135984   2.112   4.098   6.713 -0.1644  0.6713 -0.1349
 8116SOL    HW235985   2.173   4.203   6.639 -2.5001 -1.2325 -1.0722
 8117SOL     OW35986   2.917   2.249   6.063  0.7896  0.4637  0.4144
 8117SOL    HW135987   3.009   2.231   6.081  0.7727  1.5770  1.5710
 8117SOL    HW235988   2.943   2.306   5.991  2.8314 -0.0801  0.7197
 8118SOL     OW35989   1.857   1.690   6.207 -0.0236  0.5683  0.0319
 8118SOL    HW135990   1.828   1.626   6.271  0.4424  1.8427  1.5119
 8118SOL    HW235991   1.818   1.768   6.246  0.5808 -0.9714  3.6627
 8119SOL     OW35992   3.403   1.206   2.958  0.0227 -0.4198 -0.1325
 8119SOL    HW135993   3.472   1.168   2.903 -0.1299 -1.8205  0.6354
 8119SOL    HW235994   3.452   1.228   3.038  1.5830 -2.4267 -0.5227
 8120SOL     OW35995   0.863   3.935   2.181  0.0324  0.0962 -0.1140
 8120SOL    HW135996   0.835   3.932   2.273  0.8145  2.5517  0.1964
 8120SOL    HW235997   0.828   4.014   2.141 -1.7079 -0.3772  0.4403
 8121SOL     OW35998   4.381   3.837  15.408 -0.0127  0.0054 -0.0663
 8121SOL    HW135999   4.432   3.756  15.416  0.8456  0.5162 -0.3181
 8121SOL    HW236000   4.312   3.815  15.346  1.4146  0.2278 -1.7475
 8122SOL     OW36001   0.832   3.648   2.715  0.3170  0.4275 -0.5296
 8122SOL    HW136002   0.845   3.720   2.653  0.9124  1.2201  0.5032
 8122SOL    HW236003   0.776   3.601   2.654 -1.0393 -0.5430  1.4866
 8123SOL     OW36004   4.120   4.192   2.568 -0.2957  0.9130 -0.0874
 8123SOL    HW136005   4.085   4.160   2.485 -1.0206 -0.3752  0.7198
 8123SOL    HW236006   4.135   4.117   2.625  1.2513 -0.7593 -2.6676
 8124SOL     OW36007   4.329   1.469   8.457  0.2679 -0.2938 -0.8703
 8124SOL    HW136008   4.310   1.466   8.363 -0.0925 -0.3201 -0.7955
 8124SOL    HW236009   4.241   1.456   8.492  0.6943  0.3247  0.4536
 8125SOL     OW36010   3.957   0.836  11.467  0.3688  0.2408 -0.3095
 8125SOL    HW136011   4.022   0.854  11.399  0.6029 -0.3244 -0.2370
 8125SOL    HW236012   3.881   0.818  11.412  1.2243 -0.3409 -1.2994
 8126SOL     OW36013   1.380   0.726  10.096  0.3329 -0.4412 -0.1656
 8126SOL    HW136014   1.375   0.733  10.191 -1.1936  0.3482 -0.2979
 8126SOL    HW236015   1.345   0.811  10.068 -1.8840 -0.7068  1.7971
 8127SOL     OW36016   4.446   3.727   2.038  0.0144 -0.3871 -0.1880
 8127SOL    HW136017   4.446   3.711   1.944 -0.1251  0.4195 -0.3173
 8127SOL    HW236018   4.403   3.812   2.041  1.2812  0.2456  0.1838
 8128SOL     OW36019   0.171   1.136   1.106 -0.1541  0.3720 -0.2065
 8128SOL    HW136020   0.244   1.101   1.056 -0.4290  1.4883 -1.3898
 8128SOL    HW236021   0.178   1.227   1.076 -0.0695  0.2759 -0.4732
 8129SOL     OW36022   2.987   3.932   5.307 -0.1065 -0.5943 -0.4038
 8129SOL    HW136023   3.082   3.947   5.315 -0.0447 -1.5619  0.7002
 8129SOL    HW236024   2.988   3.839   5.284  2.2125 -0.6955  0.0934
 8130SOL     OW36025   4.156   0.781  15.676 -0.2012  0.3938 -0.0743
 8130SOL    HW136026   4.169   0.690  15.702  0.7723  0.1130 -1.5657
 8130SOL    HW236027   4.092   0.782  15.605  0.5184 -0.9736 -0.7236
 8131SOL     OW36028   0.455   1.388  12.446 -0.8034 -0.3886 -0.1229
 8131SOL    HW136029   0.420   1.414  12.361  2.5781 -0.9836 -1.7091
 8131SOL    HW236030   0.549   1.391  12.429 -1.0918  1.1378 -1.4750
 8132SOL     OW36031   0.523   3.394   6.449 -0.5185 -0.0392  0.3029
 8132SOL    HW136032   0.562   3.392   6.362 -0.9747 -1.3139  0.1332
 8132SOL    HW236033   0.438   3.353   6.433 -0.2587 -0.5607  0.2557
 8133SOL     OW36034   1.613   1.732   8.752 -0.6153 -0.1648  0.0039
 8133SOL    HW136035   1.559   1.710   8.676 -0.8057 -0.5126  0.2440
 8133SOL    HW236036   1.558   1.684   8.813 -0.4826  0.3296  0.5083
 8134SOL     OW36037   2.331   3.411   1.983  0.1622  0.2706 -0.2911
 8134SOL    HW136038   2.260   3.452   1.934  0.2553 -1.0804 -1.5537
 8134SOL    HW236039   2.395   3.394   1.914 -1.1382  1.1217 -1.7088
 8135SOL     OW36040   3.388   4.469   4.310 -0.1269 -0.3577 -0.4330
 8135SOL    HW136041   3.302   4.491   4.345  0.0310  1.7100 -1.3434
 8135SOL    HW236042   3.364   4.415   4.234  0.0125  1.2580 -1.6167
 8136SOL     OW36043   0.442   0.874   3.422  0.2318 -0.0141 -0.2897
 8136SOL    HW136044   0.433   0.968   3.437 -2.2916 -0.5087  1.2172
 8136SOL    HW236045   0.526   0.871   3.377  0.2543  0.5831 -0.2932
 8137SOL     OW36046   0.508   3.181   4.626  0.3617  0.1263 -0.4369
 8137SOL    HW136047   0.591   3.195   4.672  0.1099  2.2165 -0.6097
 8137SOL    HW236048   0.537   3.117   4.561  0.9645 -0.4895  0.4348
 8138SOL     OW36049   1.152   3.825   5.866 -0.3939 -0.1571  0.2471
 8138SOL    HW136050   1.190   3.759   5.924 -1.8551 -0.8523  0.4122
 8138SOL    HW236051   1.060   3.808   5.888 -0.5691 -1.4243 -1.4258
 8139SOL     OW36052   3.555   1.396   3.464  0.4980  0.1939 -0.6499
 8139SOL    HW136053   3.525   1.469   3.518  1.3041 -1.1645  1.6233
 8139SOL    HW236054   3.638   1.428   3.429  0.4235 -0.1113 -1.1027
 8140SOL     OW36055   0.543   3.956   6.258 -1.0693  0.2599  0.3352
 8140SOL    HW136056   0.504   4.019   6.197  0.5626 -0.6116 -1.5572
 8140SOL    HW236057   0.635   3.962   6.235 -0.8043 -2.0976  0.7535
 8141SOL     OW36058   1.003   2.256   5.311  0.0412 -0.3257 -0.1001
 8141SOL    HW136059   1.051   2.177   5.335 -0.8880 -0.5241  1.0911
 8141SOL    HW236060   1.040   2.323   5.370  1.1962 -1.4230  0.4355
 8142SOL     OW36061   1.296   1.252   5.886  0.0347 -0.4702 -0.1032
 8142SOL    HW136062   1.252   1.196   5.822 -1.1425  1.5272 -1.0463
 8142SOL    HW236063   1.335   1.177   5.932  0.5504  0.2688  0.6503
 8143SOL     OW36064   3.638   2.293  14.576 -0.2811  0.6936 -0.1298
 8143SOL    HW136065   3.543   2.289  14.566 -0.0131 -0.3437 -2.3576
 8143SOL    HW236066   3.661   2.263  14.664 -0.9548  1.1313  0.1894
 8144SOL     OW36067   0.400   1.402  15.819 -0.0841 -0.1462 -0.3913
 8144SOL    HW136068   0.375   1.402  15.911 -0.5895 -1.6416 -0.5315
 8144SOL    HW236069   0.471   1.338  15.822 -0.1550 -0.2800 -1.3384
 8145SOL     OW36070   3.094   4.561   1.833 -0.2894  0.5524 -0.5841
 8145SOL    HW136071   3.016   4.572   1.779 -0.2920 -0.5228 -0.7939
 8145SOL    HW236072   3.099   4.473   1.872 -0.0847 -0.0491 -1.9710
 8146SOL     OW36073   0.131   1.647   6.329 -0.2198 -0.0078  0.6107
 8146SOL    HW136074   0.130   1.734   6.288 -0.8074 -1.0985 -1.7467
 8146SOL    HW236075   0.042   1.648   6.365  0.2568 -2.4325  1.8643
 8147SOL     OW36076   0.465   4.473  14.362  0.5680  0.2884  0.3732
 8147SOL    HW136077   0.558   4.490  14.373  0.6921 -0.4770  0.4574
 8147SOL    HW236078   0.446   4.476  14.268  0.6108  1.9132  0.4188
 8148SOL     OW36079   0.934   0.679   3.711 -0.0604  0.3154  0.5536
 8148SOL    HW136080   0.866   0.711   3.651 -1.1712 -1.1347  1.0328
 8148SOL    HW236081   0.960   0.761   3.753  0.2246 -0.8237  2.6316
 8149SOL     OW36082   0.088   4.196  13.454 -0.3123  0.0453  0.0248
 8149SOL    HW136083   0.140   4.276  13.455 -0.1853 -0.0572  1.9845
 8149SOL    HW236084   0.096   4.171  13.362  0.0964  0.3093 -0.0106
 8150SOL     OW36085   2.206   4.698   8.522  0.2503  0.3735 -0.1616
 8150SOL    HW136086   2.273   4.735   8.579 -0.3170 -1.4088  1.6413
 8150SOL    HW236087   2.151   0.034   8.491  0.1268 -0.2096 -1.2883
 8151SOL     OW36088   4.041   0.685   5.814  0.0706  0.0572 -0.7511
 8151SOL    HW136089   4.019   0.633   5.737  0.5253 -1.2768  0.0241
 8151SOL    HW236090   4.098   0.624   5.861  0.0858  2.0639  1.8253
 8152SOL     OW36091   3.679   0.788   3.434  0.0055  0.4894 -0.3413
 8152SOL    HW136092   3.745   0.845   3.473  0.4979  0.0220 -0.4918
 8152SOL    HW236093   3.670   0.819   3.344 -0.5802 -0.4653 -0.6143
 8153SOL     OW36094   3.952   0.181  13.797 -0.6626 -0.0184 -0.6833
 8153SOL    HW136095   3.949   0.098  13.750 -0.9943  0.0380 -0.7589
 8153SOL    HW236096   3.872   0.220  13.762 -1.6741 -1.0993  0.4164
 8154SOL     OW36097   2.309   1.900  11.709  0.1813  0.8583  0.1028
 8154SOL    HW136098   2.318   1.842  11.634  0.5747 -0.3196  1.0620
 8154SOL    HW236099   2.228   1.947  11.688  0.8219  1.1241 -1.7590
 8155SOL     OW36100   2.840   3.252   1.485 -0.2052 -0.6998 -0.2642
 8155SOL    HW136101   2.857   3.187   1.417 -1.5491 -1.5335  0.1909
 8155SOL    HW236102   2.759   3.294   1.458 -1.1127 -2.0765  0.3161
 8156SOL     OW36103   4.286   1.308   7.701 -0.1659 -0.3482 -0.2378
 8156SOL    HW136104   4.292   1.400   7.673 -1.9908  0.3136  1.5292
 8156SOL    HW236105   4.375   1.283   7.676 -0.5555 -0.9259 -1.0535
 8157SOL     OW36106   4.001   0.312   1.676 -0.2304  0.0568  0.5704
 8157SOL    HW136107   3.954   0.238   1.712 -0.0200  0.7015  2.1476
 8157SOL    HW236108   4.085   0.273   1.652 -0.6018 -1.1169  1.1978
 8158SOL     OW36109   0.098   0.124   4.955 -0.5944 -0.2681  0.0434
 8158SOL    HW136110   0.099   0.160   4.866 -0.9649  1.9667  0.9430
 8158SOL    HW236111   0.004   0.112   4.968 -0.7128  1.9841  1.3242
 8159SOL     OW36112   1.117   3.497   7.898 -0.9101  0.2846 -0.6122
 8159SOL    HW136113   1.186   3.560   7.877  0.3074 -0.4043  1.3386
 8159SOL    HW236114   1.153   3.469   7.982 -0.7304  0.2263 -0.7106
 8160SOL     OW36115   2.279   4.513   5.411 -0.1770  0.7722 -0.5188
 8160SOL    HW136116   2.328   4.533   5.491  0.3284  0.2671 -0.6980
 8160SOL    HW236117   2.266   4.606   5.390  0.6834  0.8182 -0.8445
 8161SOL     OW36118   3.844   3.918  12.630 -0.3615 -0.4540  0.3678
 8161SOL    HW136119   3.917   3.868  12.595 -2.5213 -3.1760 -0.2701
 8161SOL    HW236120   3.770   3.859  12.613 -1.3458  0.7178  0.5543
 8162SOL     OW36121   2.201   2.689   8.841 -0.0623 -0.4804 -0.3992
 8162SOL    HW136122   2.144   2.642   8.780  0.3331 -0.0549 -1.1025
 8162SOL    HW236123   2.177   2.778   8.815 -0.1222  0.1743  1.9642
 8163SOL     OW36124   1.027   1.368  16.033 -0.6569 -0.2321  0.4148
 8163SOL    HW136125   1.015   1.311  15.956  0.3521  0.1179  0.0068
 8163SOL    HW236126   1.092   1.423  15.989 -1.3897  0.3909  0.1148
 8164SOL     OW36127   0.541   1.098   4.190 -0.3611  0.3292 -0.1363
 8164SOL    HW136128   0.584   1.035   4.133 -1.1680 -2.4246  2.3029
 8164SOL    HW236129   0.458   1.101   4.144 -0.8558 -1.1876  0.6470
 8165SOL     OW36130   3.838   3.187   2.671 -0.4357 -0.9476  0.1437
 8165SOL    HW136131   3.875   3.261   2.623  0.3152 -1.2882  0.1943
 8165SOL    HW236132   3.923   3.144   2.681 -0.2530 -0.6668 -0.2106
 8166SOL     OW36133   4.216   2.016   8.718  0.3993 -0.1456 -0.0444
 8166SOL    HW136134   4.238   1.940   8.664  1.6642 -0.5349  1.0212
 8166SOL    HW236135   4.292   2.070   8.695  0.8920 -0.1558  1.5612
 8167SOL     OW36136   1.496   3.391   7.716 -0.2288  0.0917 -0.4526
 8167SOL    HW136137   1.502   3.299   7.690  0.3990  0.3742 -1.2895
 8167SOL    HW236138   1.409   3.388   7.756 -0.1155  1.1170 -0.1226
 8168SOL     OW36139   4.265   2.463  10.637 -0.1323  0.0774  0.3305
 8168SOL    HW136140   4.252   2.466  10.542 -1.3445  0.7125  0.5113
 8168SOL    HW236141   4.228   2.547  10.665  2.0588  0.6946  1.3718
 8169SOL     OW36142   0.313   3.305   6.738 -0.4344 -0.7172 -0.2101
 8169SOL    HW136143   0.370   3.371   6.699 -0.3131  0.4415  1.9089
 8169SOL    HW236144   0.356   3.281   6.821 -1.9851 -1.8188  0.2717
 8170SOL     OW36145   3.706   0.918   3.833 -0.6517  0.1772 -0.0793
 8170SOL    HW136146   3.802   0.913   3.831 -0.7731 -1.8484 -0.1853
 8170SOL    HW236147   3.680   0.838   3.787 -0.5944  0.4877 -0.6593
 8171SOL     OW36148   2.529   0.623   3.744  0.0130  0.8318  0.5446
 8171SOL    HW136149   2.511   0.717   3.738  1.2967  1.0207 -0.5294
 8171SOL    HW236150   2.474   0.584   3.676  1.7252  0.2701 -0.5452
 8172SOL     OW36151   2.402   0.578   3.497  0.2136  0.3650 -0.0120
 8172SOL    HW136152   2.437   0.603   3.411 -1.5604  0.0308 -0.8342
 8172SOL    HW236153   2.368   0.491   3.478  0.0029  0.3555  0.3999
 8173SOL     OW36154   4.427   0.056   8.624 -0.5142 -0.0162 -0.4044
 8173SOL    HW136155   4.520   0.044   8.641 -0.4619  0.1397 -0.5880
 8173SOL    HW236156   4.399   4.707   8.590 -0.1838 -0.9613  1.6809
 8174SOL     OW36157   1.296   1.444   2.030  0.4472 -0.5811  0.0161
 8174SOL    HW136158   1.386   1.459   2.001  0.4114 -0.4044  0.0008
 8174SOL    HW236159   1.258   1.510   1.973  0.5249 -0.8726 -0.3782
 8175SOL     OW36160   2.074   0.917   5.900  0.5295 -0.2037 -0.2578
 8175SOL    HW136161   2.080   1.005   5.864 -2.2089  0.7812  1.6933
 8175SOL    HW236162   2.025   0.923   5.983  0.8822 -2.5783  0.1379
 8176SOL     OW36163   1.843   2.574   1.520  0.4694 -0.2629 -0.4636
 8176SOL    HW136164   1.806   2.653   1.559 -0.5938  0.6842 -3.4002
 8176SOL    HW236165   1.849   2.510   1.591  1.6958  1.2973  0.8580
 8177SOL     OW36166   3.800   2.443   5.582 -0.0771 -0.0042 -0.3904
 8177SOL    HW136167   3.738   2.420   5.651  0.6242  0.8864  0.5407
 8177SOL    HW236168   3.786   2.538   5.573 -0.5341 -0.0611 -0.2574
 8178SOL     OW36169   3.638   2.257   3.495 -0.1655 -0.3186 -0.7025
 8178SOL    HW136170   3.597   2.172   3.511 -0.1294 -0.2425 -0.1996
 8178SOL    HW236171   3.609   2.306   3.572 -0.6753 -1.3551 -0.2332
 8179SOL     OW36172   1.998   1.101  17.283 -0.1686 -0.5359  0.2265
 8179SOL    HW136173   2.047   1.165  17.230  0.4981  1.0504  2.7451
 8179SOL    HW236174   1.906   1.121  17.264 -0.4189 -0.5069  1.4756
 8180SOL     OW36175   0.582   0.887  15.070 -0.3046 -0.6375 -0.0572
 8180SOL    HW136176   0.496   0.853  15.046  1.1739 -2.3523 -2.9120
 8180SOL    HW236177   0.639   0.814  15.048 -1.3356 -0.8951 -1.8568
 8181SOL     OW36178   4.234   4.277   8.128  0.2542  0.1916  0.3968
 8181SOL    HW136179   4.212   4.332   8.203 -0.8303  0.2717  0.0274
 8181SOL    HW236180   4.152   4.291   8.079 -1.9191 -1.8984  3.4704
 8182SOL     OW36181   1.390   2.116   6.131  0.2605 -0.1209 -0.5414
 8182SOL    HW136182   1.446   2.185   6.165  0.2554 -0.2803 -0.2122
 8182SOL    HW236183   1.307   2.165   6.132  1.0423  1.1771 -0.2767
 8183SOL     OW36184   3.479   2.118   8.991  0.4766  0.4254  0.3324
 8183SOL    HW136185   3.459   2.032   9.030 -0.0932  1.0109  1.3426
 8183SOL    HW236186   3.422   2.125   8.915  0.8790 -2.7997 -0.2904
 8184SOL     OW36187   2.251   0.590   3.919  0.3338 -0.4343 -0.1612
 8184SOL    HW136188   2.336   0.572   3.960 -0.5250 -0.2529  1.6567
 8184SOL    HW236189   2.253   0.531   3.843 -0.1356  0.4718 -0.8769
 8185SOL     OW36190   3.828   2.016   3.595 -0.3446  0.0074  0.3663
 8185SOL    HW136191   3.896   2.009   3.662 -0.3966  1.0189  0.5282
 8185SOL    HW236192   3.832   2.111   3.582 -1.0010 -0.5195 -3.5700
 8186SOL     OW36193   0.705   1.336   0.986 -0.4437  0.0989  0.6364
 8186SOL    HW136194   0.637   1.391   1.026 -0.9031 -1.7957  2.4731
 8186SOL    HW236195   0.647   1.314   0.913 -0.7037  1.6217  0.3831
 8187SOL     OW36196   1.219   1.608   4.486 -0.6805  0.1136  0.0306
 8187SOL    HW136197   1.289   1.655   4.441 -1.9912  1.5015 -0.5485
 8187SOL    HW236198   1.163   1.575   4.415 -0.6070  0.6289 -0.2670
 8188SOL     OW36199   3.497   0.054   6.577 -0.8333 -0.4038 -0.0570
 8188SOL    HW136200   3.549   0.012   6.507  1.2006 -0.1929  1.3277
 8188SOL    HW236201   3.555   0.104   6.635 -1.2736 -0.0882  0.1059
 8189SOL     OW36202   1.563   2.494   7.247  0.7011 -0.2897  0.1079
 8189SOL    HW136203   1.611   2.502   7.164 -0.8599  0.0044 -0.7608
 8189SOL    HW236204   1.630   2.518   7.310  1.5959  1.5171 -1.5047
 8190SOL     OW36205   0.157   0.227   9.842 -0.2857 -0.3311 -0.0008
 8190SOL    HW136206   0.136   0.314   9.809  1.4344 -0.1830 -0.7122
 8190SOL    HW236207   0.113   0.169   9.780  1.1379 -2.0914  0.6411
 8191SOL     OW36208   0.961   1.620   6.482 -0.5481 -0.6510  0.4589
 8191SOL    HW136209   1.050   1.623   6.517 -0.7053 -1.6987  0.9635
 8191SOL    HW236210   0.962   1.543   6.426  0.0787  0.5030 -1.1044
 8192SOL     OW36211   3.158   3.356   3.994  0.6346  0.1385  0.2478
 8192SOL    HW136212   3.095   3.332   3.926  1.2801  0.5689 -0.4994
 8192SOL    HW236213   3.092   3.355   4.064 -1.4178 -2.5825 -1.7338
 8193SOL     OW36214   0.465   2.620   3.373 -0.2662 -0.3961 -0.0807
 8193SOL    HW136215   0.481   2.648   3.463  2.4139  0.3404 -0.7925
 8193SOL    HW236216   0.551   2.607   3.334 -0.3733  1.4434 -0.9128
 8194SOL     OW36217   2.960   4.283   6.274  0.3310 -0.7193 -0.1202
 8194SOL    HW136218   2.885   4.225   6.258 -1.0412  1.0735 -0.2643
 8194SOL    HW236219   2.989   4.293   6.183 -0.8189  2.5823 -0.1407
 8195SOL     OW36220   3.511   4.027  15.699  0.0981 -0.4326  0.4531
 8195SOL    HW136221   3.452   4.028  15.624 -0.2858 -1.8466  0.7447
 8195SOL    HW236222   3.581   3.978  15.655  0.1465  0.0144  0.0319
 8196SOL     OW36223   3.895   2.601   0.352 -0.1019  0.3704 -0.1039
 8196SOL    HW136224   3.920   2.626   0.441  0.1475  3.1087 -0.9661
 8196SOL    HW236225   3.960   2.635   0.290 -1.2430  0.4468 -1.2688
 8197SOL     OW36226   3.361   0.464   9.085  0.0174  0.0287  0.6432
 8197SOL    HW136227   3.384   0.401   9.017 -1.4312  0.1496  0.0409
 8197SOL    HW236228   3.451   0.467   9.117  0.1645 -0.3946  0.2779
 8198SOL     OW36229   3.195   1.926  12.632 -0.5117 -0.1554 -0.3571
 8198SOL    HW136230   3.129   1.969  12.686 -0.1484 -1.1112  0.8763
 8198SOL    HW236231   3.251   1.895  12.703 -0.1001 -4.5005 -2.5826
 8199SOL     OW36232   4.331   0.619   3.220  0.2367  0.4556 -0.0880
 8199SOL    HW136233   4.276   0.576   3.155 -0.3607  0.8624  0.1449
 8199SOL    HW236234   4.417   0.578   3.216  0.0181 -0.0382  0.2616
 8200SOL     OW36235   1.369   1.474  14.603 -0.3319  0.4598  0.4962
 8200SOL    HW136236   1.287   1.518  14.578  0.3693  1.2539 -0.4195
 8200SOL    HW236237   1.379   1.496  14.696 -0.0722  0.7580  0.3962
 8201SOL     OW36238   4.648   2.096   4.171  0.3878  0.0324 -0.3386
 8201SOL    HW136239   4.623   2.006   4.149  0.3059 -0.4071  1.5513
 8201SOL    HW236240   4.623   2.098   4.263  1.0691  1.7193 -0.1963
 8202SOL     OW36241   3.304   3.888   1.815  0.1357 -0.0614 -0.3235
 8202SOL    HW136242   3.284   3.882   1.908 -0.4433  0.8519 -0.3857
 8202SOL    HW236243   3.382   3.833   1.807 -1.1799 -1.8459 -0.6037
 8203SOL     OW36244   3.156   0.771  12.859 -0.2713  0.0426 -0.0448
 8203SOL    HW136245   3.138   0.743  12.769 -0.1640 -0.9899  0.2541
 8203SOL    HW236246   3.085   0.832  12.874  0.0584 -0.0827  2.0391
 8204SOL     OW36247   4.083   4.640   9.365  0.0530  0.6848 -0.1003
 8204SOL    HW136248   4.033   4.630   9.446 -0.6208  0.2842 -0.5696
 8204SOL    HW236249   4.148   4.570   9.369 -0.0838  0.7622  3.0450
 8205SOL     OW36250   2.314   1.684   4.780  0.1832  0.0575  0.2727
 8205SOL    HW136251   2.368   1.760   4.802 -0.3189  0.6180 -0.4235
 8205SOL    HW236252   2.276   1.706   4.695  0.4537  1.2786  0.4569
 8206SOL     OW36253   2.331   0.980  13.871 -0.4273  0.4442 -0.3204
 8206SOL    HW136254   2.273   0.918  13.917  1.5488 -1.9532 -1.0326
 8206SOL    HW236255   2.284   1.062  13.878 -2.3087 -0.9169  3.4262
 8207SOL     OW36256   0.728   3.471   0.851  0.3146 -0.6893 -0.5534
 8207SOL    HW136257   0.643   3.496   0.817  0.7922  0.9019 -0.6001
 8207SOL    HW236258   0.767   3.559   0.853 -0.2305 -0.4411 -0.7952
 8208SOL     OW36259   2.451   1.411   2.233 -0.3500  0.0489 -0.0155
 8208SOL    HW136260   2.444   1.474   2.305 -0.0361 -0.7495  0.7164
 8208SOL    HW236261   2.375   1.434   2.179 -0.0105 -0.8220 -0.8547
 8209SOL     OW36262   2.237   4.039  13.864 -0.0276 -0.0628 -0.0547
 8209SOL    HW136263   2.189   3.965  13.901 -0.7839  1.2166  1.5050
 8209SOL    HW236264   2.233   4.099  13.938  0.2292 -0.9579  0.6908
 8210SOL     OW36265   0.318   4.273   6.890  0.1456  0.3307 -0.0959
 8210SOL    HW136266   0.228   4.250   6.868  0.7121 -0.6560 -1.4162
 8210SOL    HW236267   0.353   4.185   6.906 -2.0346 -0.4400  0.3367
 8211SOL     OW36268   1.871   2.265  11.029 -0.5502 -0.0505  0.2739
 8211SOL    HW136269   1.794   2.279  11.085 -0.8964  0.8417 -0.4404
 8211SOL    HW236270   1.936   2.322  11.070 -1.0675  0.3869  0.4784
 8212SOL     OW36271   0.376   0.912  12.260  0.4267  0.1581  0.3458
 8212SOL    HW136272   0.362   1.001  12.226  2.4940  0.0325 -0.8133
 8212SOL    HW236273   0.286   0.879  12.264  0.7929 -0.9684 -0.8669
 8213SOL     OW36274   4.636   1.263   9.087  0.8322  0.5989 -0.0501
 8213SOL    HW136275   4.594   1.334   9.039 -0.8251 -1.2603 -1.3807
 8213SOL    HW236276   4.569   1.249   9.154  0.8043 -1.3171 -0.4630
 8214SOL     OW36277   2.560   4.687  17.438 -0.0442 -0.1507  0.7700
 8214SOL    HW136278   2.611   0.008  17.379  1.5618 -1.1191  1.2150
 8214SOL    HW236279   2.544   4.616  17.377  0.9875  2.2593 -2.3572
 8215SOL     OW36280   1.257   1.846  14.005 -0.3124  0.3270 -0.5992
 8215SOL    HW136281   1.225   1.929  13.969 -0.4233 -0.6118 -2.6247
 8215SOL    HW236282   1.348   1.859  14.035 -1.3895 -0.4098  3.0294
 8216SOL     OW36283   0.997   0.921  13.589  0.0162  0.8607  0.0915
 8216SOL    HW136284   1.050   0.905  13.511 -0.1835  2.2275 -0.3218
 8216SOL    HW236285   1.045   0.988  13.638 -1.2524  0.6890  1.5248
 8217SOL     OW36286   1.542   1.864  12.960  0.2908 -0.4851 -0.1355
 8217SOL    HW136287   1.627   1.832  12.990 -0.7838 -1.9648  1.3111
 8217SOL    HW236288   1.523   1.944  13.009  1.3641  0.5210 -1.3307
 8218SOL     OW36289   2.865   1.634   2.434  0.6849  0.5566  0.1447
 8218SOL    HW136290   2.813   1.689   2.376 -1.6148 -1.4290  0.3697
 8218SOL    HW236291   2.911   1.699   2.487  1.6507 -0.3719  0.4411
 8219SOL     OW36292   4.486   2.552   4.527 -0.4373 -0.5276  0.2680
 8219SOL    HW136293   4.420   2.521   4.464 -1.1912  1.3167  0.1422
 8219SOL    HW236294   4.567   2.548   4.476  0.3054 -1.7605  1.5730
 8220SOL     OW36295   3.501   0.408  12.725 -0.4390  0.3008  0.3881
 8220SOL    HW136296   3.589   0.426  12.692 -0.5742  2.1010  1.0428
 8220SOL    HW236297   3.495   0.312  12.724  0.3098  0.2167  3.4308
 8221SOL     OW36298   3.832   3.283  17.110 -0.1878  0.7723 -0.0084
 8221SOL    HW136299   3.773   3.355  17.089 -0.1932 -0.0051 -2.7130
 8221SOL    HW236300   3.769   3.230  17.161  0.9455 -2.8558 -2.3675
 8222SOL     OW36301   2.406   4.529   8.361  0.3629  0.3248  0.3925
 8222SOL    HW136302   2.322   4.497   8.328 -0.0264  2.1307 -0.3345
 8222SOL    HW236303   2.431   4.596   8.297 -0.8875  2.3308  2.0001
 8223SOL     OW36304   3.253   3.913   7.128 -0.6252  0.1011  0.0627
 8223SOL    HW136305   3.241   3.968   7.206  1.0459 -0.7377  0.9056
 8223SOL    HW236306   3.165   3.874   7.127 -0.6379  0.0323  2.5920
 8224SOL     OW36307   2.813   1.661  16.722  0.2401  0.1491  0.4221
 8224SOL    HW136308   2.813   1.742  16.670 -1.8637 -0.2168 -0.1482
 8224SOL    HW236309   2.841   1.604  16.650  0.2184  0.7704 -0.0815
 8225SOL     OW36310   2.301   4.086   3.620 -0.1024 -0.4570 -0.2029
 8225SOL    HW136311   2.303   4.051   3.709  0.9325 -2.7965 -1.1606
 8225SOL    HW236312   2.351   4.032   3.560  0.3250  0.6010 -0.8080
 8226SOL     OW36313   2.734   0.920   8.403  0.4723 -0.3279  0.7683
 8226SOL    HW136314   2.654   0.913   8.455 -1.2503  0.8407 -1.7519
 8226SOL    HW236315   2.722   0.847   8.341 -0.7656 -1.3713  2.2299
 8227SOL     OW36316   0.906   2.624  14.340  0.1538  0.2692 -0.0151
 8227SOL    HW136317   0.962   2.659  14.409  0.0858 -3.4323  1.9225
 8227SOL    HW236318   0.828   2.678  14.352 -0.3421 -0.2079 -1.0720
 8228SOL     OW36319   2.983   3.155   2.101 -0.0758  0.4843 -0.0570
 8228SOL    HW136320   3.067   3.156   2.146 -0.0112  2.4869 -0.2055
 8228SOL    HW236321   2.923   3.099   2.151  1.0604 -0.2661  0.4490
 8229SOL     OW36322   0.052   1.305   7.955  0.1774  0.5344  0.3954
 8229SOL    HW136323   0.102   1.381   7.926 -0.7527  0.1886 -2.0915
 8229SOL    HW236324   4.697   1.334   7.965 -1.6349 -4.1894 -2.1197
 8230SOL     OW36325   0.411   0.717   4.022 -0.2819 -0.0471 -0.0812
 8230SOL    HW136326   0.401   0.645   4.084 -2.7276  1.8087  1.6689
 8230SOL    HW236327   0.399   0.793   4.079  0.8239 -0.0517  0.1540
 8231SOL     OW36328   1.857   3.606  14.809  0.8518  0.2540  0.6095
 8231SOL    HW136329   1.926   3.599  14.875 -1.3849  2.1437  3.1262
 8231SOL    HW236330   1.874   3.532  14.750 -1.8570 -0.6690  0.9793
 8232SOL     OW36331   0.363   2.801   3.798  0.3872 -0.2510 -0.5344
 8232SOL    HW136332   0.362   2.894   3.776 -1.1193  0.3870  2.3321
 8232SOL    HW236333   0.354   2.806   3.893  1.1205 -0.1610 -0.4714
 8233SOL     OW36334   3.961   1.155   2.695  0.7048  0.2817  0.6104
 8233SOL    HW136335   4.007   1.160   2.779  1.6006  0.3887  0.1237
 8233SOL    HW236336   4.032   1.150   2.631  0.0868 -1.4765  0.0465
 8234SOL     OW36337   4.052   0.190   4.528 -0.0393 -0.2703 -0.0114
 8234SOL    HW136338   4.094   0.269   4.561  0.7346 -1.6670  2.2738
 8234SOL    HW236339   3.963   0.208   4.558  0.4080  1.1731  0.4259
 8235SOL     OW36340   4.667   1.378   9.433  0.1332 -0.4809 -0.2161
 8235SOL    HW136341   0.021   1.408   9.416 -1.1234  4.2748  1.6633
 8235SOL    HW236342   4.673   1.286   9.407  0.2659  0.0658 -2.1406
 8236SOL     OW36343   0.962   1.530   8.744  0.5653 -0.3493  0.0928
 8236SOL    HW136344   1.018   1.478   8.686 -0.2824 -2.0116  0.7475
 8236SOL    HW236345   0.935   1.461   8.805 -0.9664  0.4093  0.2570
 8237SOL     OW36346   2.790   2.721   6.580 -0.7139 -0.1701 -0.1557
 8237SOL    HW136347   2.833   2.687   6.501  0.4876  1.8224 -0.3645
 8237SOL    HW236348   2.813   2.665   6.654  1.1136  1.0334  0.1705
 8238SOL     OW36349   2.264   4.409   3.137 -0.0027  0.3015 -0.2813
 8238SOL    HW136350   2.239   4.332   3.188 -0.7454  2.6846  3.0029
 8238SOL    HW236351   2.203   4.403   3.063 -1.3231 -0.5961  0.8706
 8239SOL     OW36352   1.233   2.264   8.775 -0.1703 -0.2141 -0.0412
 8239SOL    HW136353   1.280   2.345   8.757 -0.2597  0.0552  0.9349
 8239SOL    HW236354   1.222   2.270   8.870 -1.3007 -1.2892 -0.1073
 8240SOL     OW36355   2.433   3.757   5.841 -0.0691  0.0351  0.8256
 8240SOL    HW136356   2.392   3.758   5.927 -0.4046 -0.3466  0.6721
 8240SOL    HW236357   2.447   3.663   5.827  1.8134  0.7187 -1.9122
 8241SOL     OW36358   4.533   0.651  15.057 -0.0991  0.1754 -0.3682
 8241SOL    HW136359   4.617   0.676  15.019  1.2788 -1.3647  1.6894
 8241SOL    HW236360   4.499   0.740  15.072  0.1710  0.5420 -1.8293
 8242SOL     OW36361   2.817   0.049   1.967 -0.2209  0.1259 -0.6194
 8242SOL    HW136362   2.848   0.107   1.897  0.7738  0.2768 -0.0567
 8242SOL    HW236363   2.723   0.054   1.952 -0.2436 -1.3438 -0.9815
 8243SOL     OW36364   1.899   1.146   9.617  0.6212  0.5138  0.5206
 8243SOL    HW136365   1.965   1.167   9.551 -0.1546  0.9975 -0.0958
 8243SOL    HW236366   1.949   1.098   9.683  0.7018  0.5179  0.4618
 8244SOL     OW36367   2.795   1.955  11.583  0.0729 -0.2631  0.2274
 8244SOL    HW136368   2.812   2.047  11.601  1.5951 -0.6688  0.9132
 8244SOL    HW236369   2.877   1.924  11.544  0.3813 -0.7739  1.2773
 8245SOL     OW36370   2.600   3.906   9.819  0.2367 -0.3407  0.2150
 8245SOL    HW136371   2.543   3.942   9.888  0.1808 -1.5177  0.7829
 8245SOL    HW236372   2.536   3.931   9.752  1.2488  0.1330 -0.5639
 8246SOL     OW36373   3.909   1.372   8.092 -0.2225  0.6841 -0.2073
 8246SOL    HW136374   3.968   1.428   8.041  1.7748 -0.0517  1.3413
 8246SOL    HW236375   3.860   1.327   8.023 -0.0122  1.4362 -0.8614
 8247SOL     OW36376   3.692   4.393   0.196  0.0643  0.5525 -0.3450
 8247SOL    HW136377   3.610   4.358   0.162 -0.0409 -0.7858  1.3028
 8247SOL    HW236378   3.685   4.487   0.181  0.3355  0.2686 -2.2333
 8248SOL     OW36379   3.017   4.140   6.855  0.0413 -0.2716  0.2143
 8248SOL    HW136380   2.938   4.101   6.817 -0.7330  1.3612  0.1543
 8248SOL    HW236381   2.986   4.230   6.867  0.7203 -0.4177  2.9769
 8249SOL     OW36382   0.240   0.521   3.026 -0.0409  0.0712  0.1107
 8249SOL    HW136383   0.250   0.493   3.117  0.5663 -2.2001 -0.6543
 8249SOL    HW236384   0.174   0.462   2.989 -0.8747 -0.0749  1.8116
 8250SOL     OW36385   1.490   0.934  11.779  0.3273 -0.2569  0.2696
 8250SOL    HW136386   1.406   0.904  11.746  0.6189 -0.1299 -0.5883
 8250SOL    HW236387   1.464   0.995  11.848 -1.0273 -2.6617  1.8700
 8251SOL     OW36388   3.414   1.670  17.734  0.3686 -0.0537  0.1441
 8251SOL    HW136389   3.348   1.697  17.670 -1.3355 -0.7373  1.6256
 8251SOL    HW236390   3.402   1.739   0.057  1.1704  0.5888 -0.3910
 8252SOL     OW36391   2.071   4.253   2.073 -0.1415  0.1241  0.1459
 8252SOL    HW136392   2.045   4.233   2.163 -3.4082  0.0419 -0.8170
 8252SOL    HW236393   2.015   4.187   2.033  0.2869  0.5453 -1.1586
 8253SOL     OW36394   3.050   3.886   3.983  0.4045  0.6410  0.7839
 8253SOL    HW136395   3.050   3.876   4.079 -0.9452  0.9653  0.8130
 8253SOL    HW236396   3.140   3.917   3.973  0.8567 -1.2188 -0.9844
 8254SOL     OW36397   2.330   3.897   5.577  0.4402 -0.3007 -0.0738
 8254SOL    HW136398   2.373   3.980   5.596  0.0560 -0.2702  0.6952
 8254SOL    HW236399   2.361   3.840   5.648 -3.0710  0.1252  1.8291
 8255SOL     OW36400   2.483   4.319   2.072 -0.0551  0.6557 -0.1274
 8255SOL    HW136401   2.547   4.356   2.010  1.1631  0.3523  0.9533
 8255SOL    HW236402   2.533   4.330   2.153 -1.8451 -1.1108  1.2105
 8256SOL     OW36403   3.436   1.728   4.347 -0.5134  0.2085  0.0350
 8256SOL    HW136404   3.507   1.769   4.297  1.1963 -0.3050  1.9878
 8256SOL    HW236405   3.370   1.716   4.280  0.0476 -2.3755 -0.0580
 8257SOL     OW36406   1.377   3.396   4.991 -0.5090 -0.4935 -0.3319
 8257SOL    HW136407   1.448   3.339   5.020  0.4363  0.6679 -0.3543
 8257SOL    HW236408   1.420   3.436   4.915 -0.6027  2.4290  1.1770
 8258SOL     OW36409   1.353   4.007  13.473 -0.7556  0.1057 -0.0372
 8258SOL    HW136410   1.415   4.075  13.499 -0.1585 -0.7551  0.7764
 8258SOL    HW236411   1.286   4.008  13.541 -2.1447  0.4238 -1.4066
 8259SOL     OW36412   3.657   2.363  10.780 -0.4917  0.4302 -0.3306
 8259SOL    HW136413   3.713   2.298  10.821 -2.3335  0.8265  2.7771
 8259SOL    HW236414   3.580   2.311  10.757 -0.2235 -0.5936  1.1224
 8260SOL     OW36415   2.725   0.576   9.058  0.2251 -0.2224 -0.3731
 8260SOL    HW136416   2.709   0.502   8.999 -2.4592 -1.3563  1.7534
 8260SOL    HW236417   2.749   0.649   9.002 -3.0903  1.0727 -0.1431
 8261SOL     OW36418   3.044   4.014   6.030 -0.1276 -0.6554 -0.2592
 8261SOL    HW136419   3.133   4.045   6.012  0.5513 -4.1814 -2.9270
 8261SOL    HW236420   2.993   4.090   6.001  0.7302  0.5338  1.3260
 8262SOL     OW36421   2.756   3.482   3.545 -0.2211  0.0019  0.4083
 8262SOL    HW136422   2.840   3.443   3.566  0.4006  0.2194 -1.6295
 8262SOL    HW236423   2.716   3.479   3.632 -0.2161 -1.6929  0.3498
 8263SOL     OW36424   2.590   3.837  14.694 -0.0479 -0.3854 -0.3875
 8263SOL    HW136425   2.576   3.751  14.735  0.7411 -0.3844 -0.1212
 8263SOL    HW236426   2.506   3.855  14.651 -0.0438 -0.0883 -0.2691
 8264SOL     OW36427   3.982   4.355   6.379  0.0515 -0.2177  0.3621
 8264SOL    HW136428   4.053   4.371   6.317  0.5285 -1.4605  0.5978
 8264SOL    HW236429   3.923   4.308   6.319  2.1462 -3.1842  0.6520
 8265SOL     OW36430   1.337   1.297   9.095  0.4373 -0.2010 -0.3294
 8265SOL    HW136431   1.268   1.313   9.031 -1.3313 -2.8230  0.8645
 8265SOL    HW236432   1.382   1.381   9.104  1.5717 -1.0186  1.8143
 8266SOL     OW36433   3.742   4.071   1.160  0.3027  0.5225 -0.3861
 8266SOL    HW136434   3.665   4.128   1.153 -0.6540 -0.9112 -1.6416
 8266SOL    HW236435   3.814   4.125   1.192 -0.6662  1.9023 -0.5678
 8267SOL     OW36436   4.034   1.579   9.881 -0.0968  0.2854 -0.3445
 8267SOL    HW136437   3.959   1.519   9.883 -0.4544  0.7278 -0.5314
 8267SOL    HW236438   3.995   1.661   9.912  0.3915  0.6051 -0.5752
 8268SOL     OW36439   2.234   4.157   9.531 -0.4508  0.1128  0.5015
 8268SOL    HW136440   2.155   4.103   9.533 -0.9049  0.6976 -1.8436
 8268SOL    HW236441   2.220   4.211   9.453  1.2879 -1.6310 -1.0022
 8269SOL     OW36442   3.297   4.601   0.924  0.0057  0.2938 -0.0586
 8269SOL    HW136443   3.341   4.684   0.938  0.8074 -0.2636  0.6942
 8269SOL    HW236444   3.224   4.637   0.873 -1.1208  0.1361  1.4421
 8270SOL     OW36445   0.595   0.615   9.139 -0.3024  0.7489 -1.1835
 8270SOL    HW136446   0.503   0.615   9.114 -0.8085 -4.1414  0.4921
 8270SOL    HW236447   0.647   0.671   9.082  0.7414  0.8919 -0.1009
 8271SOL     OW36448   4.025   3.361   8.186 -0.6096  0.1931  0.3181
 8271SOL    HW136449   4.071   3.444   8.198  2.5747 -1.5148  0.0530
 8271SOL    HW236450   4.096   3.300   8.209 -0.2147  1.6187  2.8543
 8272SOL     OW36451   3.092   2.902   1.063 -0.4713 -0.0651 -0.0869
 8272SOL    HW136452   3.078   2.937   1.151 -0.7334  2.4216 -1.1418
 8272SOL    HW236453   3.086   2.811   1.093  3.4339 -0.1387  0.4688
 8273SOL     OW36454   4.619   3.317  11.150 -0.1302  0.4867 -0.1675
 8273SOL    HW136455   4.700   3.299  11.199 -0.5879  0.7535  0.6882
 8273SOL    HW236456   4.638   3.406  11.119 -0.4260  0.7165  0.3025
 8274SOL     OW36457   4.191   0.878  12.795  0.5453  0.2647 -0.4014
 8274SOL    HW136458   4.126   0.938  12.757 -0.9560 -1.9995 -1.3936
 8274SOL    HW236459   4.192   0.896  12.889 -0.5341 -0.7730 -0.1869
 8275SOL     OW36460   3.215   2.594  10.956 -0.3182 -0.6666  0.1896
 8275SOL    HW136461   3.280   2.577  10.888  0.1914  0.5546  0.3672
 8275SOL    HW236462   3.140   2.586  10.898  0.2612 -2.1480 -0.3372
 8276SOL     OW36463   4.450   1.353  10.357 -0.0446  0.9424 -0.4334
 8276SOL    HW136464   4.432   1.259  10.357  0.4215  0.8538 -0.9893
 8276SOL    HW236465   4.400   1.382  10.281 -1.8804  0.7165  0.6856
 8277SOL     OW36466   3.882   3.799   0.741  0.6729 -0.2944  0.0656
 8277SOL    HW136467   3.880   3.783   0.835  1.6160 -2.6986 -0.3234
 8277SOL    HW236468   3.950   3.737   0.714  1.6479  0.9118 -0.2825
 8278SOL     OW36469   0.286   3.751   0.610  0.1009  0.3198 -0.0795
 8278SOL    HW136470   0.276   3.715   0.522  0.4059  0.9184 -0.3541
 8278SOL    HW236471   0.219   3.697   0.652  2.2409 -1.2370  1.3381
 8279SOL     OW36472   3.848   2.770   7.607  0.5655  0.1145  0.5289
 8279SOL    HW136473   3.844   2.859   7.571  2.0775 -0.9428 -2.1618
 8279SOL    HW236474   3.905   2.729   7.542  0.2964 -1.6402  1.3957
 8280SOL     OW36475   0.887   3.195   7.530 -0.3468  0.5125 -0.6510
 8280SOL    HW136476   0.796   3.178   7.556 -0.4072  1.1524 -0.4466
 8280SOL    HW236477   0.931   3.243   7.600 -0.5052  0.1837 -0.3275
 8281SOL     OW36478   2.797   3.888   6.948  0.2529 -0.2507  0.2416
 8281SOL    HW136479   2.803   3.973   6.905  0.3372  0.0929  0.9375
 8281SOL    HW236480   2.860   3.839   6.895  2.9739  0.6980  2.5549
 8282SOL     OW36481   3.637   0.092   8.727  0.6923  0.4304 -0.0120
 8282SOL    HW136482   3.722   0.063   8.695  0.4740  1.1706 -1.2607
 8282SOL    HW236483   3.609   0.019   8.782  1.9606  0.0392  0.1142
 8283SOL     OW36484   1.963   2.033  17.492  0.0874  0.1016 -0.6582
 8283SOL    HW136485   1.922   2.049  17.407 -0.4948 -2.4204 -0.8592
 8283SOL    HW236486   1.891   2.019  17.553  0.9398 -2.1299 -0.1620
 8284SOL     OW36487   2.249   0.729   6.036 -0.6061 -0.2448  0.4938
 8284SOL    HW136488   2.185   0.795   6.010  0.1372 -0.0130 -0.7755
 8284SOL    HW236489   2.324   0.789   6.036  1.3881 -2.7583 -0.3149
 8285SOL     OW36490   0.343   2.295  16.810 -0.5174 -0.5100 -0.0440
 8285SOL    HW136491   0.360   2.389  16.813 -1.3074 -0.2826 -2.8296
 8285SOL    HW236492   0.296   2.276  16.892  1.2547 -0.8624  0.9058
 8286SOL     OW36493   4.670   4.304   4.676  0.3723 -0.8165 -0.1348
 8286SOL    HW136494   4.655   4.395   4.699  0.9678 -0.8110  0.2337
 8286SOL    HW236495   4.589   4.301   4.626 -2.3554 -1.2831  4.3612
 8287SOL     OW36496   4.310   2.149   3.996 -0.1093 -0.1011  0.0905
 8287SOL    HW136497   4.304   2.210   3.922 -0.8934 -0.0134  0.2239
 8287SOL    HW236498   4.310   2.066   3.948 -1.5679  1.1265 -2.0241
 8288SOL     OW36499   3.256   0.811   1.971 -0.1811  0.2759 -0.6886
 8288SOL    HW136500   3.164   0.837   1.972 -0.4352 -0.7122  0.7230
 8288SOL    HW236501   3.306   0.885   1.935  0.2697  1.0664  1.5879
 8289SOL     OW36502   3.010   4.412   7.249 -0.5195  0.2112  0.3321
 8289SOL    HW136503   3.009   4.501   7.286  2.1483 -0.0567  0.9813
 8289SOL    HW236504   3.028   4.430   7.157  1.3483 -0.4617  0.5826
 8290SOL     OW36505   0.030   3.583   5.081 -0.1235 -0.0436 -0.1722
 8290SOL    HW136506   0.044   3.505   5.134  1.4465  0.5810  0.3190
 8290SOL    HW236507   4.684   3.616   5.120  0.7745 -0.3226  1.9068
 8291SOL     OW36508   3.547   1.436   8.892  0.4167  0.4868 -0.0516
 8291SOL    HW136509   3.515   1.351   8.922 -1.5199  0.9958 -0.6398
 8291SOL    HW236510   3.639   1.435   8.918 -0.0006  1.9223  1.4902
 8292SOL     OW36511   4.355   2.690   3.338 -0.0231 -0.2314 -0.9647
 8292SOL    HW136512   4.347   2.599   3.309  1.4436 -0.0565 -1.8824
 8292SOL    HW236513   4.287   2.737   3.291  2.6024  1.5982 -2.8988
 8293SOL     OW36514   2.795   0.361   2.688 -0.1466  0.7142 -0.3421
 8293SOL    HW136515   2.789   0.456   2.697 -0.9814  0.5409  0.9683
 8293SOL    HW236516   2.700   0.358   2.697 -0.1732 -1.5878 -1.4172
 8294SOL     OW36517   2.171   4.730   8.144 -0.9026 -0.0510  0.5147
 8294SOL    HW136518   2.160   4.645   8.186  1.6382  0.4135  2.0884
 8294SOL    HW236519   2.267   4.732   8.140 -0.9319  1.3831  0.5309
 8295SOL     OW36520   0.751   2.494   3.682 -0.0185 -0.0345 -0.2520
 8295SOL    HW136521   0.795   2.483   3.598  0.6562  1.8307 -0.1488
 8295SOL    HW236522   0.824   2.478   3.742  0.6596  0.6787 -0.8794
 8296SOL     OW36523   1.030   3.321   3.321 -0.3236 -0.4279  0.6852
 8296SOL    HW136524   1.003   3.396   3.373  0.2558  1.4119 -1.6740
 8296SOL    HW236525   1.055   3.257   3.388  0.2657 -0.1404  0.7367
 8297SOL     OW36526   0.891   3.591   2.267 -0.3780 -0.3160 -0.4537
 8297SOL    HW136527   0.825   3.623   2.329  1.3743 -1.6430  2.1231
 8297SOL    HW236528   0.964   3.569   2.325 -1.8629 -2.2386  0.6954
 8298SOL     OW36529   1.448   3.193   9.671  0.2240  0.7883  0.2819
 8298SOL    HW136530   1.406   3.257   9.728  0.8949  1.7673 -0.3224
 8298SOL    HW236531   1.373   3.155   9.626  0.3214 -2.7492  3.1320
 8299SOL     OW36532   1.755   2.933   8.200  0.1292 -0.0986 -0.2351
 8299SOL    HW136533   1.694   2.982   8.255 -0.4382 -0.2597 -0.7092
 8299SOL    HW236534   1.731   2.840   8.211  0.7008 -0.3768 -1.3661
 8300SOL     OW36535   1.721   0.765  14.218 -0.2286 -0.0666  0.2370
 8300SOL    HW136536   1.734   0.726  14.132 -1.7007 -0.7157  0.3074
 8300SOL    HW236537   1.796   0.821  14.237  0.8480 -0.7786 -1.9077
 8301SOL     OW36538   4.377   0.595   4.602  0.0785 -0.2229  0.0241
 8301SOL    HW136539   4.350   0.685   4.583  1.7550  0.8636  2.7457
 8301SOL    HW236540   4.431   0.573   4.526  0.9020 -0.1700  0.5911
 8302SOL     OW36541   4.148   4.188   8.701 -0.2619  0.4187 -0.3566
 8302SOL    HW136542   4.201   4.123   8.746  1.1078  0.4989 -1.8700
 8302SOL    HW236543   4.213   4.209   8.634 -1.0982 -2.8585 -2.2165
 8303SOL     OW36544   2.501   0.213   6.317  0.3953 -0.2697 -0.1617
 8303SOL    HW136545   2.581   0.160   6.315  0.3168 -0.4616  1.6929
 8303SOL    HW236546   2.526   0.285   6.259  0.2453 -0.6510 -0.6961
 8304SOL     OW36547   4.037   3.777   2.386  0.1687 -0.0366  0.5722
 8304SOL    HW136548   4.051   3.868   2.362  4.4019 -0.7665  0.2967
 8304SOL    HW236549   4.121   3.739   2.361 -1.4698 -3.2976 -0.0739
 8305SOL     OW36550   1.352   3.154  15.507  0.8532 -0.0998 -0.4761
 8305SOL    HW136551   1.306   3.209  15.444 -1.0244 -0.1212  0.8924
 8305SOL    HW236552   1.285   3.164  15.574  0.1548  0.9962 -1.3208
 8306SOL     OW36553   1.670   0.247   9.348 -0.0619 -0.0930 -0.7047
 8306SOL    HW136554   1.596   0.208   9.303 -0.0232 -1.7366  0.6342
 8306SOL    HW236555   1.656   0.232   9.442  0.4639  1.1293 -0.4237
 8307SOL     OW36556   2.606   3.810  15.552  0.2947  0.4400 -0.6283
 8307SOL    HW136557   2.562   3.893  15.533 -0.3108 -0.1303 -1.7211
 8307SOL    HW236558   2.577   3.758  15.478  1.0327  3.2118 -2.8663
 8308SOL     OW36559   3.071   1.606  13.639 -0.1727 -0.2312 -0.2063
 8308SOL    HW136560   3.142   1.670  13.632  0.0437 -0.6174 -1.5336
 8308SOL    HW236561   3.008   1.645  13.579 -0.2202 -1.9090 -1.2564
 8309SOL     OW36562   3.787   1.571   0.990 -0.5658 -0.0214  0.0167
 8309SOL    HW136563   3.750   1.649   0.949 -1.5086 -0.0637  0.7955
 8309SOL    HW236564   3.809   1.521   0.912 -2.9157  0.7672 -1.1371
 8310SOL     OW36565   1.761   0.890  10.676  0.0384 -0.0793 -0.3605
 8310SOL    HW136566   1.766   0.881  10.771  1.4423  2.2189 -0.2350
 8310SOL    HW236567   1.837   0.835  10.659 -1.2738 -1.2278 -2.5396
 8311SOL     OW36568   2.015   3.285   3.396  0.1620  0.1256  0.4036
 8311SOL    HW136569   1.968   3.328   3.468  0.3017 -0.6532  0.9682
 8311SOL    HW236570   2.102   3.288   3.436  0.7994 -0.2509 -0.9416
 8312SOL     OW36571   0.739   2.977  10.585 -0.5925 -0.1195  0.0625
 8312SOL    HW136572   0.756   2.924  10.507 -0.3688  1.3793 -0.9020
 8312SOL    HW236573   0.801   2.934  10.644 -0.0109 -2.5862 -2.3237
 8313SOL     OW36574   4.442   0.431  16.731  0.2438  0.0373 -0.2279
 8313SOL    HW136575   4.526   0.460  16.768 -0.6985 -0.0632  2.0027
 8313SOL    HW236576   4.399   0.509  16.695  0.1245 -0.6953 -1.6578
 8314SOL     OW36577   0.311   4.030  16.748 -0.1333 -0.7251 -0.8025
 8314SOL    HW136578   0.345   4.116  16.771  1.1792 -2.1352  2.6053
 8314SOL    HW236579   0.219   4.054  16.735 -0.2328 -0.5565  0.1849
 8315SOL     OW36580   1.014   0.870   6.909  0.1210 -0.3166  0.4495
 8315SOL    HW136581   1.083   0.887   6.973 -0.9431  2.7483  0.7547
 8315SOL    HW236582   0.960   0.810   6.960 -1.6682 -1.0007 -2.2457
 8316SOL     OW36583   3.711   1.868   5.347 -0.6479 -0.5255 -0.2399
 8316SOL    HW136584   3.720   1.920   5.427 -0.3809  0.5810 -0.9882
 8316SOL    HW236585   3.615   1.862   5.353 -0.7162 -0.4464 -1.2813
 8317SOL     OW36586   3.560   1.681   6.320 -0.1538  0.0687  0.4526
 8317SOL    HW136587   3.527   1.683   6.410 -0.6112 -2.3517  0.3191
 8317SOL    HW236588   3.569   1.775   6.300  1.8301 -0.4914 -1.3008
 8318SOL     OW36589   0.205   0.400   6.387  0.1157 -0.3230 -0.3182
 8318SOL    HW136590   0.219   0.310   6.418 -0.4684 -0.8943 -1.7490
 8318SOL    HW236591   0.152   0.381   6.310  2.8770  0.7476 -2.5159
 8319SOL     OW36592   2.146   3.831   6.733  0.3065  0.2192 -0.4683
 8319SOL    HW136593   2.057   3.802   6.714  0.3127 -0.9807  1.3736
 8319SOL    HW236594   2.153   3.908   6.676 -0.3340 -0.0843 -0.9585
 8320SOL     OW36595   3.389   3.971  16.670 -0.3447  0.4232 -0.0091
 8320SOL    HW136596   3.435   3.898  16.711  0.8151  2.0509  1.6062
 8320SOL    HW236597   3.332   3.921  16.612  0.0996  0.4871 -0.5037
 8321SOL     OW36598   1.092   0.946   0.742  0.3937 -0.2088  0.4698
 8321SOL    HW136599   1.066   1.028   0.785  2.5795  2.2291 -2.8211
 8321SOL    HW236600   1.134   0.908   0.819 -0.3942 -3.0097 -0.4896
 8322SOL     OW36601   2.761   0.088   6.788 -0.1334 -0.1486  0.0869
 8322SOL    HW136602   2.694   0.075   6.721 -0.1456 -1.0849  0.2842
 8322SOL    HW236603   2.835   0.063   6.731  0.4185  0.8262  0.3706
 8323SOL     OW36604   4.368   0.431   5.457 -0.3579  0.2443 -0.5730
 8323SOL    HW136605   4.431   0.402   5.390 -0.6735  1.1261 -1.2592
 8323SOL    HW236606   4.387   0.525   5.463 -0.3710  0.3712 -2.3396
 8324SOL     OW36607   2.571   2.626   7.482 -0.0655 -0.0925  0.1100
 8324SOL    HW136608   2.628   2.581   7.544 -1.0538  0.7741  1.6822
 8324SOL    HW236609   2.617   2.710   7.484  0.7506 -0.5144 -1.4884
 8325SOL     OW36610   4.506   0.948  13.139 -0.5252  0.5639 -0.4942
 8325SOL    HW136611   4.508   0.997  13.221  1.9762 -0.1981 -0.1145
 8325SOL    HW236612   4.523   1.017  13.075 -0.2119  2.0983  1.2506
 8326SOL     OW36613   1.120   3.461   0.603  0.3063 -0.1148  0.1588
 8326SOL    HW136614   1.204   3.492   0.569  1.3106 -1.5495  1.3500
 8326SOL    HW236615   1.125   3.367   0.591 -0.1477 -0.1529  0.2629
 8327SOL     OW36616   0.599   1.287  16.620  0.3023  0.3335  0.0269
 8327SOL    HW136617   0.678   1.256  16.575 -0.0276 -0.5670  0.0702
 8327SOL    HW236618   0.636   1.345  16.687  1.5459 -1.9420  1.3291
 8328SOL     OW36619   3.280   1.747   8.125  0.5078 -1.0060 -0.2822
 8328SOL    HW136620   3.319   1.674   8.172 -0.4268 -0.2910  1.6150
 8328SOL    HW236621   3.314   1.824   8.172 -0.6861  0.6929 -2.1824
 8329SOL     OW36622   1.276   1.353  15.613  0.0329 -0.2413 -0.1646
 8329SOL    HW136623   1.194   1.367  15.566 -0.3602 -0.3070  0.5070
 8329SOL    HW236624   1.331   1.341  15.535  0.6455 -0.3542  0.2886
 8330SOL     OW36625   3.573   1.777   4.116 -0.5193  0.3625  0.4233
 8330SOL    HW136626   3.542   1.737   4.034 -0.1235  2.7636 -0.9051
 8330SOL    HW236627   3.664   1.760   4.091 -0.4016  1.2903  0.2225
 8331SOL     OW36628   4.265   1.636  12.168  0.5742  0.1963 -0.0604
 8331SOL    HW136629   4.306   1.562  12.124 -0.1706  1.1503 -2.4129
 8331SOL    HW236630   4.291   1.630  12.259 -0.7106 -1.0977  0.2123
 8332SOL     OW36631   4.656   0.979   0.901 -0.4814 -0.3125 -0.0709
 8332SOL    HW136632   4.611   0.929   0.833 -0.2339  0.9118 -1.1402
 8332SOL    HW236633   0.011   0.950   0.896 -1.0579 -2.7298  3.3406
 8333SOL     OW36634   2.917   0.544  14.753  0.2453  0.6620  0.1109
 8333SOL    HW136635   3.010   0.566  14.760  0.8583 -1.6238 -0.7702
 8333SOL    HW236636   2.919   0.455  14.716  0.8856  0.6080  0.2737
 8334SOL     OW36637   0.438   4.077   7.299  0.1786  0.2998 -0.1877
 8334SOL    HW136638   0.387   4.103   7.376 -0.4616  1.0506 -0.8734
 8334SOL    HW236639   0.436   3.981   7.289 -0.7162  0.4833 -1.7409
 8335SOL     OW36640   1.921   3.660   6.898 -0.3940 -0.5594  0.3246
 8335SOL    HW136641   2.000   3.608   6.911  1.1510  1.6065 -0.3222
 8335SOL    HW236642   1.855   3.595   6.922  0.2453 -0.6890  1.7372
 8336SOL     OW36643   0.062   3.930   3.160  0.6112  0.5755  0.0899
 8336SOL    HW136644   0.057   4.011   3.212 -1.8741 -0.6027  1.7064
 8336SOL    HW236645   4.712   3.933   3.118  1.0536  0.9495 -0.7756
 8337SOL     OW36646   1.822   3.029   8.510 -0.2029 -0.2769  0.0387
 8337SOL    HW136647   1.747   3.068   8.466 -0.0694 -1.1135 -0.9342
 8337SOL    HW236648   1.823   2.941   8.472 -0.4603  0.3320 -1.3680
 8338SOL     OW36649   2.375   2.802   1.292 -0.1598  0.0448  0.4327
 8338SOL    HW136650   2.396   2.772   1.203  0.3800 -3.2232  1.7036
 8338SOL    HW236651   2.316   2.876   1.277 -1.5343 -1.2027 -0.3490
 8339SOL     OW36652   1.848   3.978   6.215 -0.3382  0.2355 -0.0323
 8339SOL    HW136653   1.891   4.032   6.149 -0.2410  1.9037  1.3847
 8339SOL    HW236654   1.927   3.961   6.267  0.3861 -0.2784 -1.2971
 8340SOL     OW36655   1.139   0.962   4.605  0.2677 -0.2592  0.1291
 8340SOL    HW136656   1.078   0.919   4.665 -1.3806  1.5280 -0.2568
 8340SOL    HW236657   1.220   0.922   4.637  0.5757 -0.0847 -0.4371
 8341SOL     OW36658   0.365   2.831   4.497  0.5814  0.8474  0.8360
 8341SOL    HW136659   0.362   2.737   4.478  0.7572  0.6606  1.7571
 8341SOL    HW236660   0.335   2.843   4.587  0.7426 -2.4969  1.3243
 8342SOL     OW36661   0.591   2.852   2.792  0.0718 -0.1036  0.1706
 8342SOL    HW136662   0.687   2.859   2.793 -0.1093  2.0579  2.0742
 8342SOL    HW236663   0.582   2.826   2.700  1.5568  0.3112 -0.0958
 8343SOL     OW36664   3.414   0.808   8.716  0.0801  0.6506  0.5496
 8343SOL    HW136665   3.472   0.834   8.788  0.6581 -0.2125  0.3961
 8343SOL    HW236666   3.443   0.718   8.697  0.1450  0.3067  2.2683
 8344SOL     OW36667   2.049   4.394   2.440  0.0788 -0.2120 -0.3953
 8344SOL    HW136668   2.067   4.475   2.392 -3.1977 -0.2331 -1.6434
 8344SOL    HW236669   2.130   4.346   2.423  0.5014  0.1592  0.5936
 8345SOL     OW36670   1.238   4.524   4.750 -0.5469  0.2933  0.5204
 8345SOL    HW136671   1.291   4.474   4.687  0.4626  0.3835  1.2971
 8345SOL    HW236672   1.304   4.552   4.813 -1.1390  1.5400  0.5759
 8346SOL     OW36673   3.628   4.680   0.549  0.1336 -0.2526  0.4493
 8346SOL    HW136674   3.537   4.654   0.567 -0.0111 -0.9730 -1.3143
 8346SOL    HW236675   3.681   4.600   0.555 -0.2990 -0.8081 -2.8251
 8347SOL     OW36676   3.147   2.962   9.625  0.0405 -0.1539  0.4224
 8347SOL    HW136677   3.098   3.029   9.673  0.2651  0.6122 -0.4304
 8347SOL    HW236678   3.222   3.014   9.596 -0.4267  0.9223  1.1274
 8348SOL     OW36679   1.671   1.475   9.339  0.2340  0.0443 -0.0626
 8348SOL    HW136680   1.630   1.517   9.415 -1.8921  1.5143 -2.0125
 8348SOL    HW236681   1.696   1.393   9.381  1.1255 -1.2329 -3.0920
 8349SOL     OW36682   3.462   1.966   0.182 -0.0312  0.3169  0.0125
 8349SOL    HW136683   3.492   2.056   0.163 -0.2369  0.5744  0.9098
 8349SOL    HW236684   3.516   1.949   0.260  0.5395 -1.3035 -0.7548
 8350SOL     OW36685   3.808   0.944  15.934 -0.1407 -0.5583  0.0073
 8350SOL    HW136686   3.733   0.961  15.876 -0.1959  1.1779  0.6048
 8350SOL    HW236687   3.884   0.949  15.876 -1.2724 -0.0307 -1.4483
 8351SOL     OW36688   2.582   2.028  16.747  0.0316 -0.2047 -0.2925
 8351SOL    HW136689   2.531   2.003  16.825 -0.5478 -0.8351 -0.8688
 8351SOL    HW236690   2.669   2.001  16.776 -0.5784 -2.9906 -0.9987
 8352SOL     OW36691   1.878   2.932   6.629  0.5536 -0.1668 -0.5246
 8352SOL    HW136692   1.892   3.007   6.688 -0.1266 -0.9808  0.6785
 8352SOL    HW236693   1.809   2.960   6.570 -0.2033 -0.7607  0.0808
 8353SOL     OW36694   0.526   0.640  14.234 -0.0946 -0.5162  0.3755
 8353SOL    HW136695   0.502   0.582  14.306 -0.6538 -2.8608 -1.7092
 8353SOL    HW236696   0.618   0.659  14.251 -0.0815 -2.2389  2.2509
 8354SOL     OW36697   2.274   4.464  12.188  0.0207 -0.3491 -0.2696
 8354SOL    HW136698   2.204   4.508  12.236  0.6315  0.0658  0.2464
 8354SOL    HW236699   2.226   4.463  12.105  2.4541  0.1696 -1.6866
 8355SOL     OW36700   3.246   0.838   4.885 -0.4228 -0.1992  0.5363
 8355SOL    HW136701   3.308   0.780   4.840  0.2396  0.7019  0.2837
 8355SOL    HW236702   3.241   0.793   4.969  0.3338  0.5177  0.9708
 8356SOL     OW36703   3.406   3.106  10.318  0.2134 -0.2961  0.0205
 8356SOL    HW136704   3.328   3.151  10.352 -0.0359  0.1092 -1.0967
 8356SOL    HW236705   3.454   3.180  10.280 -0.2208  0.4548  0.9150
 8357SOL     OW36706   4.489   4.720  16.500  0.1083 -0.0343 -0.6252
 8357SOL    HW136707   4.437   4.642  16.479  3.3686 -1.8751 -1.8892
 8357SOL    HW236708   4.512   0.012  16.412  0.2922  0.6000 -0.3760
 8358SOL     OW36709   0.261   0.708   3.297  0.2103 -0.0964  0.2660
 8358SOL    HW136710   0.228   0.777   3.239 -2.3600 -1.2333  0.3648
 8358SOL    HW236711   0.342   0.752   3.323  1.2386 -1.2520 -0.9937
 8359SOL     OW36712   2.734   2.222   3.266 -0.0048 -0.3109  0.0369
 8359SOL    HW136713   2.744   2.300   3.212  1.7875 -2.7836 -3.2400
 8359SOL    HW236714   2.808   2.230   3.326 -0.1436  0.3476  0.1161
 8360SOL     OW36715   3.320   4.715   2.439  0.1398 -0.1244 -0.1220
 8360SOL    HW136716   3.240   0.016   2.478 -0.3461 -1.3117  0.0046
 8360SOL    HW236717   3.334   0.044   2.370 -0.3867 -2.6269 -2.5503
 8361SOL     OW36718   2.997   0.388   2.519 -0.1421  0.1610  0.3157
 8361SOL    HW136719   2.918   0.364   2.567 -1.1351 -1.4763 -2.1581
 8361SOL    HW236720   2.993   0.481   2.540 -3.2058  0.4621 -1.7328
 8362SOL     OW36721   4.089   2.999   7.155  0.6717  0.2270  0.1297
 8362SOL    HW136722   4.114   2.908   7.140  0.0632  0.0037  0.4565
 8362SOL    HW236723   4.081   2.989   7.250  1.1769 -0.0019  0.1467
 8363SOL     OW36724   4.293   3.522   5.040  0.0022  0.2326  0.9411
 8363SOL    HW136725   4.289   3.602   5.092  0.9282  0.7736  0.1947
 8363SOL    HW236726   4.215   3.523   4.985  2.3825 -0.0851 -2.4582
 8364SOL     OW36727   3.215   3.860  16.490 -0.2082  0.6989 -0.2104
 8364SOL    HW136728   3.138   3.869  16.435 -1.6005  0.4690  1.7203
 8364SOL    HW236729   3.204   3.774  16.531  0.7695  0.8149  0.2931
 8365SOL     OW36730   3.199   4.281   3.717  0.0105  0.2141 -0.6586
 8365SOL    HW136731   3.184   4.375   3.721 -0.0913  0.2616 -2.3648
 8365SOL    HW236732   3.147   4.245   3.789 -0.4582 -1.2436 -1.7313
 8366SOL     OW36733   1.300   2.161   6.437 -0.3398 -0.0925  0.3449
 8366SOL    HW136734   1.248   2.169   6.517 -0.0288  2.4816  0.2888
 8366SOL    HW236735   1.378   2.168   6.492 -0.7495 -0.6583  1.0146
 8367SOL     OW36736   2.389   3.372   4.132  0.1503 -0.8296 -0.0380
 8367SOL    HW136737   2.354   3.287   4.103  1.1360 -1.4719  0.6492
 8367SOL    HW236738   2.393   3.347   4.224  2.1121 -0.1152  0.0729
 8368SOL     OW36739   0.706   0.028  12.556  0.0556 -0.0215 -0.3881
 8368SOL    HW136740   0.750   4.732  12.635  0.1738 -1.8253 -1.1628
 8368SOL    HW236741   0.620   0.041  12.597  0.5593  1.1171  0.2981
 8369SOL     OW36742   0.252   0.411  14.113 -0.5725 -0.3120 -0.1162
 8369SOL    HW136743   0.251   0.506  14.105 -0.1737 -0.2010  1.2336
 8369SOL    HW236744   0.173   0.373  14.153  1.1027 -2.8203  0.8534
 8370SOL     OW36745   3.711   1.796   0.877  0.2423  0.4265 -0.1919
 8370SOL    HW136746   3.623   1.833   0.874  0.0138 -0.0256  0.7847
 8370SOL    HW236747   3.754   1.836   0.953 -0.2578 -3.2909  2.0569
 8371SOL     OW36748   4.654   3.621   3.942 -0.7278  0.0071 -0.0908
 8371SOL    HW136749   4.576   3.592   3.989  0.9769 -3.2479  0.7174
 8371SOL    HW236750   4.722   3.612   4.008  0.4847 -2.0914 -1.6703
 8372SOL     OW36751   3.613   1.913   2.640  0.4307 -0.3050  0.2991
 8372SOL    HW136752   3.618   1.821   2.665 -0.5684 -0.2688  0.6205
 8372SOL    HW236753   3.550   1.903   2.568  0.0699  0.6219  0.4886
 8373SOL     OW36754   0.332   2.756  15.310 -0.1736  0.3917  0.2752
 8373SOL    HW136755   0.345   2.664  15.285 -4.9099 -0.4145  0.7260
 8373SOL    HW236756   0.415   2.775  15.354  0.8022 -0.6322 -1.1327
 8374SOL     OW36757   4.081   0.025  16.484 -0.2228 -0.5615 -0.3987
 8374SOL    HW136758   4.041   4.678  16.459  0.0884 -1.0520  0.7191
 8374SOL    HW236759   4.159   4.717  16.518 -0.0974 -0.6933 -0.8584
 8375SOL     OW36760   4.402   3.987   1.964  0.1121 -0.7393 -0.4206
 8375SOL    HW136761   4.402   3.982   1.869 -1.1475 -0.2326 -0.4488
 8375SOL    HW236762   4.459   4.061   1.986 -0.6828 -0.7725  1.7585
 8376SOL     OW36763   0.228   4.428  13.482  0.0946 -0.4409 -0.1235
 8376SOL    HW136764   0.182   4.498  13.529  0.6739 -0.4681  0.4881
 8376SOL    HW236765   0.317   4.438  13.515 -0.9964  3.0506  1.7659
 8377SOL     OW36766   1.346   1.706  11.403  0.0110 -0.3342  0.7820
 8377SOL    HW136767   1.295   1.640  11.451 -3.4918  0.3394 -1.9728
 8377SOL    HW236768   1.413   1.653  11.360 -0.7438 -1.2245  0.7134
 8378SOL     OW36769   3.175   3.206   1.499 -0.4239 -0.6220  0.3300
 8378SOL    HW136770   3.162   3.295   1.465 -0.0533 -0.7504 -0.1499
 8378SOL    HW236771   3.202   3.218   1.590 -0.8463  1.0052  0.2489
 8379SOL     OW36772   1.677   4.143   6.703  0.4541  0.7903  0.3245
 8379SOL    HW136773   1.616   4.173   6.771  0.2796 -0.4912  0.7217
 8379SOL    HW236774   1.639   4.055   6.697 -0.6585  1.1773  1.7093
 8380SOL     OW36775   2.103   3.971   8.463 -0.1531  0.4833  0.4883
 8380SOL    HW136776   2.197   3.952   8.456 -0.0456  1.4078 -0.5439
 8380SOL    HW236777   2.066   3.928   8.540  1.2676  1.5472  1.7420
 8381SOL     OW36778   3.388   3.029   2.832  0.0687 -0.2468  0.1044
 8381SOL    HW136779   3.313   3.063   2.882 -0.2590 -1.1346  0.2109
 8381SOL    HW236780   3.338   2.991   2.760 -1.1633 -0.3848  1.0289
 8382SOL     OW36781   1.324   4.067   8.309 -0.3510  0.3372  0.3014
 8382SOL    HW136782   1.417   4.085   8.324 -0.9719  1.7850  2.4173
 8382SOL    HW236783   1.311   4.001   8.377 -0.1320  1.8184  1.7650
 8383SOL     OW36784   3.251   1.846   0.327 -0.2984 -0.3608  0.3492
 8383SOL    HW136785   3.297   1.886   0.254  0.0701 -2.2076 -0.4298
 8383SOL    HW236786   3.286   1.903   0.395  1.8633  0.2924 -1.3520
 8384SOL     OW36787   4.248   2.743   6.493 -0.4649  0.7512 -0.2351
 8384SOL    HW136788   4.335   2.731   6.531 -0.2438 -0.1662 -1.0305
 8384SOL    HW236789   4.268   2.807   6.425 -3.4711  2.4096  0.4662
 8385SOL     OW36790   3.414   0.635   4.805  0.0721  0.0897 -0.2683
 8385SOL    HW136791   3.386   0.571   4.871  2.0903 -1.0396 -0.5224
 8385SOL    HW236792   3.509   0.624   4.803  0.3051  2.3642 -1.5034
 8386SOL     OW36793   2.423   1.685   5.677 -0.1843 -0.9611  0.5424
 8386SOL    HW136794   2.494   1.744   5.703 -0.7453  1.0949 -2.6198
 8386SOL    HW236795   2.431   1.617   5.745 -0.5578 -2.9985 -1.4512
 8387SOL     OW36796   2.755   3.955  17.357 -0.2003  0.4333 -0.2974
 8387SOL    HW136797   2.844   3.990  17.360  0.0509 -0.1938 -0.4176
 8387SOL    HW236798   2.748   3.910  17.441  0.6868  1.7878  0.5020
 8388SOL     OW36799   1.019   1.313   7.403 -0.5641  0.5998  0.1696
 8388SOL    HW136800   0.944   1.367   7.430 -0.9482 -0.3982  1.0871
 8388SOL    HW236801   0.989   1.239   7.350 -0.7720  1.7738 -1.3538
 8389SOL     OW36802   3.772   3.481   2.345  0.2886 -0.0482 -0.7403
 8389SOL    HW136803   3.815   3.437   2.272  0.2306 -1.2483 -0.0394
 8389SOL    HW236804   3.721   3.407   2.377  1.6533 -0.2884  0.8549
 8390SOL     OW36805   4.439   4.280   7.223 -0.0211 -0.0313  0.0736
 8390SOL    HW136806   4.413   4.345   7.289 -0.9231 -0.3715  0.0574
 8390SOL    HW236807   4.534   4.284   7.215 -0.0320 -0.1877 -0.1353
 8391SOL     OW36808   4.334   4.239   8.523 -0.2566 -0.4545  0.2047
 8391SOL    HW136809   4.407   4.261   8.465  1.2342 -2.4051  1.3497
 8391SOL    HW236810   4.327   4.147   8.497  1.6358 -0.4296 -0.3994
 8392SOL     OW36811   1.678   2.639   3.602  0.0762 -0.4475  0.3520
 8392SOL    HW136812   1.690   2.725   3.563  0.6966 -1.0733 -0.8470
 8392SOL    HW236813   1.732   2.649   3.681 -1.8513 -0.1690  1.6389
 8393SOL     OW36814   3.828   0.365   2.403 -0.3387  0.2208 -0.3225
 8393SOL    HW136815   3.780   0.425   2.346 -2.3108 -0.6554  0.4081
 8393SOL    HW236816   3.748   0.314   2.419 -0.0430 -0.1082  0.1030
 8394SOL     OW36817   2.957   1.837   3.908 -0.7824 -0.5871 -0.7069
 8394SOL    HW136818   3.036   1.834   3.961 -1.1816 -1.8793 -0.1628
 8394SOL    HW236819   2.957   1.925   3.871 -0.0788 -0.7348 -1.0508
 8395SOL     OW36820   3.277   2.368   2.879 -0.4445  0.5837 -0.4033
 8395SOL    HW136821   3.224   2.372   2.958  0.3974 -0.0509  0.1968
 8395SOL    HW236822   3.351   2.316   2.911 -1.4949 -1.4891 -1.3580
 8396SOL     OW36823   2.273   3.309   7.610 -0.0493 -0.5925  0.0496
 8396SOL    HW136824   2.184   3.294   7.579 -0.1694  1.6496 -0.6709
 8396SOL    HW236825   2.280   3.404   7.617 -1.3050 -0.3699 -1.6876
 8397SOL     OW36826   1.353   2.230  15.247  0.2889 -0.1233 -0.1421
 8397SOL    HW136827   1.333   2.148  15.291 -1.1469  0.1707 -0.2626
 8397SOL    HW236828   1.332   2.292  15.317  0.4718  1.3384 -1.3792
 8398SOL     OW36829   0.313   0.886   0.591  0.1962 -0.5277 -0.0180
 8398SOL    HW136830   0.341   0.935   0.514  1.8356  0.1498  1.0090
 8398SOL    HW236831   0.389   0.829   0.596  0.1242 -0.3403  3.1172
 8399SOL     OW36832   3.023   1.748  16.952  0.1869 -0.2424 -0.1334
 8399SOL    HW136833   2.990   1.678  16.895  1.6189 -2.0229  1.2308
 8399SOL    HW236834   2.942   1.772  16.996 -0.4527  0.2789 -1.5814
 8400SOL     OW36835   3.228   3.839  12.332  0.3124  0.2932 -0.0813
 8400SOL    HW136836   3.268   3.924  12.315  0.2463  0.5460  0.9839
 8400SOL    HW236837   3.275   3.785  12.269 -0.7717  0.2514 -0.8462
 8401SOL     OW36838   0.446   0.317   9.174 -0.3117 -0.2665 -0.0307
 8401SOL    HW136839   0.434   0.412   9.181 -0.4324 -0.3683  1.1773
 8401SOL    HW236840   0.531   0.311   9.219 -0.6062  1.8339  0.7984
 8402SOL     OW36841   4.259   0.577   2.330 -0.2522 -0.2761 -1.0596
 8402SOL    HW136842   4.177   0.568   2.377 -1.5254  2.2834 -2.7737
 8402SOL    HW236843   4.225   0.567   2.241  0.8272 -0.8307 -1.4166
 8403SOL     OW36844   4.693   2.196  13.811 -0.4207  0.1911  0.0955
 8403SOL    HW136845   4.686   2.159  13.899 -0.5387 -2.6032 -1.0798
 8403SOL    HW236846   0.045   2.167  13.785 -0.2269 -0.0255  0.9757
 8404SOL     OW36847   2.739   3.495   7.146 -0.1293 -0.1454 -0.3599
 8404SOL    HW136848   2.708   3.583   7.169  1.3096  0.1902  0.2755
 8404SOL    HW236849   2.701   3.453   7.223 -0.1473 -0.2936 -0.4492
 8405SOL     OW36850   4.587   3.431  13.018 -0.0231  0.2791 -0.0424
 8405SOL    HW136851   4.633   3.452  13.100  2.6862 -1.1305 -1.1906
 8405SOL    HW236852   4.524   3.368  13.052  0.8962 -0.3154  0.5678
 8406SOL     OW36853   1.641   3.514   6.642 -0.3506  0.7236  0.4942
 8406SOL    HW136854   1.604   3.569   6.711 -1.8394 -2.5957  2.3383
 8406SOL    HW236855   1.677   3.443   6.696 -0.2055 -0.0480 -0.6145
 8407SOL     OW36856   0.404   1.404   3.852  0.2407 -0.2279  0.0637
 8407SOL    HW136857   0.345   1.473   3.821  0.0555 -0.7212 -0.6499
 8407SOL    HW236858   0.451   1.383   3.772 -0.6904 -2.6545  0.1565
 8408SOL     OW36859   1.763   0.656   0.433 -0.2955  0.4763 -0.6080
 8408SOL    HW136860   1.731   0.745   0.419 -1.2834  0.4946  1.7783
 8408SOL    HW236861   1.829   0.680   0.499 -0.3794 -1.0557  0.0479
 8409SOL     OW36862   0.408   4.297   6.292  0.6490 -0.2979 -0.1130
 8409SOL    HW136863   0.344   4.362   6.262  0.1832  0.0560  1.6901
 8409SOL    HW236864   0.430   4.247   6.214  1.0927 -0.0361 -0.1532
 8410SOL     OW36865   1.512   3.106  11.730 -0.7511  0.0897  0.6317
 8410SOL    HW136866   1.484   3.046  11.800 -2.4100 -0.0607 -0.1646
 8410SOL    HW236867   1.581   3.158  11.771  1.5630 -1.6796 -1.0852
 8411SOL     OW36868   2.364   1.967   1.755  0.6016  0.2819  0.0064
 8411SOL    HW136869   2.280   2.009   1.773  0.0373 -0.8233 -0.0592
 8411SOL    HW236870   2.364   1.884   1.804  0.8007  1.6425  2.3096
 8412SOL     OW36871   4.061   4.100   6.270 -0.4029 -0.0004 -0.4240
 8412SOL    HW136872   3.973   4.127   6.244 -0.3173 -1.0516 -1.7953
 8412SOL    HW236873   4.110   4.161   6.216  3.1069 -1.7466  0.8242
 8413SOL     OW36874   1.037   1.181   2.508 -0.4996  0.0984  0.1015
 8413SOL    HW136875   1.070   1.139   2.428 -0.3128 -0.6063  0.5477
 8413SOL    HW236876   1.041   1.271   2.477  0.6663 -0.6956 -2.0566
 8414SOL     OW36877   3.048   1.466   2.243 -0.0425  0.5858  0.2532
 8414SOL    HW136878   3.114   1.456   2.311 -1.2143  0.0487  1.3025
 8414SOL    HW236879   2.978   1.508   2.292 -1.2396  0.9794 -1.7891
 8415SOL     OW36880   4.290   3.500   6.555  0.2491 -0.5569 -0.1455
 8415SOL    HW136881   4.298   3.477   6.648  0.7662  0.1976 -0.0051
 8415SOL    HW236882   4.282   3.415   6.513  1.5381 -1.3854  1.2739
 8416SOL     OW36883   4.274   3.498  10.173  0.2776  0.6860 -0.2097
 8416SOL    HW136884   4.346   3.436  10.182 -0.1371  0.3242  0.5605
 8416SOL    HW236885   4.316   3.569  10.222  0.4066  1.4239 -1.3791
 8417SOL     OW36886   3.457   3.596   6.523 -0.5208 -0.0310  0.2700
 8417SOL    HW136887   3.418   3.661   6.582 -0.7357 -0.8112  0.9897
 8417SOL    HW236888   3.549   3.604   6.549 -0.3804 -0.8705  0.0356
 8418SOL     OW36889   3.454   4.622   8.872  0.8596 -0.0646  0.0249
 8418SOL    HW136890   3.509   4.663   8.939  2.4701 -1.9383 -0.1453
 8418SOL    HW236891   3.495   4.540   8.845 -0.0967 -0.2236 -0.8957
 8419SOL     OW36892   2.804   1.631   8.382 -0.4173 -0.5568 -0.1784
 8419SOL    HW136893   2.746   1.587   8.445  0.8975 -1.5616  0.3379
 8419SOL    HW236894   2.765   1.610   8.298  2.3195 -0.9288 -1.3633
 8420SOL     OW36895   1.491   3.241  15.027 -0.4316 -0.5144 -0.4739
 8420SOL    HW136896   1.566   3.201  14.984 -0.0775 -0.0837 -0.2534
 8420SOL    HW236897   1.478   3.315  14.968  0.4040 -0.1067 -0.1378
 8421SOL     OW36898   2.805   2.909  16.284 -0.4563  0.2695 -0.4598
 8421SOL    HW136899   2.802   3.004  16.296 -0.3853  0.2301 -0.1441
 8421SOL    HW236900   2.753   2.880  16.359  2.1567  0.2162  1.3197
 8422SOL     OW36901   1.570   2.405   4.665  0.2316 -0.0021 -0.1388
 8422SOL    HW136902   1.551   2.443   4.751 -2.2119 -2.1355  0.2530
 8422SOL    HW236903   1.491   2.352   4.667 -0.0918  0.5173  0.7386
 8423SOL     OW36904   1.023   0.783   6.418  0.4565  0.8274  0.0218
 8423SOL    HW136905   1.046   0.823   6.502 -0.3363 -0.4636  0.8509
 8423SOL    HW236906   0.943   0.734   6.436  0.7869  0.2266 -0.1477
 8424SOL     OW36907   0.871   3.258   5.456 -0.4707 -0.5418  0.8547
 8424SOL    HW136908   0.943   3.321   5.461 -0.8970  0.1042 -1.1310
 8424SOL    HW236909   0.913   3.185   5.501 -0.5761 -1.9148 -1.2613
 8425SOL     OW36910   4.152   4.682   1.925  0.6310 -0.1308  0.3841
 8425SOL    HW136911   4.232   4.734   1.934  0.6292 -0.4242  2.1118
 8425SOL    HW236912   4.079   0.009   1.930  1.1692  0.4357  1.1982
 8426SOL     OW36913   2.665   0.003  15.412 -0.3006  0.1883  0.4291
 8426SOL    HW136914   2.725   0.076  15.425 -0.4777  0.1952  1.2133
 8426SOL    HW236915   2.627   4.733  15.500 -1.7886 -2.6759 -0.4107
 8427SOL     OW36916   3.267   0.168   4.003  0.2666 -0.5469  0.5368
 8427SOL    HW136917   3.199   0.151   4.069 -1.4595 -0.6734 -1.2613
 8427SOL    HW236918   3.322   0.091   4.019  0.2271 -1.1550 -2.1908
 8428SOL     OW36919   2.389   3.306   6.738 -0.2430 -0.1969 -0.6594
 8428SOL    HW136920   2.429   3.369   6.797 -0.8655  0.4073 -0.8904
 8428SOL    HW236921   2.365   3.360   6.663  0.5045 -0.8307 -1.3561
 8429SOL     OW36922   4.281   1.825   8.558  0.2644  0.9861 -0.0847
 8429SOL    HW136923   4.305   1.737   8.584 -1.6698  0.1078 -1.2955
 8429SOL    HW236924   4.355   1.854   8.504 -1.2050 -0.0350 -2.6587
 8430SOL     OW36925   4.059   4.180   1.125  0.2642  0.3953 -0.3137
 8430SOL    HW136926   4.044   4.268   1.159 -0.1642  0.7793 -1.4967
 8430SOL    HW236927   4.037   4.186   1.032  0.0539 -1.1284 -0.3665
 8431SOL     OW36928   2.899   4.583   7.910 -0.0349  0.5042  0.3737
 8431SOL    HW136929   2.914   4.623   7.825 -2.8123  1.6225  0.3983
 8431SOL    HW236930   2.983   4.604   7.952  0.9255  1.1771 -1.9225
 8432SOL     OW36931   2.360   4.546   6.607  0.2848  0.1855  0.1788
 8432SOL    HW136932   2.332   4.455   6.612 -0.4744  0.4106 -0.1064
 8432SOL    HW236933   2.282   4.599   6.596 -0.7669 -1.0253  1.7447
 8433SOL     OW36934   3.435   1.071   6.212 -0.1442 -0.5736 -0.1558
 8433SOL    HW136935   3.476   1.147   6.171 -0.4744 -1.3303 -1.8830
 8433SOL    HW236936   3.342   1.095   6.211 -0.4113 -1.5951 -0.2349
 8434SOL     OW36937   1.233   3.797  13.358  0.2729  0.1958 -0.1498
 8434SOL    HW136938   1.298   3.727  13.368  1.0134  0.9294  0.2046
 8434SOL    HW236939   1.281   3.877  13.381 -0.0564  0.3291  0.0832
 8435SOL     OW36940   0.340   2.461  15.269  0.0309  0.1553 -0.3864
 8435SOL    HW136941   0.298   2.478  15.185  0.9403  2.0374 -0.4443
 8435SOL    HW236942   0.399   2.389  15.247  0.4497 -0.0590  1.4349
 8436SOL     OW36943   1.798   1.476  12.579 -0.1540  1.2256  0.3739
 8436SOL    HW136944   1.792   1.488  12.484  1.2589  3.0224  0.5125
 8436SOL    HW236945   1.772   1.384  12.579 -0.0092  1.1718 -2.2812
 8437SOL     OW36946   0.123   3.228  15.391 -0.2459 -0.0679 -0.4724
 8437SOL    HW136947   0.164   3.312  15.370  1.3398 -0.4578  1.1437
 8437SOL    HW236948   0.161   3.173  15.321  1.9539  0.3002  0.4350
 8438SOL     OW36949   2.557   4.390  12.025  0.3891 -0.3626 -0.4644
 8438SOL    HW136950   2.484   4.426  12.075  0.9261  0.2558 -0.1362
 8438SOL    HW236951   2.565   4.299  12.052  2.2085  0.3363  1.2779
 8439SOL     OW36952   3.988   1.400  13.204  0.7356  0.5979  0.0403
 8439SOL    HW136953   4.051   1.471  13.191  0.8868  0.1815 -1.4953
 8439SOL    HW236954   4.001   1.359  13.289 -0.2152 -1.0714 -0.6111
 8440SOL     OW36955   2.946   3.922  17.654 -0.3811  0.1821  0.2007
 8440SOL    HW136956   3.003   3.969  17.593 -0.3102  2.0932  1.7723
 8440SOL    HW236957   2.982   3.947  17.738 -0.5152  3.2683 -0.6660
 8441SOL     OW36958   2.445   1.337  17.081 -0.1953 -0.0788  0.1003
 8441SOL    HW136959   2.491   1.280  17.020 -2.0438 -1.5020  0.0542
 8441SOL    HW236960   2.485   1.424  17.085 -0.4968  0.1217 -1.5989
 8442SOL     OW36961   0.518   2.145   6.295 -0.1334 -0.2306  0.7056
 8442SOL    HW136962   0.425   2.147   6.318  0.0635 -0.4942  1.5425
 8442SOL    HW236963   0.557   2.071   6.342 -1.4519 -1.4092 -0.0383
 8443SOL     OW36964   1.794   0.802   7.305  0.3777 -0.6808 -0.0599
 8443SOL    HW136965   1.741   0.860   7.359 -2.2569 -0.8459 -2.4970
 8443SOL    HW236966   1.742   0.724   7.324  0.7517 -0.4453  1.9463
 8444SOL     OW36967   0.792   3.796   0.852  0.2738 -0.0286  0.1882
 8444SOL    HW136968   0.863   3.763   0.796 -0.8589  2.0964 -2.5215
 8444SOL    HW236969   0.721   3.793   0.788  1.0393 -0.2036 -0.6542
 8445SOL     OW36970   1.999   0.938   7.885 -0.3555  0.5656 -0.1516
 8445SOL    HW136971   1.913   0.954   7.925 -1.3525 -4.0507 -0.4987
 8445SOL    HW236972   2.044   0.911   7.965 -1.1258  0.8029  0.3621
 8446SOL     OW36973   4.703   1.790   9.483 -0.0322 -0.0141 -0.0098
 8446SOL    HW136974   4.626   1.744   9.449  0.4320 -0.5082 -0.3872
 8446SOL    HW236975   4.686   1.789   9.577 -1.4750 -1.8506 -0.2803
 8447SOL     OW36976   1.574   1.229   4.336  0.3474 -0.1121 -0.1832
 8447SOL    HW136977   1.482   1.229   4.312  0.0347 -1.7764  0.9905
 8447SOL    HW236978   1.617   1.284   4.270 -1.2556 -1.3802 -2.2806
 8448SOL     OW36979   1.126   1.345  17.074  0.3295  0.0224  0.2420
 8448SOL    HW136980   1.151   1.398  17.149  1.2610 -0.9573  0.6234
 8448SOL    HW236981   1.211   1.320  17.037 -0.1201 -0.8904 -0.1691
 8449SOL     OW36982   4.624   1.459   5.310  0.0519  0.3163 -0.1177
 8449SOL    HW136983   4.679   1.519   5.359  1.9117 -0.8557 -0.7350
 8449SOL    HW236984   4.609   1.504   5.227 -2.4693 -2.5161 -1.2058
 8450SOL     OW36985   3.022   2.299   7.154  0.0604 -0.0136  0.0734
 8450SOL    HW136986   3.052   2.381   7.115 -0.7845  1.7234  3.0424
 8450SOL    HW236987   3.105   2.265   7.186  0.4501 -1.6016 -2.6387
 8451SOL     OW36988   1.191   1.728   6.830 -0.2914  0.3566 -0.8990
 8451SOL    HW136989   1.168   1.803   6.775  0.1703  0.7379 -0.5716
 8451SOL    HW236990   1.109   1.681   6.845  0.2389 -0.2068  0.1914
 8452SOL     OW36991   2.765   4.570   3.268 -0.2466  0.3759  0.4150
 8452SOL    HW136992   2.843   4.525   3.299  0.2331  1.1764  0.3659
 8452SOL    HW236993   2.699   4.529   3.324 -1.1055 -1.2605 -1.7538
 8453SOL     OW36994   4.695   4.630  15.925 -0.0726  0.0504  0.5734
 8453SOL    HW136995   4.602   4.640  15.907  0.4305  1.1865 -1.4200
 8453SOL    HW236996   4.707   4.536  15.930 -0.0919 -0.0214 -0.5897
 8454SOL     OW36997   2.771   3.939  10.261 -0.6249  0.1491 -0.3370
 8454SOL    HW136998   2.840   3.874  10.271 -2.3092 -1.3537  1.4376
 8454SOL    HW236999   2.705   3.876  10.231 -0.0479 -0.9746  0.7550
 8455SOL     OW37000   0.170   2.815  15.064  0.4860 -0.4966  0.3873
 8455SOL    HW137001   0.120   2.753  15.117 -3.6179  0.5559 -2.2983
 8455SOL    HW237002   0.164   2.781  14.975 -0.7463 -1.9431  1.0231
 8456SOL     OW37003   4.331   3.926   3.940 -0.0200 -0.6799  0.3667
 8456SOL    HW137004   4.282   3.985   3.883  1.8137 -0.3428 -0.8765
 8456SOL    HW237005   4.281   3.917   4.021  1.2314  0.1034  1.2302
 8457SOL     OW37006   1.633   1.893   7.495 -0.3229  0.4107 -0.0018
 8457SOL    HW137007   1.709   1.913   7.440 -0.9395  1.7293 -0.3737
 8457SOL    HW237008   1.565   1.920   7.433  1.8939 -0.4552 -2.8055
 8458SOL     OW37009   2.874   3.459   7.722  0.2805  0.5115 -0.1883
 8458SOL    HW137010   2.933   3.384   7.732  1.5157  2.0337  4.1337
 8458SOL    HW237011   2.804   3.416   7.673  1.0373  0.0105 -0.8265
 8459SOL     OW37012   1.504   0.954   1.508  1.0005 -0.6342  0.0206
 8459SOL    HW137013   1.555   0.878   1.536  1.9857  0.4612  1.1988
 8459SOL    HW237014   1.559   1.001   1.445  1.8107  0.7078  1.7244
 8460SOL     OW37015   3.703   3.376   6.279  0.1860 -0.0062  0.2631
 8460SOL    HW137016   3.741   3.344   6.361 -1.7524  1.6585  1.8389
 8460SOL    HW237017   3.722   3.470   6.277 -0.9340  0.2385  1.2464
 8461SOL     OW37018   3.782   3.183   8.235 -0.0314 -0.2925 -0.0555
 8461SOL    HW137019   3.835   3.260   8.219 -0.5051 -0.1219 -0.8089
 8461SOL    HW237020   3.829   3.115   8.186  0.0645  0.3955 -0.8996
 8462SOL     OW37021   4.675   0.097   8.515 -0.0264 -0.4452 -0.3704
 8462SOL    HW137022   0.022   0.144   8.506  0.7305 -1.8871 -1.0530
 8462SOL    HW237023   4.608   0.157   8.482 -0.7570 -0.7958  0.4908
 8463SOL     OW37024   4.437   2.122   2.017 -0.1573  0.2834 -0.1779
 8463SOL    HW137025   4.446   2.191   2.082 -0.3685 -0.1567  0.3220
 8463SOL    HW237026   4.355   2.084   2.050  0.3003 -1.0433 -0.5479
 8464SOL     OW37027   4.464   1.959  11.985  0.3065 -0.4394  0.3599
 8464SOL    HW137028   4.535   1.918  12.033  1.6909 -0.4951 -1.7065
 8464SOL    HW237029   4.383   1.958  12.036  0.6310  1.2710  0.9207
 8465SOL     OW37030   4.377   2.782   0.036 -0.2238 -0.2571  0.4360
 8465SOL    HW137031   4.404   2.853   0.095  2.0365  0.3480 -1.3549
 8465SOL    HW237032   4.291   2.759   0.071 -1.3371  1.3993 -1.2264
 8466SOL     OW37033   3.827   2.988   4.538  0.1169 -0.3069  0.6005
 8466SOL    HW137034   3.913   3.027   4.521  0.0865  0.5442  2.4472
 8466SOL    HW237035   3.854   2.907   4.582  0.2399  0.5638  2.1074
 8467SOL     OW37036   4.089   1.940   2.351  0.1957  0.5736 -0.2190
 8467SOL    HW137037   4.011   1.904   2.393 -0.2751  1.4356 -0.3560
 8467SOL    HW237038   4.148   1.864   2.349 -1.3064 -0.6371  1.9369
 8468SOL     OW37039   0.075   0.922   4.178  0.1882 -0.8446 -0.0279
 8468SOL    HW137040   0.082   0.996   4.239  1.0955 -1.1585  0.2549
 8468SOL    HW237041   0.167   0.898   4.166  0.2182 -0.3991 -0.6760
 8469SOL     OW37042   1.850   1.527   8.770 -0.3721 -0.3451 -0.1489
 8469SOL    HW137043   1.807   1.607   8.739  1.0895  0.5063  0.0135
 8469SOL    HW237044   1.806   1.507   8.852 -0.3783  1.7389  0.3429
 8470SOL     OW37045   2.503   2.312  13.339 -0.4823 -0.9465  0.3074
 8470SOL    HW137046   2.492   2.281  13.249  2.2094  0.7916 -0.6174
 8470SOL    HW237047   2.596   2.289  13.349 -0.4752 -1.5845 -1.1239
 8471SOL     OW37048   3.323   0.488   9.372 -0.4332  0.2226 -0.0415
 8471SOL    HW137049   3.257   0.554   9.348  1.4572  1.9610 -0.4121
 8471SOL    HW237050   3.336   0.464   9.281 -0.8604 -1.0079  0.2153
 8472SOL     OW37051   0.470   0.004   3.510  0.4465 -0.0719 -0.0701
 8472SOL    HW137052   0.412   0.017   3.435  0.6161  0.8267 -0.0410
 8472SOL    HW237053   0.542   0.066   3.496 -0.9298  1.4748 -0.3386
 8473SOL     OW37054   2.975   1.195   6.644  0.0242 -0.2758  0.0273
 8473SOL    HW137055   3.038   1.195   6.716  0.8424  1.3720 -0.6983
 8473SOL    HW237056   2.900   1.152   6.684 -0.4613  0.0740 -0.5095
 8474SOL     OW37057   0.738   3.087   7.867  0.0185  0.0878 -0.0585
 8474SOL    HW137058   0.660   3.037   7.892  0.3266  0.3176  1.3669
 8474SOL    HW237059   0.708   3.132   7.787  0.4591 -0.8924 -0.7702
 8475SOL     OW37060   0.135   2.055  10.709  0.3009  0.5950 -0.4124
 8475SOL    HW137061   0.107   1.974  10.752  1.0866  1.2177  1.2916
 8475SOL    HW237062   0.168   2.111  10.779 -0.4384  0.0033  0.4151
 8476SOL     OW37063   3.190   2.675   6.845 -0.2961 -0.1769 -0.4157
 8476SOL    HW137064   3.238   2.690   6.926 -0.4037  1.3108 -0.6411
 8476SOL    HW237065   3.264   2.640   6.794  1.8602  2.7357  0.7723
 8477SOL     OW37066   3.580   4.570   3.260  0.1310  0.1570  0.1701
 8477SOL    HW137067   3.515   4.515   3.216 -0.9171  1.8490 -0.4010
 8477SOL    HW237068   3.526   4.620   3.321 -1.2275 -2.2956  0.9746
 8478SOL     OW37069   3.090   2.897  17.401  0.0212  0.4532  0.4280
 8478SOL    HW137070   3.175   2.878  17.363 -0.4825 -2.5277  0.8120
 8478SOL    HW237071   3.045   2.913  17.318  0.5759  0.5577  0.1501
 8479SOL     OW37072   3.464   2.927   7.175  0.2598  0.1477  0.3858
 8479SOL    HW137073   3.381   2.974   7.173  0.4863  0.5498  0.2968
 8479SOL    HW237074   3.464   2.883   7.090 -1.2302 -0.5385  0.7462
 8480SOL     OW37075   3.688   2.946   9.055  0.3307 -0.3538 -0.1850
 8480SOL    HW137076   3.666   2.864   9.099  3.5092 -0.4622  1.2326
 8480SOL    HW237077   3.783   2.930   9.056  0.4599  0.5017  0.3953
 8481SOL     OW37078   0.344   0.818   3.671 -0.2054 -0.2403 -0.4157
 8481SOL    HW137079   0.347   0.829   3.576  0.5022 -0.3107 -0.4044
 8481SOL    HW237080   0.371   0.726   3.668 -1.3770 -0.5456 -1.3947
 8482SOL     OW37081   4.168   3.884   0.823  0.0736  0.7011 -0.0114
 8482SOL    HW137082   4.139   3.941   0.752 -1.2845 -0.0043 -0.0294
 8482SOL    HW237083   4.135   3.800   0.790 -1.5107  1.0898  0.5605
 8483SOL     OW37084   1.682   1.304  17.516 -0.0842  0.5107  0.5646
 8483SOL    HW137085   1.685   1.256  17.600 -0.7446  2.0275  1.4467
 8483SOL    HW237086   1.640   1.387  17.536 -1.7546 -0.4645  1.1059
 8484SOL     OW37087   2.221   1.007   3.824  0.0852 -0.7977  0.4225
 8484SOL    HW137088   2.223   1.028   3.731 -0.3753  1.6157  0.9299
 8484SOL    HW237089   2.269   1.083   3.857 -2.7814  1.4723 -0.5699
 8485SOL     OW37090   1.607   4.541   3.440 -0.7145  0.4529 -0.4227
 8485SOL    HW137091   1.635   4.463   3.487 -2.0073  1.1463  1.5157
 8485SOL    HW237092   1.678   4.558   3.379 -0.6978  0.0259 -0.5210
 8486SOL     OW37093   1.980   2.725   5.339  0.1419  0.6287  0.0743
 8486SOL    HW137094   1.985   2.677   5.255  2.6887  2.3144 -0.7391
 8486SOL    HW237095   1.941   2.806   5.308 -0.2960 -0.6645 -2.7780
 8487SOL     OW37096   0.974   4.192   2.692 -0.0166  0.0036 -0.4168
 8487SOL    HW137097   0.998   4.136   2.766  0.9006  1.4130  0.3519
 8487SOL    HW237098   0.900   4.142   2.657  0.0893 -1.6722  1.7590
 8488SOL     OW37099   4.646   4.680   9.017  0.4998  0.1086 -0.0309
 8488SOL    HW137100   4.729   4.641   9.046 -0.6045 -2.0380  0.3044
 8488SOL    HW237101   4.673   0.029   8.984 -2.1949  1.7344  1.9993
 8489SOL     OW37102   2.758   1.730  10.840  0.0341 -0.0957 -0.0138
 8489SOL    HW137103   2.672   1.712  10.878 -0.9604 -0.3675 -2.4112
 8489SOL    HW237104   2.751   1.701  10.750 -1.1095  2.8170 -0.8521
 8490SOL     OW37105   0.781   2.796   2.547 -0.5696 -0.0631 -0.7545
 8490SOL    HW137106   0.788   2.856   2.473  1.1110 -0.5607 -0.9909
 8490SOL    HW237107   0.805   2.716   2.501  0.0587  0.8673 -2.0318
 8491SOL     OW37108   1.321   2.786   2.435  0.0454  0.1852 -0.5103
 8491SOL    HW137109   1.316   2.699   2.476 -0.8161  0.8277  0.7542
 8491SOL    HW237110   1.258   2.798   2.365 -0.0716 -2.0608 -0.7714
 8492SOL     OW37111   3.992   0.939   5.125 -0.1034  0.7026 -0.1602
 8492SOL    HW137112   3.917   0.999   5.129  0.1243  0.9594  0.2055
 8492SOL    HW237113   3.964   0.863   5.175  1.1517  0.7077  0.5596
 8493SOL     OW37114   3.164   0.076  13.226 -1.4068  0.1089  0.3191
 8493SOL    HW137115   3.254   0.064  13.196 -1.8051 -0.6710 -0.5946
 8493SOL    HW237116   3.161   0.010  13.295  1.5358  2.1038  2.3071
 8494SOL     OW37117   0.776   2.530   1.413  0.2811 -0.5208  0.3097
 8494SOL    HW137118   0.705   2.558   1.470  1.8808  1.4905  1.2878
 8494SOL    HW237119   0.734   2.500   1.332  0.3480  2.7731 -0.9385
 8495SOL     OW37120   0.192   1.079   1.362 -0.0029 -0.5580  0.0326
 8495SOL    HW137121   0.175   1.092   1.269 -0.3393 -1.0480  0.0259
 8495SOL    HW237122   0.219   1.165   1.395 -0.4140 -0.5741  0.4073
 8496SOL     OW37123   2.412   3.186   0.144  0.0358 -0.1957 -0.0357
 8496SOL    HW137124   2.484   3.131   0.114 -0.3592 -0.8219  0.1398
 8496SOL    HW237125   2.358   3.123   0.192  1.2899 -2.0301 -1.0412
 8497SOL     OW37126   0.498   1.664   9.552  0.2585 -0.2866  0.1038
 8497SOL    HW137127   0.579   1.708   9.578  2.0872 -3.3207 -0.4368
 8497SOL    HW237128   0.441   1.696   9.621 -1.8096 -2.6143 -0.5007
 8498SOL     OW37129   0.645   2.498   4.385 -0.0969 -1.3787  0.8820
 8498SOL    HW137130   0.666   2.584   4.420 -1.1484 -2.3504  3.8529
 8498SOL    HW237131   0.565   2.472   4.431  1.4310 -0.3211  4.0675
 8499SOL     OW37132   0.799   0.933  11.780 -0.1834  0.3118 -0.6090
 8499SOL    HW137133   0.721   0.931  11.836 -0.3571 -0.0285 -0.8591
 8499SOL    HW237134   0.775   0.981  11.700  1.3846 -0.0710 -1.3042
 8500SOL     OW37135   3.029   1.998  15.275  0.0937  0.5523 -0.0844
 8500SOL    HW137136   3.047   2.088  15.250  0.3457  0.8163  1.0523
 8500SOL    HW237137   3.084   1.944  15.218 -0.6351  0.8412 -1.0573
 8501SOL     OW37138   0.099   1.233   4.652  0.1819  0.7200  0.6404
 8501SOL    HW137139   0.093   1.210   4.559  1.8213 -1.4644  1.0728
 8501SOL    HW237140   0.146   1.164   4.698 -2.0976 -0.6581  0.9188
 8502SOL     OW37141   2.907   4.012   2.744  0.9192  0.1818  0.4288
 8502SOL    HW137142   2.954   4.065   2.808  1.2463  0.0983  0.2591
 8502SOL    HW237143   2.982   3.995   2.687  2.5851  0.3690  2.5678
 8503SOL     OW37144   0.834   0.694   4.637  0.1261 -0.0532  0.5173
 8503SOL    HW137145   0.866   0.637   4.567 -0.3496  0.7620 -0.3638
 8503SOL    HW237146   0.825   0.780   4.595 -0.0926 -0.5122 -0.3836
 8504SOL     OW37147   0.394   1.362   6.219 -0.2990 -0.3096  1.0302
 8504SOL    HW137148   0.457   1.415   6.269  0.9682  0.7929 -1.7569
 8504SOL    HW237149   0.351   1.431   6.168  0.8682 -0.4765 -0.1696
 8505SOL     OW37150   2.325   0.140   4.018  0.4395  0.2131 -0.5490
 8505SOL    HW137151   2.246   0.161   3.968  0.6160  2.2163  0.0167
 8505SOL    HW237152   2.284   0.135   4.105  0.2808 -1.4394 -0.7175
 8506SOL     OW37153   1.509   1.312   6.810 -0.0740 -0.3240 -0.1463
 8506SOL    HW137154   1.577   1.341   6.749 -0.4836  0.5000 -0.2231
 8506SOL    HW237155   1.438   1.375   6.794  1.1479  1.0867 -0.0076
 8507SOL     OW37156   4.693   0.176  12.496 -0.2536 -0.2253  0.2497
 8507SOL    HW137157   4.608   0.176  12.540 -0.4893  1.1654 -0.1732
 8507SOL    HW237158   4.702   0.268  12.469 -0.1630 -0.5636 -0.8982
 8508SOL     OW37159   2.589   0.973   3.376  0.3574  0.5146  0.6647
 8508SOL    HW137160   2.633   0.940   3.298 -0.2843 -0.9489  0.9315
 8508SOL    HW237161   2.664   0.996   3.431 -0.9300 -0.1946  2.7014
 8509SOL     OW37162   3.066   3.002   7.769 -0.0798  0.3349  0.0028
 8509SOL    HW137163   3.010   2.933   7.805  0.6601 -1.2063 -1.7899
 8509SOL    HW237164   3.153   2.962   7.776  0.2818  1.1081 -0.1702
 8510SOL     OW37165   1.560   2.813   0.759 -0.2214  0.1223  0.1510
 8510SOL    HW137166   1.604   2.751   0.817  0.4836 -0.1361 -0.6649
 8510SOL    HW237167   1.598   2.889   0.803  2.2346  0.6561 -2.9451
 8511SOL     OW37168   0.952   4.072   0.002 -0.2707 -0.5325 -0.1607
 8511SOL    HW137169   0.899   4.058  17.665 -0.3811  1.3532 -0.4369
 8511SOL    HW237170   0.972   4.165  17.729  0.7565 -0.8948 -1.0391
 8512SOL     OW37171   2.139   2.299   7.143 -0.1358  0.5207  0.4137
 8512SOL    HW137172   2.123   2.393   7.149  0.0218  0.5278  0.7275
 8512SOL    HW237173   2.200   2.274   7.212  2.2331 -0.9875 -2.2192
 8513SOL     OW37174   1.388   4.450   6.059  0.0588 -0.0492  0.5961
 8513SOL    HW137175   1.352   4.539   6.054  1.5844  0.4652 -1.3728
 8513SOL    HW237176   1.367   4.420   5.970  0.6059  1.0536  0.0976
 8514SOL     OW37177   3.971   4.282   0.642 -0.0670 -0.4014  0.2455
 8514SOL    HW137178   3.892   4.310   0.688 -0.8444 -0.6575 -0.9470
 8514SOL    HW237179   3.946   4.302   0.552 -0.2092  1.3542  0.6855
 8515SOL     OW37180   0.707   0.949   3.993 -0.3029 -0.4339 -0.2241
 8515SOL    HW137181   0.706   1.042   3.970  0.7113 -0.8094 -1.7831
 8515SOL    HW237182   0.693   0.915   3.904  1.0881  0.7255 -0.8829
 8516SOL     OW37183   2.572   1.879  15.570 -0.3061 -0.1281  0.4443
 8516SOL    HW137184   2.561   1.791  15.605  0.5701 -0.6599 -0.6414
 8516SOL    HW237185   2.559   1.859  15.478 -2.3674 -2.0124  1.1454
 8517SOL     OW37186   2.735   1.966   8.198 -0.2892  0.5869 -0.1463
 8517SOL    HW137187   2.698   2.019   8.268 -2.4126  0.2087 -0.9961
 8517SOL    HW237188   2.825   1.976   8.228  0.1787 -2.0905 -0.6727
 8518SOL     OW37189   2.901   4.276   5.982 -0.1475 -0.2007  0.0019
 8518SOL    HW137190   2.853   4.359   5.989  1.7902  0.9438 -0.2639
 8518SOL    HW237191   2.823   4.221   5.974 -0.4772  0.2107  0.4000
 8519SOL     OW37192   4.205   1.993   2.108  0.4375 -0.2268 -0.1210
 8519SOL    HW137193   4.155   1.983   2.189 -0.5532  1.4159 -0.5331
 8519SOL    HW237194   4.143   1.969   2.038  1.7996 -0.0567 -1.3902
 8520SOL     OW37195   1.389   2.428   2.995 -0.4889  0.8360  0.0872
 8520SOL    HW137196   1.480   2.400   2.995 -1.5875 -2.6897  1.4004
 8520SOL    HW237197   1.399   2.506   2.940 -1.3610  1.9439  1.4745
 8521SOL     OW37198   0.072   4.584   7.141 -0.0021  0.6975  0.1668
 8521SOL    HW137199   0.078   4.633   7.223  1.4070 -0.0069  0.4786
 8521SOL    HW237200   0.012   4.643   7.094 -1.1039 -0.9028 -0.4621
 8522SOL     OW37201   4.508   2.459   7.178 -0.7702  0.5072  0.1136
 8522SOL    HW137202   4.514   2.549   7.211  2.8702  0.3594 -0.1434
 8522SOL    HW237203   4.440   2.461   7.111 -2.3159 -2.7971  1.6010
 8523SOL     OW37204   2.172   4.133   7.991 -0.3216  0.7592 -0.4574
 8523SOL    HW137205   2.094   4.189   7.994 -0.6339  0.1754  2.5675
 8523SOL    HW237206   2.145   4.067   8.055  0.8481  0.9823  0.2691
 8524SOL     OW37207   4.157   4.422  15.000  0.4733  0.0940 -0.5579
 8524SOL    HW137208   4.112   4.406  15.083  2.4604 -3.1380 -0.0798
 8524SOL    HW237209   4.250   4.425  15.023  0.7988 -1.1398 -1.6851
 8525SOL     OW37210   1.855   0.635   6.183 -0.5027 -0.1391  0.2714
 8525SOL    HW137211   1.824   0.684   6.260 -0.8733 -2.3560  1.5469
 8525SOL    HW237212   1.772   0.603   6.148 -0.6624 -0.8951  1.3268
 8526SOL     OW37213   4.333   2.513   8.025  0.0616 -0.1826 -0.0785
 8526SOL    HW137214   4.269   2.456   8.068  0.0530  0.7455  1.1322
 8526SOL    HW237215   4.280   2.589   8.002 -0.7914 -0.8550 -0.3352
 8527SOL     OW37216   4.182   3.424   2.300 -0.6999  0.7427  0.2370
 8527SOL    HW137217   4.229   3.507   2.292 -0.8144  0.8853  1.0528
 8527SOL    HW237218   4.249   3.361   2.275 -1.0391  0.6062 -0.3342
 8528SOL     OW37219   1.571   1.052   6.259  0.4384  0.2243  0.3296
 8528SOL    HW137220   1.586   0.957   6.264 -0.8450 -0.0121 -0.6216
 8528SOL    HW237221   1.527   1.046   6.175  1.7392  2.8896 -0.5141
 8529SOL     OW37222   3.664   0.187   5.348  0.7148 -0.0106 -0.9822
 8529SOL    HW137223   3.756   0.198   5.372 -0.2685  1.0805  2.2343
 8529SOL    HW237224   3.620   0.243   5.412  2.2517 -0.0042  0.0595
 8530SOL     OW37225   1.560   0.013  17.169 -0.6131  0.4329  0.4518
 8530SOL    HW137226   1.515   4.668  17.146 -1.9310  0.7036  2.0479
 8530SOL    HW237227   1.631   4.727  17.110 -1.0223  2.1717 -0.7067
 8531SOL     OW37228   3.573   1.044  11.409  0.1240 -0.2444 -0.3220
 8531SOL    HW137229   3.520   1.123  11.419 -0.3496 -0.6785  0.5567
 8531SOL    HW237230   3.636   1.046  11.480 -2.7071 -2.7738  2.2619
 8532SOL     OW37231   0.041   3.682   9.739 -0.5595 -0.3569  0.0827
 8532SOL    HW137232   4.721   3.644   9.671  0.4082  1.3855 -1.7027
 8532SOL    HW237233   0.105   3.726   9.682 -2.4537 -0.1005 -1.8418
 8533SOL     OW37234   0.256   0.105   3.929 -0.4297 -0.2756 -0.3977
 8533SOL    HW137235   0.301   0.060   3.858  0.2459  0.6741 -0.5684
 8533SOL    HW237236   0.224   0.030   3.979 -0.4957 -0.1960 -0.3210
 8534SOL     OW37237   4.639   3.694   4.523  0.5465  0.0594 -0.0916
 8534SOL    HW137238   4.683   3.772   4.556  1.2753 -1.9819  3.7825
 8534SOL    HW237239   4.548   3.723   4.533 -0.1871 -1.8366 -1.2341
 8535SOL     OW37240   3.575   1.110   7.038  0.1296  0.0654 -0.0033
 8535SOL    HW137241   3.570   1.015   7.047 -0.4013 -0.1667 -2.5518
 8535SOL    HW237242   3.627   1.134   7.115 -1.6046 -0.3467  1.2958
 8536SOL     OW37243   1.588   3.353  12.791 -0.0058  0.7797 -0.0514
 8536SOL    HW137244   1.549   3.321  12.873 -0.1406 -1.0401 -0.8071
 8536SOL    HW237245   1.616   3.270  12.751  3.3823  1.7732  0.2765
 8537SOL     OW37246   2.382   0.717   7.937  0.2357  0.0732  0.0083
 8537SOL    HW137247   2.297   0.673   7.943 -0.4428  1.6692  2.1186
 8537SOL    HW237248   2.383   0.721   7.842 -0.4323 -3.2160 -0.1480
 8538SOL     OW37249   0.634   0.517  17.110  0.4231 -0.2269  0.4211
 8538SOL    HW137250   0.582   0.595  17.091  1.9167  0.2343 -1.7063
 8538SOL    HW237251   0.690   0.552  17.180  0.2762 -0.9015  0.8800
 8539SOL     OW37252   2.444   2.724   5.651  0.0526 -0.7884  0.0719
 8539SOL    HW137253   2.459   2.659   5.719  1.6066 -0.5304 -0.0315
 8539SOL    HW237254   2.509   2.787   5.680 -2.0041  1.1104  0.4813
 8540SOL     OW37255   2.423   4.094   7.896  0.4164  0.0580 -0.0345
 8540SOL    HW137256   2.437   4.125   7.985 -2.8115 -0.8529  0.8013
 8540SOL    HW237257   2.327   4.100   7.895  0.4173  0.4167  1.7559
 8541SOL     OW37258   1.716   0.866   6.012  0.4803  0.0143  0.1124
 8541SOL    HW137259   1.754   0.950   5.987 -0.7502  0.2582 -0.9235
 8541SOL    HW237260   1.771   0.808   5.960 -0.3052 -1.5059  0.9858
 8542SOL     OW37261   0.845   3.845   4.250 -0.5527 -0.6431 -0.1116
 8542SOL    HW137262   0.824   3.822   4.159  2.8407 -3.3611 -0.2411
 8542SOL    HW237263   0.926   3.896   4.243 -0.3687 -0.5265  2.7246
 8543SOL     OW37264   4.534   2.613   5.290 -0.0300  0.3689  0.0130
 8543SOL    HW137265   4.518   2.701   5.256  2.3370  0.2759 -1.2845
 8543SOL    HW237266   4.603   2.589   5.229 -0.1495 -0.2997  0.1465
 8544SOL     OW37267   2.026   3.573   7.271 -0.1209  0.1508  1.0625
 8544SOL    HW137268   2.038   3.481   7.247 -0.7819  0.2782  0.2406
 8544SOL    HW237269   2.067   3.588   7.357 -2.7817 -0.6868  2.4883
 8545SOL     OW37270   1.907   4.311  15.272  0.4144  0.8101 -0.1724
 8545SOL    HW137271   1.907   4.406  15.261  1.7574  0.9287  0.7900
 8545SOL    HW237272   1.995   4.296  15.307  0.3007  1.0351  0.2130
 8546SOL     OW37273   3.115   1.336   4.034  0.5397 -0.1645  0.0975
 8546SOL    HW137274   3.186   1.318   3.973  0.9623  1.1144  0.2056
 8546SOL    HW237275   3.064   1.406   3.993 -0.6949 -1.9536 -1.4371
 8547SOL     OW37276   3.102   2.694   2.695 -0.2496  0.5521 -0.0145
 8547SOL    HW137277   3.116   2.784   2.667 -0.2498  0.2498 -0.9880
 8547SOL    HW237278   3.181   2.651   2.661 -1.3899 -0.1868 -1.7509
 8548SOL     OW37279   4.705   1.611   7.682 -0.3210 -0.3156  0.9967
 8548SOL    HW137280   4.664   1.570   7.606 -0.5890 -0.8447  1.4261
 8548SOL    HW237281   4.727   1.697   7.647  1.9770 -0.8734  1.0519
 8549SOL     OW37282   1.223   2.318   9.047 -0.3620  0.0919  0.1079
 8549SOL    HW137283   1.310   2.306   9.085 -0.6467 -1.0751  0.3976
 8549SOL    HW237284   1.175   2.335   9.128 -0.5521  2.4769 -0.5280
 8550SOL     OW37285   3.472   2.524   5.804  0.3631 -0.1454  0.2734
 8550SOL    HW137286   3.512   2.444   5.770  0.5014  0.5127 -1.0908
 8550SOL    HW237287   3.478   2.570   5.720  2.3861 -1.5922 -0.3932
 8551SOL     OW37288   2.998   2.305  10.663 -0.2893  0.2596  0.0005
 8551SOL    HW137289   3.009   2.381  10.720  2.2953  0.2583 -0.5077
 8551SOL    HW237290   3.030   2.232  10.717 -2.1820 -0.0243  0.7599
 8552SOL     OW37291   1.713   1.228  12.592  0.4627  0.4213 -1.2186
 8552SOL    HW137292   1.775   1.156  12.582 -1.1423 -1.5101  2.6872
 8552SOL    HW237293   1.645   1.181  12.640  1.9327 -1.3763 -0.9194
 8553SOL     OW37294   2.891   3.614  12.964  0.0729  0.1815 -0.5609
 8553SOL    HW137295   2.823   3.576  13.020  0.4762 -0.5172 -0.5489
 8553SOL    HW237296   2.836   3.667  12.905  2.2493 -0.3783 -3.0955
 8554SOL     OW37297   1.036   4.005   0.929 -0.3526 -0.4521 -0.4598
 8554SOL    HW137298   1.069   4.018   1.018 -2.4710 -1.6516  0.5220
 8554SOL    HW237299   1.058   3.912   0.922  0.7464 -0.0698 -1.9801
 8555SOL     OW37300   4.627   3.239   2.180 -0.0728  0.7658  0.4500
 8555SOL    HW137301   4.677   3.158   2.163 -1.7392 -0.0020 -0.8793
 8555SOL    HW237302   4.647   3.290   2.101 -1.5482  1.5449  0.5971
 8556SOL     OW37303   1.234   0.928   1.427  0.3670 -0.7556 -0.1336
 8556SOL    HW137304   1.322   0.938   1.461  0.3203 -0.1734 -0.1914
 8556SOL    HW237305   1.243   0.837   1.398 -3.4672 -1.4591  0.8382
 8557SOL     OW37306   3.902   4.311  17.730 -0.0882 -0.0450 -0.1498
 8557SOL    HW137307   3.981   4.311   0.041 -0.6419 -0.8881  0.6694
 8557SOL    HW237308   3.836   4.346   0.047  1.2175 -0.3784  1.5219
 8558SOL     OW37309   3.236   0.026   7.894  0.2556  0.3265  0.0675
 8558SOL    HW137310   3.305   0.012   7.959 -0.2141  0.0503  0.5085
 8558SOL    HW237311   3.163   4.719   7.939 -0.4620 -0.5934 -1.9941
 8559SOL     OW37312   0.159   0.311   0.606 -0.5085 -0.0212  0.0757
 8559SOL    HW137313   0.090   0.308   0.673  1.8769 -0.5968  2.5046
 8559SOL    HW237314   0.108   0.319   0.526  1.0294  0.7252 -0.8284
 8560SOL     OW37315   1.816   0.251   7.103 -0.0060 -0.0166  0.4468
 8560SOL    HW137316   1.826   0.193   7.028  1.0987  2.2300 -1.1305
 8560SOL    HW237317   1.792   0.331   7.058 -1.6560 -1.2352 -0.8276
 8561SOL     OW37318   1.025   2.190   1.773  0.3650 -0.2890 -0.1477
 8561SOL    HW137319   0.939   2.149   1.759  0.8703 -1.0404 -1.0317
 8561SOL    HW237320   1.039   2.246   1.696 -3.0130  1.1195  0.2250
 8562SOL     OW37321   3.357   2.041   4.814 -0.4195 -0.0044 -0.3352
 8562SOL    HW137322   3.363   2.079   4.727  1.3089  0.0163 -0.2125
 8562SOL    HW237323   3.336   1.949   4.800 -1.3979  0.0114  0.9613
 8563SOL     OW37324   2.738   1.408   4.221  0.2348 -0.2509 -0.2673
 8563SOL    HW137325   2.726   1.339   4.286  2.0909  0.0481  0.3972
 8563SOL    HW237326   2.720   1.485   4.275  0.4692 -1.5827  1.7023
 8564SOL     OW37327   4.225   1.201   5.712  1.0502  0.4101 -0.4548
 8564SOL    HW137328   4.264   1.272   5.764 -0.9397  0.0442  1.5064
 8564SOL    HW237329   4.165   1.173   5.780  2.0697  0.7327  0.5769
 8565SOL     OW37330   0.241   2.553   2.626  0.0185 -0.2982  0.6253
 8565SOL    HW137331   0.226   2.525   2.717  0.1181  0.9806  1.0266
 8565SOL    HW237332   0.158   2.598   2.608  0.7537  1.0779  0.7002
 8566SOL     OW37333   2.791   4.264   2.429 -0.0671 -0.2682  0.3623
 8566SOL    HW137334   2.781   4.327   2.358  0.0652 -0.9810 -0.2775
 8566SOL    HW237335   2.804   4.182   2.382  1.4582 -0.0355  0.3748
 8567SOL     OW37336   2.286   2.608   7.486  0.2399 -0.7022  0.3524
 8567SOL    HW137337   2.308   2.593   7.578  1.4205 -0.6170  0.0896
 8567SOL    HW237338   2.375   2.610   7.449  0.0888  2.8752  0.2349
 8568SOL     OW37339   0.857   3.524   4.551 -0.1274  0.1420 -1.1844
 8568SOL    HW137340   0.780   3.577   4.534  0.0646  0.7847 -0.0614
 8568SOL    HW237341   0.882   3.497   4.463 -0.4830 -3.0494 -0.3148
 8569SOL     OW37342   0.225   3.966  14.727  0.1159 -0.0354  0.1867
 8569SOL    HW137343   0.244   4.055  14.696  1.3532 -0.4593 -0.2746
 8569SOL    HW237344   0.175   3.977  14.808 -2.0981  0.2766 -1.2067
 8570SOL     OW37345   3.700   4.082  16.228 -0.2999  0.7040 -0.4879
 8570SOL    HW137346   3.774   4.136  16.201  1.0590 -0.8281  0.1377
 8570SOL    HW237347   3.701   4.014  16.161 -1.5598  0.2697 -0.0564
 8571SOL     OW37348   0.921   1.185   5.977  0.1810 -0.4115  0.1098
 8571SOL    HW137349   0.985   1.144   6.035  0.5167 -0.7406 -0.4950
 8571SOL    HW237350   0.924   1.116   5.911 -1.4347  0.9425 -1.3839
 8572SOL     OW37351   2.272   4.310   5.197  0.1569  0.5625  0.2232
 8572SOL    HW137352   2.248   4.290   5.287 -1.4881  0.2677 -0.2832
 8572SOL    HW237353   2.309   4.396   5.220 -0.4880  0.7457  0.5754
 8573SOL     OW37354   1.913   2.768  14.717  0.0230 -0.3773 -0.2357
 8573SOL    HW137355   1.889   2.704  14.783 -0.0655 -0.2285 -0.1246
 8573SOL    HW237356   1.907   2.842  14.777  0.0567 -1.7180  1.4254
 8574SOL     OW37357   1.332   2.362   7.869  0.1385 -0.3863 -0.0356
 8574SOL    HW137358   1.345   2.387   7.960 -1.7737  1.7754 -0.3477
 8574SOL    HW237359   1.241   2.332   7.873 -0.7585  2.1368 -1.3476
 8575SOL     OW37360   1.192   4.361   5.431 -0.2978 -0.1353 -0.5817
 8575SOL    HW137361   1.251   4.305   5.380 -0.9881 -0.0795 -1.4455
 8575SOL    HW237362   1.112   4.325   5.393 -0.8177  0.9164 -0.4918
 8576SOL     OW37363   0.423   1.275  11.643  0.2694 -0.0306  0.4756
 8576SOL    HW137364   0.429   1.370  11.632 -0.0039 -0.2718 -1.7336
 8576SOL    HW237365   0.492   1.250  11.581 -0.2583 -2.3113  0.8123
 8577SOL     OW37366   2.461   3.049  15.119  0.4544  0.0186  0.3863
 8577SOL    HW137367   2.402   3.065  15.193 -0.9568  1.9560 -1.1691
 8577SOL    HW237368   2.405   3.038  15.042  0.8729  0.4522  0.0213
 8578SOL     OW37369   0.335   3.302   8.052 -0.0756 -0.7210  0.5780
 8578SOL    HW137370   0.249   3.303   8.009 -1.1682 -2.2641  2.6823
 8578SOL    HW237371   0.326   3.213   8.087 -0.9990 -0.2251  1.6411
 8579SOL     OW37372   4.718   1.583   8.332 -0.1922  0.5434 -0.3184
 8579SOL    HW137373   0.058   1.577   8.274 -0.4527 -0.0671 -0.5973
 8579SOL    HW237374   4.694   1.675   8.319  2.5630  1.4284  0.9321
 8580SOL     OW37375   2.107   4.611  15.749 -0.3083  0.0677  0.5656
 8580SOL    HW137376   2.145   4.535  15.705  1.4677  0.0491  2.1369
 8580SOL    HW237377   2.178   4.627  15.811 -0.8583  2.0663  0.6826
 8581SOL     OW37378   1.777   3.549  12.786 -0.5857  0.3113  0.6431
 8581SOL    HW137379   1.772   3.520  12.877  0.2424 -0.8739  0.3075
 8581SOL    HW237380   1.730   3.476  12.743  1.1605 -1.0403  1.0317
 8582SOL     OW37381   0.821   4.058   7.668  0.7930  0.1689  0.6342
 8582SOL    HW137382   0.806   4.028   7.757 -0.1411  3.2256  1.4989
 8582SOL    HW237383   0.916   4.070   7.667  0.9302 -0.8456  1.1131
 8583SOL     OW37384   3.476   0.445   3.458  0.5516  0.1300  0.0024
 8583SOL    HW137385   3.409   0.428   3.391  3.0544 -2.1859 -1.8960
 8583SOL    HW237386   3.452   0.381   3.524 -1.3631  0.6989 -0.1290
 8584SOL     OW37387   3.329   2.820   5.650  0.3124  0.1011  0.2601
 8584SOL    HW137388   3.409   2.871   5.659 -1.4647  2.4794  2.6638
 8584SOL    HW237389   3.332   2.791   5.559 -2.5513  1.2952 -0.2459
 8585SOL     OW37390   1.253   2.322  10.461 -0.3965  0.7122 -0.4442
 8585SOL    HW137391   1.220   2.392  10.517 -2.2044  0.9055 -1.7642
 8585SOL    HW237392   1.199   2.331  10.383 -1.0074 -2.8601 -0.4065
 8586SOL     OW37393   0.483   3.134  16.255  0.0842 -0.3796  0.3501
 8586SOL    HW137394   0.500   3.043  16.231 -1.8573 -0.5538 -0.3236
 8586SOL    HW237395   0.546   3.187  16.207 -0.1421 -1.3118 -0.9626
 8587SOL     OW37396   1.974   3.962  11.262  0.1240 -0.0814  0.5404
 8587SOL    HW137397   1.898   3.932  11.311  1.9728 -2.3412  2.0245
 8587SOL    HW237398   1.924   4.009  11.196  0.4486 -0.3624  0.0887
 8588SOL     OW37399   1.367   2.513   4.914  0.1854 -0.4552  0.0594
 8588SOL    HW137400   1.342   2.422   4.893  1.0320 -1.0798  1.7891
 8588SOL    HW237401   1.363   2.553   4.827 -0.4970  0.4646  0.5170
 8589SOL     OW37402   1.561   4.651   4.683 -0.1955  0.0825 -0.6229
 8589SOL    HW137403   1.551   4.557   4.695 -0.2686  0.2389  0.5738
 8589SOL    HW237404   1.656   4.646   4.676 -0.2504 -1.4557 -0.2272
 8590SOL     OW37405   1.583   1.931   4.261  0.2926 -0.0771  0.1064
 8590SOL    HW137406   1.631   1.974   4.191  1.4596 -1.3364  0.1411
 8590SOL    HW237407   1.539   2.011   4.290 -0.2795 -0.6737  0.9006
 8591SOL     OW37408   1.572   1.556   6.650  0.4538  0.4459  0.3352
 8591SOL    HW137409   1.617   1.568   6.733 -3.2851 -0.2205  2.4446
 8591SOL    HW237410   1.486   1.528   6.679  0.4031 -0.1281 -0.3554
 8592SOL     OW37411   2.517   4.408   3.023 -1.0702  0.1367 -0.3389
 8592SOL    HW137412   2.459   4.465   2.973 -1.1892  0.9015  0.6850
 8592SOL    HW237413   2.452   4.384   3.088 -0.6228 -0.3732 -0.0770
 8593SOL     OW37414   2.883   4.201   8.047 -0.1234 -0.1190  0.2953
 8593SOL    HW137415   2.853   4.228   7.960  0.4344  1.2493  0.5183
 8593SOL    HW237416   2.979   4.202   8.044 -0.0728  0.2797  2.1635
 8594SOL     OW37417   4.604   1.953   2.907 -0.1993 -0.3072 -0.0316
 8594SOL    HW137418   4.634   1.935   2.818  1.8298  1.2859  0.3281
 8594SOL    HW237419   4.678   1.924   2.961  0.0285  1.2545  0.4931
 8595SOL     OW37420   1.298   2.490   7.253  0.3191  0.1537  0.8298
 8595SOL    HW137421   1.273   2.398   7.263  2.4542 -0.4518  0.4279
 8595SOL    HW237422   1.393   2.495   7.258  0.1053  4.3000  0.6526
 8596SOL     OW37423   0.636   0.114  17.612 -0.4459 -0.2765 -0.2064
 8596SOL    HW137424   0.681   0.088  17.532  0.4634  4.6326 -1.2981
 8596SOL    HW237425   0.710   0.120  17.672 -0.1716  0.0391 -0.5792
 8597SOL     OW37426   4.416   2.241   8.994 -0.1825  0.2061  0.7995
 8597SOL    HW137427   4.351   2.307   9.018  0.9073  1.1882  0.9959
 8597SOL    HW237428   4.361   2.171   8.959  0.8888 -1.2849  2.0609
 8598SOL     OW37429   3.038   2.770   2.951 -0.0450 -0.0897  0.4383
 8598SOL    HW137430   3.036   2.715   2.872  0.6766 -0.1920  0.4938
 8598SOL    HW237431   2.953   2.745   2.988  0.7039 -2.1498  0.7733
 8599SOL     OW37432   2.770   3.587   4.044  0.0381  0.5750  0.4228
 8599SOL    HW137433   2.756   3.493   4.036  1.5046  0.2809  1.3542
 8599SOL    HW237434   2.698   3.611   4.102  0.8538  0.8812  1.3182
 8600SOL     OW37435   0.167   0.217   7.000 -0.2460 -0.1180  0.2512
 8600SOL    HW137436   0.168   0.215   7.096 -2.8175 -1.2959  0.2454
 8600SOL    HW237437   0.239   0.278   6.980  0.2670 -0.4899  0.9467
 8601SOL     OW37438   1.651   0.461   6.061 -0.7554 -0.2665  0.2752
 8601SOL    HW137439   1.632   0.410   5.982  0.2439  0.5605 -0.5017
 8601SOL    HW237440   1.612   0.403   6.127  0.6062 -2.5980 -0.9649
 8602SOL     OW37441   3.458   1.044   9.260  0.2741  0.1331 -0.2848
 8602SOL    HW137442   3.377   1.077   9.297  0.0903 -2.2157  1.4292
 8602SOL    HW237443   3.461   0.960   9.307  0.3378 -0.5149 -1.4450
 8603SOL     OW37444   4.640   0.508  11.126 -0.4564  0.1292  0.3932
 8603SOL    HW137445   4.727   0.515  11.167 -0.8723  1.1409  1.1287
 8603SOL    HW237446   4.617   0.419  11.151 -1.8967  0.0259 -1.3582
 8604SOL     OW37447   2.248   3.620   0.123 -0.1503 -0.3161 -0.0530
 8604SOL    HW137448   2.336   3.642   0.092 -0.8391  0.2768 -1.6100
 8604SOL    HW237449   2.228   3.560   0.052  0.3520 -1.9301  1.1785
 8605SOL     OW37450   0.516   1.569   6.374 -0.7432  0.0029  0.0388
 8605SOL    HW137451   0.571   1.639   6.338 -0.9323 -0.2547 -0.7517
 8605SOL    HW237452   0.587   1.536   6.429  2.4480  1.2983 -3.2959
 8606SOL     OW37453   2.965   0.540  15.183 -0.0349  0.2013 -0.1439
 8606SOL    HW137454   2.886   0.522  15.233 -2.5798  1.9067 -3.5521
 8606SOL    HW237455   3.008   0.455  15.192  1.1979  0.7724 -0.5638
 8607SOL     OW37456   2.260   3.139  13.500 -0.5125  0.7596  0.0492
 8607SOL    HW137457   2.281   3.046  13.494 -5.2362 -0.2597 -0.7433
 8607SOL    HW237458   2.276   3.159  13.592  2.0010  2.8724 -0.8404
 8608SOL     OW37459   1.335   2.652   6.305 -0.4343 -0.0954 -0.0687
 8608SOL    HW137460   1.332   2.729   6.248  0.3943 -0.1283 -0.1521
 8608SOL    HW237461   1.380   2.587   6.251 -2.7247 -0.8725 -1.0796
 8609SOL     OW37462   3.904   0.558   6.421  0.2499 -0.3894 -1.0821
 8609SOL    HW137463   3.909   0.505   6.501  0.6655 -2.1503 -2.2664
 8609SOL    HW237464   3.814   0.590   6.419  0.6887  1.1422  3.0571
 8610SOL     OW37465   4.639   4.660   0.025  0.7997 -0.5881  0.3117
 8610SOL    HW137466   4.588   4.703  17.699  1.4688 -1.5637 -0.8108
 8610SOL    HW237467   4.724   4.636  17.728  1.6380  1.7203  0.7152
 8611SOL     OW37468   2.763   4.386   9.114  0.1474 -0.1291  0.5010
 8611SOL    HW137469   2.856   4.411   9.113 -0.3493  1.6506 -0.5542
 8611SOL    HW237470   2.776   4.300   9.154 -0.1807 -0.7464 -0.6938
 8612SOL     OW37471   3.714   3.131   8.494  0.1872 -0.1300  0.3111
 8612SOL    HW137472   3.707   3.224   8.515 -0.7245 -0.2426  0.4839
 8612SOL    HW237473   3.765   3.121   8.413  1.0299 -1.9605  1.0611
 8613SOL     OW37474   2.712   3.055   5.319  0.3133 -0.1657 -0.3178
 8613SOL    HW137475   2.665   3.072   5.401  0.2611  1.0124 -0.5982
 8613SOL    HW237476   2.649   3.044   5.248 -0.7042  0.2746  0.5218
 8614SOL     OW37477   2.482   4.392   1.490 -0.4583 -0.1454  0.5068
 8614SOL    HW137478   2.481   4.312   1.439 -0.4350  0.6116 -0.6910
 8614SOL    HW237479   2.548   4.446   1.446 -0.9222  0.4278  0.5057
 8615SOL     OW37480   3.402   3.833   5.790  0.4244 -0.5718  0.0314
 8615SOL    HW137481   3.461   3.782   5.735  2.6434  1.0882  0.8820
 8615SOL    HW237482   3.414   3.795   5.877 -2.3636  0.6044  0.9453
 8616SOL     OW37483   1.298   4.653   3.663  0.3618  0.2027 -0.1305
 8616SOL    HW137484   1.378   4.696   3.695 -1.2475  3.1308  0.0109
 8616SOL    HW237485   1.249   4.622   3.739  2.1948  1.2379  1.4826
 8617SOL     OW37486   4.524   0.218   9.871  0.1815 -0.1880  0.1654
 8617SOL    HW137487   4.563   0.280   9.810 -1.2559  0.5433 -0.0127
 8617SOL    HW237488   4.451   0.194   9.813  0.0852 -1.4222  0.7990
 8618SOL     OW37489   3.501   3.176  16.497  0.0205  0.0299 -0.0310
 8618SOL    HW137490   3.474   3.267  16.488  2.0373  0.5163 -1.1619
 8618SOL    HW237491   3.441   3.130  16.438 -0.9831 -0.3573  1.2929
 8619SOL     OW37492   4.533   1.086   3.211 -0.0702  1.0321  0.2406
 8619SOL    HW137493   4.459   1.142   3.190 -1.3694 -0.8446 -0.1487
 8619SOL    HW237494   4.504   0.997   3.195 -1.3524  1.7226 -1.2103
 8620SOL     OW37495   4.469   0.262  12.608 -0.6890  0.3170  0.6320
 8620SOL    HW137496   4.380   0.294  12.595 -1.0323 -0.7528  0.3535
 8620SOL    HW237497   4.489   0.299  12.694  2.5755  1.9397 -0.8374
 8621SOL     OW37498   0.325   0.021   5.250 -0.1978 -0.3717  0.6676
 8621SOL    HW137499   0.268   4.709   5.190  0.5377 -0.0874 -0.2556
 8621SOL    HW237500   0.323   0.106   5.207  0.5687 -0.3870  0.5979
 8622SOL     OW37501   0.602   3.350  12.514  0.5839  0.3772  0.0781
 8622SOL    HW137502   0.677   3.346  12.455  1.1191  0.7095  0.7411
 8622SOL    HW237503   0.642   3.405  12.581 -2.1315  0.9505  1.2326
 8623SOL     OW37504   1.662   3.928   4.810 -0.4414 -0.1489 -0.4733
 8623SOL    HW137505   1.629   3.854   4.862  2.6504 -1.3157 -0.1045
 8623SOL    HW237506   1.586   3.943   4.754  1.0958  0.1758 -2.4789
 8624SOL     OW37507   2.252   1.848   8.923  0.1583 -0.7233 -0.1926
 8624SOL    HW137508   2.202   1.815   8.848  0.9677 -0.8710 -0.6653
 8624SOL    HW237509   2.216   1.804   9.000 -0.2461 -0.1688 -0.0637
 8625SOL     OW37510   0.153   1.528   3.073 -0.2371  0.6112  0.4334
 8625SOL    HW137511   0.186   1.606   3.118  2.2648  0.9847 -2.0112
 8625SOL    HW237512   0.080   1.559   3.020 -0.7304 -0.9441  0.2231
 8626SOL     OW37513   2.390   3.690   8.100 -0.2171 -0.6664  0.0822
 8626SOL    HW137514   2.362   3.695   8.191  0.6588  1.2429  0.2506
 8626SOL    HW237515   2.310   3.670   8.051 -1.0748 -1.5059  1.8526
 8627SOL     OW37516   1.484   4.205   5.052  0.2081  0.1878  0.5715
 8627SOL    HW137517   1.447   4.117   5.058  0.3611  0.2519  2.7577
 8627SOL    HW237518   1.473   4.244   5.139 -0.0121 -0.0724  0.6615
 8628SOL     OW37519   2.420   0.841   3.566 -0.0349  0.1056 -0.3081
 8628SOL    HW137520   2.439   0.853   3.473 -0.5088  1.0963 -0.2730
 8628SOL    HW237521   2.398   0.748   3.560 -0.7475  0.3446 -1.3508
 8629SOL     OW37522   2.277   0.622   8.817  0.5390 -0.3655 -0.6730
 8629SOL    HW137523   2.339   0.636   8.889 -0.5818 -0.9608  0.4171
 8629SOL    HW237524   2.260   0.712   8.791 -0.4825 -1.1683 -2.7479
 8630SOL     OW37525   2.721   1.448   7.367 -1.0890  0.3490 -0.1634
 8630SOL    HW137526   2.686   1.394   7.296  2.4475 -2.6889  0.4413
 8630SOL    HW237527   2.706   1.536   7.333 -1.8249 -0.0674 -0.8981
 8631SOL     OW37528   4.683   4.477   3.464 -0.6533 -0.3234 -0.8513
 8631SOL    HW137529   4.654   4.535   3.534  2.1124 -2.2153  1.8175
 8631SOL    HW237530   4.692   4.538   3.390  1.3988  1.2862  0.7401
 8632SOL     OW37531   3.597   0.329   5.020  0.5207 -0.0744 -0.0355
 8632SOL    HW137532   3.677   0.298   4.979  0.7050  0.4137 -0.0478
 8632SOL    HW237533   3.586   0.422   4.996 -0.7295 -0.5126 -1.1883
 8633SOL     OW37534   2.253   1.606  12.147  0.1537 -0.2385  0.2446
 8633SOL    HW137535   2.345   1.616  12.172  0.3256 -1.8179  0.2154
 8633SOL    HW237536   2.248   1.649  12.062 -0.4169  1.5162  1.1621
 8634SOL     OW37537   1.425   2.830   9.907 -0.0465  0.3006  0.0227
 8634SOL    HW137538   1.402   2.840   9.815 -0.3589  1.2457  0.2070
 8634SOL    HW237539   1.376   2.903   9.947 -1.3971 -1.1134  0.9634
 8635SOL     OW37540   3.598   3.970   7.989  0.1574 -0.0376 -0.2880
 8635SOL    HW137541   3.562   3.923   8.064  1.8884  2.6255  2.2134
 8635SOL    HW237542   3.628   3.900   7.931  0.7455  0.2165 -0.2906
 8636SOL     OW37543   2.557   0.561   4.306  0.3857  0.0876 -0.7246
 8636SOL    HW137544   2.563   0.539   4.213 -0.3880  3.0783 -1.5051
 8636SOL    HW237545   2.533   0.654   4.298 -5.0584 -1.1967  0.9571
 8637SOL     OW37546   2.699   1.390  15.178 -0.1233 -0.4993 -0.3632
 8637SOL    HW137547   2.758   1.321  15.149 -0.5562  0.4950 -3.6281
 8637SOL    HW237548   2.642   1.384  15.101  1.6806  2.5462 -1.9331
 8638SOL     OW37549   4.734   3.427   7.032  0.0688 -0.6386  0.0695
 8638SOL    HW137550   4.641   3.447   7.020 -0.3651 -0.7569  3.1999
 8638SOL    HW237551   0.047   3.476   6.966  2.9598 -1.4133  1.6468
 8639SOL     OW37552   1.706   2.118   7.928  0.0001  0.5480  0.3440
 8639SOL    HW137553   1.685   2.197   7.878  0.4900  1.2851  1.3066
 8639SOL    HW237554   1.711   2.053   7.857  0.2849  0.8504  0.0872
 8640SOL     OW37555   1.452   4.472  15.818 -0.1221  0.4638 -0.7213
 8640SOL    HW137556   1.383   4.444  15.757 -0.1113  0.9110 -0.9420
 8640SOL    HW237557   1.500   4.533  15.762  1.0133 -0.3404 -0.6061
 8641SOL     OW37558   0.729   4.639   0.851 -0.1812 -0.2878 -0.0553
 8641SOL    HW137559   0.786   4.670   0.781  1.3588 -1.4792  0.6589
 8641SOL    HW237560   0.728   4.546   0.830  3.6187 -0.7118  1.5184
 8642SOL     OW37561   4.640   4.564   5.543 -0.0271  0.2672  0.8358
 8642SOL    HW137562   4.709   4.627   5.564  0.5408  0.7223 -2.4009
 8642SOL    HW237563   4.592   4.610   5.474  1.3343 -1.5589 -1.3128
 8643SOL     OW37564   3.181   2.462   3.453 -0.3358 -0.1850  0.2501
 8643SOL    HW137565   3.274   2.444   3.440  0.3412  1.9934  2.0616
 8643SOL    HW237566   3.143   2.380   3.421 -1.6464  1.0669 -1.4210
 8644SOL     OW37567   0.211   0.691   2.352 -0.1349 -0.5685  0.7026
 8644SOL    HW137568   0.233   0.741   2.274  0.3970 -2.2561 -0.2271
 8644SOL    HW237569   0.186   0.766   2.406 -1.0191 -0.8592  0.6965
 8645SOL     OW37570   2.149   1.572   0.845 -0.0922  0.5419  0.0668
 8645SOL    HW137571   2.057   1.567   0.822 -0.0316  0.3121 -0.1210
 8645SOL    HW237572   2.192   1.593   0.763 -0.7944 -0.2089 -0.4942
 8646SOL     OW37573   3.477   3.677   7.920  0.4703  0.4384  0.5712
 8646SOL    HW137574   3.432   3.761   7.922 -2.8862 -1.3725  3.0465
 8646SOL    HW237575   3.462   3.655   7.828 -3.1678  1.4351  0.9381
 8647SOL     OW37576   1.499   2.434  12.558 -0.3640  0.1020  0.0470
 8647SOL    HW137577   1.569   2.371  12.543 -0.5586 -0.7677  2.7557
 8647SOL    HW237578   1.423   2.381  12.532 -0.5667  1.1962 -1.5480
 8648SOL     OW37579   3.508   0.525   8.700 -0.4192 -0.3143 -0.0921
 8648SOL    HW137580   3.553   0.493   8.778  1.4270  0.5366 -0.8171
 8648SOL    HW237581   3.539   0.456   8.641 -1.4203  1.2816 -2.4611
 8649SOL     OW37582   2.024   4.154   9.184 -0.6624 -0.5513 -0.1911
 8649SOL    HW137583   2.067   4.225   9.137 -0.2011 -1.8337 -1.6988
 8649SOL    HW237584   2.087   4.088   9.156  0.3706 -0.0696  1.0060
 8650SOL     OW37585   2.385   2.624   4.139  0.5296 -0.6261 -0.2287
 8650SOL    HW137586   2.475   2.655   4.151 -0.3739  1.7109  0.5535
 8650SOL    HW237587   2.344   2.671   4.212  0.5016  0.2257 -0.8005
 8651SOL     OW37588   0.895   3.052   4.515 -0.0263 -0.1657  0.0073
 8651SOL    HW137589   0.849   3.108   4.453 -2.7897 -2.3959  0.0222
 8651SOL    HW237590   0.831   3.052   4.586 -0.0504 -1.5599 -0.0081
 8652SOL     OW37591   1.036   0.193   5.299 -0.0769  0.0090 -0.3104
 8652SOL    HW137592   1.059   0.222   5.387 -2.2318  1.2032 -0.1371
 8652SOL    HW237593   1.074   0.105   5.307 -1.2749 -0.5685 -1.0289
 8653SOL     OW37594   3.292   3.771  17.250 -0.2821  0.0234 -0.3210
 8653SOL    HW137595   3.220   3.833  17.250  0.8032  1.2680  1.4302
 8653SOL    HW237596   3.309   3.767  17.344 -0.1093 -1.9548 -0.4265
 8654SOL     OW37597   0.667   2.561   2.207 -0.1186 -0.5793 -0.0924
 8654SOL    HW137598   0.740   2.555   2.269 -1.5009 -0.4681  1.5321
 8654SOL    HW237599   0.586   2.536   2.250  0.5593 -0.3446  1.3170
 8655SOL     OW37600   3.468   3.659   5.345 -0.5362 -0.1882  0.0482
 8655SOL    HW137601   3.429   3.736   5.302 -0.8325 -1.4834 -1.9784
 8655SOL    HW237602   3.537   3.686   5.406 -1.5352 -0.9593  1.5066
 8656SOL     OW37603   2.384   0.868   1.924  0.0683 -0.4968 -0.3392
 8656SOL    HW137604   2.340   0.784   1.911  0.1138 -0.9946  2.7495
 8656SOL    HW237605   2.341   0.917   1.853 -2.2057  0.4707  1.6796
 8657SOL     OW37606   1.405   1.999   3.823 -0.1950  0.1514  0.4153
 8657SOL    HW137607   1.476   1.951   3.780 -0.2486  1.4557 -1.1076
 8657SOL    HW237608   1.429   1.995   3.916 -0.9894 -1.1322  0.5672
 8658SOL     OW37609   3.968   3.258   3.732 -0.3909 -0.4497  0.8347
 8658SOL    HW137610   4.031   3.211   3.678 -0.4873 -0.1217  0.4374
 8658SOL    HW237611   4.022   3.293   3.803 -1.0296  2.6407 -0.1804
 8659SOL     OW37612   4.503   1.573   4.779 -0.7231 -0.8926  0.0335
 8659SOL    HW137613   4.576   1.623   4.743  0.2019 -0.1106  2.9972
 8659SOL    HW237614   4.540   1.484   4.783  0.3458 -0.4073  0.9788
 8660SOL     OW37615   2.455   2.078   6.305 -0.0812  0.4541 -0.0529
 8660SOL    HW137616   2.463   2.010   6.239 -0.2161  0.2561  0.1344
 8660SOL    HW237617   2.528   2.134   6.279  0.1338 -0.2565 -0.9609
 8661SOL     OW37618   3.627   0.569   9.501 -0.2499 -0.0759 -0.5966
 8661SOL    HW137619   3.696   0.509   9.475  0.0186  0.8720 -2.0601
 8661SOL    HW237620   3.550   0.512   9.499 -0.0983 -0.1208 -4.2300
 8662SOL     OW37621   1.256   1.354  14.179 -0.4129 -0.5034 -0.3664
 8662SOL    HW137622   1.289   1.284  14.235  0.4309 -1.0824 -1.5628
 8662SOL    HW237623   1.298   1.324  14.098  0.8753  2.0427 -0.6305
 8663SOL     OW37624   3.421   2.174   2.642 -0.1749 -0.0587 -0.6229
 8663SOL    HW137625   3.378   2.111   2.583 -1.7310 -0.8578  1.3788
 8663SOL    HW237626   3.405   2.131   2.726 -0.0341  1.3839  0.1481
 8664SOL     OW37627   4.321   0.037   0.906 -0.1547 -0.0809 -0.0241
 8664SOL    HW137628   4.393   4.711   0.893 -0.3294 -0.2397 -0.2388
 8664SOL    HW237629   4.337   0.075   0.993  1.2341  0.9300 -0.7093
 8665SOL     OW37630   2.486   3.444   8.373  0.5662  0.3067 -0.2487
 8665SOL    HW137631   2.530   3.430   8.456 -1.0779  1.0968  0.7557
 8665SOL    HW237632   2.478   3.355   8.338  0.4206  0.9620 -1.8901
 8666SOL     OW37633   3.788   4.670   7.218 -0.2504 -0.3801 -0.2560
 8666SOL    HW137634   3.864   4.618   7.242 -0.4833 -0.1314  0.9916
 8666SOL    HW237635   3.719   4.628   7.269  2.4028 -3.2782  0.9301
 8667SOL     OW37636   1.278   4.435   0.299  0.3235 -0.1916 -0.5807
 8667SOL    HW137637   1.261   4.363   0.360  1.6658  0.0016  0.0157
 8667SOL    HW237638   1.292   4.511   0.355  0.5317 -0.6543 -0.0081
 8668SOL     OW37639   4.119   3.410   3.919 -0.0953 -0.2458  0.8005
 8668SOL    HW137640   4.087   3.496   3.948 -1.7369 -0.3405 -0.7298
 8668SOL    HW237641   4.147   3.439   3.833  0.0487 -1.2985  0.4986
 8669SOL     OW37642   4.314   3.191   2.879  0.2194  0.7507  0.4917
 8669SOL    HW137643   4.283   3.216   2.792 -0.1531 -0.1438  0.3655
 8669SOL    HW237644   4.306   3.096   2.867  0.4006  0.4627  2.5418
 8670SOL     OW37645   1.143   1.330   8.878  0.0955 -0.8168 -0.1179
 8670SOL    HW137646   1.184   1.262   8.824  1.8634 -0.4307  0.7553
 8670SOL    HW237647   1.059   1.288   8.899 -0.1324 -0.9623 -1.3116
 8671SOL     OW37648   4.628   4.232   6.066 -0.4770 -0.3693 -0.3569
 8671SOL    HW137649   4.711   4.185   6.067  0.3536  1.1558  0.7077
 8671SOL    HW237650   4.595   4.203   6.151  1.3241  1.0101  0.7988
 8672SOL     OW37651   4.434   1.930   5.416  0.0485  0.2709  0.4335
 8672SOL    HW137652   4.429   1.835   5.423 -1.0275  0.0527 -3.0242
 8672SOL    HW237653   4.523   1.928   5.381 -0.2133  1.2626 -0.2986
 8673SOL     OW37654   2.884   1.848   4.752 -0.5545 -0.6917 -0.4215
 8673SOL    HW137655   2.919   1.937   4.760 -0.7161 -0.7591  0.9397
 8673SOL    HW237656   2.795   1.860   4.784 -0.5084  2.5150 -1.5094
 8674SOL     OW37657   1.459   2.502   8.721  0.2880  0.0692 -0.1636
 8674SOL    HW137658   1.513   2.520   8.644 -0.4535 -0.5598 -0.8384
 8674SOL    HW237659   1.503   2.550   8.791 -1.0777  0.7030  0.2671
 8675SOL     OW37660   4.657   1.452   1.705 -0.2299 -0.8400 -0.2596
 8675SOL    HW137661   4.628   1.462   1.614  2.7586 -1.6098 -1.3049
 8675SOL    HW237662   0.011   1.485   1.703 -0.4914 -0.1074  0.0194
 8676SOL     OW37663   2.046   2.457   2.673 -0.4180 -0.0777  0.6811
 8676SOL    HW137664   2.062   2.374   2.719  0.1124  0.6661  1.8551
 8676SOL    HW237665   1.981   2.424   2.612 -0.6409  0.0515  0.8496
 8677SOL     OW37666   3.326   3.228   5.581  0.0167 -0.6110 -0.1615
 8677SOL    HW137667   3.355   3.171   5.510  4.5221  2.3342 -0.6379
 8677SOL    HW237668   3.352   3.313   5.545  0.4493 -0.4184  0.6090
 8678SOL     OW37669   1.292   0.470   0.551 -0.5007  0.6392  0.1648
 8678SOL    HW137670   1.367   0.501   0.602 -1.7214 -0.2878  2.5822
 8678SOL    HW237671   1.228   0.541   0.557  0.9804  1.7691  2.3221
 8679SOL     OW37672   4.155   1.383   5.290  0.0326 -0.5958 -0.6263
 8679SOL    HW137673   4.177   1.292   5.306  1.7922 -0.2550 -1.1158
 8679SOL    HW237674   4.060   1.386   5.283 -0.0535  3.0105  1.9267
 8680SOL     OW37675   4.278   0.492  12.088 -0.2404 -0.1263 -0.6495
 8680SOL    HW137676   4.275   0.475  12.182  2.4780 -0.9955 -0.7100
 8680SOL    HW237677   4.248   0.411  12.049 -0.5554  0.1650 -1.0114
 8681SOL     OW37678   1.289   0.961   6.299  0.1617 -0.4287 -0.1860
 8681SOL    HW137679   1.382   0.978   6.282 -0.2103  1.6157 -0.2362
 8681SOL    HW237680   1.295   0.948   6.393 -1.9540 -0.9696 -0.1291
 8682SOL     OW37681   1.256   3.947   1.946 -0.3205  0.3220  0.0489
 8682SOL    HW137682   1.196   4.009   1.906  0.6008  0.6697 -0.7957
 8682SOL    HW237683   1.201   3.905   2.013  1.1348  0.9525  1.6526
 8683SOL     OW37684   2.640   1.911   4.880 -0.1231  0.3330  0.0709
 8683SOL    HW137685   2.589   1.919   4.961  0.8616  1.3470  0.5924
 8683SOL    HW237686   2.579   1.942   4.813 -5.1132 -3.3067  2.9136
 8684SOL     OW37687   0.824   3.049   2.926 -1.0011 -0.3578  0.5269
 8684SOL    HW137688   0.808   3.099   3.005  1.6292 -1.4229  1.7245
 8684SOL    HW237689   0.861   2.970   2.965 -1.3360 -1.1462 -0.7355
 8685SOL     OW37690   2.362   3.373   8.651 -0.4666  0.2801  0.1278
 8685SOL    HW137691   2.409   3.296   8.683 -0.8466 -0.6637 -1.5999
 8685SOL    HW237692   2.429   3.441   8.662  0.6788 -1.3008  3.0788
 8686SOL     OW37693   1.579   4.451   3.825 -0.2072  0.0636 -0.4823
 8686SOL    HW137694   1.576   4.537   3.784 -0.0633 -0.0724 -0.7767
 8686SOL    HW237695   1.524   4.473   3.900  0.6969  3.1841 -0.7436
 8687SOL     OW37696   1.034   4.538   2.303  0.2471 -0.3732  0.6587
 8687SOL    HW137697   1.004   4.493   2.382 -0.2570 -2.0514 -0.4908
 8687SOL    HW237698   1.108   4.591   2.334  0.7976 -0.1354 -1.0705
 8688SOL     OW37699   0.339   4.440   6.672  0.0644  0.3898  0.1736
 8688SOL    HW137700   0.254   4.475   6.697 -0.7277 -1.8932  0.6215
 8688SOL    HW237701   0.341   4.377   6.744 -0.8283  1.8627  1.4822
 8689SOL     OW37702   2.210   3.087  14.646  0.1433  0.1554  0.2734
 8689SOL    HW137703   2.204   3.182  14.633 -0.1361  0.1367  0.2570
 8689SOL    HW237704   2.295   3.065  14.609 -0.9718 -1.2317 -1.4751
 8690SOL     OW37705   3.134   4.544   3.706 -0.3928 -0.2884  0.0852
 8690SOL    HW137706   3.140   4.617   3.767  0.8615  1.9381 -2.7637
 8690SOL    HW237707   3.157   4.594   3.628  0.6309 -1.4226 -0.3360
 8691SOL     OW37708   3.414   3.634   4.683 -0.1907  0.1961  0.3297
 8691SOL    HW137709   3.398   3.587   4.602 -1.3746 -0.1733  0.7837
 8691SOL    HW237710   3.414   3.727   4.658  0.6706  0.8341  2.6404
 8692SOL     OW37711   3.428   4.194   7.961  0.0735  0.0387  0.6300
 8692SOL    HW137712   3.427   4.207   7.866 -0.8505 -1.1127  0.4828
 8692SOL    HW237713   3.478   4.113   7.967  1.2337  0.5568 -1.9452
 8693SOL     OW37714   2.111   3.248   4.319  0.1424  0.4988 -0.6279
 8693SOL    HW137715   2.087   3.221   4.408 -0.2460  0.8491 -0.6280
 8693SOL    HW237716   2.176   3.313   4.346  3.1518 -2.4907 -0.6435
 8694SOL     OW37717   1.313   0.176   5.848 -0.0687 -0.0645  0.1298
 8694SOL    HW137718   1.225   0.207   5.869 -0.0923  0.2360 -0.3963
 8694SOL    HW237719   1.301   0.180   5.753  0.3596 -0.3344  0.0638
 8695SOL     OW37720   2.287   2.886   2.713 -0.2676 -0.3097  0.2622
 8695SOL    HW137721   2.245   2.942   2.779 -2.2303 -2.0484  0.4927
 8695SOL    HW237722   2.306   2.954   2.649 -2.3392  0.6485  0.6838
 8696SOL     OW37723   1.351   2.616  11.934 -0.1277 -0.2587 -0.7944
 8696SOL    HW137724   1.400   2.540  11.902 -1.0333 -2.2655  2.6122
 8696SOL    HW237725   1.314   2.581  12.014  0.7310  0.2725 -0.1578
 8697SOL     OW37726   0.604   3.050   3.819 -0.1056 -0.0415 -0.6000
 8697SOL    HW137727   0.670   2.982   3.825 -1.3913 -1.1147  1.4869
 8697SOL    HW237728   0.617   3.091   3.905 -3.1523  1.9767 -1.0908
 8698SOL     OW37729   1.088   2.373   3.417  0.5041 -0.2730 -0.2910
 8698SOL    HW137730   1.145   2.302   3.449  0.0852  0.3502  1.8045
 8698SOL    HW237731   1.086   2.348   3.324  1.0731  3.5146 -1.3268
 8699SOL     OW37732   0.472   3.540  13.564  0.0702 -0.3151  0.3046
 8699SOL    HW137733   0.509   3.615  13.610 -0.6727  0.9349 -1.0953
 8699SOL    HW237734   0.385   3.577  13.547 -0.5447 -1.3459  1.1597
 8700SOL     OW37735   1.661   1.262   3.497 -0.2366 -0.4435 -0.2654
 8700SOL    HW137736   1.597   1.200   3.532 -0.3423  0.0653  0.4475
 8700SOL    HW237737   1.658   1.327   3.567 -2.7229 -0.0970 -0.7005
 8701SOL     OW37738   2.120   1.459   6.168 -0.0959  0.1809  0.0750
 8701SOL    HW137739   2.060   1.390   6.199 -1.1617  2.1760  2.4550
 8701SOL    HW237740   2.065   1.510   6.108 -1.8022 -0.0746  1.4063
 8702SOL     OW37741   4.096   0.092  16.775  0.0322 -0.5280  0.7566
 8702SOL    HW137742   4.190   0.096  16.758 -0.1853 -0.8890 -0.5398
 8702SOL    HW237743   4.073   0.065  16.686 -1.3022  1.9457  0.3485
 8703SOL     OW37744   3.165   1.280   9.688 -0.0274 -0.0087 -0.1838
 8703SOL    HW137745   3.226   1.245   9.623  1.8614  0.1513  1.5106
 8703SOL    HW237746   3.086   1.229   9.669  0.5720 -1.1878  0.4905
 8704SOL     OW37747   0.858   0.911   4.481  0.6077 -0.1971 -0.4664
 8704SOL    HW137748   0.869   0.951   4.395  1.4603 -2.8396 -1.5583
 8704SOL    HW237749   0.945   0.942   4.506 -0.2101 -0.0570  2.2193
 8705SOL     OW37750   0.396   2.181   8.216  0.6608  0.5936  0.3984
 8705SOL    HW137751   0.410   2.239   8.142  2.6110 -1.9563 -1.2043
 8705SOL    HW237752   0.309   2.152   8.188  0.5068  1.4211  0.0244
 8706SOL     OW37753   0.968   2.359   2.232 -0.2799  0.0249 -0.4387
 8706SOL    HW137754   0.920   2.276   2.222 -0.6713  0.3450 -1.2536
 8706SOL    HW237755   1.008   2.365   2.145  2.0311 -0.8308  0.5743
 8707SOL     OW37756   3.450   1.658   7.747  0.1621 -0.3371  0.2062
 8707SOL    HW137757   3.407   1.738   7.777  0.1122  0.1432 -1.1109
 8707SOL    HW237758   3.403   1.643   7.665  1.5718  1.8996 -1.0032
 8708SOL     OW37759   3.654   2.642  16.944  0.0190 -0.5348 -0.5497
 8708SOL    HW137760   3.709   2.646  16.865  2.2679 -2.4496  0.9152
 8708SOL    HW237761   3.719   2.673  17.007  1.0581 -0.2130 -1.7812
 8709SOL     OW37762   0.319   2.034  14.842 -0.0568 -0.1335 -0.2041
 8709SOL    HW137763   0.364   2.104  14.890  0.8190 -0.6809 -0.2102
 8709SOL    HW237764   0.393   1.981  14.812  1.2550  0.9195  1.1602
 8710SOL     OW37765   2.386   4.377   9.312  0.1278  0.4533 -0.1227
 8710SOL    HW137766   2.359   4.423   9.391  0.0221  1.1972 -0.5846
 8710SOL    HW237767   2.335   4.425   9.246  1.9029  2.0668 -0.3378
 8711SOL     OW37768   3.635   3.806   6.923 -1.2528  0.1805 -0.1463
 8711SOL    HW137769   3.660   3.881   6.868  1.1857 -0.1382  0.5795
 8711SOL    HW237770   3.597   3.843   7.003 -1.9455  0.3568 -0.5482
 8712SOL     OW37771   2.206   1.493  13.526  0.0647 -0.3588  0.1065
 8712SOL    HW137772   2.279   1.441  13.493  0.6519 -0.4808  1.5762
 8712SOL    HW237773   2.243   1.542  13.600  1.2300 -0.1083 -0.6268
 8713SOL     OW37774   0.053   2.169   2.598  0.2238  0.1500 -0.2493
 8713SOL    HW137775   4.728   2.191   2.667 -0.6384  0.2878 -1.0528
 8713SOL    HW237776   0.045   2.074   2.596 -0.7266  0.2165  1.1814
 8714SOL     OW37777   3.175   1.196   6.830 -0.3112 -0.2437 -0.2519
 8714SOL    HW137778   3.197   1.212   6.922 -1.1128 -1.5190  0.1619
 8714SOL    HW237779   3.255   1.213   6.781  0.7492 -0.3928  1.4261
 8715SOL     OW37780   2.241   4.529   7.286 -0.0246  0.3351  0.0527
 8715SOL    HW137781   2.295   4.524   7.366  1.9107 -1.7631 -1.4088
 8715SOL    HW237782   2.155   4.505   7.319  0.5495 -0.4698  0.9990
 8716SOL     OW37783   0.125   3.665   4.091 -0.0924 -0.2837  0.0384
 8716SOL    HW137784   0.198   3.625   4.139 -2.0464 -1.4453  2.0196
 8716SOL    HW237785   0.074   3.707   4.160 -0.1665 -1.1702  0.5220
 8717SOL     OW37786   1.445   3.499   0.420 -0.4159  0.5743 -0.2295
 8717SOL    HW137787   1.434   3.452   0.338 -0.1050  3.0465 -1.6717
 8717SOL    HW237788   1.540   3.486   0.423 -0.6157 -0.7447  0.4501
 8718SOL     OW37789   1.509   4.643   9.390  0.4069  0.1601  0.1487
 8718SOL    HW137790   1.594   4.647   9.433  0.8047 -1.3876 -0.5085
 8718SOL    HW237791   1.451   4.685   9.454  1.6479 -0.8754  1.9730
 8719SOL     OW37792   1.404   2.974  10.630 -0.1528 -0.5202 -0.0996
 8719SOL    HW137793   1.411   3.043  10.696  2.3435  0.5576 -1.4969
 8719SOL    HW237794   1.360   3.015  10.556 -1.6770  0.9584  1.6219
 8720SOL     OW37795   0.173   0.878   0.871  0.1484 -0.2580 -0.3761
 8720SOL    HW137796   0.229   0.883   0.794  0.1853 -0.8785 -0.3861
 8720SOL    HW237797   0.243   0.908   0.928  1.0768  0.1297 -1.7282
 8721SOL     OW37798   1.983   2.425   6.178  0.3406 -0.0507 -0.0662
 8721SOL    HW137799   1.963   2.379   6.260  0.1761  1.4241  0.7215
 8721SOL    HW237800   2.015   2.349   6.129 -0.0423  1.4804 -2.6716
 8722SOL     OW37801   2.246   0.827   9.506  0.0949  0.1582  0.0714
 8722SOL    HW137802   2.229   0.736   9.482  0.1561 -0.1270  1.1031
 8722SOL    HW237803   2.169   0.867   9.466 -0.9939 -2.2073 -0.1810
 8723SOL     OW37804   3.680   2.946   3.523 -0.2930 -0.1179 -0.3029
 8723SOL    HW137805   3.755   2.953   3.464  2.6671 -0.3870  3.4406
 8723SOL    HW237806   3.621   2.913   3.455  0.2063 -0.0362 -0.7707
 8724SOL     OW37807   0.927   3.935  16.743  0.5802 -0.6970  0.2341
 8724SOL    HW137808   0.926   4.017  16.792  0.5275  0.5695 -1.8580
 8724SOL    HW237809   1.001   3.938  16.682 -0.2785  1.4878 -0.7140
 8725SOL     OW37810   3.387   0.948   8.423 -0.0193  0.6058 -0.1333
 8725SOL    HW137811   3.435   1.018   8.467  0.7396 -0.8148  1.3211
 8725SOL    HW237812   3.408   0.875   8.482 -0.1776 -0.9616 -2.0026
 8726SOL     OW37813   1.320   0.226   2.158  0.1180 -0.1199  0.0726
 8726SOL    HW137814   1.259   0.182   2.218  0.8125 -0.0224  0.8490
 8726SOL    HW237815   1.309   0.316   2.187  1.0679 -0.7938  2.5870
 8727SOL     OW37816   2.753   4.017   1.227  0.4438  0.4253  0.6017
 8727SOL    HW137817   2.845   4.042   1.235  1.0478 -2.5434  3.0093
 8727SOL    HW237818   2.759   3.921   1.219  0.9642  0.5880 -0.9024
 8728SOL     OW37819   3.093   2.450  17.067 -0.2971 -0.1130  0.1595
 8728SOL    HW137820   3.120   2.410  17.150  0.3304  2.0343  1.0022
 8728SOL    HW237821   3.169   2.436  17.010 -1.8481 -0.6221 -1.8062
 8729SOL     OW37822   3.033   1.613   3.185  0.3501 -0.0645 -0.3756
 8729SOL    HW137823   2.962   1.606   3.249 -0.9951  1.0535 -1.7297
 8729SOL    HW237824   3.103   1.655   3.234  0.5708  0.5974 -1.2676
 8730SOL     OW37825   4.387   0.654   8.956 -0.0603 -0.3539  0.1223
 8730SOL    HW137826   4.304   0.650   8.909 -0.2919 -2.8424  0.7105
 8730SOL    HW237827   4.430   0.571   8.935 -0.7276 -0.8027  0.5246
 8731SOL     OW37828   4.067   1.038  10.081  0.1156  0.4135  0.0654
 8731SOL    HW137829   3.995   1.100  10.089 -1.3410 -1.2333 -0.3340
 8731SOL    HW237830   4.055   1.007   9.991 -1.1921  1.6764 -0.1887
 8732SOL     OW37831   0.992   4.055   4.578 -0.6488  0.0495 -0.4252
 8732SOL    HW137832   0.950   4.129   4.623  0.6207 -0.2558  1.2521
 8732SOL    HW237833   0.934   3.989   4.616  0.8582  0.0113  1.8182
 8733SOL     OW37834   3.641   0.150  10.740  0.0292  0.1504  0.1863
 8733SOL    HW137835   3.728   0.187  10.758 -0.5720  2.3199 -1.3567
 8733SOL    HW237836   3.612   0.206  10.667 -1.2422  1.1283  1.4374
 8734SOL     OW37837   2.125   1.473   5.209 -0.3496 -0.2603 -0.0373
 8734SOL    HW137838   2.169   1.480   5.294  2.5281 -1.3404 -1.4326
 8734SOL    HW237839   2.088   1.385   5.211  0.3311 -0.5899 -1.3831
 8735SOL     OW37840   0.066   0.285   3.975 -0.5953 -0.5583 -0.2350
 8735SOL    HW137841   0.121   0.206   3.973  0.5298  0.2086  0.8306
 8735SOL    HW237842   0.119   0.344   4.029 -2.4873 -1.1192  2.2628
 8736SOL     OW37843   0.371   0.435  13.100  0.3027  0.1079  0.2410
 8736SOL    HW137844   0.354   0.415  13.008  0.9871 -1.4374  0.4411
 8736SOL    HW237845   0.417   0.518  13.087 -1.0109  0.9338  0.9585
 8737SOL     OW37846   2.260   1.246   8.742  0.1977  0.1558 -0.3911
 8737SOL    HW137847   2.337   1.255   8.798 -1.0239  0.3475  1.2545
 8737SOL    HW237848   2.186   1.258   8.802  1.8887  0.6482  1.6020
 8738SOL     OW37849   2.038   3.805   5.041 -0.1125  0.5747  0.1460
 8738SOL    HW137850   2.130   3.800   5.068  0.2023 -0.1067 -1.1002
 8738SOL    HW237851   1.997   3.721   5.063  0.2611  0.5535  0.7732
 8739SOL     OW37852   2.583   3.746   2.658  0.0186 -0.0288  0.0046
 8739SOL    HW137853   2.661   3.731   2.710  0.9953 -0.2180 -1.5031
 8739SOL    HW237854   2.588   3.841   2.648  0.0129  0.1769  2.0794
 8740SOL     OW37855   1.492   4.589   6.346 -0.1423  0.8993 -0.3154
 8740SOL    HW137856   1.538   4.570   6.428 -0.9457 -0.9785 -0.3046
 8740SOL    HW237857   1.466   4.500   6.321 -0.4076  1.1863 -1.0354
 8741SOL     OW37858   3.244   3.836   1.542 -0.4022  0.2040 -0.4017
 8741SOL    HW137859   3.268   3.868   1.629 -0.3615 -2.9462  0.7597
 8741SOL    HW237860   3.169   3.779   1.556  0.1919 -0.2018  1.0842
 8742SOL     OW37861   3.010   0.980   4.822 -0.9384 -0.2246 -0.1901
 8742SOL    HW137862   3.075   0.910   4.828 -1.4638 -0.4796  2.2916
 8742SOL    HW237863   2.935   0.941   4.868 -1.5992  0.8122 -0.3805
 8743SOL     OW37864   1.755   1.117   2.890 -0.4441  0.2925 -0.1983
 8743SOL    HW137865   1.810   1.085   2.962 -0.4222 -2.9462 -1.6417
 8743SOL    HW237866   1.791   1.204   2.873 -1.2253  0.8210  0.8500
 8744SOL     OW37867   1.256   2.896   3.970  0.3936  0.1493  0.0370
 8744SOL    HW137868   1.207   2.958   3.917 -2.5894 -1.4083  0.9853
 8744SOL    HW237869   1.305   2.841   3.908 -3.3617  0.2155 -2.9553
 8745SOL     OW37870   4.509   2.974   7.365 -0.2861  0.5176  0.1229
 8745SOL    HW137871   4.600   2.960   7.391 -0.3251 -0.4248 -0.2669
 8745SOL    HW237872   4.528   3.000   7.275 -0.7255 -0.1997 -0.1703
 8746SOL     OW37873   1.523   3.311   3.169 -0.2240  0.2287 -0.4878
 8746SOL    HW137874   1.476   3.370   3.110  0.6454  0.5136 -0.9005
 8746SOL    HW237875   1.556   3.371   3.236 -0.5017  1.5531 -1.5316
 8747SOL     OW37876   1.375   1.934   8.156 -0.3834  0.0076  0.2683
 8747SOL    HW137877   1.345   1.934   8.247 -1.1452  0.4157  0.0143
 8747SOL    HW237878   1.467   1.962   8.159 -0.3149 -0.3284  1.2511
 8748SOL     OW37879   1.307   0.352  12.765 -0.8691  0.4258 -0.1518
 8748SOL    HW137880   1.356   0.272  12.784  0.0605  1.0345  0.0395
 8748SOL    HW237881   1.265   0.369  12.849 -4.2508 -1.1631 -1.5514
 8749SOL     OW37882   0.300   3.483   5.629 -0.0915  1.1214  0.9016
 8749SOL    HW137883   0.322   3.571   5.659 -0.7319  1.4332  0.4774
 8749SOL    HW237884   0.383   3.437   5.634 -2.9126 -4.1023 -0.1153
 8750SOL     OW37885   2.422   4.723   8.070  0.1553  0.1221 -0.4955
 8750SOL    HW137886   2.441   0.081   8.060 -0.1235  0.5414  3.0821
 8750SOL    HW237887   2.393   4.698   7.982  0.0738 -0.8449 -0.1904
 8751SOL     OW37888   0.557   0.206   6.839  0.4037 -0.4495  0.5875
 8751SOL    HW137889   0.605   0.143   6.893  0.9367  0.1132  0.7714
 8751SOL    HW237890   0.556   0.164   6.753  0.4119  3.4336 -1.3277
 8752SOL     OW37891   1.186   0.173   9.773  0.3239 -0.1945  0.2757
 8752SOL    HW137892   1.235   0.153   9.853 -0.7631 -1.2838  0.6751
 8752SOL    HW237893   1.094   0.157   9.795 -0.0819  0.6416 -0.7858
 8753SOL     OW37894   0.907   4.336   4.367  0.5185  0.0263 -0.4770
 8753SOL    HW137895   0.838   4.273   4.390  1.4866 -0.8966 -0.0789
 8753SOL    HW237896   0.857   4.411   4.337  2.4424  1.4156 -0.2164
 8754SOL     OW37897   3.653   0.823   8.513 -0.4421  0.0155 -0.1739
 8754SOL    HW137898   3.660   0.744   8.460  0.4584  0.8818 -1.3309
 8754SOL    HW237899   3.731   0.872   8.486 -0.4648 -0.3922 -0.9744
 8755SOL     OW37900   3.415   2.862   5.122  0.4685 -0.7659  0.1888
 8755SOL    HW137901   3.378   2.884   5.036 -1.0416  1.1306  1.3451
 8755SOL    HW237902   3.483   2.928   5.131  0.9662 -1.4910  1.6251
 8756SOL     OW37903   4.058   1.374   9.693 -0.6970  0.1343 -0.2599
 8756SOL    HW137904   4.093   1.285   9.706  0.1159  0.2768 -1.4193
 8756SOL    HW237905   4.077   1.424   9.772  0.5386 -2.0862  0.8433
 8757SOL     OW37906   4.419   2.342  11.491 -0.0411  0.0915 -0.3094
 8757SOL    HW137907   4.453   2.337  11.402  4.1041  0.0266  1.2643
 8757SOL    HW237908   4.324   2.354  11.483 -0.2447 -0.6626  0.9909
 8758SOL     OW37909   3.583   3.467  17.058  0.0974  0.5288 -0.0760
 8758SOL    HW137910   3.605   3.476  17.151  4.0087  1.0512 -1.0307
 8758SOL    HW237911   3.501   3.517  17.059 -0.2369 -0.0664  1.3270
 8759SOL     OW37912   2.113   4.632   2.353  0.3391 -0.3763  0.1151
 8759SOL    HW137913   2.061   4.675   2.421 -0.3074  0.1047 -0.6779
 8759SOL    HW237914   2.196   4.678   2.359 -1.0281  2.0324  0.6084
 8760SOL     OW37915   3.574   2.184   9.255 -0.0356  0.2607  0.1513
 8760SOL    HW137916   3.509   2.175   9.185 -0.1421  1.9701  0.0137
 8760SOL    HW237917   3.636   2.244   9.213  0.7142 -0.3425  0.4024
 8761SOL     OW37918   0.358   3.077   5.296 -0.1258  0.1244 -0.0540
 8761SOL    HW137919   0.444   3.115   5.313  0.1988 -0.4260 -0.4431
 8761SOL    HW237920   0.359   3.085   5.200  1.0254 -0.0818 -0.0637
 8762SOL     OW37921   1.888   1.632   5.269  0.2347 -0.1361 -0.2305
 8762SOL    HW137922   1.817   1.689   5.237 -1.2061 -0.9179  1.5899
 8762SOL    HW237923   1.901   1.576   5.192  0.0004 -0.3019 -0.1477
 8763SOL     OW37924   2.732   2.312  16.800  0.5055  0.2194 -0.0469
 8763SOL    HW137925   2.736   2.358  16.716  0.3649  1.3116  0.5513
 8763SOL    HW237926   2.647   2.269  16.800  2.3286 -3.4435 -0.9538
 8764SOL     OW37927   4.028   1.287   4.740 -0.0859 -0.2234 -0.3654
 8764SOL    HW137928   4.100   1.348   4.751  0.4916 -0.6302 -1.9241
 8764SOL    HW237929   4.047   1.237   4.820 -2.2612  0.4438  0.5834
 8765SOL     OW37930   3.136   2.945   5.841 -0.5099  0.2433 -0.9083
 8765SOL    HW137931   3.148   3.034   5.873 -0.1720 -0.0318 -0.2709
 8765SOL    HW237932   3.204   2.934   5.774  1.6052 -1.3699  1.4683
 8766SOL     OW37933   1.926   4.109   8.913  0.0446 -0.2479 -0.0994
 8766SOL    HW137934   1.950   4.201   8.927  0.8614 -0.7229  1.6329
 8766SOL    HW237935   1.883   4.096   8.998 -1.7387  0.3109 -0.9197
 8767SOL     OW37936   1.627   3.199  13.352 -0.3985 -0.0490 -0.1939
 8767SOL    HW137937   1.602   3.197  13.260 -1.2300  1.0188  0.0034
 8767SOL    HW237938   1.658   3.111  13.375 -3.6579 -1.0265  0.4821
 8768SOL     OW37939   2.388   0.275   4.609 -0.1511 -0.4958  0.0757
 8768SOL    HW137940   2.464   0.332   4.599 -1.7888  1.5862 -0.4226
 8768SOL    HW237941   2.326   0.340   4.643  0.6969  1.1662 -1.5818
 8769SOL     OW37942   4.271   4.676   7.705  0.7332 -0.5459 -0.0453
 8769SOL    HW137943   4.182   4.643   7.695  0.1363  0.8439  0.7218
 8769SOL    HW237944   4.281   4.665   7.800 -1.0047  0.8285  0.2971
 8770SOL     OW37945   0.252   1.134   0.359  1.1237  0.3094 -0.0194
 8770SOL    HW137946   0.250   1.219   0.403  0.3513  0.6702 -0.7548
 8770SOL    HW237947   0.237   1.163   0.269  0.6557 -0.7246 -0.2615
 8771SOL     OW37948   1.739   2.986   7.077  0.5483 -0.0345 -0.2279
 8771SOL    HW137949   1.694   2.936   7.009  2.4484 -1.8394 -0.1615
 8771SOL    HW237950   1.666   3.046   7.092  1.4615  0.2749  3.0876
 8772SOL     OW37951   3.228   1.760   7.866  0.3108  0.2495  0.0052
 8772SOL    HW137952   3.201   1.671   7.843  1.4545 -0.8308  2.8664
 8772SOL    HW237953   3.256   1.755   7.957 -1.2114  1.7855  0.5567
 8773SOL     OW37954   1.450   1.471   5.580 -0.1758  0.0550 -0.2226
 8773SOL    HW137955   1.490   1.523   5.650  1.4729 -0.5939 -0.6799
 8773SOL    HW237956   1.525   1.440   5.529  0.0940 -0.1746  0.3183
 8774SOL     OW37957   3.354   1.316   8.681 -0.4555 -0.7628  0.0010
 8774SOL    HW137958   3.392   1.277   8.603 -0.1532  1.4190 -0.9524
 8774SOL    HW237959   3.438   1.332   8.724 -2.5224  0.7042  3.4628
 8775SOL     OW37960   1.498   3.101   2.689 -0.2469 -0.6832 -0.0717
 8775SOL    HW137961   1.499   3.189   2.727  0.6703 -0.5549 -0.3949
 8775SOL    HW237962   1.561   3.115   2.619  1.2173 -1.9593  0.9935
 8776SOL     OW37963   1.944   1.290   6.258 -0.3240 -0.2210 -0.2659
 8776SOL    HW137964   1.907   1.305   6.346  2.8557 -0.9427  1.2007
 8776SOL    HW237965   1.865   1.291   6.205  0.2869 -0.6248 -1.1939
 8777SOL     OW37966   1.701   0.464   4.228  0.2337 -0.2009 -0.3807
 8777SOL    HW137967   1.606   0.480   4.234 -0.1228 -2.6002  0.3202
 8777SOL    HW237968   1.703   0.392   4.291 -0.1291 -1.0591 -1.3554
 8778SOL     OW37969   0.187   3.402   9.429  0.1516 -0.5589 -0.1800
 8778SOL    HW137970   0.096   3.416   9.453  0.2829  0.1641 -0.1048
 8778SOL    HW237971   0.221   3.477   9.478 -1.0728  1.0146 -1.7366
 8779SOL     OW37972   3.331   4.273   2.759 -0.2552  0.3673  0.1079
 8779SOL    HW137973   3.334   4.308   2.848 -5.6933 -1.0354  0.8350
 8779SOL    HW237974   3.316   4.350   2.704 -0.5135  0.4974  0.3633
 8780SOL     OW37975   2.233   4.515  11.028 -0.1376  0.3453 -0.1772
 8780SOL    HW137976   2.281   4.442  10.990  1.0015  1.7699 -1.4427
 8780SOL    HW237977   2.158   4.517  10.968  1.3952 -1.4513 -2.1163
 8781SOL     OW37978   3.432   3.288   9.363 -0.2491 -0.0469  0.1985
 8781SOL    HW137979   3.524   3.293   9.340 -0.3364  0.6887 -0.0138
 8781SOL    HW237980   3.423   3.372   9.409  1.2161 -0.4065  1.1369
 8782SOL     OW37981   2.684   1.993   2.437  0.5389 -0.5874 -0.4967
 8782SOL    HW137982   2.641   2.058   2.382 -0.9743 -1.4017 -0.2895
 8782SOL    HW237983   2.689   1.917   2.379  1.0794 -0.1068 -1.0795
 8783SOL     OW37984   0.775   0.306   7.961  0.1153  0.0009  0.6864
 8783SOL    HW137985   0.688   0.309   7.922  1.0212  0.8788 -1.2461
 8783SOL    HW237986   0.757   0.343   8.048  0.3618  1.8180 -0.0412
 8784SOL     OW37987   0.255   1.868   5.816 -0.4792  0.0629  1.0565
 8784SOL    HW137988   0.298   1.947   5.786  0.5575  0.3476  3.2980
 8784SOL    HW237989   0.289   1.799   5.759 -2.1082  0.5412 -0.5158
 8785SOL     OW37990   2.716   3.552   9.167 -0.2893 -0.1533 -0.1450
 8785SOL    HW137991   2.759   3.469   9.188 -1.9725 -0.6025  1.5523
 8785SOL    HW237992   2.655   3.552   9.241 -0.1806 -0.0401 -0.0556
 8786SOL     OW37993   2.834   3.829  16.021 -0.1362  0.4098  0.3875
 8786SOL    HW137994   2.779   3.888  16.073 -0.0925  1.0908 -0.3444
 8786SOL    HW237995   2.787   3.837  15.938  0.7625 -0.6525 -0.2161
 8787SOL     OW37996   3.728   3.840   2.859  0.7846 -0.6487  0.3304
 8787SOL    HW137997   3.646   3.888   2.842  0.2940 -1.8956 -0.8344
 8787SOL    HW237998   3.766   3.831   2.772  2.6401  3.1599  0.7330
 8788SOL     OW37999   1.375   3.575   3.624  0.4573 -0.0685  0.0090
 8788SOL    HW138000   1.404   3.662   3.600 -2.5887  1.4923  1.9854
 8788SOL    HW238001   1.288   3.582   3.585  0.2236  0.8301  0.7112
 8789SOL     OW38002   1.909   2.833   1.910  0.2514 -0.0015  0.0203
 8789SOL    HW138003   1.926   2.861   1.820  1.0842 -2.3182 -0.5307
 8789SOL    HW238004   1.928   2.910   1.964  1.8475 -1.9834  2.3131
 8790SOL     OW38005   3.614   3.284   2.450  0.4958 -0.6473 -0.2363
 8790SOL    HW138006   3.640   3.209   2.397 -0.6465 -1.5253  0.4540
 8790SOL    HW238007   3.556   3.237   2.509  2.7420 -0.5397  2.0433
 8791SOL     OW38008   1.645   2.118   8.614 -0.8045 -0.0120  0.1451
 8791SOL    HW138009   1.703   2.078   8.678 -0.0944 -0.3926 -0.7417
 8791SOL    HW238010   1.559   2.110   8.656 -0.9022  1.9308  0.2885
 8792SOL     OW38011   2.356   3.832  17.501  0.2861  0.0792  0.2033
 8792SOL    HW138012   2.394   3.898  17.443 -0.1609  0.6906  0.6252
 8792SOL    HW238013   2.324   3.762  17.443 -1.1773  0.4757  0.5463
 8793SOL     OW38014   0.635   2.709   1.966 -0.1838  0.3529  0.2281
 8793SOL    HW138015   0.715   2.717   1.914 -0.4742  0.0561 -0.2624
 8793SOL    HW238016   0.674   2.652   2.033 -1.1232  0.6300  1.0015
 8794SOL     OW38017   1.466   3.022   1.468 -0.2821 -0.3071  0.1284
 8794SOL    HW138018   1.510   3.001   1.551  1.5663 -0.4394 -0.8729
 8794SOL    HW238019   1.539   3.005   1.409  0.0206 -0.9054  0.6763
 8795SOL     OW38020   1.601   3.182   4.877  0.2863 -0.2715 -0.2504
 8795SOL    HW138021   1.591   3.273   4.849  1.2942  0.1076  0.5895
 8795SOL    HW238022   1.696   3.172   4.871  0.0923 -0.8938 -2.0111
 8796SOL     OW38023   4.627   3.881   6.593  0.3560 -0.8420 -0.4880
 8796SOL    HW138024   4.694   3.942   6.563  0.5240  0.1318  1.8395
 8796SOL    HW238025   4.614   3.834   6.510  1.8368 -2.8015  0.3966
 8797SOL     OW38026   1.666   0.078   5.681 -0.4765 -0.5056  0.2786
 8797SOL    HW138027   1.699   0.065   5.770 -1.1703  1.4621  0.8215
 8797SOL    HW238028   1.589   0.023   5.689 -0.0659 -1.8886 -5.2291
 8798SOL     OW38029   1.735   4.384  17.061 -0.3900 -0.3806 -0.7850
 8798SOL    HW138030   1.762   4.387  17.153 -0.4198 -1.1427 -0.7553
 8798SOL    HW238031   1.649   4.424  17.071  0.8763  2.1358  0.0608
 8799SOL     OW38032   0.146   0.227  11.842 -0.0923  0.6792  0.4822
 8799SOL    HW138033   0.227   0.269  11.812  0.4146 -2.4501 -2.6634
 8799SOL    HW238034   0.100   0.221  11.758 -0.6029 -3.2512  1.0565
 8800SOL     OW38035   1.960   4.624  15.295 -0.0893 -0.1958 -1.5265
 8800SOL    HW138036   1.905   4.701  15.310  2.1727  0.8460  1.3507
 8800SOL    HW238037   2.037   4.633  15.351 -0.0939 -0.9267 -1.4043
 8801SOL     OW38038   3.149   2.993   3.754 -0.5651 -0.1583  0.1558
 8801SOL    HW138039   3.223   2.964   3.700 -0.5441  2.0105 -0.9590
 8801SOL    HW238040   3.079   2.974   3.691  1.3253 -2.8759 -1.1696
 8802SOL     OW38041   1.926   1.562  12.069  0.1383 -0.0984 -0.5918
 8802SOL    HW138042   1.881   1.477  12.061 -0.3918  0.0876  0.3867
 8802SOL    HW238043   1.983   1.542  12.144  1.6714  1.9270 -1.2350
 8803SOL     OW38044   2.670   3.227   4.926  0.4402 -0.2997 -0.0626
 8803SOL    HW138045   2.626   3.297   4.975  0.2962 -0.3382 -0.1363
 8803SOL    HW238046   2.590   3.190   4.888  0.8050  0.5648 -1.6752
 8804SOL     OW38047   0.538   2.074  16.708 -0.0568  0.1944 -0.1713
 8804SOL    HW138048   0.471   2.016  16.673  1.0760 -1.4115  0.3144
 8804SOL    HW238049   0.496   2.154  16.678 -0.6185 -2.0113 -5.3081
 8805SOL     OW38050   1.741   2.189   2.722  0.0898  0.5860 -0.6426
 8805SOL    HW138051   1.726   2.229   2.636 -2.5164 -0.2202 -0.5688
 8805SOL    HW238052   1.826   2.148   2.710  0.5197  0.8167  1.5480
 8806SOL     OW38053   3.375   4.187  16.486 -0.2015 -0.7156 -0.2468
 8806SOL    HW138054   3.363   4.129  16.561  0.0279 -1.0685 -0.4782
 8806SOL    HW238055   3.371   4.275  16.524 -1.4549 -0.5227 -0.8253
 8807SOL     OW38056   0.688   0.342   6.467  0.3980 -0.3088 -0.1513
 8807SOL    HW138057   0.640   0.392   6.533  0.6812 -0.2354 -0.0012
 8807SOL    HW238058   0.718   0.265   6.515  0.5221  1.2024  2.2088
 8808SOL     OW38059   0.749   3.984   6.040  0.0256  0.0888  0.2745
 8808SOL    HW138060   0.735   4.002   5.947 -1.1387 -2.9778 -0.1543
 8808SOL    HW238061   0.783   4.068   6.070  2.3431 -1.0375  0.7747
 8809SOL     OW38062   2.734   1.436   9.228  0.2937 -0.0139  0.3846
 8809SOL    HW138063   2.765   1.474   9.310 -3.2588 -1.6006  2.4268
 8809SOL    HW238064   2.657   1.489   9.206  0.1601 -0.8398 -1.1154
 8810SOL     OW38065   0.240   1.296   9.544  0.1966  0.1911  0.2257
 8810SOL    HW138066   0.205   1.348   9.472  2.6549  0.3725 -0.8207
 8810SOL    HW238067   0.229   1.351   9.622  1.9632  2.9391 -1.4747
 8811SOL     OW38068   1.498   0.664   0.081 -0.4881  0.1345  0.0525
 8811SOL    HW138069   1.475   0.627   0.167 -2.5635 -0.8274 -0.9143
 8811SOL    HW238070   1.590   0.691   0.087  0.4945 -3.1734 -0.2021
 8812SOL     OW38071   2.891   2.779   7.833  0.4276  0.1098 -0.2102
 8812SOL    HW138072   2.862   2.688   7.839  0.2169  0.1557 -0.5289
 8812SOL    HW238073   2.874   2.818   7.919 -1.3318  1.4645 -1.1690
 8813SOL     OW38074   3.249   3.875  11.430 -0.7264 -0.4748 -0.1933
 8813SOL    HW138075   3.282   3.798  11.477  2.7015  1.5655  0.7545
 8813SOL    HW238076   3.286   3.861  11.343 -3.3603 -2.9390 -0.9216
 8814SOL     OW38077   3.794   2.847  12.029  0.1557  0.1832 -0.5711
 8814SOL    HW138078   3.863   2.910  12.051  1.7482 -1.1373 -1.7304
 8814SOL    HW238079   3.840   2.791  11.967  0.3696 -0.4811  0.1876
 8815SOL     OW38080   1.515   2.057   4.948 -0.2953 -0.3411  0.3134
 8815SOL    HW138081   1.511   1.967   4.916 -2.6581 -0.1822  0.1294
 8815SOL    HW238082   1.486   2.036   5.037 -0.0510  0.0789  0.4892
 8816SOL     OW38083   0.207   1.582  16.061 -0.4395 -0.4374 -0.0914
 8816SOL    HW138084   0.116   1.561  16.043 -1.0002  0.5189  1.6146
 8816SOL    HW238085   0.242   1.496  16.082  1.1819  0.1708 -0.2777
 8817SOL     OW38086   3.743   0.098   6.196 -0.4804 -0.3184  0.2904
 8817SOL    HW138087   3.799   0.034   6.152 -0.6899 -1.2811  1.4155
 8817SOL    HW238088   3.700   0.031   6.249 -1.4752 -0.3202 -0.5349
 8818SOL     OW38089   1.663   4.539   7.313 -0.2210  0.1952 -0.0963
 8818SOL    HW138090   1.708   4.498   7.239 -3.2731 -0.5763 -1.5240
 8818SOL    HW238091   1.734   4.592   7.349  1.0474 -1.3239 -0.3595
 8819SOL     OW38092   4.380   0.574  11.052  0.2524 -0.1819 -0.0934
 8819SOL    HW138093   4.309   0.540  11.105 -0.2524 -0.0144 -0.6618
 8819SOL    HW238094   4.460   0.552  11.100  1.7159 -0.1803 -2.4989
 8820SOL     OW38095   3.690   3.946  12.079  0.4118  0.2765  0.0017
 8820SOL    HW138096   3.626   3.880  12.106  0.5111  0.0506 -0.3165
 8820SOL    HW238097   3.747   3.931  12.154 -0.1445  0.2512  0.4202
 8821SOL     OW38098   4.340   1.063  13.655 -0.5284 -0.1156 -0.0389
 8821SOL    HW138099   4.291   1.099  13.581 -0.3072 -0.1794 -0.2166
 8821SOL    HW238100   4.429   1.083  13.626  0.5229 -0.3210  3.0196
 8822SOL     OW38101   0.859   0.995   5.142 -0.6740 -0.3557 -0.4429
 8822SOL    HW138102   0.906   1.054   5.200  1.0101 -2.0477 -0.0628
 8822SOL    HW238103   0.784   1.053   5.131  0.7147  1.2493 -1.3783
 8823SOL     OW38104   1.519   4.542   7.655 -0.2064  0.0790  1.0415
 8823SOL    HW138105   1.463   4.591   7.596  0.0593 -0.9050 -0.0432
 8823SOL    HW238106   1.470   4.546   7.737 -2.4560 -0.3370 -0.3079
 8824SOL     OW38107   0.348   4.707  10.856 -0.0035 -0.6039  0.4688
 8824SOL    HW138108   0.285   4.637  10.871 -0.3040 -0.1915  1.0973
 8824SOL    HW238109   0.336   0.023  10.935 -1.4748 -2.2328  1.3003
 8825SOL     OW38110   2.540   2.119  16.049 -0.1336  0.0731 -0.0963
 8825SOL    HW138111   2.510   2.113  15.958 -0.9534 -1.6714  0.2927
 8825SOL    HW238112   2.460   2.112  16.101  0.2023  2.2410  0.7171
 8826SOL     OW38113   0.943   0.909   6.664 -0.2970 -0.4951  0.7585
 8826SOL    HW138114   0.958   1.003   6.677  1.0642 -0.7460  0.9995
 8826SOL    HW238115   0.966   0.889   6.755 -1.1568 -2.3549  0.5701
 8827SOL     OW38116   3.608   1.617   9.984  0.5452 -0.7548  0.0218
 8827SOL    HW138117   3.545   1.589  10.050  0.6184 -2.2091 -0.5208
 8827SOL    HW238118   3.605   1.712   9.994  1.1871 -0.9276  1.8550
 8828SOL     OW38119   1.250   2.953   3.533  1.0564 -0.0785  0.1623
 8828SOL    HW138120   1.246   3.017   3.462 -0.2051 -0.1930  0.1279
 8828SOL    HW238121   1.176   2.896   3.512  1.3533 -0.5715  0.4633
 8829SOL     OW38122   0.061   4.460   6.721  0.3162  0.7139 -0.4467
 8829SOL    HW138123   0.047   4.388   6.659  0.6823 -0.2847  0.6161
 8829SOL    HW238124   4.721   4.460   6.779  0.8006 -3.6309  0.1890
 8830SOL     OW38125   1.065   3.147   1.060  0.1657 -0.5465  0.0237
 8830SOL    HW138126   1.144   3.200   1.065 -1.7836  2.2392  1.7031
 8830SOL    HW238127   1.003   3.220   1.050 -0.1715 -0.7279  0.7824
 8831SOL     OW38128   0.600   3.294   7.367 -0.4456  0.0810  0.0254
 8831SOL    HW138129   0.530   3.309   7.304 -1.6396 -1.0068  1.0934
 8831SOL    HW238130   0.583   3.360   7.435  2.7570 -0.9346  1.8465
 8832SOL     OW38131   2.693   4.022  17.090 -0.4261  0.3055  0.3408
 8832SOL    HW138132   2.652   4.105  17.112 -0.0604  0.5138  0.2278
 8832SOL    HW238133   2.752   4.012  17.165 -0.3544  1.1226  0.3891
 8833SOL     OW38134   1.908   1.503   5.025  0.7488 -0.1129  0.9527
 8833SOL    HW138135   1.994   1.500   5.068  0.1399  1.5843  2.2897
 8833SOL    HW238136   1.899   1.431   4.963 -1.2494 -1.2143  2.5322
 8834SOL     OW38137   3.417   3.388   6.315  0.4294  0.0982 -0.3199
 8834SOL    HW138138   3.431   3.412   6.407 -2.5719  0.8776 -0.0574
 8834SOL    HW238139   3.506   3.363   6.290  1.1131  1.4024  0.7999
 8835SOL     OW38140   2.207   4.158  10.917 -0.6451  0.4820 -0.0583
 8835SOL    HW138141   2.239   4.105  10.990  2.0792 -1.5443 -2.7315
 8835SOL    HW238142   2.278   4.222  10.907  1.2512 -1.5483  0.3501
 8836SOL     OW38143   2.921   1.745   6.059  0.3965 -0.2216  0.0695
 8836SOL    HW138144   2.879   1.823   6.024  1.2128 -1.1578 -2.9583
 8836SOL    HW238145   2.983   1.786   6.120 -3.5645  3.2617  1.7084
 8837SOL     OW38146   1.911   4.422   8.823 -0.1253  0.8334  0.0046
 8837SOL    HW138147   1.961   4.453   8.747  0.4278 -1.2500 -0.4746
 8837SOL    HW238148   1.976   4.424   8.893 -2.3988  1.8505  2.0582
 8838SOL     OW38149   2.522   3.430   5.087  0.0174  0.1618 -0.2155
 8838SOL    HW138150   2.575   3.488   5.142  1.1766 -1.8065  0.7419
 8838SOL    HW238151   2.480   3.386   5.161  1.0329  2.8401  1.9464
 8839SOL     OW38152   4.311   4.191  12.435  0.3939  0.1137  0.3115
 8839SOL    HW138153   4.331   4.173  12.527 -0.4663 -0.8574  0.3170
 8839SOL    HW238154   4.227   4.236  12.444  0.6679  0.8655 -0.9419
 8840SOL     OW38155   1.581   1.449   7.272 -0.0461  0.3318  0.0828
 8840SOL    HW138156   1.604   1.356   7.283 -1.5733 -0.2164 -1.4058
 8840SOL    HW238157   1.669   1.478   7.248 -0.8534  1.0858 -1.9779
 8841SOL     OW38158   1.680   3.082   2.222 -0.1984 -0.0424  0.7350
 8841SOL    HW138159   1.681   3.044   2.134  0.4943 -1.0908  1.2006
 8841SOL    HW238160   1.733   3.029   2.281  0.9874  0.8679  0.4833
 8842SOL     OW38161   3.347   2.654   4.558  0.6422 -0.3583  0.5080
 8842SOL    HW138162   3.409   2.722   4.532  0.3973 -1.3356 -2.6670
 8842SOL    HW238163   3.311   2.694   4.637  2.0247 -1.0841  1.5149
 8843SOL     OW38164   3.467   2.788   7.896  0.4359 -0.3615 -0.1362
 8843SOL    HW138165   3.487   2.829   7.980 -0.4226 -1.3871  0.5781
 8843SOL    HW238166   3.557   2.802   7.868 -0.3321  1.8294 -1.5497
 8844SOL     OW38167   1.412   2.952  16.756  0.5247 -0.5009  0.3604
 8844SOL    HW138168   1.410   2.984  16.666  0.5024  0.5492  0.7228
 8844SOL    HW238169   1.320   2.954  16.784 -0.5210  0.0851 -3.0643
 8845SOL     OW38170   3.564   2.755  12.850  0.1939  0.1857 -0.2339
 8845SOL    HW138171   3.516   2.688  12.802 -1.2215  1.0476 -0.0330
 8845SOL    HW238172   3.607   2.811  12.785  0.0114  1.6474  0.9073
 8846SOL     OW38173   4.333   3.772   3.533 -0.5263  0.4273 -0.0141
 8846SOL    HW138174   4.276   3.695   3.544 -0.4067  0.0476 -2.0116
 8846SOL    HW238175   4.386   3.739   3.460 -1.1875 -2.1826  0.6718
 8847SOL     OW38176   0.140   0.029  16.770 -0.0657 -0.2641 -0.1211
 8847SOL    HW138177   0.222   0.061  16.808  0.0201  2.0703 -2.2793
 8847SOL    HW238178   0.077   0.093  16.804  0.1601 -0.5191  0.7874
 8848SOL     OW38179   0.845   4.469  11.785  0.8894  0.2645  0.5333
 8848SOL    HW138180   0.891   4.420  11.717  0.8303  2.0112 -0.7690
 8848SOL    HW238181   0.850   4.403  11.854 -1.0577  2.1816  2.4937
 8849SOL     OW38182   4.230   2.750   8.729 -0.0979 -0.5176 -0.5609
 8849SOL    HW138183   4.211   2.658   8.749  0.2834 -0.6715 -0.9089
 8849SOL    HW238184   4.300   2.744   8.665 -0.6656 -0.7390 -1.1621
 8850SOL     OW38185   0.982   0.297   1.087 -0.4701 -0.7042 -0.1589
 8850SOL    HW138186   0.986   0.349   1.007 -0.6135 -0.4111  0.0245
 8850SOL    HW238187   0.955   0.210   1.059 -0.9034 -1.6981  3.4204
 8851SOL     OW38188   2.587   0.653   5.338  0.4097  0.2838 -0.4235
 8851SOL    HW138189   2.613   0.585   5.276  2.0574  0.5582 -0.0246
 8851SOL    HW238190   2.542   0.717   5.281  0.5914  0.7471 -0.0463
 8852SOL     OW38191   4.594   1.118  12.942  1.1775  0.6806 -0.6202
 8852SOL    HW138192   4.563   1.125  12.852  1.3975 -2.0557 -0.9339
 8852SOL    HW238193   4.683   1.086  12.926  1.5739  0.5506  1.8435
 8853SOL     OW38194   2.665   0.400   5.969 -0.1898  0.2764  0.4071
 8853SOL    HW138195   2.669   0.314   6.011  2.8892 -0.4178 -1.3573
 8853SOL    HW238196   2.589   0.437   6.014 -0.1184  1.4751 -0.4496
 8854SOL     OW38197   0.936   1.259  17.503 -0.0672 -0.3023 -0.5700
 8854SOL    HW138198   0.917   1.353  17.493  0.9866 -0.1003 -0.7030
 8854SOL    HW238199   1.014   1.249  17.449 -0.8011  1.0035 -1.8910
 8855SOL     OW38200   1.506   3.491   2.404 -0.1887  0.7746 -0.6160
 8855SOL    HW138201   1.492   3.397   2.414  0.4613  0.3750 -3.4588
 8855SOL    HW238202   1.557   3.515   2.481 -1.1207  0.1274  0.2105
 8856SOL     OW38203   0.004   0.596   4.890 -0.7427  0.4779  0.2956
 8856SOL    HW138204   0.040   0.587   4.979  0.2445  0.8733 -0.0577
 8856SOL    HW238205   4.672   0.528   4.894  1.1422 -1.5927 -2.7411
 8857SOL     OW38206   0.023   0.194   1.065 -0.1226  0.1603  0.4506
 8857SOL    HW138207   0.116   0.178   1.082 -0.2667 -1.4122 -0.2106
 8857SOL    HW238208   0.026   0.217   0.973  0.3730  2.0997  0.9454
 8858SOL     OW38209   2.969   2.524  12.277  0.3888  0.2298  0.2526
 8858SOL    HW138210   3.037   2.484  12.222  0.7204  0.1667  0.7125
 8858SOL    HW238211   2.989   2.617  12.286  2.0302 -0.1403  0.4423
 8859SOL     OW38212   4.451   4.023   1.688  0.2241  0.9567 -0.1202
 8859SOL    HW138213   4.400   4.091   1.646 -1.6044 -1.1823 -1.3474
 8859SOL    HW238214   4.447   3.943   1.636  1.9492  0.7699  0.0295
 8860SOL     OW38215   0.674   2.923  16.983 -0.5760 -0.4542 -0.2630
 8860SOL    HW138216   0.614   2.932  17.057 -1.5332  2.1554 -1.3699
 8860SOL    HW238217   0.637   2.854  16.928 -3.8758  0.4647  0.8300
 8861SOL     OW38218   3.623   3.847  17.080  0.2048 -0.0386 -0.1925
 8861SOL    HW138219   3.541   3.801  17.098  0.2695 -0.0280  0.1215
 8861SOL    HW238220   3.669   3.792  17.016  1.4541  0.5547  0.2012
 8862SOL     OW38221   1.504   0.927   2.995  0.0356  0.3112  0.3288
 8862SOL    HW138222   1.574   0.883   3.044  0.6801  1.7755  0.7094
 8862SOL    HW238223   1.442   0.921   3.068 -0.3345 -1.6068 -0.1358
 8863SOL     OW38224   2.798   2.892   9.407  0.1332  0.1171  0.2769
 8863SOL    HW138225   2.804   2.841   9.488  1.4760  1.7606  1.1915
 8863SOL    HW238226   2.705   2.916   9.415  0.2501  1.1178 -1.1980
 8864SOL     OW38227   0.507   3.635   4.204 -0.2716 -0.1353  0.1584
 8864SOL    HW138228   0.433   3.616   4.261 -2.2232 -0.1134 -2.3854
 8864SOL    HW238229   0.454   3.666   4.131  0.1889 -0.5605 -0.3568
 8865SOL     OW38230   1.723   1.742  15.218  0.3421 -0.4565  0.1675
 8865SOL    HW138231   1.788   1.744  15.148 -1.7944  4.1649 -1.6667
 8865SOL    HW238232   1.757   1.800  15.286 -0.4357 -0.7054  0.7693
 8866SOL     OW38233   3.162   0.615   1.695  0.1520 -0.9166  0.2854
 8866SOL    HW138234   3.192   0.533   1.657 -1.9663 -2.0114  0.9367
 8866SOL    HW238235   3.073   0.597   1.727  0.6284 -2.6337  0.6414
 8867SOL     OW38236   3.616   0.539   4.499 -0.1964 -0.0474  0.3284
 8867SOL    HW138237   3.548   0.474   4.514 -1.6006  0.9828 -1.5778
 8867SOL    HW238238   3.603   0.541   4.404 -2.4997 -1.1061  0.6297
 8868SOL     OW38239   4.196   3.286   2.644 -0.1203  0.0683  0.0323
 8868SOL    HW138240   4.252   3.351   2.602  1.9360 -1.6707  0.0721
 8868SOL    HW238241   4.112   3.324   2.620 -0.9849 -0.9239  1.4589
 8869SOL     OW38242   0.527   3.013   2.556 -0.0434  0.1181  0.3855
 8869SOL    HW138243   0.482   2.935   2.588  0.5497  0.4536  2.0157
 8869SOL    HW238244   0.540   2.985   2.465  2.5333 -0.4720  0.9448
 8870SOL     OW38245   1.901   2.098   5.770  0.3333  0.5197  0.0324
 8870SOL    HW138246   1.957   2.096   5.847 -0.7881 -1.6960  0.7966
 8870SOL    HW238247   1.823   2.148   5.794  0.7766  2.0109 -1.6552
 8871SOL     OW38248   0.608   1.508   3.471  0.2026  0.0864  0.2586
 8871SOL    HW138249   0.659   1.574   3.517  0.8050 -1.6584  2.1187
 8871SOL    HW238250   0.663   1.457   3.411  0.2709  1.7863 -1.1000
 8872SOL     OW38251   0.151   0.328  12.691  0.0953 -0.1592  0.0725
 8872SOL    HW138252   0.243   0.309  12.710  0.1151 -0.0443  0.0919
 8872SOL    HW238253   0.113   0.262  12.750 -2.0935 -0.1414 -1.3123
 8873SOL     OW38254   3.222   4.136  11.510  0.0198 -0.6218 -0.1859
 8873SOL    HW138255   3.188   4.161  11.424 -0.1958  1.0582  0.3961
 8873SOL    HW238256   3.260   4.049  11.496  0.6821 -0.3016 -0.3753
 8874SOL     OW38257   4.061   1.184   2.955 -0.1267 -0.2161  0.4350
 8874SOL    HW138258   4.017   1.264   2.983  1.3362  0.3502  1.1146
 8874SOL    HW238259   4.035   1.133   3.032 -1.4225  1.6135  1.2092
 8875SOL     OW38260   2.859   4.146   0.256 -0.6673  0.2475  0.5066
 8875SOL    HW138261   2.778   4.191   0.230 -0.7890 -0.0520  0.3636
 8875SOL    HW238262   2.863   4.197   0.337 -2.4914 -0.1517  0.8528
 8876SOL     OW38263   0.880   1.421   0.770 -0.0683  0.2614 -0.4174
 8876SOL    HW138264   0.820   1.379   0.832 -0.6714  0.8791 -0.5874
 8876SOL    HW238265   0.837   1.505   0.756  0.1727  0.4872  0.2070
 8877SOL     OW38266   0.649   0.812  17.391  0.4157 -0.4451  0.2765
 8877SOL    HW138267   0.566   0.776  17.422 -0.6563  0.1450 -1.9510
 8877SOL    HW238268   0.631   0.904  17.409 -1.9313 -0.5113 -1.7963
 8878SOL     OW38269   0.226   1.875   5.351  0.1457  0.6693 -0.6994
 8878SOL    HW138270   0.248   1.946   5.411  2.4843  2.3830 -3.6051
 8878SOL    HW238271   0.307   1.867   5.302 -0.1361 -1.3981 -0.8186
 8879SOL     OW38272   1.430   1.910   5.735  0.0156 -0.5200 -0.7435
 8879SOL    HW138273   1.505   1.964   5.709 -1.3541  1.7493  0.0344
 8879SOL    HW238274   1.355   1.969   5.730  0.3745  0.1375  1.7713
 8880SOL     OW38275   4.691   1.307  11.931  0.0727  0.0549  0.0528
 8880SOL    HW138276   0.007   1.263  11.999  0.3557 -0.3125 -0.4032
 8880SOL    HW238277   4.714   1.396  11.958 -1.0046 -0.1916  1.8213
 8881SOL     OW38278   4.509   0.031   5.858 -0.7458 -0.1607  0.5254
 8881SOL    HW138279   4.484   0.089   5.930 -1.0027  1.0416 -0.5302
 8881SOL    HW238280   4.574   0.086   5.814 -1.7003 -0.6581 -1.4874
 8882SOL     OW38281   4.266   4.337   9.065  0.2806  0.1001 -0.1802
 8882SOL    HW138282   4.269   4.242   9.053  0.5271  0.1963 -0.8892
 8882SOL    HW238283   4.357   4.356   9.044  0.0259 -1.2093 -2.3785
 8883SOL     OW38284   1.300   2.583  13.146  0.5523 -0.2106 -0.3112
 8883SOL    HW138285   1.267   2.668  13.117  0.1231 -1.1921 -2.6682
 8883SOL    HW238286   1.224   2.545  13.189  0.5244  0.0543 -0.1248
 8884SOL     OW38287   4.646   1.261   2.373 -0.4630  0.0585  0.1074
 8884SOL    HW138288   4.623   1.261   2.280  1.1156  1.1652 -0.2806
 8884SOL    HW238289   4.592   1.339   2.389 -1.5943 -0.3255 -1.7650
 8885SOL     OW38290   3.059   3.326   5.754  0.2926  0.4142 -0.1234
 8885SOL    HW138291   3.153   3.333   5.771  0.4223 -2.7348  0.4825
 8885SOL    HW238292   3.058   3.338   5.659  0.7017  3.2674  0.2154
 8886SOL     OW38293   4.477   3.102   7.591 -0.1337  0.0194  0.0261
 8886SOL    HW138294   4.570   3.123   7.598 -0.6008  1.3053  2.6134
 8886SOL    HW238295   4.478   3.056   7.507 -0.0639  0.8357 -0.4132
 8887SOL     OW38296   1.352   2.272   4.795  0.0480  0.2952  0.1753
 8887SOL    HW138297   1.256   2.276   4.786  0.0248 -0.9925 -0.0913
 8887SOL    HW238298   1.361   2.198   4.855 -0.4881 -1.6116 -2.1002
 8888SOL     OW38299   1.307   4.528   8.177 -0.2414  0.1661  0.0736
 8888SOL    HW138300   1.249   4.453   8.167  1.2782 -0.9173 -0.7157
 8888SOL    HW238301   1.333   4.509   8.267 -2.0787 -3.0196 -0.0703
 8889SOL     OW38302   3.171   1.566  12.916 -0.0985  0.0165  0.2545
 8889SOL    HW138303   3.260   1.541  12.940 -0.2487 -1.3235 -0.5606
 8889SOL    HW238304   3.182   1.651  12.874  1.1738  0.6169  1.8161
 8890SOL     OW38305   4.653   0.908   4.504 -0.0843 -0.4427 -0.1446
 8890SOL    HW138306   4.634   0.995   4.468  1.9017 -0.0708 -0.3374
 8890SOL    HW238307   4.596   0.910   4.580  1.2513  1.1817  0.8194
 8891SOL     OW38308   1.398   4.536   8.465  0.2094  0.3625 -0.1861
 8891SOL    HW138309   1.455   4.605   8.430  1.7543 -0.5588  0.4898
 8891SOL    HW238310   1.457   4.479   8.514  0.5194  0.7009 -0.1675
 8892SOL     OW38311   3.355   1.291   7.707 -0.2120 -0.0201  0.2529
 8892SOL    HW138312   3.409   1.320   7.780 -0.1572  1.7084 -0.4646
 8892SOL    HW238313   3.271   1.278   7.751  0.5861 -0.7278  1.5525
 8893SOL     OW38314   2.896   1.106   3.183  0.5564  0.0652 -0.4431
 8893SOL    HW138315   2.961   1.168   3.151 -0.7493  1.0245 -1.2166
 8893SOL    HW238316   2.894   1.124   3.277  2.5135  0.4135 -0.4675
 8894SOL     OW38317   2.449   2.319   5.207 -0.4930 -0.3227 -0.5838
 8894SOL    HW138318   2.377   2.312   5.270 -0.5225  2.7744 -0.3139
 8894SOL    HW238319   2.441   2.411   5.186  3.9371  0.3738  0.7326
 8895SOL     OW38320   2.531   1.213  11.110  0.2964  0.2927 -0.4826
 8895SOL    HW138321   2.451   1.212  11.057  1.2126 -0.5965 -1.8485
 8895SOL    HW238322   2.507   1.226  11.202  0.9555  0.2740 -0.3091
 8896SOL     OW38323   1.104   4.674  16.402 -0.6483  0.2116 -0.5633
 8896SOL    HW138324   1.129   0.013  16.457  0.8566  0.4100 -1.5084
 8896SOL    HW238325   1.183   4.622  16.415 -0.0795  1.1410 -0.2550
 8897SOL     OW38326   0.351   1.138   8.460 -0.1961  0.5453  0.3694
 8897SOL    HW138327   0.410   1.149   8.535 -1.1723  2.3260  0.8679
 8897SOL    HW238328   0.371   1.212   8.402  1.0497 -0.4592 -0.4980
 8898SOL     OW38329   3.309   3.456   5.418  0.1062  0.0778 -0.3003
 8898SOL    HW138330   3.382   3.518   5.414 -1.2577  1.5504 -2.6805
 8898SOL    HW238331   3.303   3.431   5.325  0.5105 -1.4836  0.0864
 8899SOL     OW38332   2.175   3.166   3.971 -0.6005  0.8972  0.0234
 8899SOL    HW138333   2.104   3.224   3.943 -1.2541  0.5004  0.8792
 8899SOL    HW238334   2.142   3.126   4.051 -2.2379  3.2891  0.5149
 8900SOL     OW38335   1.031   1.707  14.103 -0.2392  0.1420 -0.1014
 8900SOL    HW138336   1.002   1.799  14.104 -1.5071 -0.2649  0.5998
 8900SOL    HW238337   1.121   1.719  14.072  0.0283 -0.9064  0.3005
 8901SOL     OW38338   1.779   0.893   8.618 -0.8545 -0.1012 -0.0327
 8901SOL    HW138339   1.866   0.907   8.580 -0.1474  0.2450  1.6975
 8901SOL    HW238340   1.751   0.811   8.578 -0.0597 -0.1385 -0.5105
 8902SOL     OW38341   3.124   2.563  17.417 -0.2286  0.0114 -0.3565
 8902SOL    HW138342   3.046   2.515  17.392  0.7160 -2.2232  1.0313
 8902SOL    HW238343   3.117   2.634  17.353 -1.4245 -0.0831 -0.3350
 8903SOL     OW38344   3.676   0.528   8.363 -0.3288 -0.1925 -0.0542
 8903SOL    HW138345   3.675   0.615   8.324 -1.5878  0.6938  1.9611
 8903SOL    HW238346   3.583   0.508   8.367 -0.6054  0.7640 -1.6381
 8904SOL     OW38347   3.416   3.104   7.830 -0.5215  0.6376  0.4542
 8904SOL    HW138348   3.465   3.036   7.877 -2.0435 -1.6828 -1.3053
 8904SOL    HW238349   3.403   3.160   7.906 -0.3828 -1.3638  1.9608
 8905SOL     OW38350   0.505   1.398  10.695  0.2911  0.3348  0.0192
 8905SOL    HW138351   0.434   1.463  10.694 -0.2025 -0.1610  2.6251
 8905SOL    HW238352   0.459   1.342  10.757  1.2228  0.6243  0.9692
 8906SOL     OW38353   0.332   4.200   2.848  0.1623  0.5515 -0.1109
 8906SOL    HW138354   0.277   4.247   2.911  1.0101  1.7893 -0.2924
 8906SOL    HW238355   0.402   4.264   2.840  0.2839  0.4176 -0.1061
 8907SOL     OW38356   1.583   2.585   7.709 -0.8712 -0.1554  0.8385
 8907SOL    HW138357   1.492   2.608   7.728 -1.4240 -1.5745 -0.0880
 8907SOL    HW238358   1.629   2.644   7.768 -0.1157  1.0736 -0.9589
 8908SOL     OW38359   4.244   2.445   5.050 -0.3056  0.0534 -0.4835
 8908SOL    HW138360   4.266   2.474   5.139  0.5540 -1.6243 -0.1518
 8908SOL    HW238361   4.203   2.362   5.072 -1.3829  0.9843  0.9585
 8909SOL     OW38362   3.450   1.157   3.501 -0.1136  0.5605 -0.1289
 8909SOL    HW138363   3.528   1.131   3.551 -1.2837  0.2925  1.5683
 8909SOL    HW238364   3.484   1.244   3.482 -1.2518  1.6228  2.6628
 8910SOL     OW38365   2.870   2.962   7.042 -0.1573  0.3236  0.1862
 8910SOL    HW138366   2.848   2.997   6.955  0.3124  0.0047 -0.0591
 8910SOL    HW238367   2.787   2.944   7.087  0.2411 -2.4446 -0.1976
 8911SOL     OW38368   0.247   0.623   6.215  0.4142 -0.6557  0.0519
 8911SOL    HW138369   0.230   0.586   6.301 -0.1332  0.0012  0.2230
 8911SOL    HW238370   0.315   0.562   6.186 -0.0349 -1.0615 -0.1428
 8912SOL     OW38371   2.930   0.568   6.067  0.1595 -0.3953 -0.5601
 8912SOL    HW138372   2.960   0.477   6.060  1.3215  0.0351 -1.1497
 8912SOL    HW238373   2.947   0.597   5.977 -0.9623 -1.4495 -1.1148
 8913SOL     OW38374   1.072   2.865  11.867  1.2461  0.3848 -0.4336
 8913SOL    HW138375   0.996   2.812  11.892  1.5089 -0.1200 -0.6956
 8913SOL    HW238376   1.039   2.951  11.892  1.7944  0.3358  0.4360
 8914SOL     OW38377   1.570   3.378  11.131  0.4959 -0.0803 -0.2815
 8914SOL    HW138378   1.607   3.457  11.171 -1.1597 -0.2237  1.5547
 8914SOL    HW238379   1.490   3.402  11.085 -0.2033 -0.9409  0.4776
 8915SOL     OW38380   2.315   4.235   4.555  0.1093 -0.0020 -0.0909
 8915SOL    HW138381   2.236   4.209   4.602  1.0464 -0.7010  1.0780
 8915SOL    HW238382   2.337   4.157   4.505 -1.7950  0.2555 -1.3094
 8916SOL     OW38383   3.998   1.051   7.910  0.5514  0.4456 -0.0658
 8916SOL    HW138384   3.941   0.976   7.926 -0.4688  1.8156  2.7249
 8916SOL    HW238385   3.935   1.114   7.876  0.4201  0.9783  1.1389
 8917SOL     OW38386   1.393   0.002   7.518  1.0690  0.4330  0.5101
 8917SOL    HW138387   1.340   0.081   7.516 -0.0383 -0.2928  1.5360
 8917SOL    HW238388   1.462   0.027   7.456  0.4864  0.9087  0.0631
 8918SOL     OW38389   3.606   1.467   9.670  0.3699 -0.0906  0.6336
 8918SOL    HW138390   3.618   1.560   9.690 -0.3730 -0.2227  1.6844
 8918SOL    HW238391   3.521   1.448   9.710  0.4589  0.2150  0.9611
 8919SOL     OW38392   4.519   1.910   4.671 -0.2404 -0.9432 -0.2582
 8919SOL    HW138393   4.474   1.850   4.611  0.0566 -0.8180 -0.6055
 8919SOL    HW238394   4.541   1.974   4.603  1.5105  0.9046  2.0541
 8920SOL     OW38395   1.993   3.826   1.948 -0.0010 -0.3206 -1.1221
 8920SOL    HW138396   1.916   3.883   1.955  0.6439  0.3142  0.5820
 8920SOL    HW238397   1.984   3.790   1.859  0.1888  0.1060 -1.3125
 8921SOL     OW38398   2.814   3.851   9.258  0.5061 -0.3926 -0.3661
 8921SOL    HW138399   2.896   3.801   9.257 -0.1228 -1.4330  0.4892
 8921SOL    HW238400   2.757   3.778   9.283  0.0903 -0.5385 -1.7318
 8922SOL     OW38401   4.329   1.769   6.139  0.3428  0.5931  0.1527
 8922SOL    HW138402   4.312   1.746   6.048  1.2087 -3.9106  1.1424
 8922SOL    HW238403   4.241   1.766   6.176 -1.0465 -0.2937 -3.1579
 8923SOL     OW38404   1.496   3.010  15.892  0.0387 -0.6996 -0.5422
 8923SOL    HW138405   1.463   2.932  15.847 -0.5503 -0.2703 -0.8662
 8923SOL    HW238406   1.517   3.058  15.811 -0.7447 -1.0032 -0.9271
 8924SOL     OW38407   1.024   0.986  17.594 -0.1533  0.0806  0.0470
 8924SOL    HW138408   1.083   1.043  17.545 -0.1335 -0.2940 -0.3544
 8924SOL    HW238409   0.945   1.039  17.606 -0.3062 -0.1699  0.1320
 8925SOL     OW38410   1.434   4.582  10.906  0.0348 -0.1257 -0.2064
 8925SOL    HW138411   1.354   4.575  10.855 -1.0668  1.2273  1.3749
 8925SOL    HW238412   1.400   4.652  10.962  1.2837 -0.5301  1.0793
 8926SOL     OW38413   3.558   1.585   9.210 -0.2896  0.3655 -0.5317
 8926SOL    HW138414   3.519   1.553   9.291 -1.1181  2.6771 -0.0160
 8926SOL    HW238415   3.540   1.507   9.158  0.6212 -0.4030  0.3171
 8927SOL     OW38416   3.874   2.695   8.012  0.4252  0.3885 -0.3007
 8927SOL    HW138417   3.860   2.602   8.033 -1.2627  0.7100 -0.0302
 8927SOL    HW238418   3.817   2.701   7.936  0.7960  2.8562 -0.3742
 8928SOL     OW38419   4.080   3.217  11.659  0.3883 -0.3669 -0.2182
 8928SOL    HW138420   4.019   3.264  11.717 -0.4571 -1.0061 -0.5938
 8928SOL    HW238421   4.100   3.145  11.719 -0.6832 -0.1163  0.4492
 8929SOL     OW38422   2.929   3.591   8.719 -0.0966 -0.2217 -0.2448
 8929SOL    HW138423   2.963   3.657   8.660 -0.1772 -1.2439 -1.4349
 8929SOL    HW238424   2.839   3.620   8.736  0.4544  0.6330  1.2403
 8930SOL     OW38425   0.233   4.146   5.513  0.0837  0.4240 -0.0945
 8930SOL    HW138426   0.175   4.127   5.439 -0.3232 -3.4020  1.2178
 8930SOL    HW238427   0.171   4.153   5.586  0.7216 -0.0498  0.4905
 8931SOL     OW38428   0.098   3.861   8.669 -0.3668 -0.0946  0.0992
 8931SOL    HW138429   0.191   3.881   8.660 -1.0936  2.5938 -1.5018
 8931SOL    HW238430   0.111   3.776   8.709 -0.5803 -0.2762 -0.2190
 8932SOL     OW38431   1.952   3.366  14.124 -0.2507  0.3534  0.1699
 8932SOL    HW138432   1.878   3.371  14.065  0.4995 -2.7773 -1.0341
 8932SOL    HW238433   1.917   3.398  14.207  1.8718 -1.1996  1.6917
 8933SOL     OW38434   1.545   3.442  15.751 -0.0818  0.3927  0.3572
 8933SOL    HW138435   1.513   3.496  15.679 -1.7221 -0.1374  0.7045
 8933SOL    HW238436   1.538   3.352  15.720 -0.2841  0.3895  0.4104
 8934SOL     OW38437   4.634   1.867   2.631 -0.0969 -0.3475 -0.4206
 8934SOL    HW138438   4.715   1.840   2.589  1.3499 -0.6670  2.6139
 8934SOL    HW238439   4.617   1.786   2.679  0.8258  0.6630  1.5653
 8935SOL     OW38440   2.731   1.766  14.859 -0.0206 -0.3136 -0.3798
 8935SOL    HW138441   2.759   1.681  14.892 -0.3670  0.3811  1.7226
 8935SOL    HW238442   2.766   1.822  14.929 -0.3816 -0.3575 -0.1628
 8936SOL     OW38443   1.305   0.763   2.866 -0.1542  0.4351 -0.1897
 8936SOL    HW138444   1.339   0.849   2.892  2.2830 -0.5933 -0.0020
 8936SOL    HW238445   1.302   0.722   2.952 -0.4876 -0.6179 -0.7067
 8937SOL     OW38446   0.103   4.211   0.873 -0.3293  0.4119  0.3668
 8937SOL    HW138447   0.101   4.148   0.945 -1.2463  1.8252  1.5788
 8937SOL    HW238448   0.168   4.168   0.817  0.6893  0.0250  1.8541
 8938SOL     OW38449   0.508   4.700   9.679 -0.3227 -0.0024 -0.3445
 8938SOL    HW138450   0.422   4.660   9.689 -0.5466  0.3438 -0.9083
 8938SOL    HW238451   0.563   4.643   9.733  0.7655 -0.9211 -2.4253
 8939SOL     OW38452   3.271   0.011   4.886 -0.2817  0.3885  0.3509
 8939SOL    HW138453   3.177   0.017   4.870 -0.2844  0.5507  0.4307
 8939SOL    HW238454   3.273   4.717   4.977 -0.7246  0.2673  0.3221
 8940SOL     OW38455   3.263   1.988   5.118  0.4611 -0.3917  0.1769
 8940SOL    HW138456   3.174   1.956   5.133  0.0019  0.3933 -0.8654
 8940SOL    HW238457   3.287   1.931   5.044  0.4596  2.4741 -2.0372
 8941SOL     OW38458   4.262   4.529  16.605  0.1077 -0.7015  0.1148
 8941SOL    HW138459   4.212   4.458  16.645  0.0027 -1.3619 -1.1847
 8941SOL    HW238460   4.317   4.479  16.544 -2.0313 -0.3830 -2.0926
 8942SOL     OW38461   2.936   2.132  12.056  0.1587 -0.0061  0.8237
 8942SOL    HW138462   2.976   2.119  12.141 -0.7153 -0.0759  1.2198
 8942SOL    HW238463   3.017   2.143  12.006  0.2794 -1.6206  0.6607
 8943SOL     OW38464   4.684   1.288  15.664 -0.0235  0.2699 -0.8048
 8943SOL    HW138465   4.672   1.193  15.657  1.1732 -0.0184  1.1346
 8943SOL    HW238466   0.041   1.301  15.644 -0.0944  0.5084 -0.9722
 8944SOL     OW38467   0.223   1.227   7.046  0.3895  0.2435  0.2909
 8944SOL    HW138468   0.142   1.216   6.995  0.0713  0.9078  0.6512
 8944SOL    HW238469   0.216   1.321   7.060  0.2576  0.3486 -0.4345
 8945SOL     OW38470   1.520   2.278   5.329  0.1208 -0.1216  0.0613
 8945SOL    HW138471   1.540   2.317   5.244 -0.5164 -0.9577 -0.4835
 8945SOL    HW238472   1.606   2.279   5.371 -0.0942 -4.1650  0.6079
 8946SOL     OW38473   3.612   2.338   6.363  0.6791 -0.1099 -0.7142
 8946SOL    HW138474   3.617   2.277   6.437  0.8378 -0.1539 -0.7608
 8946SOL    HW238475   3.549   2.303   6.299 -1.6978  1.5506  0.7063
 8947SOL     OW38476   2.618   0.647   4.807 -0.0231 -0.6096 -0.3645
 8947SOL    HW138477   2.537   0.670   4.853  2.0858 -1.0898  3.5835
 8947SOL    HW238478   2.580   0.597   4.735  2.0217 -2.2393 -0.2869
 8948SOL     OW38479   1.903   2.554   1.917  0.1072 -0.0361 -0.0870
 8948SOL    HW138480   1.961   2.569   1.992 -0.7983 -0.9453  0.7928
 8948SOL    HW238481   1.885   2.644   1.890 -0.1583 -0.2698 -0.6788
 8949SOL     OW38482   0.679   4.364   0.860 -0.2236  0.2859 -0.1911
 8949SOL    HW138483   0.728   4.283   0.871 -1.1875 -0.4516 -1.2722
 8949SOL    HW238484   0.589   4.334   0.875  0.2093 -1.0453 -0.2279
 8950SOL     OW38485   4.393   3.373   0.983 -0.4139 -0.0007 -0.2848
 8950SOL    HW138486   4.406   3.330   1.067 -0.1229 -0.5731 -0.6221
 8950SOL    HW238487   4.485   3.399   0.968 -0.1107 -0.4129  0.9193
 8951SOL     OW38488   1.560   2.354   3.229 -0.0142 -0.3800 -0.0430
 8951SOL    HW138489   1.561   2.265   3.197  0.0733  0.6183 -2.7772
 8951SOL    HW238490   1.476   2.389   3.199 -0.4533  1.0192  2.7306
 8952SOL     OW38491   3.760   2.972   7.006  0.0148  0.1339 -0.3909
 8952SOL    HW138492   3.729   2.929   6.927 -2.2544 -1.5439  1.4337
 8952SOL    HW238493   3.814   2.905   7.048 -0.4002 -0.7358 -1.2567
 8953SOL     OW38494   0.230   3.862  16.239  0.6162  0.4940  0.3204
 8953SOL    HW138495   0.324   3.876  16.226  0.1678 -0.1618 -3.4510
 8953SOL    HW238496   0.223   3.887  16.331 -2.4933  1.6177 -0.2464
 8954SOL     OW38497   0.278   1.962   3.263 -0.1462 -0.4106 -0.0882
 8954SOL    HW138498   0.279   2.057   3.267  0.7294 -0.4641  0.9934
 8954SOL    HW238499   0.362   1.963   3.218 -0.0526 -0.0511  0.0949
 8955SOL     OW38500   0.845   3.838   2.497  0.7086 -0.1038 -0.0838
 8955SOL    HW138501   0.765   3.834   2.445  0.3067  0.9317  0.4653
 8955SOL    HW238502   0.833   3.923   2.540 -0.5459 -0.0118 -0.6090
 8956SOL     OW38503   0.293   1.796   3.875  0.2935 -0.3724 -0.0856
 8956SOL    HW138504   0.279   1.737   3.800  1.8928 -0.8942  0.0170
 8956SOL    HW238505   0.357   1.858   3.839  0.0936  0.5866  1.2290
 8957SOL     OW38506   1.513   1.858  12.598  0.0754  0.0696 -0.7194
 8957SOL    HW138507   1.606   1.852  12.580  0.1123 -2.3272  0.2311
 8957SOL    HW238508   1.508   1.944  12.641  1.1374 -0.4518  0.4345
 8958SOL     OW38509   2.902   0.421   4.718  0.1274  0.1938  0.1852
 8958SOL    HW138510   2.962   0.372   4.774  0.3959 -2.3696 -2.3078
 8958SOL    HW238511   2.927   0.510   4.743  1.2757  0.1408 -0.7900
 8959SOL     OW38512   0.516   2.980   7.993  0.4992 -0.1436 -0.0534
 8959SOL    HW138513   0.579   2.956   8.062 -0.8472 -1.1777  0.7961
 8959SOL    HW238514   0.440   3.009   8.043  0.4627 -0.5813  0.1425
 8960SOL     OW38515   2.388   2.029  16.280  0.1110 -0.1297 -0.4611
 8960SOL    HW138516   2.316   2.093  16.285 -1.6529 -2.0506 -1.0483
 8960SOL    HW238517   2.386   1.986  16.365 -1.4788  0.7447 -0.0474
 8961SOL     OW38518   4.389   3.660   8.537 -0.2756 -0.4172 -0.3942
 8961SOL    HW138519   4.420   3.571   8.521 -0.7186 -1.1655  2.8746
 8961SOL    HW238520   4.435   3.712   8.472  1.3193  0.3239  1.3038
 8962SOL     OW38521   4.065   4.348   7.309  0.4595 -0.2622 -0.1011
 8962SOL    HW138522   4.143   4.301   7.278  0.2194 -0.2367 -0.7391
 8962SOL    HW238523   4.052   4.306   7.394  1.4102  1.5569  0.9411
 8963SOL     OW38524   3.405   1.534   5.538  0.8137 -0.1959 -0.2414
 8963SOL    HW138525   3.445   1.613   5.503 -1.7435  0.7328 -1.0601
 8963SOL    HW238526   3.363   1.495   5.462 -2.3469 -0.1762  1.4813
 8964SOL     OW38527   1.501   2.858   8.589  0.4623 -0.4664  0.2923
 8964SOL    HW138528   1.584   2.834   8.631  1.2988  1.0405 -0.4826
 8964SOL    HW238529   1.462   2.771   8.577 -1.0407  0.1214  0.9461
 8965SOL     OW38530   2.035   0.259   3.596 -0.5538  0.0367 -0.3601
 8965SOL    HW138531   1.967   0.317   3.561 -0.0368  1.3725  0.8439
 8965SOL    HW238532   2.001   0.173   3.573 -0.6812  0.6844 -2.5957
 8966SOL     OW38533   3.036   0.555  13.876 -0.7150  0.0616  0.4229
 8966SOL    HW138534   3.080   0.491  13.933  2.1408  1.5407 -0.1061
 8966SOL    HW238535   2.968   0.501  13.835 -0.1233 -1.2184  1.1128
 8967SOL     OW38536   2.219   1.202   5.521  0.2116 -0.3497  0.0490
 8967SOL    HW138537   2.129   1.169   5.525  0.3022 -0.8378 -1.7040
 8967SOL    HW238538   2.220   1.274   5.584 -3.4751  0.7823 -1.1646
 8968SOL     OW38539   2.423   1.702   0.227  0.1189  0.6793 -0.2751
 8968SOL    HW138540   2.447   1.613   0.201 -1.3563  0.2293 -0.1128
 8968SOL    HW238541   2.381   1.724   0.144 -1.6728 -1.7154  0.0128
 8969SOL     OW38542   1.009   3.584   7.566 -0.1484  0.2128 -0.1566
 8969SOL    HW138543   1.074   3.654   7.573 -2.4617  2.3063  0.2814
 8969SOL    HW238544   0.968   3.583   7.653 -2.2634 -3.1835 -1.2011
 8970SOL     OW38545   0.601   0.535   4.686  0.3609  0.3047 -0.0932
 8970SOL    HW138546   0.657   0.611   4.703  0.2736  0.5570 -0.9642
 8970SOL    HW238547   0.665   0.482   4.639 -0.3230  0.7601 -1.5179
 8971SOL     OW38548   3.746   3.940   8.677  0.5194 -0.2696 -0.1775
 8971SOL    HW138549   3.823   3.990   8.705 -0.3530  0.2097  1.3607
 8971SOL    HW238550   3.775   3.856   8.711  0.5503  0.3795  1.4005
 8972SOL     OW38551   3.595   2.056   3.195 -0.2249 -0.3253 -0.2544
 8972SOL    HW138552   3.517   2.111   3.183 -0.9413 -1.5107 -1.1090
 8972SOL    HW238553   3.671   2.112   3.186 -0.0611 -0.7911 -1.6885
 8973SOL     OW38554   4.259   0.223   1.698  0.3691 -0.8657 -0.2837
 8973SOL    HW138555   4.342   0.264   1.675 -0.4696  1.1056  0.1203
 8973SOL    HW238556   4.286   0.132   1.693 -1.1509 -1.3098 -0.6523
 8974SOL     OW38557   4.381   1.014  11.154  0.0224 -0.5331  0.0313
 8974SOL    HW138558   4.448   0.949  11.132  0.1916 -0.3173 -0.0853
 8974SOL    HW238559   4.377   1.072  11.078  0.8865 -1.0290 -0.3958
 8975SOL     OW38560   4.195   0.013  14.067 -0.4577 -0.0831  0.7009
 8975SOL    HW138561   4.161   0.049  14.149  0.5349 -0.5837  1.3437
 8975SOL    HW238562   4.286   0.024  14.094 -0.2354  0.5154 -0.3339
 8976SOL     OW38563   1.548   3.541  11.622  0.2409  0.7973 -0.0516
 8976SOL    HW138564   1.492   3.472  11.585 -2.5627  2.8682  0.3641
 8976SOL    HW238565   1.554   3.514  11.713  1.7763 -0.1901 -0.4383
 8977SOL     OW38566   4.710   0.293   1.441  0.1511 -0.3677  0.2590
 8977SOL    HW138567   0.062   0.330   1.438  0.1453 -0.2697  1.5486
 8977SOL    HW238568   4.716   0.229   1.511 -0.3794  1.4822  1.9904
 8978SOL     OW38569   3.223   2.167   4.081 -0.8825  0.1044 -0.4621
 8978SOL    HW138570   3.303   2.134   4.123 -1.6275 -1.0931  0.0037
 8978SOL    HW238571   3.169   2.090   4.100 -0.8500  0.0878 -0.4369
 8979SOL     OW38572   1.765   2.788   5.148  0.0103  0.2673  0.2259
 8979SOL    HW138573   1.704   2.722   5.181 -1.5254  2.3464  1.5578
 8979SOL    HW238574   1.708   2.864   5.142 -0.5460 -0.3190 -1.8468
 8980SOL     OW38575   4.437   4.457   7.984 -0.3262 -0.6146 -0.6595
 8980SOL    HW138576   4.428   4.371   7.943  2.1410 -0.9678 -0.4841
 8980SOL    HW238577   4.400   4.424   8.066  1.5372 -0.0837  0.3868
 8981SOL     OW38578   3.556   2.203  17.315 -0.0141  0.2907 -0.6226
 8981SOL    HW138579   3.535   2.118  17.354  0.6609 -0.3620 -1.7134
 8981SOL    HW238580   3.555   2.181  17.222  0.6593 -0.0417 -0.5482
 8982SOL     OW38581   1.491   0.293   7.982  0.0675  0.4572  0.0179
 8982SOL    HW138582   1.530   0.215   8.023 -1.1630 -1.0724 -1.7285
 8982SOL    HW238583   1.466   0.256   7.898  1.4535  2.0508 -1.0981
 8983SOL     OW38584   3.246   3.924  15.053  0.0727 -0.1519  0.3376
 8983SOL    HW138585   3.158   3.886  15.057  0.4486 -1.3380 -2.3014
 8983SOL    HW238586   3.300   3.845  15.044 -0.1450 -0.3728  0.9398
 8984SOL     OW38587   0.063   3.078   5.404  0.3487  0.7139  0.3298
 8984SOL    HW138588   0.052   3.089   5.309  0.8303  0.1766  0.2184
 8984SOL    HW238589   0.066   3.169   5.435  0.2340  0.7405  0.2650
 8985SOL     OW38590   4.379   0.787   2.181 -0.1356  1.0377 -0.7497
 8985SOL    HW138591   4.352   0.752   2.266  2.5445 -0.8632 -0.6990
 8985SOL    HW238592   4.436   0.859   2.207 -0.6503  1.7487 -1.5819
 8986SOL     OW38593   1.787   3.341  15.275  0.1091  0.0120 -1.1969
 8986SOL    HW138594   1.738   3.423  15.275 -2.2876 -1.4089 -0.3806
 8986SOL    HW238595   1.814   3.335  15.184  2.2970  1.8512 -0.6773
 8987SOL     OW38596   4.718   4.063   1.860  0.2907 -0.0241  0.2036
 8987SOL    HW138597   4.678   4.111   1.932  0.4298  0.0386  0.2387
 8987SOL    HW238598   4.649   4.064   1.794  0.0376  1.4729  0.5033
 8988SOL     OW38599   2.900   4.309   7.512 -0.2869  0.1245 -0.4212
 8988SOL    HW138600   2.910   4.342   7.423  0.2636 -1.7805 -1.0575
 8988SOL    HW238601   2.807   4.290   7.522 -0.0236  0.3964  2.5663
 8989SOL     OW38602   4.129   2.850   8.326  0.1361 -0.1014  0.2177
 8989SOL    HW138603   4.194   2.913   8.356 -0.4886 -0.3027  2.0090
 8989SOL    HW238604   4.131   2.857   8.230 -1.0984 -0.6989  0.1405
 8990SOL     OW38605   1.704   0.647   8.540 -0.5718  0.2937 -0.1604
 8990SOL    HW138606   1.626   0.674   8.492 -1.1505 -2.3544 -0.7183
 8990SOL    HW238607   1.675   0.615   8.626  0.9037 -0.2186  0.1593
 8991SOL     OW38608   1.306   2.961  13.371 -0.9931  0.4163  0.7796
 8991SOL    HW138609   1.210   2.967  13.378 -0.9232  1.6840  0.7692
 8991SOL    HW238610   1.329   2.896  13.437 -0.5693 -1.4710 -1.2465
 8992SOL     OW38611   0.675   2.050   3.343 -0.5384  0.3116  0.4803
 8992SOL    HW138612   0.674   2.013   3.431  0.0713 -2.3373 -0.6113
 8992SOL    HW238613   0.728   2.129   3.352  3.2813 -2.8451  5.4982
 8993SOL     OW38614   3.098   4.483   5.167  0.1316  0.3419 -0.0775
 8993SOL    HW138615   3.148   4.565   5.160 -1.3587  1.0767 -1.9373
 8993SOL    HW238616   3.014   4.526   5.150  0.5134  1.5572  1.0713
 8994SOL     OW38617   2.932   2.987   2.778 -0.2241 -0.0644 -0.1787
 8994SOL    HW138618   2.940   2.922   2.848 -2.9384 -0.2450 -0.0395
 8994SOL    HW238619   2.998   3.053   2.801 -1.3279  1.3757 -1.1301
 8995SOL     OW38620   0.551   1.979   5.974 -0.0965  0.4967  0.2723
 8995SOL    HW138621   0.615   1.930   6.027 -0.6004  0.6234  0.9925
 8995SOL    HW238622   0.605   2.058   5.970  0.1260  0.2469 -1.4782
 8996SOL     OW38623   1.838   3.737   5.512 -0.8148 -0.4890  0.5874
 8996SOL    HW138624   1.761   3.691   5.477  0.6314 -1.7280 -0.9664
 8996SOL    HW238625   1.909   3.674   5.499 -1.9075 -1.1560 -2.1474
 8997SOL     OW38626   0.843   4.484   5.358 -0.1636 -0.0061 -0.5486
 8997SOL    HW138627   0.878   4.525   5.279  1.0392 -1.1825 -0.6205
 8997SOL    HW238628   0.761   4.532   5.349 -0.9800 -0.9665  1.7303
 8998SOL     OW38629   3.447   3.121   8.439  0.1571 -0.1982 -0.1122
 8998SOL    HW138630   3.538   3.105   8.464  0.2103  0.5748  0.1912
 8998SOL    HW238631   3.440   3.214   8.417 -0.6180 -0.6025 -1.5658
 8999SOL     OW38632   2.289   3.015   3.216  0.3279 -0.5113  0.1236
 8999SOL    HW138633   2.290   3.044   3.307  2.6179 -0.9021  0.2064
 8999SOL    HW238634   2.352   2.944   3.229  1.2254  0.2421 -0.1391
 9000SOL     OW38635   1.629   3.978   3.947  0.4532 -0.3882  0.7114
 9000SOL    HW138636   1.670   3.923   4.013 -0.8481 -0.2381  1.6595
 9000SOL    HW238637   1.587   4.040   4.007 -0.5423 -1.0827  0.7418
 9001SOL     OW38638   1.694   3.910   7.972  0.0350  0.1673  0.1472
 9001SOL    HW138639   1.785   3.887   7.956  0.2918  0.4801  1.2138
 9001SOL    HW238640   1.659   3.824   7.949  3.2767 -1.0742 -0.1387
 9002SOL     OW38641   3.606   4.268  15.394  0.5353 -0.9007 -0.0987
 9002SOL    HW138642   3.571   4.207  15.460 -0.0518  0.6394  1.0087
 9002SOL    HW238643   3.576   4.223  15.315 -0.1391  1.7610 -1.3527
 9003SOL     OW38644   4.223   1.163  13.939  0.6645  0.1217  0.4871
 9003SOL    HW138645   4.293   1.158  13.874 -0.1473 -1.1051 -0.2927
 9003SOL    HW238646   4.155   1.197  13.881  0.5956 -0.3200  0.3146
 9004SOL     OW38647   0.615   2.093  14.945 -0.4204 -0.1655  0.5717
 9004SOL    HW138648   0.612   2.057  14.857 -2.8913 -1.2705  1.1151
 9004SOL    HW238649   0.705   2.063  14.960  0.5130  2.1007 -0.3869
 9005SOL     OW38650   2.687   3.685   8.781 -0.0241  0.9469 -0.1358
 9005SOL    HW138651   2.619   3.649   8.837  0.2953  0.0345 -0.3441
 9005SOL    HW238652   2.719   3.758   8.835  1.6373  0.0347  0.1288
 9006SOL     OW38653   1.988   2.307   8.482  0.0762  0.6579 -0.0458
 9006SOL    HW138654   2.077   2.300   8.449  0.1285 -2.0244  0.6895
 9006SOL    HW238655   1.983   2.235   8.545  0.3157  1.4597  0.8893
 9007SOL     OW38656   3.413   1.480  13.031  0.0906  0.3269  0.1704
 9007SOL    HW138657   3.507   1.479  13.053  0.2311 -1.1526 -0.4611
 9007SOL    HW238658   3.386   1.549  13.092 -0.4361  0.0359  0.2689
 9008SOL     OW38659   3.001   0.801   7.726 -0.2518  0.4165 -0.4910
 9008SOL    HW138660   2.919   0.755   7.741 -0.5598  0.6585 -1.3942
 9008SOL    HW238661   3.010   0.810   7.631 -0.4816  0.7737 -0.4785
 9009SOL     OW38662   1.423   0.669   5.270  0.2320  0.0312  0.1377
 9009SOL    HW138663   1.513   0.693   5.288  0.2021  0.2783 -0.0347
 9009SOL    HW238664   1.387   0.751   5.235  2.5131  0.7821 -0.4110
 9010SOL     OW38665   2.736   0.652   4.488  0.0826  0.5332  0.4184
 9010SOL    HW138666   2.667   0.644   4.423 -2.5963  0.4760  3.2626
 9010SOL    HW238667   2.809   0.662   4.426  0.8602 -1.8839  0.9324
 9011SOL     OW38668   1.793   3.746  14.153  0.3599  0.6190  0.1494
 9011SOL    HW138669   1.835   3.831  14.139  0.6628  0.3530 -0.5684
 9011SOL    HW238670   1.829   3.722  14.238  1.2797  2.1254  0.1722
 9012SOL     OW38671   0.304   0.981   8.910  1.0755  0.0492 -0.5297
 9012SOL    HW138672   0.345   0.895   8.897  1.0078 -0.2811  1.4628
 9012SOL    HW238673   0.269   0.987   8.821 -0.9964  1.5436  0.4060
 9013SOL     OW38674   2.201   3.513   2.857 -0.0314 -0.7929  0.4787
 9013SOL    HW138675   2.221   3.453   2.929 -1.3908 -2.2156 -0.3259
 9013SOL    HW238676   2.121   3.471   2.827 -0.8055 -0.1334  1.6546
 9014SOL     OW38677   1.576   3.183  15.660 -0.0834 -0.0932  0.4902
 9014SOL    HW138678   1.654   3.158  15.610  0.5671  3.0226 -0.0206
 9014SOL    HW238679   1.504   3.198  15.598  0.8786 -1.8094 -1.0557
 9015SOL     OW38680   1.070   3.727  13.595 -0.3232  0.1471 -0.0719
 9015SOL    HW138681   1.116   3.741  13.512 -1.6016 -1.2466 -1.0100
 9015SOL    HW238682   0.990   3.777  13.578 -0.3363  0.6245  1.4474
 9016SOL     OW38683   0.493   1.206   7.006  0.0547  0.1899  0.4244
 9016SOL    HW138684   0.504   1.116   6.976 -0.5149  0.0254  0.7123
 9016SOL    HW238685   0.399   1.204   7.023 -0.1544 -1.3292 -0.9337
 9017SOL     OW38686   2.496   4.278   2.459 -0.1630 -0.1489  0.6408
 9017SOL    HW138687   2.585   4.274   2.494  0.6708  2.5962 -1.1062
 9017SOL    HW238688   2.446   4.202   2.488  0.5809 -1.4340 -1.4746
 9018SOL     OW38689   3.072   2.722   7.188 -0.8499 -0.2652 -0.5379
 9018SOL    HW138690   3.149   2.698   7.239 -1.4681  1.4669  1.1881
 9018SOL    HW238691   3.041   2.798   7.237  0.7237  0.9105 -1.3652
 9019SOL     OW38692   2.334   2.071  12.930 -0.4754 -0.7751 -0.0509
 9019SOL    HW138693   2.261   2.131  12.947  0.7302  0.5884  0.3070
 9019SOL    HW238694   2.328   2.053  12.836 -1.3467 -1.5376  0.1511
 9020SOL     OW38695   0.177   1.218   2.936  0.6984 -0.1265  0.0854
 9020SOL    HW138696   0.127   1.294   2.907  0.1793 -0.2204  0.7362
 9020SOL    HW238697   0.108   1.152   2.934  2.2553 -1.7250 -0.5215
 9021SOL     OW38698   2.366   2.141  13.544 -0.1573  0.2522 -0.2176
 9021SOL    HW138699   2.366   2.068  13.482  2.9693 -1.5849  1.9350
 9021SOL    HW238700   2.408   2.212  13.495 -0.7977  0.0341 -1.0766
 9022SOL     OW38701   2.719   1.712   0.333 -0.0543 -0.8158  0.1668
 9022SOL    HW138702   2.625   1.715   0.315  0.4574 -0.4843 -2.4681
 9022SOL    HW238703   2.749   1.773   0.266  0.7845  0.3934  1.6241
 9023SOL     OW38704   4.388   2.030   6.137 -0.2548  0.0321 -0.0293
 9023SOL    HW138705   4.360   1.939   6.151  1.1057 -0.7178 -2.2837
 9023SOL    HW238706   4.397   2.042   6.043 -0.9260  0.7035 -0.0091
 9024SOL     OW38707   2.493   1.696   7.905  0.2040  0.2894  0.3928
 9024SOL    HW138708   2.505   1.712   7.998  0.9112 -4.1112  1.0767
 9024SOL    HW238709   2.462   1.606   7.915  0.3068  0.0897 -1.0841
 9025SOL     OW38710   4.416   0.278   6.535  0.8702  0.3449 -0.6519
 9025SOL    HW138711   4.435   0.302   6.444  1.3369 -0.3867 -0.7566
 9025SOL    HW238712   4.483   0.214   6.559  0.1679 -0.5460 -1.0373
 9026SOL     OW38713   1.281   1.750  10.604  0.0495  0.4175 -0.1653
 9026SOL    HW138714   1.282   1.843  10.626  0.5146  0.2616  0.4602
 9026SOL    HW238715   1.309   1.759  10.513 -2.6494 -1.2688 -1.1632
 9027SOL     OW38716   4.564   2.862   5.185  0.4905  0.0642  0.1546
 9027SOL    HW138717   4.588   2.855   5.093  0.4317  1.0942  0.0636
 9027SOL    HW238718   4.553   2.957   5.190 -0.1371  0.0049 -0.0286
 9028SOL     OW38719   1.948   1.337   4.295  0.4470  0.1938  0.2475
 9028SOL    HW138720   1.991   1.295   4.369 -0.3019 -0.5861  0.2514
 9028SOL    HW238721   1.981   1.426   4.305 -0.5255  0.3871  1.7350
 9029SOL     OW38722   2.958   4.219  10.504 -0.0531 -0.1836 -0.2870
 9029SOL    HW138723   3.044   4.234  10.544  0.4753  0.5696 -1.7030
 9029SOL    HW238724   2.910   4.182  10.577  0.5702 -0.0829  0.1822
 9030SOL     OW38725   3.940   1.659  11.899  0.4864  0.3996  0.0277
 9030SOL    HW138726   3.936   1.610  11.817  1.7636 -0.9238  0.7704
 9030SOL    HW238727   3.963   1.591  11.962 -0.1133 -0.2891 -0.5012
 9031SOL     OW38728   3.888   0.948   8.584  0.5283  0.6047  0.5474
 9031SOL    HW138729   3.968   0.897   8.596  0.9879  0.4192 -3.2971
 9031SOL    HW238730   3.843   0.951   8.668  0.0223  2.7878  0.1905
 9032SOL     OW38731   2.626   3.717   7.617 -0.3003  0.6718  0.1469
 9032SOL    HW138732   2.718   3.697   7.632 -0.1781  1.4059  0.3875
 9032SOL    HW238733   2.615   3.806   7.650  1.6070  0.4998  1.2464
 9033SOL     OW38734   4.169   2.739   7.090 -0.3414  0.1253  0.3820
 9033SOL    HW138735   4.257   2.740   7.127  0.1421  1.5098 -0.8243
 9033SOL    HW238736   4.187   2.734   6.997 -2.3686 -2.5934  0.1345
 9034SOL     OW38737   0.811   1.678   3.056 -0.2040 -0.2918 -0.1390
 9034SOL    HW138738   0.831   1.742   3.124 -0.2084 -1.3571  0.8500
 9034SOL    HW238739   0.721   1.653   3.078 -0.8204  2.6147  0.6873
 9035SOL     OW38740   1.298   1.569   8.397 -0.4279 -0.0200 -0.1979
 9035SOL    HW138741   1.346   1.580   8.315 -3.3795  0.1121 -1.9262
 9035SOL    HW238742   1.371   1.552   8.457  0.8348  1.1945 -1.3841
 9036SOL     OW38743   0.949   0.957  10.747  0.6160  0.2002 -0.0684
 9036SOL    HW138744   0.900   1.029  10.708 -1.9163 -1.4824 -0.0214
 9036SOL    HW238745   1.036   0.968  10.708  0.5279 -1.5183 -0.7391
 9037SOL     OW38746   0.826   4.223   6.159 -0.7247  0.2369  0.1398
 9037SOL    HW138747   0.797   4.270   6.237 -1.4883 -1.1389  0.6893
 9037SOL    HW238748   0.826   4.286   6.087  1.0857  0.3636  0.2518
 9038SOL     OW38749   2.409   2.922   9.240 -0.5589 -0.6628  0.3272
 9038SOL    HW138750   2.379   2.840   9.201  0.8393 -0.0452 -2.0967
 9038SOL    HW238751   2.435   2.971   9.162  0.8792  0.3673  1.4572
 9039SOL     OW38752   4.335   2.081   4.766 -0.3015 -0.2326  1.1865
 9039SOL    HW138753   4.394   2.139   4.719 -0.5871 -1.0227 -0.1241
 9039SOL    HW238754   4.401   2.020   4.799 -0.0229 -0.8130 -0.4926
 9040SOL     OW38755   4.001   3.356   5.217  0.0755 -0.5785  0.2084
 9040SOL    HW138756   4.045   3.434   5.184  2.0118 -1.7104  0.1316
 9040SOL    HW238757   3.976   3.375   5.307 -1.5943  0.2392 -0.4436
 9041SOL     OW38758   2.007   1.187   5.158  0.1569 -0.8743  0.3977
 9041SOL    HW138759   2.060   1.133   5.100  1.4848  0.3115  0.5087
 9041SOL    HW238760   1.951   1.117   5.190  0.0255 -0.9041  0.1121
 9042SOL     OW38761   4.546   4.292   8.741  0.8280  0.3492 -0.5939
 9042SOL    HW138762   4.507   4.226   8.683  1.7534  0.7595 -1.6774
 9042SOL    HW238763   4.638   4.268   8.737  1.1078  1.2921  0.2215
 9043SOL     OW38764   0.846   2.079   2.189 -0.4971  0.3825  0.1341
 9043SOL    HW138765   0.755   2.092   2.162 -1.0549 -2.4041  0.6646
 9043SOL    HW238766   0.847   1.986   2.168  0.0901  1.2995 -3.8922
 9044SOL     OW38767   3.834   4.189   8.017  0.6784  0.3209 -0.2140
 9044SOL    HW138768   3.830   4.170   8.111  0.2565 -0.9927 -0.4912
 9044SOL    HW238769   3.745   4.170   7.985  0.2019 -0.0122  1.3034
 9045SOL     OW38770   3.706   2.818   6.762  0.2746  0.1449 -0.0394
 9045SOL    HW138771   3.684   2.727   6.782  2.7161 -0.4625 -0.0758
 9045SOL    HW238772   3.733   2.801   6.672  0.8904 -0.3584  0.2377
 9046SOL     OW38773   2.253   1.433  16.851 -0.0971 -0.4406  0.3203
 9046SOL    HW138774   2.256   1.350  16.804  1.1605 -0.2094 -0.0126
 9046SOL    HW238775   2.252   1.388  16.935 -1.0883 -3.1902 -1.1754
 9047SOL     OW38776   0.220   2.804   2.951 -0.4687 -0.2046  0.2724
 9047SOL    HW138777   0.216   2.715   2.914 -0.1181 -0.5622  1.0810
 9047SOL    HW238778   0.184   2.848   2.874  0.8542  1.8232  0.8116
 9048SOL     OW38779   3.680   1.394   4.727 -0.2032 -0.0716 -0.1853
 9048SOL    HW138780   3.635   1.466   4.682 -0.8271 -0.2093  0.2186
 9048SOL    HW238781   3.725   1.360   4.650 -0.7815 -2.0878  0.3516
 9049SOL     OW38782   4.367   1.974   2.698 -0.1533 -0.4715 -0.1481
 9049SOL    HW138783   4.399   1.946   2.613  0.2623  0.5436 -0.3353
 9049SOL    HW238784   4.397   1.905   2.757 -0.6471  0.0087  0.6848
 9050SOL     OW38785   3.280   2.790  17.227  0.0732  0.0647  0.5837
 9050SOL    HW138786   3.278   2.727  17.155 -2.2640  2.2551 -1.2722
 9050SOL    HW238787   3.371   2.801  17.256  0.7511  1.1407 -1.9237
 9051SOL     OW38788   1.512   3.187   5.301  0.2348 -0.0020  0.2994
 9051SOL    HW138789   1.579   3.179   5.369  2.8532 -1.3215 -2.4091
 9051SOL    HW238790   1.436   3.223   5.345 -0.6834  0.1766 -1.4262
 9052SOL     OW38791   1.073   1.881   7.409 -0.1120  0.1953 -0.4544
 9052SOL    HW138792   1.037   1.927   7.486  0.5599  0.6728 -0.4239
 9052SOL    HW238793   1.079   1.948   7.341 -1.9266  0.7910 -0.0238
 9053SOL     OW38794   1.960   1.207  12.429 -0.6342 -0.2795 -0.1529
 9053SOL    HW138795   1.993   1.210  12.518  0.4182 -2.6618 -0.4493
 9053SOL    HW238796   1.996   1.124  12.397 -2.4116 -0.5368 -1.5162
 9054SOL     OW38797   3.115   0.066   8.412  0.7273  1.1224  0.8331
 9054SOL    HW138798   3.134   4.721   8.460  1.3540  1.4424  1.1255
 9054SOL    HW238799   3.021   0.054   8.399  1.0037  1.7558 -1.6569
 9055SOL     OW38800   4.563   3.437   3.133 -0.2058 -0.4805  0.4860
 9055SOL    HW138801   4.623   3.367   3.159  1.7640 -0.0499 -2.7936
 9055SOL    HW238802   4.560   3.432   3.037 -0.7097  1.0647  0.4105
 9056SOL     OW38803   3.084   2.475  15.396  0.7936  0.1359 -0.1066
 9056SOL    HW138804   3.152   2.414  15.368 -0.8756 -1.9682  0.3634
 9056SOL    HW238805   3.024   2.425  15.452  2.1602  0.5701  1.7443
 9057SOL     OW38806   4.473   3.419   8.416  0.3561  0.2858  0.1682
 9057SOL    HW138807   4.457   3.378   8.501 -1.9842 -0.4745 -0.6322
 9057SOL    HW238808   4.566   3.400   8.412  0.7842  2.3097  0.4565
 9058SOL     OW38809   1.906   3.571   2.695  0.3235 -0.5167  0.1016
 9058SOL    HW138810   1.961   3.641   2.729 -1.2486  0.1991  1.1791
 9058SOL    HW238811   1.946   3.546   2.611 -1.6852  0.5621 -1.1910
 9059SOL     OW38812   3.528   1.095   3.950 -0.3275 -0.3794  0.2810
 9059SOL    HW138813   3.599   1.140   3.996 -1.0525  1.0694 -0.0331
 9059SOL    HW238814   3.576   1.018   3.919 -2.2211 -2.2413  1.9749
 9060SOL     OW38815   3.156   3.143   4.701 -0.3338 -0.0006  0.1561
 9060SOL    HW138816   3.068   3.136   4.738 -0.3643 -1.0249 -0.0894
 9060SOL    HW238817   3.180   3.233   4.724  0.4398  0.2204 -1.5009
 9061SOL     OW38818   1.600   0.933   7.011 -0.1181 -0.5028  0.1080
 9061SOL    HW138819   1.558   0.990   7.075  0.3483  0.3518 -0.3546
 9061SOL    HW238820   1.693   0.941   7.031 -0.3582 -0.6929  1.3039
 9062SOL     OW38821   2.159   1.531   5.501  0.0588 -0.4204  0.1017
 9062SOL    HW138822   2.091   1.576   5.452 -0.7485 -1.3851  0.3202
 9062SOL    HW238823   2.139   1.564   5.589  0.0480 -0.8367  0.2568
 9063SOL     OW38824   0.040   3.412   7.565  0.3014  0.7230 -0.2224
 9063SOL    HW138825   0.088   3.438   7.644  0.6556  0.6551 -0.4138
 9063SOL    HW238826   4.696   3.463   7.579  0.1998 -0.3685  3.1125
 9064SOL     OW38827   1.316   0.193   5.584 -0.7811  0.6702  0.5135
 9064SOL    HW138828   1.221   0.194   5.568 -0.6350 -1.5734 -0.4217
 9064SOL    HW238829   1.338   0.270   5.532 -1.1769 -0.0706 -0.7616
 9065SOL     OW38830   0.191   3.504   7.801  1.3174 -0.1441  0.5125
 9065SOL    HW138831   0.163   3.586   7.841 -1.4106 -0.8074 -0.0470
 9065SOL    HW238832   0.184   3.444   7.876  0.3463  0.1898  0.6749
 9066SOL     OW38833   2.944   0.398   6.859  0.1680  0.9677  0.1109
 9066SOL    HW138834   3.019   0.412   6.802 -0.7128  1.2941 -0.9657
 9066SOL    HW238835   2.878   0.429   6.797  0.8029  2.0367 -0.0387
 9067SOL     OW38836   3.156   3.027   7.106  0.1279 -0.5948 -0.2909
 9067SOL    HW138837   3.185   3.115   7.083 -0.8244 -0.0262  0.6961
 9067SOL    HW238838   3.062   3.021   7.087  0.5088  0.8600 -2.6572
 9068SOL     OW38839   3.187   1.923   6.973 -0.1270  0.2332  0.4313
 9068SOL    HW138840   3.130   1.938   7.048  0.7054  2.2780  0.6631
 9068SOL    HW238841   3.253   1.866   7.012  1.5867  0.2816 -2.3751
 9069SOL     OW38842   0.826   1.734   9.933  0.0562 -0.0235  1.0254
 9069SOL    HW138843   0.737   1.754   9.963 -0.1064  0.4491  0.2277
 9069SOL    HW238844   0.821   1.639   9.921 -2.1837 -0.0533  2.0893
 9070SOL     OW38845   3.309   1.422  14.499  0.5668  0.0366 -0.4351
 9070SOL    HW138846   3.372   1.484  14.463  1.0473  0.5561  1.2822
 9070SOL    HW238847   3.297   1.356  14.431 -2.8358 -0.0671  0.2535
 9071SOL     OW38848   0.376   2.914   6.667  0.3265 -0.0145  0.3410
 9071SOL    HW138849   0.445   2.937   6.730 -2.3709  3.4885  1.9868
 9071SOL    HW238850   0.314   2.880   6.731 -0.5069  0.0233 -0.4560
 9072SOL     OW38851   3.258   0.012  14.322  0.3584 -0.3713 -0.2718
 9072SOL    HW138852   3.227   4.658  14.334  0.6404 -0.2165  1.6128
 9072SOL    HW238853   3.300   0.028  14.406  0.9763 -0.8089 -0.5012
 9073SOL     OW38854   0.186   0.828   4.503  0.4260  0.3902  0.4075
 9073SOL    HW138855   0.099   0.868   4.495  0.5493  0.6131  0.2013
 9073SOL    HW238856   0.161   0.757   4.563  1.1678 -2.1071 -2.2432
 9074SOL     OW38857   0.970   2.654   6.002 -0.4444  0.0468  0.2421
 9074SOL    HW138858   1.009   2.735   5.967  1.5064 -0.9996 -0.0246
 9074SOL    HW238859   0.896   2.690   6.050 -0.8553 -1.1549  0.5159
 9075SOL     OW38860   2.414   2.502   8.024  0.3748  0.2584  0.0251
 9075SOL    HW138861   2.372   2.417   8.043  1.2778 -1.1800 -4.4168
 9075SOL    HW238862   2.489   2.496   8.083  0.7334  1.7630 -0.2807
 9076SOL     OW38863   0.254   3.187   7.050  0.3757  0.3156 -0.2636
 9076SOL    HW138864   0.287   3.224   7.131  0.9499  1.6002 -1.0933
 9076SOL    HW238865   0.328   3.131   7.027 -0.6249 -0.6881 -1.0478
 9077SOL     OW38866   4.174   1.140  13.475 -0.1976 -0.2291  0.1357
 9077SOL    HW138867   4.096   1.191  13.453  2.2155  1.7377 -3.7512
 9077SOL    HW238868   4.183   1.091  13.394 -2.2440 -1.6456  0.7687
 9078SOL     OW38869   0.557   2.371   4.812  0.0949 -0.2024 -0.1213
 9078SOL    HW138870   0.601   2.311   4.873  0.2365 -0.8021 -0.8156
 9078SOL    HW238871   0.614   2.448   4.809 -0.0119 -0.1248 -0.1257
 9079SOL     OW38872   0.458   4.085   4.928  0.0921  0.1907 -0.7870
 9079SOL    HW138873   0.388   4.034   4.968  1.9752 -2.1643 -0.5060
 9079SOL    HW238874   0.432   4.171   4.960 -0.4317  0.0116 -0.7310
 9080SOL     OW38875   4.285   0.363   1.377  0.2741 -0.3238 -0.4924
 9080SOL    HW138876   4.365   0.397   1.337 -0.8359 -0.9529 -3.2246
 9080SOL    HW238877   4.321   0.352   1.465 -0.1230  0.2091 -0.2556
 9081SOL     OW38878   2.619   3.776   6.569 -0.0890  0.3822  0.2879
 9081SOL    HW138879   2.539   3.742   6.609  0.0184  0.4693  0.5706
 9081SOL    HW238880   2.683   3.717   6.609 -1.3544  1.2199  3.5341
 9082SOL     OW38881   1.498   3.410  14.140 -0.0735 -0.3569 -0.1389
 9082SOL    HW138882   1.423   3.387  14.085 -0.2535  0.0810 -0.0814
 9082SOL    HW238883   1.543   3.326  14.143  2.2606  0.8917  0.3614
 9083SOL     OW38884   0.240   2.643   4.203 -0.4679  1.0163 -0.4141
 9083SOL    HW138885   0.213   2.610   4.117 -1.1362  0.7841 -0.1130
 9083SOL    HW238886   0.312   2.587   4.232  0.8752  3.0384  0.1598
 9084SOL     OW38887   0.136   3.850  12.020  0.5329  0.3760 -0.1365
 9084SOL    HW138888   0.204   3.900  12.066  0.2027  1.1284 -0.4611
 9084SOL    HW238889   0.194   3.775  12.008 -1.5679 -1.2227 -0.2769
 9085SOL     OW38890   4.552   2.073   8.159  0.3212  0.5969  0.0216
 9085SOL    HW138891   4.541   2.043   8.069  0.6032 -0.6532  0.4026
 9085SOL    HW238892   4.499   2.152   8.159 -0.5893 -0.0211 -1.9223
 9086SOL     OW38893   1.075   3.452   2.435 -0.2335  0.6149  0.2448
 9086SOL    HW138894   1.102   3.376   2.384  0.1399 -0.2126  1.6809
 9086SOL    HW238895   1.092   3.417   2.523  1.2121 -0.9073 -0.6434
 9087SOL     OW38896   4.167   4.503   8.293  0.0630  0.0059  0.9225
 9087SOL    HW138897   4.082   4.488   8.251 -0.0078  1.6626  0.4748
 9087SOL    HW238898   4.134   4.525   8.381  0.6103 -0.1008  1.1517
 9088SOL     OW38899   2.100   4.539   3.859 -0.0798 -0.3374 -0.4328
 9088SOL    HW138900   2.150   4.531   3.941 -3.9790  0.1457  1.9994
 9088SOL    HW238901   2.162   4.595   3.814 -0.6127 -0.6321 -1.5253
 9089SOL     OW38902   0.065   2.206   3.972  0.0409 -0.1082 -0.1668
 9089SOL    HW138903   0.030   2.217   4.059  1.8569 -0.6957  0.6512
 9089SOL    HW238904   0.098   2.117   3.987 -1.6348 -0.8602 -0.9201
 9090SOL     OW38905   4.352   4.510   5.349  0.5375  0.0161 -0.6432
 9090SOL    HW138906   4.419   4.442   5.363  0.2163 -0.2998 -0.6376
 9090SOL    HW238907   4.276   4.469   5.308 -1.0587  0.3822  1.9295
 9091SOL     OW38908   2.465   2.247   7.768 -0.0313 -0.1436  0.1405
 9091SOL    HW138909   2.450   2.184   7.837 -2.6143  1.4330  1.0110
 9091SOL    HW238910   2.539   2.299   7.800 -0.0563 -0.5713  0.8826
 9092SOL     OW38911   3.577   2.944   5.682 -0.1620  0.0094  0.1937
 9092SOL    HW138912   3.615   2.936   5.595 -1.0236  2.9935 -0.4497
 9092SOL    HW238913   3.656   2.955   5.735 -0.3421 -0.7779  0.6335
 9093SOL     OW38914   1.748   4.563  12.468 -0.0756  0.1135  0.5135
 9093SOL    HW138915   1.709   4.519  12.392  0.7366  0.0352  0.1333
 9093SOL    HW238916   1.733   4.501  12.539 -0.7761 -1.2594 -0.8206
 9094SOL     OW38917   2.839   1.838  16.523  0.0549 -0.1463  0.2219
 9094SOL    HW138918   2.865   1.811  16.434 -1.5510  1.6087 -0.7884
 9094SOL    HW238919   2.788   1.918  16.510 -0.1810 -0.4090 -0.5060
 9095SOL     OW38920   3.799   1.612   2.659 -0.1199 -0.8797  0.2294
 9095SOL    HW138921   3.885   1.577   2.636  1.1525  2.0536  0.5725
 9095SOL    HW238922   3.807   1.653   2.745  0.1396 -1.7278  0.6005
 9096SOL     OW38923   4.471   0.249   7.620 -0.3157  0.0253  0.1278
 9096SOL    HW138924   4.468   0.328   7.567  0.7711 -0.8689 -1.2599
 9096SOL    HW238925   4.502   0.279   7.706 -2.0829  1.0745  0.4021
 9097SOL     OW38926   4.352   4.210   1.540  0.3017  0.4011  0.2955
 9097SOL    HW138927   4.264   4.215   1.577  0.8895 -1.1830  1.9628
 9097SOL    HW238928   4.345   4.143   1.472 -1.4561  1.7221 -0.8002
 9098SOL     OW38929   1.198   3.054  10.450  0.1590 -0.1012  0.1186
 9098SOL    HW138930   1.154   2.974  10.479  3.4579 -1.2899  1.8947
 9098SOL    HW238931   1.162   3.077  10.364  2.9777 -0.7470 -1.2543
 9099SOL     OW38932   3.863   0.725   4.816  0.1612 -0.0147 -0.3658
 9099SOL    HW138933   3.850   0.818   4.833 -0.3661 -0.1369 -0.0981
 9099SOL    HW238934   3.945   0.738   4.768  0.4288  2.0910  0.6683
 9100SOL     OW38935   0.728   2.831  14.102 -0.1219 -0.4941  0.0806
 9100SOL    HW138936   0.686   2.833  14.187 -3.0450 -3.9523 -1.2510
 9100SOL    HW238937   0.808   2.879  14.121  0.7493 -1.5792 -0.7904
 9101SOL     OW38938   0.474   4.507  13.572  0.1160 -0.3827 -0.7448
 9101SOL    HW138939   0.513   4.526  13.486  0.7792  3.1758  0.3362
 9101SOL    HW238940   0.506   4.575  13.631  0.3781 -1.3999  0.2772
 9102SOL     OW38941   1.972   4.114  13.806  0.4993 -0.9199  0.1617
 9102SOL    HW138942   2.066   4.097  13.795  0.5541  0.5261 -1.6837
 9102SOL    HW238943   1.975   4.210  13.804  0.1785 -0.9056  0.4080
 9103SOL     OW38944   2.602   2.187  12.813 -0.1247 -0.5835 -0.1194
 9103SOL    HW138945   2.644   2.113  12.856  2.4562  1.4574  0.8893
 9103SOL    HW238946   2.526   2.139  12.780 -0.6251  0.6576 -0.7673
 9104SOL     OW38947   0.097   3.072   5.067  0.0511  0.0350 -0.3547
 9104SOL    HW138948   0.135   3.091   4.981 -0.5145 -1.5305 -0.9517
 9104SOL    HW238949   0.007   3.096   5.044 -0.3417 -0.9667  0.1411
 9105SOL     OW38950   0.104   4.685  13.013  0.4627  0.3311 -0.3130
 9105SOL    HW138951   0.040   4.646  13.073  0.8967  0.2192  0.0798
 9105SOL    HW238952   0.183   4.682  13.068  1.3272  0.1950 -1.5528
 9106SOL     OW38953   1.107   0.658   1.040  0.5246  0.7409 -0.1266
 9106SOL    HW138954   1.072   0.698   1.120  1.5058  0.6480  0.3464
 9106SOL    HW238955   1.202   0.665   1.054  0.6156  0.3758 -0.5447
 9107SOL     OW38956   4.148   1.456   3.990  0.1082  0.5276  0.1821
 9107SOL    HW138957   4.239   1.447   4.020  0.3325  1.2180 -0.2714
 9107SOL    HW238958   4.113   1.371   4.014 -1.5626  0.5093 -2.3948
 9108SOL     OW38959   0.256   2.865   4.053 -0.1877  0.2149  0.2956
 9108SOL    HW138960   0.333   2.922   4.065 -0.7506  1.3306 -1.5088
 9108SOL    HW238961   0.264   2.813   4.133 -0.5091 -1.0322 -0.4865
 9109SOL     OW38962   0.686   3.337   5.776 -0.5909  0.2516  0.0006
 9109SOL    HW138963   0.719   3.374   5.858 -0.9398 -0.4681  0.4660
 9109SOL    HW238964   0.749   3.267   5.759 -1.3454 -0.4210 -0.0358
 9110SOL     OW38965   2.102   2.808   7.604  0.9451  0.7711 -0.6991
 9110SOL    HW138966   2.190   2.846   7.603  0.5079  1.8379  0.6820
 9110SOL    HW238967   2.115   2.746   7.533 -0.7622  0.7900 -1.0328
 9111SOL     OW38968   1.777   0.020  16.976  0.6974  0.2512  0.8387
 9111SOL    HW138969   1.870   4.734  16.980  0.5752 -0.6305 -1.1619
 9111SOL    HW238970   1.737   4.678  16.935  1.7271  0.3746 -0.3978
 9112SOL     OW38971   4.227   4.407  16.944  0.3364 -0.1865  0.4223
 9112SOL    HW138972   4.219   4.373  17.033  1.5580 -1.6316 -0.0085
 9112SOL    HW238973   4.255   4.326  16.900  1.1990  1.3985 -1.9470
 9113SOL     OW38974   1.336   1.249  11.786 -0.0450  0.3541  0.1572
 9113SOL    HW138975   1.270   1.185  11.814  0.5889 -2.1634 -4.1206
 9113SOL    HW238976   1.343   1.312  11.858  2.1685 -2.9447  2.8106
 9114SOL     OW38977   0.629   2.187   9.717  0.2658 -0.2888 -0.0127
 9114SOL    HW138978   0.654   2.242   9.643  3.4414 -0.2488  1.0970
 9114SOL    HW238979   0.534   2.189   9.713  0.2031 -2.3374  0.4493
 9115SOL     OW38980   2.493   1.941  11.217  0.7499 -0.7478 -0.2973
 9115SOL    HW138981   2.510   1.938  11.311  0.6655  0.8909 -0.2211
 9115SOL    HW238982   2.544   1.866  11.189  0.6023 -0.5660 -1.0494
 9116SOL     OW38983   0.826   0.015   6.213  0.1996 -0.2309  0.6363
 9116SOL    HW138984   0.894   4.725   6.276  0.7577 -0.3649 -0.0228
 9116SOL    HW238985   0.762   4.681   6.226 -0.6629  0.5417  0.5440
 9117SOL     OW38986   0.260   1.588   4.537 -0.0504  0.0126 -0.0542
 9117SOL    HW138987   0.319   1.522   4.500  0.2426 -0.1813  0.7538
 9117SOL    HW238988   0.308   1.669   4.520  1.8047 -1.0556  0.0809
 9118SOL     OW38989   4.659   0.149   9.382  0.1402 -0.8077 -0.0856
 9118SOL    HW138990   4.623   0.188   9.302 -0.8468  1.5243  1.5185
 9118SOL    HW238991   4.591   0.102   9.430  1.8789 -0.0357  3.1269
 9119SOL     OW38992   1.998   0.665   9.004  0.2513  0.0366  0.2286
 9119SOL    HW138993   2.077   0.692   9.051  1.0437  2.4404 -2.4546
 9119SOL    HW238994   2.045   0.596   8.957 -0.1787 -0.0154 -0.1319
 9120SOL     OW38995   3.422   0.791  12.752  0.2305  0.0055  0.6802
 9120SOL    HW138996   3.502   0.807  12.802  0.5639 -0.7943  0.4029
 9120SOL    HW238997   3.348   0.813  12.808 -1.4060 -2.9181 -0.3105
 9121SOL     OW38998   2.026   0.539   5.729 -0.1484  0.1370 -0.1548
 9121SOL    HW138999   2.112   0.503   5.752  0.1953  0.6476 -0.6189
 9121SOL    HW239000   1.966   0.479   5.772 -1.2444  0.3396 -1.3754
 9122SOL     OW39001   1.704   3.137   3.631 -0.2099 -0.2523 -0.1661
 9122SOL    HW139002   1.647   3.182   3.568 -0.8956 -1.3158 -0.3084
 9122SOL    HW239003   1.648   3.084   3.688 -1.0758  1.3652  0.4886
 9123SOL     OW39004   0.531   1.572   6.941  0.5972 -0.0100 -0.3159
 9123SOL    HW139005   0.560   1.482   6.927  3.3282  1.0839 -1.5863
 9123SOL    HW239006   0.529   1.576   7.037 -1.4882 -1.1404 -0.3221
 9124SOL     OW39007   0.275   2.768   8.116  0.0585  0.6165 -0.3062
 9124SOL    HW139008   0.355   2.718   8.103 -1.6394 -1.7154 -1.7116
 9124SOL    HW239009   0.255   2.758   8.209 -0.5704 -1.3259 -0.6666
 9125SOL     OW39010   1.114   4.229   3.552 -0.2272  0.2767 -0.0646
 9125SOL    HW139011   1.200   4.257   3.519  0.6293 -0.0247  1.9211
 9125SOL    HW239012   1.071   4.306   3.513 -0.1453  1.0881  1.4559
 9126SOL     OW39013   1.443   1.200  14.375  0.0925  0.5372  0.1626
 9126SOL    HW139014   1.349   1.185  14.381 -0.0361 -0.1449 -3.3052
 9126SOL    HW239015   1.490   1.119  14.355 -1.6939 -0.4553  0.0117
 9127SOL     OW39016   3.542   2.398   8.972  0.7356  0.1321  0.3482
 9127SOL    HW139017   3.541   2.383   9.067 -4.0735 -2.2146 -0.0509
 9127SOL    HW239018   3.512   2.311   8.944 -0.7821  0.4185  1.0805
 9128SOL     OW39019   1.315   3.982   8.051  0.0681  0.1203 -0.3400
 9128SOL    HW139020   1.316   4.038   8.129 -0.8028 -0.3892  0.0408
 9128SOL    HW239021   1.354   3.904   8.090 -1.0708 -0.2516  0.0639
 9129SOL     OW39022   0.707   3.952   6.954  0.0214  0.4148 -0.0956
 9129SOL    HW139023   0.619   3.985   6.937 -0.4177 -0.9528 -0.4276
 9129SOL    HW239024   0.680   3.861   6.962  0.3824  0.3077 -0.0953
 9130SOL     OW39025   1.694   3.703   2.031 -0.3582  0.5321  0.2238
 9130SOL    HW139026   1.609   3.721   2.071 -0.1109 -0.1056  1.0211
 9130SOL    HW239027   1.731   3.791   2.042 -1.4454  0.8990  0.9579
 9131SOL     OW39028   1.064   4.048   6.154 -0.6319  0.1663  0.3415
 9131SOL    HW139029   0.999   4.118   6.155  1.4583  2.0899  0.8070
 9131SOL    HW239030   1.126   4.071   6.085 -0.2830 -0.1010  0.5624
 9132SOL     OW39031   0.618   2.392  16.938  0.3315  0.8010  0.2578
 9132SOL    HW139032   0.626   2.308  16.893  0.7334  1.1757 -0.3823
 9132SOL    HW239033   0.539   2.400  16.991 -0.6868  0.2532 -1.1609
 9133SOL     OW39034   1.345   2.026   7.895 -0.1291  0.5138 -0.0487
 9133SOL    HW139035   1.320   2.005   7.985  0.0937 -1.9729 -0.5599
 9133SOL    HW239036   1.401   2.103   7.910  1.6958 -0.9948  0.8828
 9134SOL     OW39037   1.757   2.555   3.225  0.2067 -0.4480  0.3293
 9134SOL    HW139038   1.681   2.497   3.236 -0.0168 -0.3982 -0.9156
 9134SOL    HW239039   1.718   2.639   3.249  2.3666 -0.4967  3.9847
 9135SOL     OW39040   1.045   3.020   3.158  0.2816  0.0662  0.8824
 9135SOL    HW139041   1.059   3.114   3.170  0.4536  0.2375 -0.7927
 9135SOL    HW239042   0.962   3.012   3.207 -0.2111  1.0475  0.2169
 9136SOL     OW39043   2.575   3.003   9.016 -0.2605 -0.1558 -0.7029
 9136SOL    HW139044   2.614   2.983   8.931 -0.3859 -1.1628 -0.5256
 9136SOL    HW239045   2.655   2.996   9.067 -1.1637  2.3858  1.0574
 9137SOL     OW39046   2.793   1.719   6.386 -0.2008  0.6240 -0.3264
 9137SOL    HW139047   2.877   1.681   6.411 -0.3050  2.4604  2.7701
 9137SOL    HW239048   2.748   1.650   6.338 -1.1990  1.4046 -0.5166
 9138SOL     OW39049   0.675   0.601   9.411  0.1009  0.2697 -0.2964
 9138SOL    HW139050   0.643   0.568   9.327 -0.1639 -1.2241  0.3868
 9138SOL    HW239051   0.738   0.663   9.376  1.5907  0.3521  2.4667
 9139SOL     OW39052   3.132   3.252  11.371  0.1024  0.2969  0.1627
 9139SOL    HW139053   3.075   3.175  11.361 -1.0166  1.1317  0.1408
 9139SOL    HW239054   3.125   3.298  11.288  1.7132 -0.0202 -0.1360
 9140SOL     OW39055   4.724   3.229   4.588  0.4729  0.4510  0.0961
 9140SOL    HW139056   4.648   3.202   4.536 -1.2339  1.2465  2.1934
 9140SOL    HW239057   4.714   3.324   4.589  0.0052  0.3902  0.9256
 9141SOL     OW39058   4.089   4.485   5.196 -0.4543  0.6113  0.2889
 9141SOL    HW139059   4.002   4.445   5.207 -0.7755  1.0763 -0.5440
 9141SOL    HW239060   4.064   4.577   5.187  1.7022  1.0712 -1.0451
 9142SOL     OW39061   4.030   1.018   0.082  0.6872  0.3037 -0.1679
 9142SOL    HW139062   3.990   0.957   0.145  2.3197  0.4778  1.0332
 9142SOL    HW239063   4.066   0.957   0.018  0.0259 -1.4672  1.1380
 9143SOL     OW39064   4.312   3.303   7.327 -0.4052  0.0501  0.7580
 9143SOL    HW139065   4.303   3.211   7.353 -1.8046  0.5105  1.8910
 9143SOL    HW239066   4.233   3.354   7.342 -1.0816 -0.6290 -0.4824
 9144SOL     OW39067   0.862   2.466   5.526 -0.6146 -0.0954  0.2300
 9144SOL    HW139068   0.772   2.494   5.542 -1.3591 -0.6991 -3.0224
 9144SOL    HW239069   0.896   2.549   5.492 -1.5560 -0.3216 -1.2531
 9145SOL     OW39070   4.418   3.138  10.933  0.3716 -0.3602  0.5748
 9145SOL    HW139071   4.351   3.142  10.864 -0.6148  0.8801  1.6153
 9145SOL    HW239072   4.464   3.216  10.902 -0.9399 -0.5426 -1.8859
 9146SOL     OW39073   0.770   2.749   6.693  0.1561 -0.0720 -0.0258
 9146SOL    HW139074   0.733   2.692   6.625  2.2416 -0.6373 -0.6803
 9146SOL    HW239075   0.853   2.771   6.650  1.0013 -2.3186  0.4806
 9147SOL     OW39076   1.860   0.464   3.607 -0.6271  0.1107  0.3549
 9147SOL    HW139077   1.874   0.460   3.701  0.6456 -0.3653  0.1457
 9147SOL    HW239078   1.897   0.548   3.578 -0.0799 -0.5859 -0.9645
 9148SOL     OW39079   0.479   2.501  17.307  0.1401 -0.5025 -0.1932
 9148SOL    HW139080   0.524   2.459  17.381 -2.1073  1.9656  2.6022
 9148SOL    HW239081   0.465   2.591  17.336  0.0959  0.0129 -1.8618
 9149SOL     OW39082   2.563   2.003  11.790 -0.1580 -0.1271  0.3540
 9149SOL    HW139083   2.632   1.969  11.734 -0.0373 -0.9082  0.9750
 9149SOL    HW239084   2.491   1.957  11.748  1.7987 -1.3403 -1.6380
 9150SOL     OW39085   0.149   4.470   5.657 -0.5222  0.5023 -0.5208
 9150SOL    HW139086   0.134   4.521   5.577  2.5375  2.5383  0.1929
 9150SOL    HW239087   0.194   4.537   5.709 -0.4123 -0.4753  0.6336
 9151SOL     OW39088   4.307   3.164   9.524  0.0344 -0.1606 -0.6860
 9151SOL    HW139089   4.372   3.137   9.458 -2.0575  1.3186 -3.3637
 9151SOL    HW239090   4.229   3.121   9.491  0.1856 -0.5888 -0.4915
 9152SOL     OW39091   0.600   3.612   1.905  0.1017 -0.2329  0.2486
 9152SOL    HW139092   0.685   3.649   1.930 -1.5730  3.0501  0.9552
 9152SOL    HW239093   0.536   3.683   1.909 -1.3577 -1.5659  0.5871
 9153SOL     OW39094   2.980   1.995   8.307 -0.6065 -0.3724 -0.3633
 9153SOL    HW139095   3.005   2.059   8.374 -0.8921 -1.5983  0.8953
 9153SOL    HW239096   3.011   1.914   8.348 -0.4432 -0.3103 -0.3633
 9154SOL     OW39097   4.348   1.077   9.022  0.3884  0.2232 -0.9978
 9154SOL    HW139098   4.437   1.044   9.017 -0.6525 -2.9656  1.0758
 9154SOL    HW239099   4.358   1.149   9.085  2.1837 -2.2068  1.4918
 9155SOL     OW39100   3.682   2.510  16.451 -0.6942 -0.2405  0.5858
 9155SOL    HW139101   3.739   2.560  16.393 -0.3048 -0.4781  0.7673
 9155SOL    HW239102   3.627   2.459  16.391  0.3222  0.4351 -0.9440
 9156SOL     OW39103   3.644   3.245   4.615 -0.0824 -0.3643  0.1280
 9156SOL    HW139104   3.573   3.192   4.578 -1.8403  1.4067  0.9514
 9156SOL    HW239105   3.717   3.228   4.556 -0.5539  1.1511 -0.8991
 9157SOL     OW39106   1.635   2.527   8.095  0.0710  0.3894 -0.0737
 9157SOL    HW139107   1.695   2.473   8.146 -0.2250  0.1142 -0.0159
 9157SOL    HW239108   1.559   2.470   8.082  0.2110  0.7637 -2.4330
 9158SOL     OW39109   3.271   1.178  14.317  0.6994  0.0052  0.1791
 9158SOL    HW139110   3.211   1.131  14.259  0.6693 -1.7730  1.6696
 9158SOL    HW239111   3.342   1.119  14.345  0.1766 -0.3896  0.6802
 9159SOL     OW39112   3.362   4.055   5.046 -0.4187  0.2830  0.4443
 9159SOL    HW139113   3.398   4.133   5.087 -0.1189  0.2728  0.2028
 9159SOL    HW239114   3.388   4.068   4.955 -1.4641  0.0231  0.1105
 9160SOL     OW39115   0.023   3.112   3.535  0.2525  0.3308 -0.0618
 9160SOL    HW139116   0.118   3.115   3.521 -0.4142  1.1151 -4.2082
 9160SOL    HW239117   0.010   3.020   3.555 -1.9694  1.1146  2.1097
 9161SOL     OW39118   0.544   1.640   3.111  0.3827  0.0382  0.4119
 9161SOL    HW139119   0.530   1.728   3.145  0.8476 -0.1441  1.0637
 9161SOL    HW239120   0.469   1.589   3.144  1.6877 -0.5102  2.5160
 9162SOL     OW39121   2.321   4.036  15.794 -0.9733 -0.0490  0.1524
 9162SOL    HW139122   2.275   3.953  15.785 -0.2623 -0.2291 -1.7433
 9162SOL    HW239123   2.378   4.027  15.718 -0.5836  0.8633  0.3363
 9163SOL     OW39124   2.719   0.286  12.232 -0.1179  0.0313  0.2000
 9163SOL    HW139125   2.783   0.356  12.223  0.0004  0.1889  2.1721
 9163SOL    HW239126   2.712   0.259  12.141  1.3229  0.1519  0.0411
 9164SOL     OW39127   1.829   3.263   2.379 -0.0372 -0.1356 -0.1809
 9164SOL    HW139128   1.754   3.241   2.323  1.0719  0.7549 -2.0167
 9164SOL    HW239129   1.894   3.282   2.312 -0.0946  1.9584  0.3777
 9165SOL     OW39130   1.146   0.245  15.393 -0.2661 -0.4176 -0.5591
 9165SOL    HW139131   1.191   0.209  15.469 -1.2567  0.2454  0.3534
 9165SOL    HW239132   1.211   0.299  15.348  0.3949 -0.4611  0.3630
 9166SOL     OW39133   3.447   1.999   2.875 -0.2854 -0.2096  0.0401
 9166SOL    HW139134   3.518   2.003   2.939 -1.7255  0.2091  1.5859
 9166SOL    HW239135   3.464   1.910   2.842 -3.8641 -0.8901 -0.0174
 9167SOL     OW39136   3.558   4.080  14.098  0.1704 -0.1224 -0.3347
 9167SOL    HW139137   3.577   4.161  14.052  1.3680  0.3416  0.9872
 9167SOL    HW239138   3.578   4.105  14.189 -1.4729 -0.6639  0.1709
 9168SOL     OW39139   3.096   1.443   1.802 -0.0749 -0.0153 -0.0052
 9168SOL    HW139140   3.053   1.365   1.836  0.3689 -0.0316  0.5156
 9168SOL    HW239141   3.168   1.397   1.758 -0.3648  0.1312 -0.6315
 9169SOL     OW39142   2.728   1.405  12.815 -0.4942  0.1564  0.4123
 9169SOL    HW139143   2.735   1.324  12.865  1.4000 -0.7937 -1.3870
 9169SOL    HW239144   2.784   1.460  12.869  1.8987 -1.4696 -0.4270
 9170SOL     OW39145   2.649   0.826   2.858  0.4062 -0.4098  0.0926
 9170SOL    HW139146   2.689   0.896   2.910 -1.1477  1.4072 -1.1688
 9170SOL    HW239147   2.577   0.800   2.915  1.2556 -0.1055  1.2898
 9171SOL     OW39148   0.471   2.821   3.029  0.3021  0.0909 -0.1801
 9171SOL    HW139149   0.385   2.822   2.986  0.1316  0.2063  0.1665
 9171SOL    HW239150   0.526   2.820   2.950  0.1612  0.9731 -0.2953
 9172SOL     OW39151   3.767   4.594  13.187 -0.3024  0.5157  0.4153
 9172SOL    HW139152   3.854   4.573  13.153 -0.4905  1.7162 -0.7744
 9172SOL    HW239153   3.763   4.527  13.256  0.7761 -0.3247 -0.3214
 9173SOL     OW39154   4.534   0.106   7.994 -0.0386  0.6532  0.1656
 9173SOL    HW139155   4.562   0.123   8.084 -0.9653  0.4961  0.4801
 9173SOL    HW239156   4.523   0.195   7.959  0.6210 -0.0617 -1.8994
 9174SOL     OW39157   4.642   3.757   7.981 -0.2293 -0.2418  0.0708
 9174SOL    HW139158   4.553   3.783   8.003  0.3005  2.2279 -0.7658
 9174SOL    HW239159   4.670   3.842   7.947  1.7687 -1.4689 -1.3305
 9175SOL     OW39160   3.589   0.198   2.458  0.1478 -0.2258  0.3039
 9175SOL    HW139161   3.512   0.206   2.401  1.2654  2.4404 -0.8525
 9175SOL    HW239162   3.580   0.103   2.470 -2.5682  0.0088  0.1151
 9176SOL     OW39163   0.204   0.384  12.284  0.4044 -0.1204 -0.1541
 9176SOL    HW139164   0.143   0.338  12.226 -2.4387  4.2870 -0.6392
 9176SOL    HW239165   0.144   0.416  12.351 -1.9356  1.3783 -3.0333
 9177SOL     OW39166   2.597   3.461   2.785 -0.1430  0.0472 -0.1360
 9177SOL    HW139167   2.595   3.484   2.878  2.5679 -0.1924  0.0008
 9177SOL    HW239168   2.590   3.548   2.747 -2.6485  0.1016  0.4803
 9178SOL     OW39169   2.916   0.066   3.812 -0.4824 -0.5538 -0.1632
 9178SOL    HW139170   2.824   0.054   3.789 -0.7129  0.3710  0.2881
 9178SOL    HW239171   2.934   4.734   3.877  0.9752  0.6957  0.7459
 9179SOL     OW39172   1.219   3.489  16.489  0.2837 -0.2401  0.5162
 9179SOL    HW139173   1.237   3.410  16.539 -1.0905 -0.4252  0.7203
 9179SOL    HW239174   1.128   3.487  16.520 -0.1319  2.0080 -0.5571
 9180SOL     OW39175   2.633   3.775  16.972  0.5596  0.4067 -0.1031
 9180SOL    HW139176   2.632   3.860  17.017 -0.8163  0.7900 -0.8641
 9180SOL    HW239177   2.645   3.719  17.049  0.6326 -0.8739 -1.0543
 9181SOL     OW39178   1.483   3.646   9.013  0.3268  0.1085 -0.5121
 9181SOL    HW139179   1.546   3.648   9.085  0.4400 -0.9823 -0.5841
 9181SOL    HW239180   1.477   3.551   8.998  0.5324 -0.5125  3.2214
 9182SOL     OW39181   2.152   0.195   4.246 -0.3845 -0.1822  0.0832
 9182SOL    HW139182   2.207   0.189   4.324 -1.8005  0.5848  1.1429
 9182SOL    HW239183   2.101   0.264   4.288 -0.3697  1.4843 -2.6502
 9183SOL     OW39184   2.919   4.069  10.032 -0.1399  0.3408  0.1845
 9183SOL    HW139185   2.871   4.088  10.113  2.3075 -0.8016  1.8699
 9183SOL    HW239186   2.859   4.114   9.972  2.6314  2.4391 -0.9914
 9184SOL     OW39187   3.502   2.085  16.244 -0.2305  0.2252  0.2233
 9184SOL    HW139188   3.534   2.049  16.327  0.1169 -0.2537 -0.1180
 9184SOL    HW239189   3.449   2.009  16.222 -0.9633  0.6932  0.3599
 9185SOL     OW39190   0.200   0.541   7.137 -0.0804  0.4359  0.2720
 9185SOL    HW139191   0.179   0.539   7.044  2.6379 -0.1020 -0.3464
 9185SOL    HW239192   0.288   0.579   7.127  0.1387  0.3153  1.6611
 9186SOL     OW39193   2.783   2.351  12.334  0.0338  0.3551  0.3893
 9186SOL    HW139194   2.719   2.380  12.399 -0.3311 -1.0522  0.6612
 9186SOL    HW239195   2.827   2.434  12.313 -1.2238  0.7121 -0.8469
 9187SOL     OW39196   3.518   4.166   7.241 -0.6358 -0.2390 -0.8207
 9187SOL    HW139197   3.434   4.204   7.267 -0.6716 -1.7689  1.3547
 9187SOL    HW239198   3.570   4.246   7.228 -0.3120 -0.5532 -1.4453
 9188SOL     OW39199   2.488   4.304  13.845 -0.0333 -0.3296  0.6919
 9188SOL    HW139200   2.566   4.277  13.796 -1.3793 -3.4246  0.3068
 9188SOL    HW239201   2.500   4.237  13.912 -1.9142 -2.0263 -0.6506
 9189SOL     OW39202   3.038   4.015   0.759 -0.0333  0.5241  0.3204
 9189SOL    HW139203   3.008   3.970   0.838 -0.1149  0.2654  0.1416
 9189SOL    HW239204   3.026   4.107   0.785 -2.6524  0.6058 -1.1390
 9190SOL     OW39205   1.645   1.960   3.654  0.4277 -0.4575  0.0650
 9190SOL    HW139206   1.705   2.035   3.657 -0.9931  0.6713  0.2007
 9190SOL    HW239207   1.665   1.921   3.569 -0.9007 -0.0050 -0.4481
 9191SOL     OW39208   2.139   4.472  12.567 -0.0511  0.0652 -0.0318
 9191SOL    HW139209   2.052   4.431  12.570  0.4711 -1.1481 -1.3597
 9191SOL    HW239210   2.119   4.561  12.537 -2.2139 -0.2693  0.3944
 9192SOL     OW39211   0.463   4.411   9.033 -0.3432  0.2813 -0.5213
 9192SOL    HW139212   0.422   4.481   8.982  0.0598  0.2661 -0.8679
 9192SOL    HW239213   0.434   4.348   8.968  0.5994  1.4324 -2.0756
 9193SOL     OW39214   2.631   3.379   5.717 -0.2050  0.2998 -0.4965
 9193SOL    HW139215   2.718   3.357   5.749 -0.4575  3.7935  2.5946
 9193SOL    HW239216   2.610   3.292   5.683  1.4064 -0.3541  0.2023
 9194SOL     OW39217   3.952   0.444   6.667 -0.2900 -0.1148  0.0765
 9194SOL    HW139218   3.952   0.455   6.762  0.1911 -0.8009  0.1554
 9194SOL    HW239219   4.043   0.420   6.648 -0.4586 -0.4962 -0.2420
 9195SOL     OW39220   3.683   2.145   4.692  0.3172  0.1748  0.0153
 9195SOL    HW139221   3.653   2.114   4.606  1.8984 -1.6759  0.1303
 9195SOL    HW239222   3.643   2.232   4.703  1.4707  0.6452  0.5376
 9196SOL     OW39223   2.188   0.921   8.961 -0.5189 -0.3206  0.3209
 9196SOL    HW139224   2.201   0.871   9.043  2.4048 -1.0258 -0.5423
 9196SOL    HW239225   2.185   1.008   9.000  1.9409 -0.4750  0.8721
 9197SOL     OW39226   2.235   2.511   5.631 -0.2758  0.4931  0.1553
 9197SOL    HW139227   2.174   2.586   5.631 -0.1007  0.6326  0.4428
 9197SOL    HW239228   2.243   2.503   5.536  2.5205  0.1969  0.4386
 9198SOL     OW39229   1.836   2.375   2.162 -0.2321  0.0668 -0.2113
 9198SOL    HW139230   1.760   2.430   2.183  0.3476  1.3068 -1.3574
 9198SOL    HW239231   1.816   2.344   2.073 -1.3554 -1.0610  0.4380
 9199SOL     OW39232   2.745   2.343  12.654 -0.5733 -0.2413  0.1286
 9199SOL    HW139233   2.699   2.364  12.573  0.6432  1.7047 -0.0507
 9199SOL    HW239234   2.690   2.276  12.694 -0.1626  0.6647  2.2221
 9200SOL     OW39235   2.380   4.382  15.218  0.2463  0.2098  0.4569
 9200SOL    HW139236   2.453   4.421  15.169 -0.7288  1.9283  0.3717
 9200SOL    HW239237   2.332   4.330  15.154 -0.8310 -0.4788  1.8154
 9201SOL     OW39238   2.877   3.726   4.720  0.3097 -0.0681 -0.0286
 9201SOL    HW139239   2.786   3.738   4.695  0.5548  0.3843 -0.7063
 9201SOL    HW239240   2.884   3.796   4.784  0.0351  0.0241 -0.1009
 9202SOL     OW39241   3.680   4.637   6.357 -0.6461  0.1596  0.2411
 9202SOL    HW139242   3.647   4.568   6.415  0.3944 -0.8893 -0.3963
 9202SOL    HW239243   3.748   4.590   6.309 -1.8426 -1.1354 -0.1844
 9203SOL     OW39244   1.246   1.503  17.280 -0.0102  0.2015  0.3813
 9203SOL    HW139245   1.247   1.472  17.370  2.5445 -0.5521  0.1168
 9203SOL    HW239246   1.228   1.597  17.285 -0.5131  0.1054  0.3572
 9204SOL     OW39247   2.760   0.474   6.676 -0.5830 -0.0160  0.2855
 9204SOL    HW139248   2.717   0.400   6.635  1.1096 -1.7460  1.6233
 9204SOL    HW239249   2.822   0.521   6.619  0.6969 -1.8406  0.1728
 9205SOL     OW39250   1.583   2.468   2.690 -0.0048  0.1784 -0.6658
 9205SOL    HW139251   1.606   2.423   2.771  0.4835  0.4874 -0.6289
 9205SOL    HW239252   1.652   2.535   2.693 -0.1393  0.4220 -2.6430
 9206SOL     OW39253   0.305   1.056   2.717 -0.0841  0.4857  0.4958
 9206SOL    HW139254   0.396   1.083   2.731 -0.5206  2.2120 -0.0119
 9206SOL    HW239255   0.287   1.067   2.810 -1.0849  3.0500 -0.0248
 9207SOL     OW39256   1.457   2.402   0.393 -0.0828 -0.3434 -0.1986
 9207SOL    HW139257   1.466   2.469   0.325  0.3219 -2.1116 -1.8863
 9207SOL    HW239258   1.372   2.420   0.433 -0.3281  3.3445 -2.3067
 9208SOL     OW39259   2.477   2.210   4.355 -0.3664  0.4476 -0.5424
 9208SOL    HW139260   2.478   2.220   4.259  0.2860 -0.5607 -0.6448
 9208SOL    HW239261   2.536   2.276   4.392 -0.6386  2.2067 -3.2280
 9209SOL     OW39262   2.030   0.602   7.290 -0.2901  0.0192  0.5142
 9209SOL    HW139263   1.962   0.669   7.303 -0.2538  0.1513  0.0380
 9209SOL    HW239264   2.090   0.660   7.244 -0.0015 -0.1739  0.6455
 9210SOL     OW39265   1.843   4.421   8.474 -0.7308  0.1348 -0.5879
 9210SOL    HW139266   1.883   4.353   8.419 -1.9605 -1.4900  0.5221
 9210SOL    HW239267   1.921   4.448   8.524 -3.1109  2.5428  1.8426
 9211SOL     OW39268   2.969   3.277   8.156 -0.5806  0.0317  0.8124
 9211SOL    HW139269   3.013   3.355   8.123 -1.1084 -0.8128 -1.9264
 9211SOL    HW239270   3.038   3.211   8.146 -0.9347  0.3738 -3.7699
 9212SOL     OW39271   2.567   2.028   7.269 -0.4685 -0.0168 -0.6782
 9212SOL    HW139272   2.620   1.980   7.207  0.6091  0.7519 -0.3542
 9212SOL    HW239273   2.630   2.038   7.341 -1.7451 -1.4543  0.6379
 9213SOL     OW39274   2.677   3.263  10.062  0.0632 -0.1199 -0.3754
 9213SOL    HW139275   2.632   3.180  10.076 -0.8261  0.7186  1.6930
 9213SOL    HW239276   2.716   3.262   9.974  2.2800  2.6607  0.5797
 9214SOL     OW39277   4.686   0.260   5.633  0.3864  0.1291 -0.1429
 9214SOL    HW139278   4.714   0.348   5.657 -2.4301  0.8232  0.5554
 9214SOL    HW239279   0.028   0.205   5.644  0.3986  0.1018 -0.3621
 9215SOL     OW39280   1.646   2.064  11.284  0.6929  0.6991 -0.2223
 9215SOL    HW139281   1.564   2.077  11.236 -0.6448 -0.0799  1.8530
 9215SOL    HW239282   1.679   2.153  11.300 -2.7400  2.2458 -1.5904
 9216SOL     OW39283   3.500   2.587  16.664  0.4951 -0.3288  0.0180
 9216SOL    HW139284   3.540   2.567  16.579  0.9146  2.2784 -0.3832
 9216SOL    HW239285   3.575   2.633  16.702  1.4862 -2.6314  0.8786
 9217SOL     OW39286   2.141   3.516   6.841  0.7379 -0.5060  0.0211
 9217SOL    HW139287   2.188   3.576   6.783  1.7576  0.3282  1.6963
 9217SOL    HW239288   2.204   3.510   6.913 -0.2612  1.1878  1.0308
 9218SOL     OW39289   3.291   0.721   8.286  0.2453  0.4360 -0.3962
 9218SOL    HW139290   3.212   0.764   8.251 -0.1591 -0.3216 -0.4204
 9218SOL    HW239291   3.323   0.793   8.340 -1.8209 -0.7117  2.3650
 9219SOL     OW39292   3.980   4.182   4.522 -0.0634 -0.3306  0.3319
 9219SOL    HW139293   4.050   4.154   4.582  1.4358  1.5342 -0.5446
 9219SOL    HW239294   3.999   4.276   4.514  0.1601 -0.4701 -0.7231
 9220SOL     OW39295   1.359   3.243   9.183 -0.1074 -0.3018  0.3562
 9220SOL    HW139296   1.319   3.317   9.137 -0.1942  0.5093  1.7157
 9220SOL    HW239297   1.401   3.281   9.260 -0.8656  1.3912 -0.0579
 9221SOL     OW39298   2.361   2.437   4.639  0.1601  0.3477  0.3388
 9221SOL    HW139299   2.325   2.424   4.551  0.5621  0.6210  0.1383
 9221SOL    HW239300   2.283   2.481   4.673  0.7811  1.0184  0.8831
 9222SOL     OW39301   1.760   0.045  12.621  0.7251  0.4524 -0.2539
 9222SOL    HW139302   1.761   4.694  12.580 -0.7530  0.1364  0.3575
 9222SOL    HW239303   1.728   0.019  12.708  0.3378  0.2198 -0.4636
 9223SOL     OW39304   1.236   2.005  13.138 -0.1181  0.0030 -0.3335
 9223SOL    HW139305   1.255   1.951  13.215  2.1935 -0.5627 -1.2927
 9223SOL    HW239306   1.186   2.078  13.172  1.1086  0.6304  0.1060
 9224SOL     OW39307   1.658   3.179   9.061 -0.3066  0.5055  0.3573
 9224SOL    HW139308   1.587   3.180   9.125  0.2631 -0.6388  1.0167
 9224SOL    HW239309   1.701   3.095   9.077  2.5325  2.5998  3.6543
 9225SOL     OW39310   0.470   1.704   4.112  0.1449 -0.0313 -0.0021
 9225SOL    HW139311   0.503   1.762   4.181 -1.0416  1.1729 -0.4489
 9225SOL    HW239312   0.437   1.771   4.052  2.1675 -0.0401 -1.1090
 9226SOL     OW39313   4.250   4.693   4.963  0.0371  0.0835 -0.0204
 9226SOL    HW139314   4.289   0.003   4.889 -0.3374 -0.8514 -0.8120
 9226SOL    HW239315   4.165   4.735   4.978  0.0198  0.0906 -0.1385
 9227SOL     OW39316   1.385   1.225  17.001  0.2284 -0.0787  0.3183
 9227SOL    HW139317   1.449   1.270  17.055 -1.0803  1.8734  0.2374
 9227SOL    HW239318   1.426   1.224  16.914 -1.4632  2.9509 -0.5143
 9228SOL     OW39319   2.976   0.147  10.939  0.5709  0.4747  0.3166
 9228SOL    HW139320   3.061   0.162  10.980  2.3204 -1.8707 -2.4445
 9228SOL    HW239321   2.926   0.227  10.952 -1.5221 -1.1537  2.2612
 9229SOL     OW39322   2.494   3.687  15.328  0.1211  0.2784  0.1047
 9229SOL    HW139323   2.514   3.594  15.341  1.9302  0.3826 -1.8994
 9229SOL    HW239324   2.430   3.670  15.259  1.7051  0.1076 -1.2978
 9230SOL     OW39325   1.995   2.924   5.034  0.0235 -0.2192 -1.1604
 9230SOL    HW139326   1.933   2.937   5.106 -1.4890  1.9401 -2.8440
 9230SOL    HW239327   1.945   2.947   4.956 -0.9072 -0.0068 -0.4989
 9231SOL     OW39328   4.006   1.022   6.541 -0.0351  0.5549 -0.0326
 9231SOL    HW139329   4.069   1.041   6.611  0.9023  0.9912 -0.9937
 9231SOL    HW239330   3.970   0.935   6.559  1.3931 -0.1095 -0.3095
 9232SOL     OW39331   1.295   3.649   5.286  0.0931 -0.0336  0.1676
 9232SOL    HW139332   1.262   3.599   5.211 -1.7709  1.3228  0.0828
 9232SOL    HW239333   1.232   3.721   5.286 -3.4699 -3.1632  1.0079
 9233SOL     OW39334   4.087   4.029  15.134 -0.0223  0.3388  0.3538
 9233SOL    HW139335   4.117   4.115  15.165 -0.3758  0.4334  0.4250
 9233SOL    HW239336   4.001   4.045  15.097  0.2329  1.4638  0.2500
 9234SOL     OW39337   0.709   4.187   5.365 -0.1284 -0.1795 -0.3721
 9234SOL    HW139338   0.684   4.210   5.276  1.8363 -0.6678 -1.0432
 9234SOL    HW239339   0.627   4.148   5.397 -0.4834 -2.3522 -3.9214
 9235SOL     OW39340   1.289   0.179   1.211  0.3018 -0.0822  0.0460
 9235SOL    HW139341   1.326   0.247   1.155  0.5516  0.4023  0.8170
 9235SOL    HW239342   1.251   0.125   1.141 -1.0150 -1.3372  1.7441
 9236SOL     OW39343   4.187   1.710   1.973  0.3515  0.5004  0.0561
 9236SOL    HW139344   4.174   1.727   2.066 -0.8524  0.8831 -0.1830
 9236SOL    HW239345   4.239   1.629   1.972  1.5399  1.2580  0.0612
 9237SOL     OW39346   2.894   1.231  12.630 -0.4243 -0.5646  0.3483
 9237SOL    HW139347   2.814   1.270  12.666 -0.2086  2.0980 -2.0722
 9237SOL    HW239348   2.968   1.285  12.656 -0.1332 -0.8883  0.1812
 9238SOL     OW39349   2.013   0.896  14.274 -0.5900 -0.5481  0.2222
 9238SOL    HW139350   2.023   0.991  14.286  0.1371 -0.6202  0.1992
 9238SOL    HW239351   2.061   0.858  14.347 -0.7944  0.3338  0.8135
 9239SOL     OW39352   1.194   0.401   4.032 -0.4898 -0.3296  0.1604
 9239SOL    HW139353   1.195   0.462   3.958  0.9097  0.9253  1.2072
 9239SOL    HW239354   1.100   0.389   4.044 -0.5687  1.1722  0.9929
 9240SOL     OW39355   3.452   2.766   6.939 -0.1329  0.0169 -0.8530
 9240SOL    HW139356   3.491   2.699   6.995 -0.4775  0.1146 -0.4967
 9240SOL    HW239357   3.442   2.719   6.856 -1.5406  0.4214 -0.9151
 9241SOL     OW39358   0.224   3.174   9.065  0.1292 -0.3057 -0.0276
 9241SOL    HW139359   0.276   3.115   9.120 -0.6481 -1.9887 -1.0834
 9241SOL    HW239360   0.247   3.262   9.096 -0.4852  0.0019 -0.4368
 9242SOL     OW39361   2.863   2.141   5.169  0.0901 -0.8057 -0.4210
 9242SOL    HW139362   2.871   2.236   5.177  1.2135 -1.2686  3.7279
 9242SOL    HW239363   2.790   2.129   5.230  0.9965 -0.8479  0.6421
 9243SOL     OW39364   1.154   4.009   1.180  0.1611  0.4860  0.3500
 9243SOL    HW139365   1.137   3.938   1.242  0.4900  0.2517  0.1760
 9243SOL    HW239366   1.248   4.025   1.183  0.1916  0.2387  0.8144
 9244SOL     OW39367   3.582   1.610  13.366  0.1193 -0.1208 -0.5137
 9244SOL    HW139368   3.674   1.632  13.381 -0.3109 -0.8219  3.2023
 9244SOL    HW239369   3.564   1.542  13.431 -0.7212  1.2165  0.6588
 9245SOL     OW39370   4.550   0.027   5.386  0.4051  0.0718  0.0707
 9245SOL    HW139371   4.481   0.050   5.324 -0.5550 -2.3655  0.2604
 9245SOL    HW239372   4.572   0.110   5.429 -1.8304  0.6735  0.0461
 9246SOL     OW39373   3.049   0.897   9.505 -0.2331  0.7078 -0.1676
 9246SOL    HW139374   3.132   0.859   9.534 -0.5189  0.0945 -0.1679
 9246SOL    HW239375   3.033   0.856   9.420 -0.4066  0.8145 -0.1858
 9247SOL     OW39376   1.121   0.071   4.027  0.5879 -0.3496 -0.3392
 9247SOL    HW139377   1.091   4.719   4.002  2.5043 -0.9075 -0.6911
 9247SOL    HW239378   1.081   0.123   3.957  1.2851 -0.5466 -0.8817
 9248SOL     OW39379   3.049   2.322   3.958 -0.2173  0.0575 -0.0848
 9248SOL    HW139380   2.978   2.266   3.990 -0.2118 -0.9836 -1.9287
 9248SOL    HW239381   3.126   2.282   3.998  1.1665  1.2445 -1.5690
 9249SOL     OW39382   0.739   2.147   8.878 -0.3772 -0.0532 -0.0692
 9249SOL    HW139383   0.710   2.102   8.799 -0.4717 -1.0851  0.5561
 9249SOL    HW239384   0.764   2.231   8.840  1.9283 -1.6850 -2.1546
 9250SOL     OW39385   4.089   2.504  12.286 -0.0288  0.2139 -0.0607
 9250SOL    HW139386   4.122   2.422  12.322 -0.7812  0.1003  0.3812
 9250SOL    HW239387   4.066   2.472  12.199 -1.4320  2.1593 -0.4124
 9251SOL     OW39388   3.113   4.644   9.504  0.0066 -0.6753 -0.7251
 9251SOL    HW139389   3.193   4.682   9.539 -1.1833 -0.2827  1.5228
 9251SOL    HW239390   3.067   4.635   9.587  0.1254  1.9130 -0.3625
 9252SOL     OW39391   2.730   2.398  10.639 -0.1286 -0.1039  0.4288
 9252SOL    HW139392   2.685   2.320  10.669 -1.9511 -0.3903 -3.0063
 9252SOL    HW239393   2.816   2.361  10.620  0.9482  2.1236  0.9141
 9253SOL     OW39394   2.269   3.190  17.631 -0.5644  0.4135 -0.0451
 9253SOL    HW139395   2.302   3.162  17.716  1.1691 -1.7903 -1.4576
 9253SOL    HW239396   2.350   3.180  17.581 -0.8795  0.9113 -0.6672
 9254SOL     OW39397   2.965   3.763   2.596 -0.4038  0.0214 -0.6011
 9254SOL    HW139398   3.061   3.762   2.597 -0.3856  2.5022 -0.0140
 9254SOL    HW239399   2.963   3.798   2.507  0.3907  0.7190 -0.3483
 9255SOL     OW39400   4.214   2.023  11.597 -0.8780 -0.1106  0.2023
 9255SOL    HW139401   4.306   2.018  11.623 -0.6345  0.4477 -0.5656
 9255SOL    HW239402   4.175   2.036  11.684 -0.8259  2.8606 -0.2224
 9256SOL     OW39403   1.215   1.472   8.091  0.4986 -0.1893  0.4264
 9256SOL    HW139404   1.148   1.502   8.153  1.5866 -0.6406  1.8034
 9256SOL    HW239405   1.253   1.557   8.068  0.8803 -0.1365  1.2423
 9257SOL     OW39406   3.688   0.681   6.594  0.1347  0.2681 -0.6677
 9257SOL    HW139407   3.638   0.628   6.655 -0.2055 -0.1056 -1.2682
 9257SOL    HW239408   3.625   0.673   6.522  0.2666 -0.1743 -0.7344
 9258SOL     OW39409   3.731   2.239   2.432 -0.0225 -0.3864 -0.0529
 9258SOL    HW139410   3.652   2.272   2.390  0.4247  1.1743  0.3466
 9258SOL    HW239411   3.772   2.181   2.368  1.1214  1.9498 -1.4293
 9259SOL     OW39412   1.200   1.102   5.665 -0.1173 -0.0090 -0.1868
 9259SOL    HW139413   1.110   1.086   5.639  0.8983 -3.5149 -1.5935
 9259SOL    HW239414   1.231   1.011   5.674 -1.1702 -0.3195  0.2317
 9260SOL     OW39415   4.525   0.731   1.063  0.4422 -0.2226 -0.0901
 9260SOL    HW139416   4.575   0.810   1.081 -1.2122  0.6657  0.5605
 9260SOL    HW239417   4.587   0.679   1.115  0.2051  0.3388  0.7539
 9261SOL     OW39418   1.112   3.812   3.685 -0.3453 -0.0644  0.0383
 9261SOL    HW139419   1.033   3.857   3.656 -0.1865 -0.0179 -0.3315
 9261SOL    HW239420   1.177   3.838   3.619 -0.7818  0.7141 -0.0876
 9262SOL     OW39421   3.970   4.340   8.860 -0.6250 -0.2673  0.7399
 9262SOL    HW139422   3.928   4.256   8.847  1.5853 -1.6541  2.4248
 9262SOL    HW239423   4.031   4.339   8.787 -1.3870  3.6604  0.0436
 9263SOL     OW39424   2.641   2.903   7.159 -0.1075 -0.0949  0.0965
 9263SOL    HW139425   2.551   2.880   7.133 -0.0438  2.1886 -2.1444
 9263SOL    HW239426   2.665   2.851   7.236 -0.3835  0.0455  0.2759
 9264SOL     OW39427   4.280   3.475   7.626 -0.5395 -0.4117 -0.0809
 9264SOL    HW139428   4.234   3.494   7.545 -0.0402  2.1516  0.2382
 9264SOL    HW239429   4.212   3.491   7.691 -0.3952 -1.6435  0.3700
 9265SOL     OW39430   0.790   4.205  13.946 -0.4066  0.2751 -0.5601
 9265SOL    HW139431   0.696   4.221  13.953 -0.3524 -0.0872  1.2438
 9265SOL    HW239432   0.796   4.115  13.913 -0.0422 -0.1397  0.5985
 9266SOL     OW39433   0.871   3.039   2.065 -0.2541 -0.7999  0.1892
 9266SOL    HW139434   0.785   3.062   2.031  0.5384  0.2001 -1.1172
 9266SOL    HW239435   0.913   3.124   2.080 -0.2796 -0.7626  0.0430
 9267SOL     OW39436   3.372   2.695  13.173  0.0566  0.2393 -0.1267
 9267SOL    HW139437   3.393   2.781  13.210 -2.2502 -0.0023  1.7589
 9267SOL    HW239438   3.337   2.727  13.090  1.0930  0.4028 -0.5012
 9268SOL     OW39439   1.807   3.886   1.063  0.1514 -0.1895  0.0899
 9268SOL    HW139440   1.827   3.807   1.013 -1.4792 -1.5187  1.5143
 9268SOL    HW239441   1.714   3.874   1.084  0.8299 -0.8363  2.6624
 9269SOL     OW39442   0.456   4.204   9.706 -0.1578 -0.4601 -0.0033
 9269SOL    HW139443   0.496   4.222   9.791  0.2843  0.8248 -0.4949
 9269SOL    HW239444   0.376   4.159   9.732  0.5109 -0.4291  2.1096
 9270SOL     OW39445   0.394   0.370  12.830 -0.1899 -0.1804 -0.6068
 9270SOL    HW139446   0.484   0.403  12.828  0.6073 -2.3136  0.8332
 9270SOL    HW239447   0.420   0.280  12.849  0.8651 -0.0577 -1.4508
 9271SOL     OW39448   1.855   0.942   5.222 -0.0510  0.4342 -0.3818
 9271SOL    HW139449   1.870   0.885   5.146  0.3775 -1.4524  1.1256
 9271SOL    HW239450   1.776   0.988   5.194 -0.2216  0.6938  0.5141
 9272SOL     OW39451   0.104   1.054   7.889 -0.1775 -0.4369  0.3014
 9272SOL    HW139452   0.072   1.135   7.929  0.5516 -0.0892  0.1907
 9272SOL    HW239453   0.026   1.029   7.840 -0.3768 -0.8954  0.8571
 9273SOL     OW39454   2.610   1.648  16.934 -0.9646 -0.1798 -0.1223
 9273SOL    HW139455   2.677   1.616  16.874  0.1798  1.2954  0.3660
 9273SOL    HW239456   2.641   1.731  16.971 -0.2864 -0.4408 -0.1177
 9274SOL     OW39457   2.066   2.945   9.242  0.6727  0.2296 -0.6456
 9274SOL    HW139458   2.139   2.898   9.202 -0.1962 -2.0348  0.4227
 9274SOL    HW239459   2.052   2.897   9.323 -1.8247  2.6647  0.3632
 9275SOL     OW39460   1.926   2.097   5.484 -0.2446  0.0295  0.3856
 9275SOL    HW139461   1.981   2.020   5.467 -0.3318  0.0866 -0.1296
 9275SOL    HW239462   1.902   2.088   5.576  0.0281 -2.4469  0.2109
 9276SOL     OW39463   2.950   1.885   1.092  0.0714  0.0490  0.0666
 9276SOL    HW139464   2.917   1.972   1.071  1.1257  0.1768 -1.0657
 9276SOL    HW239465   2.890   1.860   1.162  0.2364  0.7667  0.4690
 9277SOL     OW39466   3.989   2.315   2.586  0.5558  0.3515  0.0945
 9277SOL    HW139467   3.939   2.269   2.520 -2.3597  3.5643  0.0510
 9277SOL    HW239468   4.010   2.233   2.630  0.6677 -0.1261 -0.8537
 9278SOL     OW39469   4.088   2.558   8.387  0.1455  0.6209 -0.0913
 9278SOL    HW139470   4.028   2.555   8.462  0.1390  1.6691 -0.0613
 9278SOL    HW239471   4.060   2.644   8.355 -1.0557  0.7712  1.3604
 9279SOL     OW39472   3.130   0.901   6.849  0.2855 -0.3469 -0.4674
 9279SOL    HW139473   3.129   0.927   6.941 -1.5305 -0.4661 -0.4473
 9279SOL    HW239474   3.137   0.980   6.796 -2.5790  0.4568  0.3626
 9280SOL     OW39475   2.413   2.701   6.729 -0.4539 -0.1654 -0.3512
 9280SOL    HW139476   2.437   2.631   6.668  0.1182  0.6679 -1.0840
 9280SOL    HW239477   2.495   2.751   6.733 -0.8644  0.4392  0.5324
 9281SOL     OW39478   0.157   1.137   2.246  0.3322 -0.2234 -0.2583
 9281SOL    HW139479   0.076   1.189   2.249  1.1722  1.0167  0.6319
 9281SOL    HW239480   0.139   1.073   2.315  2.9393  0.0243  0.6367
 9282SOL     OW39481   2.522   2.493   3.056  0.2394 -0.2692  0.2145
 9282SOL    HW139482   2.473   2.541   2.990  0.2704 -0.0403  0.3600
 9282SOL    HW239483   2.614   2.520   3.058  0.1094  0.2934 -1.4864
 9283SOL     OW39484   2.501   0.412   2.027 -0.1185  0.0929 -0.0931
 9283SOL    HW139485   2.443   0.340   2.004 -0.5501  0.4455 -0.0971
 9283SOL    HW239486   2.565   0.378   2.089  0.5568 -0.5803 -1.1521
 9284SOL     OW39487   2.538   2.394   7.339 -0.1227  0.0541 -0.3029
 9284SOL    HW139488   2.622   2.348   7.338  0.2108  0.6789 -0.8135
 9284SOL    HW239489   2.552   2.475   7.388  1.3019  0.1138 -0.8323
 9285SOL     OW39490   2.881   4.692  13.044 -0.1375  0.4172  0.3786
 9285SOL    HW139491   2.949   4.679  13.110  1.7795  1.0931 -1.4515
 9285SOL    HW239492   2.873   4.600  13.021  0.0547  0.5651 -0.2806
 9286SOL     OW39493   1.508   2.934  17.145 -0.3967  0.2304 -0.1136
 9286SOL    HW139494   1.495   3.013  17.197 -1.3786 -0.1106  0.1558
 9286SOL    HW239495   1.532   2.876  17.216 -1.6712 -0.1518  0.0067
 9287SOL     OW39496   2.313   4.280  17.610 -0.1352 -0.6349  0.1082
 9287SOL    HW139497   2.295   4.373  17.617  2.2788 -0.1532 -0.3576
 9287SOL    HW239498   2.227   4.236  17.610 -0.0005 -0.9043 -2.0269
 9288SOL     OW39499   2.522   2.448  17.006  0.6066  0.3527  0.1120
 9288SOL    HW139500   2.478   2.412  16.929  3.0096  0.1744 -1.1970
 9288SOL    HW239501   2.447   2.472  17.060 -0.8416  1.7764 -2.5335
 9289SOL     OW39502   1.617   4.130  12.593 -0.2472  0.0432 -0.1870
 9289SOL    HW139503   1.622   4.038  12.567  3.9687  0.0197  0.6356
 9289SOL    HW239504   1.607   4.179  12.511 -1.4261  0.1227  0.0085
 9290SOL     OW39505   4.400   3.509  13.709 -0.4566 -0.5204 -0.0864
 9290SOL    HW139506   4.411   3.600  13.736  1.4700 -0.1327 -2.1619
 9290SOL    HW239507   4.318   3.484  13.751 -0.0723 -1.5744  0.0384
 9291SOL     OW39508   3.173   4.563   6.270 -0.6655 -0.5240 -0.0114
 9291SOL    HW139509   3.081   4.586   6.264 -0.0694  1.9685  0.4223
 9291SOL    HW239510   3.211   4.637   6.317 -2.5597  0.2031  0.3780
 9292SOL     OW39511   4.657   0.760   3.046  0.2297  0.5759  0.8987
 9292SOL    HW139512   4.590   0.691   3.046 -0.8196  1.5832  1.7262
 9292SOL    HW239513   4.699   0.739   2.963  1.4110 -0.1157  1.6737
 9293SOL     OW39514   4.673   2.262   3.730  0.0801 -0.4641  0.0297
 9293SOL    HW139515   0.001   2.216   3.676  0.4679  2.6669 -2.1574
 9293SOL    HW239516   4.703   2.237   3.817  0.9231  1.0807  0.1830
 9294SOL     OW39517   3.445   3.159  17.577 -0.3543 -0.2591 -0.6038
 9294SOL    HW139518   3.499   3.233  17.551  0.3164 -1.0608 -1.4876
 9294SOL    HW239519   3.502   3.089  17.545 -0.2780 -0.3104 -0.3596
 9295SOL     OW39520   2.813   2.325   7.352  0.0081  0.0884 -0.5686
 9295SOL    HW139521   2.798   2.411   7.314 -1.4500 -0.2499 -0.7567
 9295SOL    HW239522   2.884   2.290   7.298  0.0999 -0.7249  0.0771
 9296SOL     OW39523   4.556   3.448   1.552  0.7002 -0.2111  0.0576
 9296SOL    HW139524   4.512   3.421   1.633  1.3336 -0.8208  0.2060
 9296SOL    HW239525   4.568   3.364   1.508 -2.4789  0.8860 -2.8878
 9297SOL     OW39526   4.347   4.353   9.455  0.2216 -0.8009 -0.1022
 9297SOL    HW139527   4.395   4.297   9.394  0.5324 -0.2379 -0.3685
 9297SOL    HW239528   4.373   4.315   9.539  1.5740  0.0297 -0.1468
 9298SOL     OW39529   3.770   0.248   6.678 -0.0744 -0.5258 -0.0192
 9298SOL    HW139530   3.836   0.316   6.693 -0.3786 -0.0277 -0.9186
 9298SOL    HW239531   3.779   0.235   6.583  0.7510  1.3424 -0.2003
 9299SOL     OW39532   2.306   3.926   6.946  0.0948  0.0531  0.0432
 9299SOL    HW139533   2.247   3.927   7.022  0.5607 -2.2673  0.4248
 9299SOL    HW239534   2.250   3.888   6.878  0.3187 -3.6432  1.9394
 9300SOL     OW39535   2.652   0.801  13.936 -0.1069 -0.4648 -0.4728
 9300SOL    HW139536   2.638   0.873  13.875 -0.3198  2.5406  3.1241
 9300SOL    HW239537   2.666   0.852  14.015  1.7245  1.8162 -2.2494
 9301SOL     OW39538   0.500   3.733   2.788  0.0809  0.8364 -0.6049
 9301SOL    HW139539   0.559   3.726   2.863 -0.5941  1.5249 -0.0192
 9301SOL    HW239540   0.418   3.695   2.821 -0.4615  0.8689 -1.9143
 9302SOL     OW39541   0.570   3.153   8.577 -0.1249  0.0698  0.4780
 9302SOL    HW139542   0.546   3.085   8.639  3.4861 -2.9281 -1.3831
 9302SOL    HW239543   0.524   3.127   8.498  0.6714  0.6507 -0.1784
 9303SOL     OW39544   3.872   4.466   1.481  0.6543  0.2415  0.2708
 9303SOL    HW139545   3.884   4.561   1.481  1.9025  0.0835  1.8920
 9303SOL    HW239546   3.864   4.448   1.574  1.8094  2.5084  0.8155
 9304SOL     OW39547   1.761   1.024   6.678 -0.0861 -0.2698 -0.1119
 9304SOL    HW139548   1.680   1.047   6.632  0.0498 -0.6331 -0.5347
 9304SOL    HW239549   1.796   1.109   6.703 -2.1702  0.6932 -0.4797
 9305SOL     OW39550   2.574   4.422   4.305  0.5530 -0.2059 -0.1024
 9305SOL    HW139551   2.537   4.338   4.279 -0.6536 -0.0675  1.1779
 9305SOL    HW239552   2.501   4.472   4.269  0.4634 -0.4266 -0.2312
 9306SOL     OW39553   4.474   2.028   1.455 -0.0178 -0.1196 -0.4948
 9306SOL    HW139554   4.524   1.970   1.512  0.5104  0.7677 -0.0617
 9306SOL    HW239555   4.387   2.028   1.494  0.5108 -2.9796  0.7204
 9307SOL     OW39556   0.269   2.023   7.786  0.1642 -0.1937 -0.4031
 9307SOL    HW139557   0.184   2.023   7.742 -0.4352 -0.5588  0.7377
 9307SOL    HW239558   0.321   2.062   7.716  1.4579 -1.1929  0.0274
 9308SOL     OW39559   2.955   4.633   7.405  0.0438 -0.1558 -0.0342
 9308SOL    HW139560   2.882   4.612   7.464  0.0474  0.1663  0.0819
 9308SOL    HW239561   3.007   4.699   7.451  0.4223  0.3809 -1.2234
 9309SOL     OW39562   1.171   4.050   4.803 -0.4053 -0.2519 -0.2747
 9309SOL    HW139563   1.109   4.071   4.734 -1.0223 -0.5022  0.2018
 9309SOL    HW239564   1.192   4.134   4.844 -0.1870 -0.1840 -0.5270
 9310SOL     OW39565   4.394   4.370   2.678 -0.1083 -0.0770  0.2340
 9310SOL    HW139566   4.321   4.312   2.660 -0.9026  0.7733  0.7159
 9310SOL    HW239567   4.447   4.312   2.733  0.2226 -0.7521 -0.7939
 9311SOL     OW39568   4.177   2.559   9.283 -0.6111  0.0120  0.5680
 9311SOL    HW139569   4.210   2.473   9.309  2.0183  1.1145  0.9056
 9311SOL    HW239570   4.089   2.559   9.322 -1.6375  1.5109 -1.7860
 9312SOL     OW39571   1.852   3.266   1.528 -0.0288 -0.3567 -0.0468
 9312SOL    HW139572   1.791   3.319   1.579  0.1240  0.5620 -0.8230
 9312SOL    HW239573   1.789   3.226   1.468 -0.9277  0.2574  0.4695
 9313SOL     OW39574   3.379   1.631   1.710 -0.0927 -0.1303  0.5904
 9313SOL    HW139575   3.435   1.702   1.676  1.6020 -1.2132  1.1549
 9313SOL    HW239576   3.340   1.669   1.788 -0.0500  0.5055  0.3048
 9314SOL     OW39577   3.646   2.837   8.690  0.2087 -0.4441  0.2512
 9314SOL    HW139578   3.702   2.827   8.767  2.0507 -0.2783 -1.0661
 9314SOL    HW239579   3.609   2.924   8.705  0.9428  0.0059 -0.5984
 9315SOL     OW39580   3.543   2.698   1.535  0.0829 -0.3625 -0.0554
 9315SOL    HW139581   3.558   2.638   1.462 -0.4956 -1.3426  0.6344
 9315SOL    HW239582   3.454   2.668   1.553 -0.9240  1.0455 -2.7895
 9316SOL     OW39583   2.708   0.353   5.503 -0.2570 -0.4997  0.1443
 9316SOL    HW139584   2.744   0.367   5.590  2.7080 -1.8004 -0.8637
 9316SOL    HW239585   2.616   0.376   5.512  0.4329  2.3010 -0.1716
 9317SOL     OW39586   1.294   3.153   5.929 -0.3197 -0.0065 -0.4166
 9317SOL    HW139587   1.246   3.100   5.866  0.6424 -2.2665  0.7604
 9317SOL    HW239588   1.366   3.175   5.869 -0.4891 -1.2305 -1.0661
 9318SOL     OW39589   1.094   4.460   6.077 -0.0598  0.1886  0.2188
 9318SOL    HW139590   1.134   4.438   5.993 -0.0577  1.6797 -0.1644
 9318SOL    HW239591   1.133   4.544   6.104  0.7784 -0.3963  0.8402
 9319SOL     OW39592   4.691   3.466   2.617  0.2589 -0.1688 -0.3683
 9319SOL    HW139593   0.033   3.419   2.647  0.0313 -1.6127 -2.0640
 9319SOL    HW239594   4.618   3.438   2.672  0.1527 -0.4530 -0.6516
 9320SOL     OW39595   3.435   3.648   8.461 -0.3748  0.4937  0.2931
 9320SOL    HW139596   3.397   3.716   8.517 -0.9061 -0.3780  1.0119
 9320SOL    HW239597   3.503   3.697   8.416  0.0005 -0.9977 -0.7544
 9321SOL     OW39598   4.522   0.277   9.192 -0.0977  0.2679 -0.1943
 9321SOL    HW139599   4.533   0.304   9.101  0.6009 -1.6841 -0.6998
 9321SOL    HW239600   4.428   0.255   9.195  0.0580 -0.1938  1.0836
 9322SOL     OW39601   2.827   2.254  13.702  0.1796  0.0914  0.5610
 9322SOL    HW139602   2.917   2.287  13.701  0.1647  0.1143 -1.6829
 9322SOL    HW239603   2.817   2.248  13.797 -1.1565  2.0836  0.5268
 9323SOL     OW39604   3.101   2.967   5.498 -0.1365  0.3581  0.5302
 9323SOL    HW139605   3.051   2.890   5.524  0.5130  0.1737  1.2207
 9323SOL    HW239606   3.188   2.930   5.490  0.2652  1.1828  1.0673
 9324SOL     OW39607   0.304   1.562   2.802 -0.1262 -0.3924 -0.0536
 9324SOL    HW139608   0.250   1.491   2.766 -0.0694 -0.3461 -0.2282
 9324SOL    HW239609   0.369   1.511   2.849 -2.1051 -2.7799  0.1052
 9325SOL     OW39610   2.734   2.017  12.985 -0.2513 -0.5574  0.0503
 9325SOL    HW139611   2.805   2.054  13.036 -0.3841 -1.5362  0.9487
 9325SOL    HW239612   2.778   1.938  12.952 -3.2243 -2.7468  1.2562
 9326SOL     OW39613   4.238   0.700   2.618 -0.1857 -0.5356 -0.2746
 9326SOL    HW139614   4.165   0.723   2.677 -0.8927 -1.0791 -0.9464
 9326SOL    HW239615   4.262   0.612   2.646  1.1477  0.1315  0.6844
 9327SOL     OW39616   0.426   3.981   9.483  0.9608 -0.0397 -0.0976
 9327SOL    HW139617   0.498   4.044   9.473 -0.2062  1.3116  0.0733
 9327SOL    HW239618   0.411   3.965   9.390  0.5940  0.2149 -0.0818
 9328SOL     OW39619   0.562   4.501   7.365 -0.1616 -0.5872  0.1343
 9328SOL    HW139620   0.590   4.415   7.399  0.5602  0.3979  2.0206
 9328SOL    HW239621   0.519   4.469   7.285 -0.7844 -1.1825  0.6971
 9329SOL     OW39622   3.457   0.076   0.944  0.4337 -0.2340  0.4075
 9329SOL    HW139623   3.419   0.133   1.012  0.4018 -0.6515  0.7412
 9329SOL    HW239624   3.535   0.126   0.923 -0.2616 -0.8303 -3.5860
 9330SOL     OW39625   4.290   4.504   6.749  0.0078 -0.2754 -0.3773
 9330SOL    HW139626   4.284   4.413   6.719 -0.6284 -0.3754  0.0510
 9330SOL    HW239627   4.204   4.544   6.739 -0.6899 -1.2345  1.6905
 9331SOL     OW39628   1.718   2.999  16.084  0.3369  0.0903 -0.6906
 9331SOL    HW139629   1.786   3.061  16.057  2.2765 -1.1532  1.3016
 9331SOL    HW239630   1.652   3.004  16.015 -0.3770 -1.3878 -0.1094
 9332SOL     OW39631   0.435   0.080  12.659 -0.1268 -0.7114 -0.6184
 9332SOL    HW139632   0.359   0.046  12.612 -1.1388  2.5931 -1.4350
 9332SOL    HW239633   0.446   0.166  12.618 -0.4723 -0.4591 -0.1728
 9333SOL     OW39634   4.039   1.659   6.145  0.0205  0.1405  0.7266
 9333SOL    HW139635   4.064   1.617   6.063 -3.0620  2.0962 -1.2305
 9333SOL    HW239636   3.950   1.691   6.134  0.0836  0.4719  1.1478
 9334SOL     OW39637   4.687   2.914   5.888  0.2738  0.1131  0.0609
 9334SOL    HW139638   0.019   2.971   5.853  0.2162  0.0935 -0.0818
 9334SOL    HW239639   4.621   2.913   5.819  1.6232  1.0093 -1.2259
 9335SOL     OW39640   1.657   2.148   5.873  0.3251  0.0660 -0.3324
 9335SOL    HW139641   1.676   2.144   5.967  0.2908 -2.0293 -0.4184
 9335SOL    HW239642   1.589   2.215   5.871  1.3047  1.0571 -0.6095
 9336SOL     OW39643   2.383   3.980   6.500  0.9169  0.4822 -0.3171
 9336SOL    HW139644   2.412   4.052   6.443  1.0413 -0.8307 -1.8954
 9336SOL    HW239645   2.336   4.026   6.570  0.6963  0.8214 -0.6914
 9337SOL     OW39646   0.708   2.072   7.021  0.4602  0.0671 -0.2640
 9337SOL    HW139647   0.673   2.161   7.015 -0.1060 -0.1511 -0.2005
 9337SOL    HW239648   0.795   2.086   7.059  0.3610  4.4357 -1.6210
 9338SOL     OW39649   3.145   3.593   9.823 -0.2503 -0.8173 -0.5393
 9338SOL    HW139650   3.154   3.685   9.799 -0.3186 -0.2779  1.5699
 9338SOL    HW239651   3.049   3.586   9.826 -0.3417  0.2538 -1.0009
 9339SOL     OW39652   0.130   4.452   7.456 -0.0529 -0.3275 -0.4396
 9339SOL    HW139653   0.133   4.507   7.379  0.3060 -1.9948 -1.6202
 9339SOL    HW239654   0.179   4.520   7.503 -0.4909 -0.3487  0.0529
 9340SOL     OW39655   2.986   4.416   8.190  0.1008 -0.6621 -0.3930
 9340SOL    HW139656   2.917   4.424   8.256  1.3663 -0.2100  0.8836
 9340SOL    HW239657   2.954   4.342   8.139  1.0488 -1.0728 -0.3873
 9341SOL     OW39658   4.247   1.114  17.084  0.5431 -0.2036 -0.1756
 9341SOL    HW139659   4.295   1.112  17.001  1.3869  0.8922  0.2839
 9341SOL    HW239660   4.316   1.089  17.145 -0.4817 -1.1766  0.5814
 9342SOL     OW39661   1.777   4.483   0.858 -0.6936 -0.1898 -0.1418
 9342SOL    HW139662   1.862   4.519   0.832 -0.1368 -1.7487 -0.4413
 9342SOL    HW239663   1.749   4.456   0.771 -1.3611  2.1302 -0.6678
 9343SOL     OW39664   4.546   1.030   6.587 -0.1499  0.2162  0.3340
 9343SOL    HW139665   4.476   0.984   6.539  1.4974 -0.1112 -1.7509
 9343SOL    HW239666   4.611   1.024   6.517 -1.9788 -3.4481 -1.0507
 9344SOL     OW39667   0.687   4.574   1.138 -0.1542  0.1785 -0.0311
 9344SOL    HW139668   0.698   4.542   1.048  2.2486  0.4625  0.1715
 9344SOL    HW239669   0.592   4.574   1.154 -0.4804  0.7375 -1.9165
 9345SOL     OW39670   0.701   0.482   6.884 -0.5309 -0.3931  0.0806
 9345SOL    HW139671   0.638   0.414   6.860  1.9657 -2.9386  0.7913
 9345SOL    HW239672   0.768   0.437   6.935 -0.4555 -0.6426 -0.2420
 9346SOL     OW39673   0.841   2.209   7.215  1.0776  0.2024 -0.4300
 9346SOL    HW139674   0.813   2.212   7.307 -1.7824 -1.9061 -1.2498
 9346SOL    HW239675   0.839   2.305   7.210 -0.3291  0.3106  1.8288
 9347SOL     OW39676   2.225   0.608   1.639  0.6876 -0.3920 -0.0375
 9347SOL    HW139677   2.155   0.556   1.599 -0.1393  0.9184 -0.3093
 9347SOL    HW239678   2.285   0.616   1.565  1.7941 -0.3520  0.8672
 9348SOL     OW39679   3.795   0.297   4.556 -0.1853  0.3427 -0.0790
 9348SOL    HW139680   3.761   0.365   4.497  0.1927  1.0310  0.4925
 9348SOL    HW239681   3.729   0.228   4.546 -0.1257  0.4623 -1.2501
 9349SOL     OW39682   3.483   3.810   3.154 -0.1795 -0.2691 -0.4182
 9349SOL    HW139683   3.410   3.843   3.206 -1.5107 -0.3934 -2.2000
 9349SOL    HW239684   3.444   3.796   3.067  1.8827  1.4211 -1.5968
 9350SOL     OW39685   2.693   2.995   3.347  0.3160  0.0387 -0.4889
 9350SOL    HW139686   2.678   3.026   3.436 -1.4537  1.2681 -1.2207
 9350SOL    HW239687   2.775   3.035   3.317 -0.4839  2.4832  0.5594
 9351SOL     OW39688   3.411   0.328   5.824  0.3167  0.0404  0.1248
 9351SOL    HW139689   3.326   0.304   5.786  0.4867  0.6158 -0.6155
 9351SOL    HW239690   3.377   0.357   5.909  0.6035  0.4407  0.1059
 9352SOL     OW39691   0.517   2.748   9.744  0.7186 -0.0692  0.2413
 9352SOL    HW139692   0.558   2.835   9.743  0.6332 -0.0114  1.3767
 9352SOL    HW239693   0.436   2.773   9.789  0.1563 -0.5411 -0.5101
 9353SOL     OW39694   2.297   3.578   6.531  0.3100  0.1448 -0.2877
 9353SOL    HW139695   2.333   3.636   6.598  0.3221  0.6257 -0.7164
 9353SOL    HW239696   2.288   3.639   6.459 -1.0242 -0.2501 -0.4606
 9354SOL     OW39697   1.432   4.419   2.551 -0.4420 -0.2660  0.2590
 9354SOL    HW139698   1.371   4.350   2.579 -0.8178  1.2619  3.1956
 9354SOL    HW239699   1.512   4.384   2.590  0.4300 -0.0856 -1.3609
 9355SOL     OW39700   0.552   1.715   9.991 -0.3570 -0.0147 -0.2004
 9355SOL    HW139701   0.504   1.714  10.074 -1.1333  0.5887 -0.6412
 9355SOL    HW239702   0.510   1.634   9.962  1.9382 -2.0997  2.2481
 9356SOL     OW39703   0.645   2.118  14.493  0.6960  0.5492 -0.1099
 9356SOL    HW139704   0.696   2.102  14.413  3.3774  1.5683  1.3932
 9356SOL    HW239705   0.582   2.187  14.470 -1.7968 -1.6044  0.3308
 9357SOL     OW39706   0.416   4.134   7.828 -0.0706 -0.4594 -0.4211
 9357SOL    HW139707   0.477   4.152   7.756  0.8466  0.7911  0.6667
 9357SOL    HW239708   0.384   4.046   7.808 -1.4295  0.0173 -0.3313
 9358SOL     OW39709   0.105   3.413   5.458 -0.3712  0.2447  0.2588
 9358SOL    HW139710   0.160   3.430   5.534 -0.4372 -0.6006  0.4952
 9358SOL    HW239711   0.172   3.410   5.389 -1.0171  1.1364 -0.4089
 9359SOL     OW39712   4.206   2.332   7.253  0.8949 -0.4216 -0.1861
 9359SOL    HW139713   4.172   2.255   7.208  0.2328 -0.0035 -0.4001
 9359SOL    HW239714   4.221   2.390   7.178  0.9594 -1.4818 -0.9956
 9360SOL     OW39715   0.421   3.532   8.632 -0.2090  0.8218  0.2802
 9360SOL    HW139716   0.509   3.556   8.604  0.2917 -0.1406  1.0323
 9360SOL    HW239717   0.370   3.591   8.576  1.7811  3.6528  1.4288
 9361SOL     OW39718   1.017   3.913   4.979 -0.1489  0.1114  0.2120
 9361SOL    HW139719   1.058   3.997   5.000  0.6116 -0.8179  2.4592
 9361SOL    HW239720   1.087   3.867   4.931 -1.0015 -0.4695 -0.4628
 9362SOL     OW39721   4.407   0.835   3.733  0.0566  0.2574 -0.3811
 9362SOL    HW139722   4.479   0.785   3.694 -0.9872 -1.0379 -0.6372
 9362SOL    HW239723   4.440   0.925   3.727  0.0547  0.2450 -0.5774
 9363SOL     OW39724   3.973   0.146  11.954  0.5824  0.1937  0.1193
 9363SOL    HW139725   4.047   0.200  11.980  0.3993  1.9740 -2.9793
 9363SOL    HW239726   3.919   0.198  11.894 -1.2079 -1.9641 -0.1179
 9364SOL     OW39727   3.007   2.642   8.215  0.2571  0.5362 -0.3255
 9364SOL    HW139728   3.067   2.689   8.272 -0.5578  0.0265  0.9541
 9364SOL    HW239729   2.988   2.557   8.256 -0.4892  1.0549  0.4156
 9365SOL     OW39730   1.259   1.767   4.048 -0.2492  0.2233  0.6770
 9365SOL    HW139731   1.322   1.722   4.103  0.1756 -0.1622 -0.1271
 9365SOL    HW239732   1.289   1.858   4.048  1.9262 -0.5108  2.9926
 9366SOL     OW39733   1.091   3.194  16.842  0.3262  0.5155  0.0247
 9366SOL    HW139734   0.996   3.193  16.848  0.1433  0.8420 -2.9918
 9366SOL    HW239735   1.118   3.107  16.871  0.0086 -0.2928 -2.1539
 9367SOL     OW39736   2.784   2.178  10.910  0.0060  0.6995 -0.2121
 9367SOL    HW139737   2.710   2.163  10.970  0.1112  0.5735 -0.1151
 9367SOL    HW239738   2.738   2.172  10.826  1.0516  1.9712 -0.8804
 9368SOL     OW39739   2.547   4.649   7.619  0.6439 -0.5863 -0.3583
 9368SOL    HW139740   2.578   4.728   7.664 -0.2185 -0.8083  0.6112
 9368SOL    HW239741   2.626   4.597   7.604  1.8138  0.2915  2.7333
 9369SOL     OW39742   0.562   2.301   9.064 -0.3926  0.3364  0.3289
 9369SOL    HW139743   0.600   2.242   8.999 -1.8664 -1.7048  1.3438
 9369SOL    HW239744   0.640   2.343   9.102 -0.1224 -1.7902  2.1348
 9370SOL     OW39745   0.241   2.162   6.325  0.3660 -0.0008 -0.0756
 9370SOL    HW139746   0.204   2.161   6.237  0.3460 -1.0923 -0.0495
 9370SOL    HW239747   0.219   2.250   6.357 -0.1795  0.4940 -1.8497
 9371SOL     OW39748   3.436   2.943  13.228  0.1196  0.1001 -0.1555
 9371SOL    HW139749   3.504   2.962  13.163  0.2314 -0.5436 -0.2239
 9371SOL    HW239750   3.376   3.016  13.209 -1.4492 -1.2692 -0.4682
 9372SOL     OW39751   3.333   2.178   4.566 -0.3171 -0.4953  0.4050
 9372SOL    HW139752   3.386   2.124   4.508  1.6117  0.2926  1.4406
 9372SOL    HW239753   3.328   2.263   4.523 -0.5205 -1.6676 -1.8996
 9373SOL     OW39754   3.171   2.578   7.993 -0.4193  0.1879  0.0984
 9373SOL    HW139755   3.103   2.572   8.059 -1.8811  1.9413 -1.2470
 9373SOL    HW239756   3.135   2.517   7.928 -0.6635 -2.4375  2.6741
 9374SOL     OW39757   3.211   1.652  12.588 -0.4336 -0.1745 -0.2237
 9374SOL    HW139758   3.166   1.600  12.655  1.4037  0.8494  1.7686
 9374SOL    HW239759   3.205   1.744  12.612 -1.9441 -0.3211  0.0123
 9375SOL     OW39760   3.878   1.691  13.288 -0.2931  0.1912 -0.0550
 9375SOL    HW139761   3.880   1.773  13.239  0.9679  0.8450  1.0952
 9375SOL    HW239762   3.952   1.641  13.253  0.9611  0.3906  2.3172
 9376SOL     OW39763   0.237   1.525   6.790 -0.2963  0.0230  0.1077
 9376SOL    HW139764   0.245   1.506   6.696 -2.2024 -0.4148  0.0462
 9376SOL    HW239765   0.327   1.551   6.811 -0.1421 -0.7646  0.4282
 9377SOL     OW39766   0.722   1.739  16.156  0.1796 -0.5180  0.0526
 9377SOL    HW139767   0.765   1.654  16.141  2.2431  0.4909  0.3107
 9377SOL    HW239768   0.631   1.713  16.140 -0.4529  2.2592 -0.7762
 9378SOL     OW39769   1.674   0.845  16.001  0.9042 -0.3699 -0.7534
 9378SOL    HW139770   1.711   0.868  15.915  0.9646 -0.2754 -0.7031
 9378SOL    HW239771   1.726   0.767  16.019  0.2218 -0.7815 -0.5514
 9379SOL     OW39772   0.815   3.920  11.724  0.7125 -0.1605  0.4593
 9379SOL    HW139773   0.838   3.834  11.688 -1.7305 -2.1938  3.7756
 9379SOL    HW239774   0.868   3.980  11.673  3.1294 -1.7370  1.1296
 9380SOL     OW39775   2.425   4.445   0.682  0.1273  0.1212  0.3240
 9380SOL    HW139776   2.355   4.381   0.667 -0.9351  1.6484 -1.1790
 9380SOL    HW239777   2.460   4.461   0.594  1.2255 -0.0739  0.7277
 9381SOL     OW39778   2.104   4.344   6.536 -0.1170  0.4086  0.1500
 9381SOL    HW139779   2.059   4.428   6.546  1.1678  1.4277 -2.7954
 9381SOL    HW239780   2.028   4.302   6.496 -0.9584  1.9822  0.0860
 9382SOL     OW39781   4.113   3.281   4.447 -0.1547  0.3651  0.4689
 9382SOL    HW139782   4.105   3.193   4.485  1.6647  0.2671  0.6090
 9382SOL    HW239783   4.065   3.338   4.507  0.3284  1.1380  0.1113
 9383SOL     OW39784   2.710   1.976  13.387 -0.5527 -0.2043  0.3394
 9383SOL    HW139785   2.620   1.957  13.360 -1.6925  2.2312  2.5074
 9383SOL    HW239786   2.723   2.068  13.366 -0.3355 -1.2130 -4.0115
 9384SOL     OW39787   4.723   1.464   3.866 -0.1316 -0.3043 -0.1044
 9384SOL    HW139788   4.720   1.369   3.855  2.5903 -0.5034  0.9454
 9384SOL    HW239789   0.003   1.473   3.960  0.7211 -0.3089 -0.2508
 9385SOL     OW39790   1.035   1.234   4.122  0.0137  0.1901  0.0516
 9385SOL    HW139791   1.037   1.240   4.027 -1.0170 -2.2889 -0.1229
 9385SOL    HW239792   0.974   1.303   4.146  0.3129  0.6556 -0.5353
 9386SOL     OW39793   3.930   3.426   5.469 -0.1803 -0.5197  0.5294
 9386SOL    HW139794   3.936   3.500   5.530  0.0913 -0.5366  0.5234
 9386SOL    HW239795   3.974   3.360   5.522  0.0289  0.6264  1.7839
 9387SOL     OW39796   4.654   2.114   8.488 -0.0187 -0.4765 -0.0657
 9387SOL    HW139797   4.656   2.155   8.401 -1.2341 -0.5462 -0.1279
 9387SOL    HW239798   4.706   2.178   8.537 -0.4967 -0.9253  1.0286
 9388SOL     OW39799   3.624   2.442   4.638 -0.1493 -0.2661  0.4635
 9388SOL    HW139800   3.720   2.435   4.632 -0.1567 -0.4687  0.5690
 9388SOL    HW239801   3.608   2.492   4.558  0.9626  1.7433  1.4795
 9389SOL     OW39802   2.322   0.053   7.298 -0.3826  0.1448  0.3221
 9389SOL    HW139803   2.417   0.046   7.309 -0.2804 -0.8637 -1.2694
 9389SOL    HW239804   2.302   4.704   7.258  0.7768 -0.7319  1.5795
 9390SOL     OW39805   2.861   1.178   9.234 -0.2260 -0.0745 -0.2023
 9390SOL    HW139806   2.924   1.193   9.163  0.5231 -0.0435  0.4780
 9390SOL    HW239807   2.820   1.265   9.236 -0.7217 -0.3897  2.5906
 9391SOL     OW39808   0.225   1.235  12.485 -0.0285 -0.1218  0.6040
 9391SOL    HW139809   0.181   1.277  12.412  2.0121 -1.4054 -1.3659
 9391SOL    HW239810   0.313   1.255  12.454 -0.9821  1.0356 -1.3101
 9392SOL     OW39811   3.909   2.935   5.706 -0.4546 -0.3093 -0.5255
 9392SOL    HW139812   3.861   2.947   5.625 -0.5249  0.7866 -0.3220
 9392SOL    HW239813   3.979   2.875   5.682  1.6839  1.9332  0.0351
 9393SOL     OW39814   1.110   2.364   9.288  0.1087 -0.0618 -0.1042
 9393SOL    HW139815   1.100   2.437   9.349 -1.5517  0.0718 -0.5355
 9393SOL    HW239816   1.131   2.293   9.349 -2.2892  1.3981  2.4154
 9394SOL     OW39817   4.271   3.569   8.231  0.0176  0.0490  0.1957
 9394SOL    HW139818   4.304   3.551   8.143 -1.9749 -2.3745 -0.0671
 9394SOL    HW239819   4.334   3.512   8.274  1.0061  0.3377 -0.8601
 9395SOL     OW39820   4.572   3.629  16.063 -0.4678  0.3012 -0.4261
 9395SOL    HW139821   4.502   3.681  16.103  0.8484  1.1704  0.7214
 9395SOL    HW239822   4.590   3.563  16.130  1.0250  0.3899 -0.7580
 9396SOL     OW39823   2.097   4.177  13.438  0.0344 -0.2371 -0.7844
 9396SOL    HW139824   2.164   4.182  13.506 -1.0995  1.3262  0.2064
 9396SOL    HW239825   2.136   4.126  13.367  0.7366  1.1337 -1.3815
 9397SOL     OW39826   3.269   2.191   3.171 -0.3418 -0.0799  0.9259
 9397SOL    HW139827   3.209   2.265   3.160 -1.5979 -1.5372 -1.9450
 9397SOL    HW239828   3.236   2.120   3.116  0.8750  0.2106 -0.1826
 9398SOL     OW39829   1.927   3.159   6.792  0.4206  0.0905 -0.1477
 9398SOL    HW139830   1.836   3.172   6.819  1.1346  0.7129  1.9498
 9398SOL    HW239831   1.980   3.147   6.871 -1.0352 -0.0624  0.8190
 9399SOL     OW39832   4.549   3.555   7.649  0.6335  0.4896  0.6313
 9399SOL    HW139833   4.560   3.558   7.744  0.4962 -1.5176  0.7066
 9399SOL    HW239834   4.455   3.539   7.637  0.4158  0.7458  2.0357
 9400SOL     OW39835   3.945   4.182   4.043  0.0465  0.8156 -0.1560
 9400SOL    HW139836   4.023   4.233   4.064  1.1191 -0.4964 -0.9516
 9400SOL    HW239837   3.895   4.245   3.993 -1.1143 -0.2208 -0.3109
 9401SOL     OW39838   3.456   3.925  16.323  0.1024 -0.0062 -0.5559
 9401SOL    HW139839   3.376   3.927  16.376  1.5553  0.1179  1.6528
 9401SOL    HW239840   3.473   4.018  16.336  0.2770 -0.0428 -0.5160
 9402SOL     OW39841   4.208   2.068   5.899  0.6785 -0.0226 -0.1364
 9402SOL    HW139842   4.161   2.134   5.848  0.1858 -1.0461 -1.0237
 9402SOL    HW239843   4.281   2.045   5.841  0.7941 -0.0655  0.0264
 9403SOL     OW39844   1.124   0.260   9.337  0.1707 -0.5440  1.0409
 9403SOL    HW139845   1.121   0.304   9.252 -0.3480 -2.2129  0.1937
 9403SOL    HW239846   1.073   0.181   9.315 -0.0903 -0.2344  0.5183
 9404SOL     OW39847   3.970   1.726   9.437 -0.1216 -0.4313  0.2492
 9404SOL    HW139848   4.035   1.795   9.421 -0.7261  0.4138  1.4785
 9404SOL    HW239849   3.971   1.681   9.352  0.8000 -1.6082  0.8907
 9405SOL     OW39850   3.395   1.977   4.226 -0.1461  0.3573  0.1580
 9405SOL    HW139851   3.443   2.001   4.305 -1.1348  1.2986  0.4701
 9405SOL    HW239852   3.452   1.925   4.169  1.1746  0.5268  1.3291
 9406SOL     OW39853   0.985   3.230   2.751  0.3865 -0.3539  0.2207
 9406SOL    HW139854   0.923   3.232   2.678 -0.9859 -1.2567  1.3498
 9406SOL    HW239855   0.933   3.175   2.809 -0.4102  0.3822  0.2085
 9407SOL     OW39856   0.452   2.257   6.660 -0.1185 -0.4471  0.3399
 9407SOL    HW139857   0.369   2.212   6.641 -0.7350 -0.0497  2.1140
 9407SOL    HW239858   0.520   2.197   6.628 -0.2249 -1.1971  1.5171
 9408SOL     OW39859   2.400   4.524   2.567  0.2948 -0.1458  0.0258
 9408SOL    HW139860   2.381   4.440   2.525  1.8456 -0.6373  0.3067
 9408SOL    HW239861   2.370   4.586   2.500  2.0600 -0.8327 -1.3934
 9409SOL     OW39862   1.920   0.979   5.591  0.2820 -1.0971  0.3963
 9409SOL    HW139863   1.938   0.887   5.611 -0.7919 -1.4994 -0.4356
 9409SOL    HW239864   1.962   1.034   5.657  1.9647  2.8429 -3.9961
 9410SOL     OW39865   4.672   1.580   0.303  0.4711  0.2390  0.3513
 9410SOL    HW139866   4.645   1.664   0.340  0.6310  0.2658  0.4074
 9410SOL    HW239867   4.590   1.551   0.263  0.3989  0.1877  0.5339
 9411SOL     OW39868   2.585   1.327   7.586 -0.0359 -0.3349 -0.0858
 9411SOL    HW139869   2.534   1.352   7.663  1.1669  0.7335  0.3725
 9411SOL    HW239870   2.621   1.409   7.551 -1.9747  0.6634  0.2500
 9412SOL     OW39871   3.180   1.053   2.931  0.1867 -0.6508 -0.5612
 9412SOL    HW139872   3.231   0.990   2.879  0.5203 -1.3876  0.6754
 9412SOL    HW239873   3.248   1.110   2.966 -0.2697 -0.9139  0.7582
 9413SOL     OW39874   0.997   4.508   2.817 -0.2937  0.0540  0.1127
 9413SOL    HW139875   1.002   4.424   2.862  1.4880  1.2250  2.1121
 9413SOL    HW239876   1.032   4.564   2.887  1.4172 -0.4272 -0.3707
 9414SOL     OW39877   0.451   1.719  16.184  0.3365 -0.1633  0.0784
 9414SOL    HW139878   0.479   1.690  16.270  0.3336  1.0227  0.4749
 9414SOL    HW239879   0.374   1.667  16.159 -0.3505  0.3930  1.0443
 9415SOL     OW39880   3.044   1.163   7.518  0.0278  0.3026  0.3013
 9415SOL    HW139881   3.064   1.183   7.609 -1.9289 -1.2617  1.0611
 9415SOL    HW239882   3.061   1.248   7.475  3.5624 -1.2294 -1.3432
 9416SOL     OW39883   4.433   3.881   8.731 -0.7058 -0.2487  0.3092
 9416SOL    HW139884   4.432   3.822   8.655  0.9992  1.2397 -0.8786
 9416SOL    HW239885   4.338   3.880   8.744 -0.3835  1.3605  2.7636
 9417SOL     OW39886   3.339   1.923  16.060 -0.4599 -0.2745 -0.4223
 9417SOL    HW139887   3.304   1.872  15.987  2.4210  0.5770 -2.4059
 9417SOL    HW239888   3.331   2.014  16.031 -0.2802  1.2201  4.2937
 9418SOL     OW39889   1.767   0.183   6.805 -0.2353 -0.5086  0.0580
 9418SOL    HW139890   1.768   0.179   6.710  0.3924  2.1110 -0.0509
 9418SOL    HW239891   1.743   0.273   6.830 -0.1887  0.2718 -2.7721
 9419SOL     OW39892   3.895   1.361   3.373 -0.5789 -0.3316  0.4245
 9419SOL    HW139893   3.883   1.452   3.402 -0.2839  0.1136 -0.8267
 9419SOL    HW239894   3.974   1.331   3.418 -1.1160 -2.8864 -0.3551
 9420SOL     OW39895   1.834   3.340   8.663  0.0166 -0.2416 -0.1043
 9420SOL    HW139896   1.925   3.369   8.663  0.3583 -1.3309 -0.8576
 9420SOL    HW239897   1.814   3.338   8.756 -2.9113  1.4115 -0.7010
 9421SOL     OW39898   3.602   0.562   6.355  0.8868 -0.0260 -0.5164
 9421SOL    HW139899   3.596   0.494   6.287  0.9120  2.4334 -2.9735
 9421SOL    HW239900   3.563   0.638   6.312  2.3318  0.5751 -0.7621
 9422SOL     OW39901   1.064   1.184   0.879  0.1915  0.0958 -0.3596
 9422SOL    HW139902   1.035   1.261   0.831  0.1151 -0.7200 -1.6254
 9422SOL    HW239903   1.020   1.187   0.964 -2.5701  0.7281 -1.8134
 9423SOL     OW39904   1.477   2.839   2.171 -0.5293 -0.0878 -0.1070
 9423SOL    HW139905   1.447   2.826   2.261 -0.8719  0.3437 -0.1617
 9423SOL    HW239906   1.571   2.821   2.174 -0.0263  2.9419  1.2133
 9424SOL     OW39907   0.404   4.587  12.983 -0.8923  0.0716  0.1599
 9424SOL    HW139908   0.406   4.514  13.044 -3.8589 -1.1196 -1.1853
 9424SOL    HW239909   0.377   4.528  12.913 -0.0603 -1.3333  1.0258
 9425SOL     OW39910   2.303   0.193   2.034  0.5706 -0.0246  0.1983
 9425SOL    HW139911   2.242   0.119   2.043  0.1239  0.2134 -0.8324
 9425SOL    HW239912   2.246   0.269   2.046  2.6400  1.5011  0.2607
 9426SOL     OW39913   0.162   3.951   3.525  0.1051 -0.4675 -0.0938
 9426SOL    HW139914   0.255   3.967   3.543  0.2217 -2.5905  1.0853
 9426SOL    HW239915   0.132   4.015   3.589  2.9573  1.6068 -0.8266
 9427SOL     OW39916   1.307   0.883   6.550 -0.3464  0.2205 -0.0197
 9427SOL    HW139917   1.299   0.963   6.602  1.3639  1.6696 -1.9747
 9427SOL    HW239918   1.383   0.846   6.594  0.7310 -1.4337 -3.2621
 9428SOL     OW39919   3.724   1.811   4.425 -0.2701 -0.5060  0.4442
 9428SOL    HW139920   3.784   1.883   4.406  0.5367 -1.4105 -0.4193
 9428SOL    HW239921   3.768   1.754   4.362  0.8099  3.1784 -2.1343
 9429SOL     OW39922   1.415   0.879   4.249 -0.4052  0.7274  0.3576
 9429SOL    HW139923   1.431   0.871   4.343  0.6239 -0.2939  0.1022
 9429SOL    HW239924   1.323   0.905   4.246 -0.6719 -0.1008  1.6033
 9430SOL     OW39925   4.550   2.674   4.754 -0.0502 -0.5453  0.2018
 9430SOL    HW139926   4.545   2.599   4.814  4.1749 -2.3211 -1.6597
 9430SOL    HW239927   4.532   2.629   4.671  0.4095  1.5356 -1.0304
 9431SOL     OW39928   3.218   1.088   8.011 -0.5175  0.0599  0.2776
 9431SOL    HW139929   3.140   1.042   8.040 -1.0488 -0.3784 -1.8458
 9431SOL    HW239930   3.184   1.177   7.997 -2.3290 -0.6188  0.3849
 9432SOL     OW39931   2.188   3.381  11.124  0.0379 -0.3426 -0.7926
 9432SOL    HW139932   2.132   3.357  11.050 -0.3455  0.0606 -0.6397
 9432SOL    HW239933   2.262   3.323  11.107 -0.1263 -0.5459 -0.8115
 9433SOL     OW39934   4.535   0.305   2.615  0.2017  0.2473  0.3195
 9433SOL    HW139935   4.618   0.319   2.661  1.1179  0.0848 -1.2839
 9433SOL    HW239936   4.545   0.358   2.536  2.7949 -2.0232 -0.8673
 9434SOL     OW39937   2.999   4.377  14.364  0.2679 -0.0321  0.3350
 9434SOL    HW139938   3.069   4.411  14.308  0.2816 -0.4179  0.1227
 9434SOL    HW239939   2.933   4.360  14.297 -2.6880 -2.2400  3.8310
 9435SOL     OW39940   1.381   2.089  14.585  0.2051 -0.0354 -0.3602
 9435SOL    HW139941   1.287   2.104  14.598  0.4609  0.5402  0.8370
 9435SOL    HW239942   1.378   2.032  14.508 -2.9102  0.6745 -0.7330
 9436SOL     OW39943   2.378   3.938   8.219 -0.0368 -0.0440  0.3278
 9436SOL    HW139944   2.460   3.898   8.191 -0.5757 -0.0643 -1.2101
 9436SOL    HW239945   2.407   4.027   8.200  2.2140 -0.7854  0.3692
 9437SOL     OW39946   1.254   3.292   7.103  0.1268  0.2386  0.0904
 9437SOL    HW139947   1.327   3.230   7.106 -1.2086 -1.3760 -0.9806
 9437SOL    HW239948   1.293   3.364   7.054  0.9143 -1.5090 -1.8032
 9438SOL     OW39949   3.143   3.110   8.431  0.0585 -0.2520  0.4199
 9438SOL    HW139950   3.231   3.130   8.461 -0.1130  0.8242  0.1938
 9438SOL    HW239951   3.144   3.109   8.335 -0.2041  0.3433  0.4128
 9439SOL     OW39952   2.592   4.393  16.670  0.1582  0.2369 -0.3277
 9439SOL    HW139953   2.678   4.379  16.630 -0.6239 -1.0996 -1.5630
 9439SOL    HW239954   2.589   4.337  16.748  0.7781  0.7546  0.0735
 9440SOL     OW39955   4.526   1.133   8.068  0.0394  0.0560 -0.2996
 9440SOL    HW139956   4.489   1.118   7.981 -0.5677 -0.7849  0.1069
 9440SOL    HW239957   4.502   1.225   8.082  1.0986  0.3237 -0.3007
 9441SOL     OW39958   4.310   2.913   2.849  0.0073 -0.1408  0.3460
 9441SOL    HW139959   4.362   2.903   2.928  0.4384  0.0818  0.0877
 9441SOL    HW239960   4.274   2.825   2.838  0.5385 -0.5363  1.8211
 9442SOL     OW39961   2.475   0.440   3.249 -0.4629  0.1712 -0.7377
 9442SOL    HW139962   2.407   0.400   3.195 -1.7316  1.2025  0.1131
 9442SOL    HW239963   2.540   0.370   3.244 -0.3232  0.1507  1.2491
 9443SOL     OW39964   2.264   0.698   0.524 -0.3557  0.0008  0.2393
 9443SOL    HW139965   2.172   0.679   0.545 -0.4019 -0.5305 -0.4671
 9443SOL    HW239966   2.259   0.787   0.489 -1.0918 -0.6525 -1.2902
 9444SOL     OW39967   4.022   0.065   8.164  0.1937 -0.3214  0.4261
 9444SOL    HW139968   3.997   0.056   8.072  1.8698  0.3606 -0.0988
 9444SOL    HW239969   4.109   0.025   8.165  0.4267  0.2549  2.6690
 9445SOL     OW39970   4.352   0.136   8.878  0.2342 -0.1785 -0.1696
 9445SOL    HW139971   4.382   0.133   8.787 -1.2951  1.3083 -0.7300
 9445SOL    HW239972   4.347   0.043   8.895 -2.9615  0.3336  1.7291
 9446SOL     OW39973   2.253   1.809   2.217 -0.2912 -0.2059  0.3006
 9446SOL    HW139974   2.301   1.831   2.297 -0.5713  0.1442  0.3737
 9446SOL    HW239975   2.269   1.716   2.205  0.1999  0.1095 -1.5231
 9447SOL     OW39976   0.539   3.422   3.642  0.1563  0.1026  0.0819
 9447SOL    HW139977   0.484   3.488   3.600  0.0978  0.3285  0.5160
 9447SOL    HW239978   0.494   3.407   3.725 -0.6911 -2.2882 -0.8147
 9448SOL     OW39979   3.768   2.804   6.485  0.0012 -0.2890 -0.6782
 9448SOL    HW139980   3.850   2.759   6.468  0.7933  1.2956 -1.1010
 9448SOL    HW239981   3.720   2.758   6.416 -1.2052  0.3651 -0.2807
 9449SOL     OW39982   0.561   1.317   3.652 -0.0949 -0.2649 -0.2687
 9449SOL    HW139983   0.590   1.384   3.590 -0.8641 -2.0036 -2.5228
 9449SOL    HW239984   0.503   1.277   3.587 -1.2236  0.6937  0.1464
 9450SOL     OW39985   1.178   1.763  15.766  0.0126 -0.7886 -0.0652
 9450SOL    HW139986   1.128   1.755  15.848 -1.3099  0.5334 -0.7494
 9450SOL    HW239987   1.127   1.703  15.711 -0.0265 -0.1733 -0.6887
 9451SOL     OW39988   0.487   2.936  14.738  0.2974 -0.0007  0.6209
 9451SOL    HW139989   0.442   3.012  14.700  0.6457  1.0778  2.3726
 9451SOL    HW239990   0.455   2.955  14.826  0.5096 -1.9512  1.1112
 9452SOL     OW39991   2.323   3.571   2.601  0.3598  0.1822 -0.6313
 9452SOL    HW139992   2.283   3.590   2.686  1.4286 -1.1687  0.1743
 9452SOL    HW239993   2.390   3.639   2.594  0.9593 -0.5078 -1.5296
 9453SOL     OW39994   4.387   0.693   7.171 -0.1929  0.4542  0.1402
 9453SOL    HW139995   4.471   0.701   7.216  0.3175 -0.1705 -0.6927
 9453SOL    HW239996   4.329   0.676   7.245  1.3160 -2.0774  0.7261
 9454SOL     OW39997   1.294   0.001  17.724 -0.5343 -0.3413 -0.4104
 9454SOL    HW139998   1.262   0.068  17.665  0.1103 -3.2140 -4.0280
 9454SOL    HW239999   1.308   0.054   0.060  0.7634  1.2793 -1.7532
 9455SOL     OW40000   2.558   2.283   4.724 -0.6314 -0.4159  0.3836
 9455SOL    HW140001   2.519   2.245   4.803 -2.5520 -1.7651 -1.2292
 9455SOL    HW240002   2.485   2.342   4.705 -0.8722 -0.4119  1.3390
 9456SOL     OW40003   1.271   4.251   8.945  0.2477 -0.3503 -0.3042
 9456SOL    HW140004   1.276   4.212   8.858  0.9758  0.1138 -0.4754
 9456SOL    HW240005   1.236   4.176   8.993  0.3887 -1.1102 -1.3925
 9457SOL     OW40006   1.929   2.092   8.980  0.0143  0.4536 -0.6693
 9457SOL    HW140007   1.891   2.036   9.048  0.0397  0.3081 -0.7748
 9457SOL    HW240008   1.900   2.042   8.903 -3.6997 -1.3027  1.9028
 9458SOL     OW40009   1.446   2.617   3.393 -0.3206  0.0566 -0.7941
 9458SOL    HW140010   1.526   2.601   3.444  0.4093  0.7729 -1.6999
 9458SOL    HW240011   1.471   2.689   3.335 -0.2618 -0.2918 -1.2072
 9459SOL     OW40012   3.631   3.092  16.703  0.2279 -0.1938 -0.0267
 9459SOL    HW140013   3.656   3.174  16.744  0.6480  0.2795 -1.2153
 9459SOL    HW240014   3.576   3.125  16.632  2.5449  0.4489 -1.5154
 9460SOL     OW40015   1.680   1.801  10.630  0.3014  0.9397 -0.1540
 9460SOL    HW140016   1.638   1.764  10.708  0.5113 -0.5170 -0.7170
 9460SOL    HW240017   1.705   1.890  10.652 -2.1013  1.1298  1.7969
 9461SOL     OW40018   2.684   3.231  13.519  0.1222  0.3832  0.0984
 9461SOL    HW140019   2.701   3.296  13.587 -1.3824  0.7524  0.1133
 9461SOL    HW240020   2.751   3.166  13.539  0.9696  1.5525  1.0296
 9462SOL     OW40021   0.996   4.530  12.911  0.1419  0.6570 -0.3304
 9462SOL    HW140022   1.019   4.482  12.990 -2.0022  2.0145  1.1141
 9462SOL    HW240023   1.080   4.541  12.866  1.4615  1.0069  2.2687
 9463SOL     OW40024   1.935   3.402   4.186 -0.6638 -0.3708 -0.0626
 9463SOL    HW140025   1.995   3.474   4.165  1.3443 -1.1763  2.9000
 9463SOL    HW240026   1.991   3.337   4.227 -1.5811  0.6631  2.8078
 9464SOL     OW40027   1.727   1.619   7.972 -0.5892 -0.2168  0.8942
 9464SOL    HW140028   1.726   1.556   8.044 -0.4570 -1.7460 -0.4254
 9464SOL    HW240029   1.654   1.586   7.919 -1.3461 -1.3696  2.6676
 9465SOL     OW40030   3.424   0.191   3.619 -0.3226 -0.0538 -0.2448
 9465SOL    HW140031   3.338   0.172   3.657  0.9112  3.0434  4.0754
 9465SOL    HW240032   3.482   0.194   3.695  0.0382 -2.6719 -0.4045
 9466SOL     OW40033   3.653   1.228   9.564 -0.5267  0.0468  0.4712
 9466SOL    HW140034   3.647   1.321   9.587  0.1938  0.0599  0.6136
 9466SOL    HW240035   3.693   1.220   9.478 -0.6956 -1.9330  0.5906
 9467SOL     OW40036   0.456   1.755   7.352  0.5473  0.2441  0.4646
 9467SOL    HW140037   0.469   1.812   7.275 -0.9195 -0.7800 -0.5334
 9467SOL    HW240038   0.500   1.681   7.310 -0.5500  0.6797 -1.4796
 9468SOL     OW40039   3.174   4.125   9.371  0.1048 -0.0085 -0.2818
 9468SOL    HW140040   3.148   4.197   9.428 -2.4577 -0.8322 -0.3947
 9468SOL    HW240041   3.106   4.060   9.391  2.3972 -1.7056  2.0166
 9469SOL     OW40042   0.768   4.471   3.936  0.0433  0.5494 -0.4177
 9469SOL    HW140043   0.697   4.528   3.964  1.3077  1.8583  0.1751
 9469SOL    HW240044   0.801   4.537   3.874  2.9657 -1.7816 -1.3441
 9470SOL     OW40045   2.450   2.054   1.361 -0.1523  0.2239 -0.5172
 9470SOL    HW140046   2.459   2.140   1.402 -0.4141  0.5367 -1.1290
 9470SOL    HW240047   2.369   2.047   1.311 -0.5333 -1.0246  0.2716
 9471SOL     OW40048   1.411   4.255   3.756  0.0633  0.0288  0.3937
 9471SOL    HW140049   1.337   4.307   3.724  1.3133  0.2275 -2.2251
 9471SOL    HW240050   1.477   4.315   3.793 -1.3522 -0.1323  3.1330
 9472SOL     OW40051   1.444   1.220   9.332 -0.1619 -0.2426  0.2687
 9472SOL    HW140052   1.536   1.225   9.306 -0.2951 -0.0885 -0.1673
 9472SOL    HW240053   1.403   1.254   9.253  0.8785 -1.9070 -0.9880
 9473SOL     OW40054   0.829   0.240   0.528  0.1143  0.2842 -0.2434
 9473SOL    HW140055   0.858   0.218   0.616 -1.8466  0.1180  0.3443
 9473SOL    HW240056   0.890   0.201   0.465  0.5445  0.3453  0.1301
 9474SOL     OW40057   1.070   2.636   7.361  0.0720 -0.2195 -0.3746
 9474SOL    HW140058   1.022   2.657   7.281 -0.2236 -1.7049 -0.5701
 9474SOL    HW240059   1.134   2.579   7.319  2.1185  0.1582  2.1770
 9475SOL     OW40060   1.961   0.243  12.631  0.2509 -0.3856  0.2838
 9475SOL    HW140061   1.879   0.287  12.607  0.8839  0.4464 -0.3232
 9475SOL    HW240062   1.928   0.155  12.649  1.2552 -0.8828 -0.3619
 9476SOL     OW40063   4.673   2.186   8.928  0.2924  0.5409 -0.3058
 9476SOL    HW140064   4.712   2.235   9.000 -0.8881 -0.9211  1.3336
 9476SOL    HW240065   4.580   2.175   8.947  0.9902 -0.1536  2.7372
 9477SOL     OW40066   4.043   2.107   3.351  0.0500 -0.3629  0.2464
 9477SOL    HW140067   4.052   2.196   3.385  0.6665 -0.1932 -0.3676
 9477SOL    HW240068   4.122   2.060   3.380  0.6010 -0.3484 -1.2345
 9478SOL     OW40069   4.188   3.554   1.316  0.3114 -0.2539  0.2884
 9478SOL    HW140070   4.269   3.606   1.318 -0.9855  1.8933 -2.9600
 9478SOL    HW240071   4.146   3.581   1.235 -2.1017  1.7380  2.1904
 9479SOL     OW40072   0.950   4.275   7.457  0.4872  0.1886 -0.5465
 9479SOL    HW140073   0.983   4.348   7.510 -0.0985 -0.9341  1.3500
 9479SOL    HW240074   0.898   4.235   7.527 -0.7864  0.3145 -1.4190
 9480SOL     OW40075   2.100   0.821   7.097  0.6175 -0.4866 -0.3684
 9480SOL    HW140076   2.185   0.851   7.065  1.1607 -1.5914  0.0587
 9480SOL    HW240077   2.105   0.859   7.185 -0.4017 -2.6706  0.6362
 9481SOL     OW40078   3.814   2.664  16.718 -0.0853  0.8304 -0.3420
 9481SOL    HW140079   3.864   2.740  16.748  0.3986  0.0315  0.8737
 9481SOL    HW240080   3.825   2.679  16.624  2.1842  1.7269  0.0772
 9482SOL     OW40081   0.575   1.696  14.003  0.0050  0.4033 -0.0294
 9482SOL    HW140082   0.625   1.712  14.084 -1.0418  1.7908  0.3457
 9482SOL    HW240083   0.595   1.606  13.979 -1.1463 -0.8769  3.6906
 9483SOL     OW40084   2.850   2.917   4.599 -0.0625 -0.5664  0.4513
 9483SOL    HW140085   2.896   2.960   4.671  0.6166  1.4474 -1.1776
 9483SOL    HW240086   2.823   2.830   4.631 -3.5668  0.6795  0.8171
 9484SOL     OW40087   0.512   3.845   0.730  0.8629  0.1895  0.5465
 9484SOL    HW140088   0.435   3.838   0.673  0.4833  1.8675  0.8576
 9484SOL    HW240089   0.522   3.939   0.721 -0.0302  0.2629  0.3350
 9485SOL     OW40090   1.765   4.202   0.901 -0.4941  0.1712 -0.0839
 9485SOL    HW140091   1.765   4.204   0.997  1.5105  0.4312 -0.0909
 9485SOL    HW240092   1.768   4.297   0.894 -0.0263  0.1663  0.0781
 9486SOL     OW40093   4.635   1.485   1.968  0.2658 -0.3604  0.2156
 9486SOL    HW140094   4.614   1.577   1.984  0.3786 -0.3746  0.4460
 9486SOL    HW240095   4.634   1.488   1.873 -1.8756 -1.7631  0.1923
 9487SOL     OW40096   2.126   4.377   1.821  0.2295 -0.3418  0.1463
 9487SOL    HW140097   2.094   4.343   1.904 -0.6454 -2.0169 -0.8977
 9487SOL    HW240098   2.177   4.308   1.779 -1.5924 -1.3466 -0.3717
 9488SOL     OW40099   3.661   4.028   5.760  0.2243  0.5795 -0.2241
 9488SOL    HW140100   3.690   4.041   5.670  1.8461 -1.8470 -0.0419
 9488SOL    HW240101   3.568   4.019   5.738  0.0174 -0.1597  0.9254
 9489SOL     OW40102   1.264   2.836  12.040  0.1974  0.0770  0.1689
 9489SOL    HW140103   1.194   2.868  11.983  1.5744  0.8580 -1.1092
 9489SOL    HW240104   1.276   2.754  11.990 -0.5939 -0.4922  0.9144
 9490SOL     OW40105   1.598   3.864  13.403  0.2939 -0.2228 -0.3224
 9490SOL    HW140106   1.624   3.933  13.342 -2.1865  0.4913 -0.5700
 9490SOL    HW240107   1.630   3.887  13.491 -0.6882  3.0262 -0.8127
 9491SOL     OW40108   1.435   1.238  16.355  0.4039 -0.0965  0.3411
 9491SOL    HW140109   1.512   1.193  16.320  0.1621 -0.4061  0.2082
 9491SOL    HW240110   1.461   1.327  16.333 -1.1180 -0.1275 -1.6281
 9492SOL     OW40111   1.831   4.671   8.368  0.5471  0.0761 -0.1675
 9492SOL    HW140112   1.831   4.576   8.380  0.0330  0.5236  3.5059
 9492SOL    HW240113   1.890   4.700   8.438  0.0408  0.4207  0.1169
 9493SOL     OW40114   4.438   0.470   7.460 -0.0070 -0.1372  0.0122
 9493SOL    HW140115   4.362   0.495   7.407 -0.1658 -3.3020 -1.2338
 9493SOL    HW240116   4.488   0.551   7.455  0.2170 -0.3065 -0.4921
 9494SOL     OW40117   0.018   2.626   9.441  0.0734  0.6901  0.0498
 9494SOL    HW140118   0.046   2.546   9.484 -0.5185  1.7906  2.5153
 9494SOL    HW240119   0.088   2.647   9.380  0.1384 -1.1063 -0.4988
 9495SOL     OW40120   0.324   1.283  12.984  0.1237  0.0872  0.0921
 9495SOL    HW140121   0.274   1.289  13.066 -2.0951  1.6185 -1.3778
 9495SOL    HW240122   0.391   1.347  13.008  3.0361 -2.4209 -1.3835
 9496SOL     OW40123   0.088   2.682   3.934 -0.2453 -0.3727  0.4548
 9496SOL    HW140124   0.079   2.706   3.841 -0.8162 -2.2740  0.0219
 9496SOL    HW240125   0.159   2.741   3.960 -3.0576  2.1518  2.3779
 9497SOL     OW40126   3.203   1.553   6.063  0.0752 -0.9698 -0.1530
 9497SOL    HW140127   3.176   1.586   6.149 -0.3928  0.9200 -1.0283
 9497SOL    HW240128   3.293   1.534   6.088  0.7357 -1.3592 -2.8806
 9498SOL     OW40129   4.323   2.877   9.465 -0.2235  0.7784  0.1891
 9498SOL    HW140130   4.388   2.941   9.494  1.1597 -1.6206  2.4087
 9498SOL    HW240131   4.298   2.834   9.546 -0.3215  1.0704  0.3157
 9499SOL     OW40132   3.717   1.103   9.249 -0.5221  0.0886  0.1871
 9499SOL    HW140133   3.624   1.080   9.250 -0.4620 -0.1879 -0.7105
 9499SOL    HW240134   3.769   1.037   9.294 -0.8822  0.1053  0.6259
 9500SOL     OW40135   3.977   1.548   6.836  0.1071 -0.3730 -0.0727
 9500SOL    HW140136   3.902   1.492   6.853  1.6525 -2.3177  0.2783
 9500SOL    HW240137   3.938   1.618   6.784  2.9391  0.2895 -1.3194
 9501SOL     OW40138   4.057   0.715   4.620 -0.3482  0.5957 -0.1729
 9501SOL    HW140139   3.983   0.716   4.559  2.6898 -0.0600 -3.8707
 9501SOL    HW240140   4.119   0.776   4.581  0.0437 -0.8694 -1.8381
 9502SOL     OW40141   1.422   0.448   4.167  0.4398 -0.0267  0.0595
 9502SOL    HW140142   1.379   0.455   4.253 -0.3942 -0.5355 -0.3136
 9502SOL    HW240143   1.351   0.425   4.106  0.6287  2.1262 -0.9683
 9503SOL     OW40144   0.479   0.055  10.621 -0.0304 -0.1549  0.0928
 9503SOL    HW140145   0.418   0.041  10.693 -0.8156 -0.5009 -0.6454
 9503SOL    HW240146   0.537   0.111  10.673  0.2439  0.6942 -1.1257
 9504SOL     OW40147   1.848   0.034   5.037  0.2693 -0.1428  0.1161
 9504SOL    HW140148   1.771   4.723   5.069 -0.4957  0.1595 -1.2774
 9504SOL    HW240149   1.801   0.078   4.966  0.2944 -0.5330 -0.1418
 9505SOL     OW40150   1.582   0.406   4.899 -0.1637 -0.1126  0.7289
 9505SOL    HW140151   1.551   0.394   4.988  0.0844  1.9026  1.0980
 9505SOL    HW240152   1.671   0.431   4.924  0.0788 -1.4613  1.2082
 9506SOL     OW40153   1.839   2.262   3.289  0.3640  0.1030 -0.3203
 9506SOL    HW140154   1.838   2.312   3.371 -1.4193  0.2580 -0.4372
 9506SOL    HW240155   1.791   2.322   3.232  0.3044  1.0278  0.7047
 9507SOL     OW40156   0.585   4.352   2.198 -0.2169  0.1224 -0.0927
 9507SOL    HW140157   0.496   4.375   2.171  1.2119  1.5532 -3.4934
 9507SOL    HW240158   0.612   4.439   2.225  1.4165  0.4585 -2.8356
 9508SOL     OW40159   2.701   0.007   2.767 -0.9678  0.2492 -0.2492
 9508SOL    HW140160   2.782   0.051   2.792 -0.4413 -0.3505 -0.8750
 9508SOL    HW240161   2.698   4.680   2.840 -0.1469 -0.9813 -1.2578
 9509SOL     OW40162   0.772   1.150  12.473  0.2866  0.1065  0.3470
 9509SOL    HW140163   0.751   1.151  12.567 -1.2335 -1.6819  0.0195
 9509SOL    HW240164   0.698   1.103  12.437  1.6592 -1.2567 -0.7043
 9510SOL     OW40165   1.913   1.058   3.117  0.0566  0.8833  0.5215
 9510SOL    HW140166   1.897   1.119   3.190  1.9538 -0.7369  2.3163
 9510SOL    HW240167   1.995   1.087   3.077 -0.6930 -0.4523 -1.9479
 9511SOL     OW40168   3.414   2.795  10.648  0.0791  0.1129 -0.0147
 9511SOL    HW140169   3.492   2.805  10.593 -0.2046 -1.2664 -0.6651
 9511SOL    HW240170   3.418   2.700  10.662  1.7017  0.0944 -0.5272
 9512SOL     OW40171   3.286   4.102   5.950 -0.2619  0.2070 -0.3136
 9512SOL    HW140172   3.315   4.058   5.870 -1.4352 -0.3185 -0.4509
 9512SOL    HW240173   3.269   4.194   5.931  2.6071  0.5700 -1.2195
 9513SOL     OW40174   0.890   1.572  14.435 -0.0965  0.2284  0.0407
 9513SOL    HW140175   0.978   1.555  14.469 -1.0907 -1.0505  1.9472
 9513SOL    HW240176   0.913   1.546  14.346 -2.4726  0.6531 -0.6840
 9514SOL     OW40177   4.638   0.565   3.907  0.3193 -0.0649 -0.1198
 9514SOL    HW140178   4.630   0.506   3.832  1.1970  1.3156 -1.3193
 9514SOL    HW240179   4.678   0.643   3.868  2.8825 -0.4583  1.7254
 9515SOL     OW40180   0.117   4.732   5.496 -0.2010  0.5311 -0.4814
 9515SOL    HW140181   0.097   0.004   5.403  2.8019 -0.4731 -1.1986
 9515SOL    HW240182   0.163   0.078   5.513 -0.5330  0.8841 -1.2922
 9516SOL     OW40183   4.457   1.480   3.524  0.0396 -0.1419  0.3695
 9516SOL    HW140184   4.386   1.471   3.588 -0.2203 -0.3658  0.0498
 9516SOL    HW240185   4.472   1.388   3.501  0.0885  0.1598 -0.7964
 9517SOL     OW40186   4.706   1.556  11.462  0.0596 -0.0658  0.3002
 9517SOL    HW140187   4.717   1.482  11.522  0.0464 -1.7897 -1.8310
 9517SOL    HW240188   4.616   1.550  11.430 -0.3273  1.0057  1.2182
 9518SOL     OW40189   4.539   2.512   2.371  0.0463 -0.3929  0.7699
 9518SOL    HW140190   4.465   2.462   2.406  0.7564 -2.1114 -0.1731
 9518SOL    HW240191   4.597   2.437   2.357 -3.5698 -3.2412  1.0342
 9519SOL     OW40192   4.728   4.390   3.017  0.3430  0.3743  0.0898
 9519SOL    HW140193   0.030   4.425   2.936  0.0240  0.7910  0.1219
 9519SOL    HW240194   0.067   4.349   3.060 -1.3655 -1.9613  0.8240
 9520SOL     OW40195   3.867   0.551   7.095  0.1158  0.1238 -0.5312
 9520SOL    HW140196   3.891   0.644   7.096 -1.1221  0.4349  0.2576
 9520SOL    HW240197   3.813   0.547   7.174  0.6925 -0.7559 -0.1763
 9521SOL     OW40198   4.544   3.377   2.410 -0.2929  0.1037  0.1969
 9521SOL    HW140199   4.589   3.355   2.328 -1.1574  1.4877 -0.6534
 9521SOL    HW240200   4.615   3.420   2.458  0.2926 -0.8675  0.1999
 9522SOL     OW40201   3.889   4.614   2.899 -0.1545 -0.2668  0.0888
 9522SOL    HW140202   3.860   4.601   2.808  0.7985 -3.1393  0.1837
 9522SOL    HW240203   3.976   4.573   2.906 -0.1053 -0.4984 -1.9238
 9523SOL     OW40204   1.895   1.862   3.541 -0.0899  0.5886  0.2439
 9523SOL    HW140205   1.889   1.803   3.466  1.9613  1.2095 -0.3934
 9523SOL    HW240206   1.919   1.794   3.604  1.0041  0.6056 -0.1571
 9524SOL     OW40207   0.385   2.693   7.781  0.4969  0.1741 -0.6170
 9524SOL    HW140208   0.395   2.647   7.864 -3.7178  1.1507  0.4568
 9524SOL    HW240209   0.316   2.646   7.735  2.0184  0.3853 -3.1232
 9525SOL     OW40210   2.962   1.981  10.812 -0.2558  0.6075  0.3324
 9525SOL    HW140211   2.921   1.894  10.813 -1.6241  1.2403 -0.8385
 9525SOL    HW240212   2.898   2.030  10.862 -1.2103 -0.5421  0.2571
 9526SOL     OW40213   1.331   1.119   6.678  0.1017  0.8943 -0.1141
 9526SOL    HW140214   1.389   1.110   6.602  0.4248 -0.6694  0.3082
 9526SOL    HW240215   1.394   1.166   6.733 -0.4360  0.3268  0.9950
 9527SOL     OW40216   1.483   4.639   0.856  0.1426 -0.1984  0.1327
 9527SOL    HW140217   1.492   4.629   0.951 -1.3015  0.1394  0.3139
 9527SOL    HW240218   1.573   4.657   0.831  0.4272 -0.1300  1.2114
 9528SOL     OW40219   3.104   2.827   6.518 -0.1827  0.2673  0.1819
 9528SOL    HW140220   3.014   2.859   6.519  0.2615  1.5373 -0.9414
 9528SOL    HW240221   3.104   2.838   6.423 -1.0271  1.4100  0.3173
 9529SOL     OW40222   3.297   3.579  16.293  0.2362 -0.2777  0.4670
 9529SOL    HW140223   3.242   3.520  16.345 -1.8597  2.0265  0.8825
 9529SOL    HW240224   3.342   3.511  16.242  2.3898 -0.0735  2.1271
 9530SOL     OW40225   3.239   1.616  10.018  0.1685  0.4321 -0.3353
 9530SOL    HW140226   3.193   1.596  10.100  0.7609 -0.9099 -0.3339
 9530SOL    HW240227   3.311   1.673  10.042  2.1120 -1.8466 -0.7994
 9531SOL     OW40228   2.939   3.316   4.164  0.0449 -0.5567  0.1754
 9531SOL    HW140229   2.926   3.221   4.169 -1.4846 -0.4619 -1.5608
 9531SOL    HW240230   2.851   3.341   4.136  0.2244  0.7837  0.8493
 9532SOL     OW40231   1.318   4.431  17.511  0.2082  0.0744 -0.3399
 9532SOL    HW140232   1.392   4.419  17.451  0.8049 -0.9061  0.5880
 9532SOL    HW240233   1.370   4.469  17.582  0.8751  0.6272 -1.1261
 9533SOL     OW40234   0.559   2.316   1.932 -0.0211  0.2019 -0.2618
 9533SOL    HW140235   0.599   2.384   1.986 -1.2563  0.6298  0.1299
 9533SOL    HW240236   0.498   2.367   1.880 -0.1579 -0.3452 -0.6406
 9534SOL     OW40237   0.753   2.333   4.061 -0.4426  1.0031  0.5860
 9534SOL    HW140238   0.696   2.260   4.083  1.7434 -1.0359 -0.4598
 9534SOL    HW240239   0.765   2.324   3.966 -1.0056 -0.4761  0.6548
 9535SOL     OW40240   3.117   1.319   4.289 -0.5770  0.4287  0.2661
 9535SOL    HW140241   3.123   1.319   4.194 -1.1654  2.3684  0.2218
 9535SOL    HW240242   3.106   1.413   4.300 -2.1772  0.5829 -2.8366
 9536SOL     OW40243   0.922   0.302   4.090  0.0640  0.1680 -0.0026
 9536SOL    HW140244   0.945   0.278   4.000 -0.6816 -0.9162  0.1022
 9536SOL    HW240245   0.833   0.335   4.078 -0.2060 -0.2860  0.7415
 9537SOL     OW40246   2.185   3.902   0.526 -0.3769 -0.5374 -0.2729
 9537SOL    HW140247   2.194   3.897   0.431 -1.0407 -2.4145 -0.2485
 9537SOL    HW240248   2.098   3.941   0.529 -0.0760  0.3399 -2.5360
 9538SOL     OW40249   3.223   1.818   5.580  0.0166 -0.1853  0.0137
 9538SOL    HW140250   3.317   1.800   5.584  0.0003 -0.2628  0.0514
 9538SOL    HW240251   3.206   1.810   5.674  1.2594 -1.0344  0.1635
 9539SOL     OW40252   1.172   0.895   8.784  0.1702  0.4909 -0.0385
 9539SOL    HW140253   1.118   0.816   8.778 -2.7402  2.6127 -2.1396
 9539SOL    HW240254   1.161   0.930   8.872 -0.5641  3.0408 -1.1340
 9540SOL     OW40255   3.270   0.601   7.440  0.7546 -0.6689  0.1450
 9540SOL    HW140256   3.331   0.668   7.471 -0.6522  0.3637  0.7137
 9540SOL    HW240257   3.286   0.616   7.347  0.9183  1.3200  0.4887
 9541SOL     OW40258   4.108   4.042  10.710  0.4032 -0.0976 -0.0391
 9541SOL    HW140259   4.097   3.960  10.662 -1.1652  1.3981 -2.2814
 9541SOL    HW240260   4.098   4.016  10.801 -0.6426  0.1269 -0.0842
 9542SOL     OW40261   1.605   2.006   6.731  0.0713  0.2042  0.0621
 9542SOL    HW140262   1.554   2.048   6.800  1.5431  0.0960  1.2016
 9542SOL    HW240263   1.554   1.947   6.675  1.7642 -2.1829  1.0568
 9543SOL     OW40264   2.878   1.133   4.568 -0.1962 -0.3342  0.0102
 9543SOL    HW140265   2.963   1.133   4.524  0.2378 -0.2044  0.8471
 9543SOL    HW240266   2.905   1.089   4.649  0.6329 -1.4074 -0.8535
 9544SOL     OW40267   1.496   4.240  13.914 -0.5231  0.1219  0.2124
 9544SOL    HW140268   1.411   4.278  13.893  0.9862  3.3162 -0.2069
 9544SOL    HW240269   1.501   4.254  14.008  3.7704  3.5492 -0.4920
 9545SOL     OW40270   3.227   0.120   8.885 -0.4322 -0.2798 -0.1020
 9545SOL    HW140271   3.216   0.098   8.977  2.3537  2.5830  0.9255
 9545SOL    HW240272   3.316   0.156   8.878 -0.4642 -0.0974  0.4446
 9546SOL     OW40273   2.543   1.163  16.897  0.0331  0.1155 -0.5309
 9546SOL    HW140274   2.520   1.071  16.887 -2.8373  0.7132  0.4897
 9546SOL    HW240275   2.530   1.192  16.806 -0.4877  1.8826  0.0945
 9547SOL     OW40276   2.888   0.398   3.059  0.2036 -0.1191  0.9539
 9547SOL    HW140277   2.932   0.461   3.002 -0.2267 -0.6577  0.0361
 9547SOL    HW240278   2.924   0.428   3.143  0.2755  0.8648  0.5652
 9548SOL     OW40279   3.897   1.836   5.007 -0.2574  0.5074 -0.0086
 9548SOL    HW140280   3.971   1.862   5.062  0.9890 -3.6499  0.2730
 9548SOL    HW240281   3.939   1.818   4.923  1.3893 -0.4028  1.0072
 9549SOL     OW40282   0.956   2.905   7.627 -0.1073 -0.5915  0.0589
 9549SOL    HW140283   0.968   2.993   7.592 -0.9457 -0.2956  0.5158
 9549SOL    HW240284   0.862   2.912   7.646 -0.1353 -0.7292 -0.0309
 9550SOL     OW40285   0.193   3.257   5.869 -0.6299  0.5788  0.0862
 9550SOL    HW140286   0.175   3.191   5.802  1.5352 -0.1093  0.2065
 9550SOL    HW240287   0.111   3.307   5.865 -2.1266 -1.8164  0.8178
 9551SOL     OW40288   4.154   3.116   9.286 -0.0275 -0.1199 -0.5994
 9551SOL    HW140289   4.151   3.020   9.283 -1.0432 -0.0633 -1.6933
 9551SOL    HW240290   4.195   3.134   9.202 -0.2006 -0.8080 -0.8314
 9552SOL     OW40291   3.300   0.697   7.175 -0.3960  0.1168 -0.4139
 9552SOL    HW140292   3.353   0.628   7.137  0.4971  0.4084  0.3044
 9552SOL    HW240293   3.225   0.706   7.117 -0.0463  0.6037 -0.7955
 9553SOL     OW40294   2.179   1.445   3.208  0.0163  0.2687 -0.4956
 9553SOL    HW140295   2.160   1.491   3.290  1.1191 -1.4315  0.7133
 9553SOL    HW240296   2.120   1.484   3.144 -1.4658  0.2044  0.8245
 9554SOL     OW40297   3.977   3.173  15.983 -0.4816 -0.3853 -0.1674
 9554SOL    HW140298   3.970   3.223  15.902 -2.3865 -1.4425 -0.6457
 9554SOL    HW240299   4.025   3.237  16.037  0.6432 -0.7242 -0.7775
 9555SOL     OW40300   1.709   3.509  13.056 -0.6949 -0.4705  0.1428
 9555SOL    HW140301   1.751   3.518  13.142 -0.6573  0.8282 -0.0110
 9555SOL    HW240302   1.674   3.420  13.063 -1.4562 -0.1048  0.9963
 9556SOL     OW40303   4.617   2.377   6.614  0.1069  0.1970 -0.3207
 9556SOL    HW140304   4.669   2.313   6.565  1.5580  1.7319 -0.7797
 9556SOL    HW240305   4.586   2.447   6.557  2.2779  0.1208 -1.5468
 9557SOL     OW40306   0.437   0.697   2.963 -0.4537  0.0759  0.0755
 9557SOL    HW140307   0.420   0.698   2.868  0.0339 -1.0026 -0.0251
 9557SOL    HW240308   0.358   0.664   3.005 -1.7426  1.5727 -1.1326
 9558SOL     OW40309   1.616   0.067   8.896  0.0734  0.0119 -0.4470
 9558SOL    HW140310   1.562   0.037   8.969  0.6758 -0.5855 -0.2412
 9558SOL    HW240311   1.613   0.005   8.823 -2.3161 -0.3935  0.0201
 9559SOL     OW40312   4.300   0.854   4.570 -0.7524  0.3123 -0.1120
 9559SOL    HW140313   4.254   0.934   4.593 -1.6336 -0.0026 -0.7761
 9559SOL    HW240314   4.330   0.878   4.482 -0.0871 -0.5518 -0.1221
 9560SOL     OW40315   2.133   1.118  13.587 -0.2326  0.2571 -0.1230
 9560SOL    HW140316   2.057   1.162  13.549  0.3433  1.0425 -0.3679
 9560SOL    HW240317   2.134   1.167  13.670 -1.4110  1.4865 -0.8384
 9561SOL     OW40318   3.878   4.518   4.404 -0.1305  0.1756  0.1090
 9561SOL    HW140319   3.832   4.489   4.483 -1.8330  2.9025  0.1445
 9561SOL    HW240320   3.821   4.468   4.345 -0.9863 -1.3172  2.1970
 9562SOL     OW40321   1.597   3.444   4.806 -0.4714 -0.1439 -0.6464
 9562SOL    HW140322   1.689   3.468   4.821 -0.1716 -0.6507 -1.6887
 9562SOL    HW240323   1.577   3.531   4.771  2.9946  0.2343 -1.7261
 9563SOL     OW40324   3.290   2.139   3.808  0.1099 -0.3849  0.3602
 9563SOL    HW140325   3.215   2.132   3.749  0.2701 -0.5006  0.1698
 9563SOL    HW240326   3.253   2.127   3.895  0.5389  1.7145  0.8325
 9564SOL     OW40327   4.620   1.943  17.594 -0.0020 -0.2336 -0.4497
 9564SOL    HW140328   4.532   1.921  17.561 -0.2661  1.1259 -0.6473
 9564SOL    HW240329   4.640   2.019  17.540 -1.2077 -0.2063 -0.8631
 9565SOL     OW40330   2.277   3.749   3.733  0.3523  0.4414  0.0234
 9565SOL    HW140331   2.222   3.742   3.655 -1.8226  0.6303  1.5410
 9565SOL    HW240332   2.280   3.657   3.757  1.9674  0.3041 -0.6655
 9566SOL     OW40333   2.552   1.365   3.058  0.2709 -0.1132 -0.0330
 9566SOL    HW140334   2.621   1.403   3.003  0.4714 -2.7530 -1.6422
 9566SOL    HW240335   2.477   1.413   3.023 -1.4108 -2.9735 -0.2850
 9567SOL     OW40336   3.153   2.364  11.567 -0.3639  0.3196 -0.1601
 9567SOL    HW140337   3.129   2.390  11.656  1.8905 -0.8306  0.7761
 9567SOL    HW240338   3.073   2.372  11.516 -0.6501  1.0393  0.4009
 9568SOL     OW40339   2.292   1.187  11.352  0.3560 -0.8363 -0.0057
 9568SOL    HW140340   2.368   1.208  11.406  0.7883  1.2437 -1.4419
 9568SOL    HW240341   2.284   1.273  11.310  1.9660 -0.7656 -0.1689
 9569SOL     OW40342   3.789   4.495  15.355 -0.1267 -0.2365 -0.3473
 9569SOL    HW140343   3.750   4.582  15.356 -2.1545 -1.1257 -0.8278
 9569SOL    HW240344   3.720   4.436  15.325 -0.9970  1.5461 -1.8268
   4.73583   4.73583  17.74199
